       N       E                     dE             d eps       ncg     rms          rms(c)
DAV:   1     0.147387439337E+04    0.14739E+04   -0.59298E+04  1816   0.149E+03
DAV:   2     0.157175376638E+03   -0.13167E+04   -0.12709E+04  1808   0.431E+02
DAV:   3    -0.594772527064E+02   -0.21665E+03   -0.21058E+03  2072   0.186E+02
DAV:   4    -0.758697587395E+02   -0.16393E+02   -0.16234E+02  2088   0.465E+01
DAV:   5    -0.766610925336E+02   -0.79133E+00   -0.78954E+00  2360   0.107E+01    0.143E+01
DAV:   6    -0.719114047472E+02    0.47497E+01   -0.86669E+00  2408   0.221E+01    0.997E+00
DAV:   7    -0.716867936803E+02    0.22461E+00   -0.43142E+00  2456   0.625E+00    0.484E+00
DAV:   8    -0.717036520906E+02   -0.16858E-01   -0.37518E-01  2320   0.330E+00    0.240E+00
DAV:   9    -0.717164790361E+02   -0.12827E-01   -0.91800E-02  2480   0.159E+00    0.706E-01
DAV:  10    -0.717169255570E+02   -0.44652E-03   -0.55217E-03  2480   0.463E-01    0.380E-01
DAV:  11    -0.717212898664E+02   -0.43643E-02   -0.65883E-03  2144   0.251E-01    0.134E-01
DAV:  12    -0.717212411322E+02    0.48734E-04   -0.35501E-04  2680   0.104E-01    0.118E-01
DAV:  13    -0.717213064599E+02   -0.65328E-04   -0.13461E-04  1952   0.337E-02    0.250E-02
DAV:  14    -0.717213095686E+02   -0.31087E-05   -0.42925E-05  2104   0.315E-02    0.162E-02
DAV:  15    -0.717213180506E+02   -0.84820E-05   -0.13529E-05  1608   0.124E-02    0.562E-03
DAV:  16    -0.717213185106E+02   -0.46000E-06   -0.55720E-07  1360   0.382E-03
   1 F= -.71721319E+02 E0= -.71721319E+02  d E =-.446504E-17
 Found    24 degrees of freedom:
 Adding 6 more for cell shape distortion
       N       E                     dE             d eps       ncg     rms          rms(c)
DAV:   1    -0.727237583719E+02   -0.10024E+01   -0.39900E+01  2272   0.418E+01    0.747E+00
DAV:   2    -0.719264964974E+02    0.79726E+00   -0.21868E+00  2256   0.105E+01    0.342E+00
DAV:   3    -0.716750075369E+02    0.25149E+00   -0.57725E-01  2328   0.460E+00    0.158E+00
DAV:   4    -0.716558949585E+02    0.19113E-01   -0.49452E-02  2088   0.894E-01    0.718E-01
DAV:   5    -0.716498075577E+02    0.60874E-02   -0.69980E-03  2464   0.518E-01    0.262E-01
DAV:   6    -0.716497913098E+02    0.16248E-04   -0.17874E-03  2136   0.250E-01    0.121E-01
DAV:   7    -0.716498110376E+02   -0.19728E-04   -0.18555E-04  2440   0.529E-02    0.676E-02
DAV:   8    -0.716498167778E+02   -0.57402E-05   -0.31414E-05  1864   0.236E-02    0.246E-02
DAV:   9    -0.716498166806E+02    0.97210E-07   -0.56890E-06  1728   0.927E-03
   2 F= -.71649817E+02 E0= -.71649817E+02  d E =-.526073E-14
       N       E                     dE             d eps       ncg     rms          rms(c)
DAV:   1    -0.719649492676E+02   -0.31513E+00   -0.94679E+00  2272   0.193E+01    0.396E+00
DAV:   2    -0.717689361267E+02    0.19601E+00   -0.52239E-01  2312   0.529E+00    0.170E+00
DAV:   3    -0.717112390044E+02    0.57697E-01   -0.11749E-01  2336   0.210E+00    0.891E-01
DAV:   4    -0.717047437116E+02    0.64953E-02   -0.11192E-02  2392   0.443E-01    0.365E-01
DAV:   5    -0.717033739978E+02    0.13697E-02   -0.17701E-03  2352   0.266E-01    0.108E-01
DAV:   6    -0.717034056968E+02   -0.31699E-04   -0.40376E-04  2112   0.114E-01    0.599E-02
DAV:   7    -0.717034096241E+02   -0.39273E-05   -0.49440E-05  2304   0.320E-02    0.210E-02
DAV:   8    -0.717034107408E+02   -0.11166E-05   -0.50209E-06  1720   0.125E-02    0.763E-03
DAV:   9    -0.717034106808E+02    0.60001E-07   -0.23967E-06  1472   0.575E-03
   3 F= -.71703411E+02 E0= -.71703411E+02  d E =-.293428E-15
       N       E                     dE             d eps       ncg     rms          rms(c)
DAV:   1    -0.727729139980E+02   -0.10695E+01   -0.38983E+01  2296   0.388E+01    0.845E+00
DAV:   2    -0.719700255276E+02    0.80289E+00   -0.22216E+00  2376   0.111E+01    0.352E+00
DAV:   3    -0.717387382491E+02    0.23129E+00   -0.41419E-01  2336   0.398E+00    0.191E+00
DAV:   4    -0.717034514244E+02    0.35287E-01   -0.47892E-02  2416   0.104E+00    0.809E-01
DAV:   5    -0.716976042354E+02    0.58472E-02   -0.72920E-03  2480   0.502E-01    0.247E-01
DAV:   6    -0.716976749937E+02   -0.70758E-04   -0.13283E-03  2128   0.202E-01    0.136E-01
DAV:   7    -0.716976976348E+02   -0.22641E-04   -0.19138E-04  2400   0.599E-02    0.266E-02
DAV:   8    -0.716976961474E+02    0.14874E-05   -0.25619E-05  2008   0.254E-02    0.191E-02
DAV:   9    -0.716976963037E+02   -0.15627E-06   -0.13980E-05  1744   0.929E-03    0.973E-03
DAV:  10    -0.716976969802E+02   -0.67649E-06   -0.13362E-06  1360   0.554E-03
   4 F= -.71697697E+02 E0= -.71697697E+02  d E =-.174916E-17
       N       E                     dE             d eps       ncg     rms          rms(c)
DAV:   1    -0.719092868584E+02   -0.21159E+00   -0.10318E+01  2296   0.205E+01    0.427E+00
DAV:   2    -0.717002271214E+02    0.20906E+00   -0.57022E-01  2328   0.565E+00    0.180E+00
DAV:   3    -0.716376994252E+02    0.62528E-01   -0.11758E-01  2336   0.217E+00    0.947E-01
DAV:   4    -0.716296164978E+02    0.80829E-02   -0.12477E-02  2392   0.482E-01    0.420E-01
DAV:   5    -0.716280359271E+02    0.15806E-02   -0.20322E-03  2488   0.261E-01    0.128E-01
DAV:   6    -0.716280585705E+02   -0.22643E-04   -0.37724E-04  2136   0.113E-01    0.695E-02
DAV:   7    -0.716280639500E+02   -0.53795E-05   -0.58383E-05  2512   0.311E-02    0.187E-02
DAV:   8    -0.716280635616E+02    0.38838E-06   -0.85306E-06  1864   0.141E-02
   5 F= -.71628064E+02 E0= -.71628064E+02  d E =-.148618E-19
       N       E                     dE             d eps       ncg     rms          rms(c)
DAV:   1    -0.750041885453E+02   -0.33761E+01   -0.10818E+02  2312   0.825E+01    0.129E+01
DAV:   2    -0.723704689842E+02    0.26337E+01   -0.64925E+00  2272   0.184E+01    0.562E+00
DAV:   3    -0.716904458960E+02    0.68002E+00   -0.17799E+00  2320   0.898E+00    0.250E+00
DAV:   4    -0.716498602890E+02    0.40586E-01   -0.11866E-01  2000   0.138E+00    0.122E+00
DAV:   5    -0.716296339699E+02    0.20226E-01   -0.12402E-02  2536   0.824E-01    0.466E-01
DAV:   6    -0.716292366474E+02    0.39732E-03   -0.27949E-03  2008   0.304E-01    0.188E-01
DAV:   7    -0.716292393742E+02   -0.27268E-05   -0.31086E-04  2232   0.744E-02    0.926E-02
DAV:   8    -0.716292482273E+02   -0.88531E-05   -0.73376E-05  2064   0.324E-02    0.334E-02
DAV:   9    -0.716292479936E+02    0.23373E-06   -0.54602E-06  1856   0.141E-02
   6 F= -.71629248E+02 E0= -.71629248E+02  d E =-.404684E-11
       N       E                     dE             d eps       ncg     rms          rms(c)
DAV:   1    -0.719532957122E+02   -0.32405E+00   -0.93770E+00  2288   0.193E+01    0.390E+00
DAV:   2    -0.717609521837E+02    0.19234E+00   -0.51272E-01  2288   0.515E+00    0.170E+00
DAV:   3    -0.717044560437E+02    0.56496E-01   -0.11603E-01  2344   0.210E+00    0.861E-01
DAV:   4    -0.716984006658E+02    0.60554E-02   -0.11207E-02  2304   0.399E-01    0.352E-01
DAV:   5    -0.716971981291E+02    0.12025E-02   -0.14776E-03  2520   0.240E-01    0.108E-01
DAV:   6    -0.716972315483E+02   -0.33419E-04   -0.34568E-04  1976   0.105E-01    0.501E-02
DAV:   7    -0.716972346928E+02   -0.31446E-05   -0.34393E-05  2320   0.210E-02    0.207E-02
DAV:   8    -0.716972359268E+02   -0.12340E-05   -0.23772E-06  1528   0.842E-03    0.752E-03
DAV:   9    -0.716972359879E+02   -0.61087E-07   -0.18076E-06  1448   0.468E-03
   7 F= -.71697236E+02 E0= -.71697236E+02  d E =-.118111E-13
       N       E                     dE             d eps       ncg     rms          rms(c)
DAV:   1    -0.727441585854E+02   -0.10469E+01   -0.38458E+01  2288   0.388E+01    0.826E+00
DAV:   2    -0.719592745009E+02    0.78488E+00   -0.21934E+00  2336   0.110E+01    0.349E+00
DAV:   3    -0.717315866049E+02    0.22769E+00   -0.42882E-01  2352   0.406E+00    0.185E+00
DAV:   4    -0.716999992459E+02    0.31587E-01   -0.41692E-02  2408   0.850E-01    0.709E-01
DAV:   5    -0.716954081191E+02    0.45911E-02   -0.57108E-03  2432   0.425E-01    0.223E-01
DAV:   6    -0.716954769838E+02   -0.68865E-04   -0.90303E-04  1992   0.167E-01    0.106E-01
DAV:   7    -0.716954983560E+02   -0.21372E-04   -0.12135E-04  2336   0.394E-02    0.320E-02
DAV:   8    -0.716955009224E+02   -0.25663E-05   -0.98017E-06  1840   0.149E-02    0.153E-02
DAV:   9    -0.716955006965E+02    0.22591E-06   -0.64034E-06  1640   0.772E-03
   8 F= -.71695501E+02 E0= -.71695501E+02  d E =-.148522E-12
       N       E                     dE             d eps       ncg     rms          rms(c)
DAV:   1    -0.718868860087E+02   -0.19139E+00   -0.10153E+01  2304   0.205E+01    0.416E+00
DAV:   2    -0.716831511580E+02    0.20373E+00   -0.56783E-01  2296   0.560E+00    0.179E+00
DAV:   3    -0.716217829369E+02    0.61368E-01   -0.11971E-01  2344   0.223E+00    0.919E-01
DAV:   4    -0.716147062894E+02    0.70766E-02   -0.11380E-02  2344   0.428E-01    0.373E-01
DAV:   5    -0.716134021818E+02    0.13041E-02   -0.14496E-03  2344   0.237E-01    0.110E-01
DAV:   6    -0.716134327767E+02   -0.30595E-04   -0.30833E-04  1984   0.986E-02    0.487E-02
DAV:   7    -0.716134354384E+02   -0.26618E-05   -0.33746E-05  2368   0.242E-02    0.208E-02
DAV:   8    -0.716134370168E+02   -0.15784E-05   -0.37376E-06  1720   0.982E-03    0.805E-03
DAV:   9    -0.716134367580E+02    0.25878E-06   -0.19484E-06  1456   0.457E-03
   9 F= -.71613437E+02 E0= -.71613437E+02  d E =-.129527E-16
       N       E                     dE             d eps       ncg     rms          rms(c)
DAV:   1    -0.749938983004E+02   -0.33805E+01   -0.10808E+02  2320   0.829E+01    0.128E+01
DAV:   2    -0.723727920497E+02    0.26211E+01   -0.64518E+00  2288   0.184E+01    0.563E+00
DAV:   3    -0.716846506377E+02    0.68814E+00   -0.18178E+00  2320   0.912E+00    0.244E+00
DAV:   4    -0.716459936199E+02    0.38657E-01   -0.12177E-01  1992   0.141E+00    0.124E+00
DAV:   5    -0.716260668241E+02    0.19927E-01   -0.13396E-02  2624   0.793E-01    0.474E-01
DAV:   6    -0.716257471911E+02    0.31963E-03   -0.26278E-03  1976   0.283E-01    0.208E-01
DAV:   7    -0.716257632278E+02   -0.16037E-04   -0.38580E-04  2368   0.819E-02    0.102E-01
DAV:   8    -0.716257867419E+02   -0.23514E-04   -0.15046E-04  2136   0.443E-02    0.460E-02
DAV:   9    -0.716257847277E+02    0.20142E-05   -0.10868E-05  2096   0.200E-02    0.184E-02
DAV:  10    -0.716257868856E+02   -0.21579E-05   -0.47644E-06  1712   0.987E-03    0.718E-03
DAV:  11    -0.716257885494E+02   -0.16638E-05   -0.16868E-06  1392   0.445E-03    0.911E-03
DAV:  12    -0.716257885917E+02   -0.42341E-07   -0.24966E-07  1328   0.297E-03
  10 F= -.71625789E+02 E0= -.71625789E+02  d E =-.150672E-15
       N       E                     dE             d eps       ncg     rms          rms(c)
DAV:   1    -0.719511809902E+02   -0.32539E+00   -0.93409E+00  2296   0.193E+01    0.392E+00
DAV:   2    -0.717588644252E+02    0.19232E+00   -0.52166E-01  2272   0.529E+00    0.171E+00
DAV:   3    -0.717030089560E+02    0.55855E-01   -0.11639E-01  2328   0.214E+00    0.872E-01
DAV:   4    -0.716970519072E+02    0.59570E-02   -0.11141E-02  2208   0.456E-01    0.368E-01
DAV:   5    -0.716958320177E+02    0.12199E-02   -0.17321E-03  2448   0.258E-01    0.117E-01
DAV:   6    -0.716958625359E+02   -0.30518E-04   -0.35370E-04  2000   0.108E-01    0.541E-02
DAV:   7    -0.716958667682E+02   -0.42324E-05   -0.41554E-05  2320   0.240E-02    0.239E-02
DAV:   8    -0.716958682867E+02   -0.15185E-05   -0.37737E-06  1632   0.877E-03    0.800E-03
DAV:   9    -0.716958684372E+02   -0.15050E-06   -0.18446E-06  1520   0.428E-03
  11 F= -.71695868E+02 E0= -.71695868E+02  d E =-.501880E-12
       N       E                     dE             d eps       ncg     rms          rms(c)
DAV:   1    -0.727447363042E+02   -0.10489E+01   -0.38403E+01  2320   0.388E+01    0.834E+00
DAV:   2    -0.719594768827E+02    0.78526E+00   -0.22346E+00  2376   0.112E+01    0.352E+00
DAV:   3    -0.717343400696E+02    0.22514E+00   -0.41033E-01  2328   0.404E+00    0.187E+00
DAV:   4    -0.717015370431E+02    0.32803E-01   -0.45789E-02  2352   0.100E+00    0.801E-01
DAV:   5    -0.716962752167E+02    0.52618E-02   -0.69557E-03  2456   0.503E-01    0.250E-01
DAV:   6    -0.716963549079E+02   -0.79691E-04   -0.12457E-03  1984   0.213E-01    0.118E-01
DAV:   7    -0.716963793504E+02   -0.24442E-04   -0.14766E-04  2400   0.480E-02    0.392E-02
DAV:   8    -0.716963832197E+02   -0.38693E-05   -0.16175E-05  1896   0.185E-02    0.152E-02
DAV:   9    -0.716963831064E+02    0.11338E-06   -0.77545E-06  1624   0.776E-03
  12 F= -.71696383E+02 E0= -.71696383E+02  d E =-.562312E-13
       N       E                     dE             d eps       ncg     rms          rms(c)
DAV:   1    -0.718896564191E+02   -0.19327E+00   -0.10161E+01  2320   0.205E+01    0.421E+00
DAV:   2    -0.716850340425E+02    0.20462E+00   -0.56914E-01  2304   0.564E+00    0.180E+00
DAV:   3    -0.716237916153E+02    0.61242E-01   -0.11945E-01  2328   0.223E+00    0.930E-01
DAV:   4    -0.716164902774E+02    0.73013E-02   -0.12103E-02  2376   0.480E-01    0.401E-01
DAV:   5    -0.716151000294E+02    0.13902E-02   -0.19446E-03  2368   0.260E-01    0.129E-01
DAV:   6    -0.716151292533E+02   -0.29224E-04   -0.35184E-04  2008   0.109E-01    0.578E-02
DAV:   7    -0.716151337191E+02   -0.44658E-05   -0.43083E-05  2536   0.267E-02    0.262E-02
DAV:   8    -0.716151351808E+02   -0.14617E-05   -0.50293E-06  1600   0.110E-02    0.938E-03
DAV:   9    -0.716151350289E+02    0.15187E-06   -0.21671E-06  1560   0.469E-03
  13 F= -.71615135E+02 E0= -.71615135E+02  d E =-.193617E-19
       N       E                     dE             d eps       ncg     rms          rms(c)
DAV:   1    -0.729906635529E+02   -0.13755E+01   -0.55335E+01  2296   0.471E+01    0.847E+00
DAV:   2    -0.720602172743E+02    0.93045E+00   -0.27599E+00  2240   0.117E+01    0.405E+00
DAV:   3    -0.717244013696E+02    0.33582E+00   -0.66830E-01  2336   0.491E+00    0.178E+00
DAV:   4    -0.716972353599E+02    0.27166E-01   -0.63100E-02  2160   0.102E+00    0.788E-01
DAV:   5    -0.716911227319E+02    0.61126E-02   -0.78982E-03  2568   0.537E-01    0.317E-01
DAV:   6    -0.716911205306E+02    0.22014E-05   -0.20234E-03  2176   0.285E-01    0.129E-01
DAV:   7    -0.716911452346E+02   -0.24704E-04   -0.16904E-04  2552   0.657E-02    0.785E-02
DAV:   8    -0.716911594088E+02   -0.14174E-04   -0.43830E-05  2056   0.279E-02    0.255E-02
DAV:   9    -0.716911593314E+02    0.77400E-07   -0.62939E-06  1960   0.126E-02
  14 F= -.71691159E+02 E0= -.71691159E+02  d E =-.105308E-15
       N       E                     dE             d eps       ncg     rms          rms(c)
DAV:   1    -0.717638659176E+02   -0.72707E-01   -0.33343E+00  1840   0.769E+00    0.168E+00
DAV:   2    -0.717344914969E+02    0.29374E-01   -0.95484E-02  2320   0.183E+00    0.101E+00
DAV:   3    -0.717143849466E+02    0.20107E-01   -0.15839E-02  2768   0.719E-01    0.289E-01
DAV:   4    -0.717135976026E+02    0.78734E-03   -0.46268E-03  2288   0.321E-01    0.154E-01
DAV:   5    -0.717135920872E+02    0.55154E-05   -0.57434E-04  2280   0.119E-01    0.775E-02
DAV:   6    -0.717135979960E+02   -0.59088E-05   -0.85486E-05  2224   0.361E-02    0.418E-02
DAV:   7    -0.717135999887E+02   -0.19927E-05   -0.98196E-06  2120   0.127E-02    0.252E-02
DAV:   8    -0.717135996707E+02    0.31808E-06   -0.34604E-06  1480   0.678E-03
  15 F= -.71713600E+02 E0= -.71713600E+02  d E =-.117921E-15
       N       E                     dE             d eps       ncg     rms          rms(c)
DAV:   1    -0.719162684723E+02   -0.20267E+00   -0.13350E+01  1912   0.153E+01    0.337E+00
DAV:   2    -0.717972724824E+02    0.11900E+00   -0.36799E-01  2328   0.354E+00    0.203E+00
DAV:   3    -0.717169445219E+02    0.80328E-01   -0.62599E-02  2472   0.137E+00    0.584E-01
DAV:   4    -0.717136251708E+02    0.33194E-02   -0.18570E-02  2304   0.594E-01    0.318E-01
DAV:   5    -0.717135593044E+02    0.65866E-04   -0.20489E-03  2360   0.232E-01    0.154E-01
DAV:   6    -0.717135926931E+02   -0.33389E-04   -0.35995E-04  2144   0.755E-02    0.827E-02
DAV:   7    -0.717136020976E+02   -0.94045E-05   -0.45091E-05  2376   0.281E-02    0.444E-02
DAV:   8    -0.717135987962E+02    0.33014E-05   -0.16738E-05  1824   0.151E-02    0.126E-02
DAV:   9    -0.717135998571E+02   -0.10609E-05   -0.82547E-06  1712   0.855E-03    0.107E-02
DAV:  10    -0.717135997933E+02    0.63796E-07   -0.41693E-07  1128   0.359E-03
  16 F= -.71713600E+02 E0= -.71713600E+02  d E =-.118376E-15
       N       E                     dE             d eps       ncg     rms          rms(c)
DAV:   1    -0.717413789644E+02   -0.27779E-01   -0.33332E+00  1840   0.763E+00    0.168E+00
DAV:   2    -0.717120656904E+02    0.29313E-01   -0.96235E-02  2392   0.187E+00    0.102E+00
DAV:   3    -0.716919668482E+02    0.20099E-01   -0.16196E-02  2528   0.694E-01    0.292E-01
DAV:   4    -0.716911627761E+02    0.80407E-03   -0.48093E-03  2280   0.309E-01    0.158E-01
DAV:   5    -0.716911521631E+02    0.10613E-04   -0.53322E-04  2256   0.110E-01    0.737E-02
DAV:   6    -0.716911593162E+02   -0.71531E-05   -0.86094E-05  2176   0.361E-02    0.442E-02
DAV:   7    -0.716911610674E+02   -0.17512E-05   -0.97926E-06  1992   0.120E-02    0.257E-02
DAV:   8    -0.716911607872E+02    0.28021E-06   -0.41706E-06  1504   0.769E-03
  17 F= -.71691161E+02 E0= -.71691161E+02  d E =-.105603E-15
       N       E                     dE             d eps       ncg     rms          rms(c)
DAV:   1    -0.722053930777E+02   -0.51423E+00   -0.29024E+01  1888   0.223E+01    0.521E+00
DAV:   2    -0.718979828571E+02    0.30741E+00   -0.92065E-01  2248   0.524E+00    0.294E+00
DAV:   3    -0.717114699285E+02    0.18651E+00   -0.13077E-01  2384   0.179E+00    0.122E+00
DAV:   4    -0.716875070330E+02    0.23963E-01   -0.65643E-02  2448   0.115E+00    0.469E-01
DAV:   5    -0.716872798710E+02    0.22716E-03   -0.99322E-03  2152   0.483E-01    0.212E-01
DAV:   6    -0.716874777077E+02   -0.19784E-03   -0.17490E-03  2120   0.139E-01    0.147E-01
DAV:   7    -0.716874831377E+02   -0.54299E-05   -0.15512E-04  2360   0.542E-02    0.597E-02
DAV:   8    -0.716874728001E+02    0.10338E-04   -0.17477E-04  2168   0.393E-02    0.243E-02
DAV:   9    -0.716874744427E+02   -0.16426E-05   -0.27999E-05  1728   0.192E-02    0.334E-02
DAV:  10    -0.716874727747E+02    0.16681E-05   -0.87030E-06  1760   0.844E-03    0.710E-03
DAV:  11    -0.716874734597E+02   -0.68501E-06   -0.34467E-06  1520   0.676E-03
  18 F= -.71687473E+02 E0= -.71687473E+02  d E =-.303752E-16
       N       E                     dE             d eps       ncg     rms          rms(c)
DAV:   1    -0.717685922096E+02   -0.81119E-01   -0.34197E+00  1832   0.766E+00    0.179E+00
DAV:   2    -0.717354642261E+02    0.33128E-01   -0.11194E-01  2216   0.195E+00    0.103E+00
DAV:   3    -0.717150339059E+02    0.20430E-01   -0.16228E-02  2440   0.657E-01    0.425E-01
DAV:   4    -0.717127337873E+02    0.23001E-02   -0.76158E-03  2464   0.421E-01    0.149E-01
DAV:   5    -0.717127069007E+02    0.26887E-04   -0.11511E-03  2112   0.177E-01    0.781E-02
DAV:   6    -0.717127267835E+02   -0.19883E-04   -0.19601E-04  2152   0.469E-02    0.419E-02
DAV:   7    -0.717127302216E+02   -0.34382E-05   -0.20545E-05  2320   0.189E-02    0.165E-02
DAV:   8    -0.717127284463E+02    0.17753E-05   -0.16549E-05  1576   0.128E-02    0.675E-03
DAV:   9    -0.717127287904E+02   -0.34409E-06   -0.31384E-06  1512   0.706E-03
  19 F= -.71712729E+02 E0= -.71712729E+02  d E =-.765261E-16
       N       E                     dE             d eps       ncg     rms          rms(c)
DAV:   1    -0.719351072279E+02   -0.22238E+00   -0.13666E+01  1832   0.153E+01    0.359E+00
DAV:   2    -0.718040357730E+02    0.13107E+00   -0.46248E-01  2256   0.382E+00    0.206E+00
DAV:   3    -0.717225582966E+02    0.81477E-01   -0.63184E-02  2384   0.129E+00    0.862E-01
DAV:   4    -0.717128107500E+02    0.97475E-02   -0.30457E-02  2488   0.774E-01    0.312E-01
DAV:   5    -0.717126378666E+02    0.17288E-03   -0.40735E-03  2136   0.319E-01    0.158E-01
DAV:   6    -0.717127217435E+02   -0.83877E-04   -0.78677E-04  2088   0.942E-02    0.849E-02
DAV:   7    -0.717127341015E+02   -0.12358E-04   -0.81527E-05  2432   0.394E-02    0.344E-02
DAV:   8    -0.717127282898E+02    0.58117E-05   -0.64715E-05  1952   0.244E-02    0.133E-02
DAV:   9    -0.717127289821E+02   -0.69237E-06   -0.98192E-06  1672   0.115E-02
  20 F= -.71712729E+02 E0= -.71712729E+02  d E =-.766400E-16
       N       E                     dE             d eps       ncg     rms          rms(c)
DAV:   1    -0.717431496586E+02   -0.30421E-01   -0.34160E+00  1832   0.763E+00    0.179E+00
DAV:   2    -0.717102214835E+02    0.32928E-01   -0.11372E-01  2272   0.200E+00    0.103E+00
DAV:   3    -0.716898805479E+02    0.20341E-01   -0.16275E-02  2520   0.665E-01    0.431E-01
DAV:   4    -0.716874894676E+02    0.23911E-02   -0.78826E-03  2552   0.400E-01    0.157E-01
DAV:   5    -0.716874525304E+02    0.36937E-04   -0.10635E-03  2200   0.169E-01    0.792E-02
DAV:   6    -0.716874713980E+02   -0.18868E-04   -0.19269E-04  2144   0.471E-02    0.419E-02
DAV:   7    -0.716874746526E+02   -0.32546E-05   -0.20551E-05  2400   0.202E-02    0.158E-02
DAV:   8    -0.716874735430E+02    0.11096E-05   -0.15494E-05  1584   0.120E-02    0.704E-03
DAV:   9    -0.716874736053E+02   -0.62344E-07   -0.19768E-06  1424   0.589E-03
  21 F= -.71687474E+02 E0= -.71687474E+02  d E =-.300549E-16
       N       E                     dE             d eps       ncg     rms          rms(c)
DAV:   1    -0.721094282760E+02   -0.42195E+00   -0.26872E+01  1832   0.219E+01    0.463E+00
DAV:   2    -0.718841342995E+02    0.22529E+00   -0.84453E-01  2320   0.512E+00    0.281E+00
DAV:   3    -0.716990806383E+02    0.18505E+00   -0.13551E-01  2376   0.197E+00    0.661E-01
DAV:   4    -0.716917603573E+02    0.73203E-02   -0.48784E-02  2304   0.866E-01    0.379E-01
DAV:   5    -0.716909659477E+02    0.79441E-03   -0.46997E-03  2400   0.302E-01    0.182E-01
DAV:   6    -0.716905399076E+02    0.42604E-03   -0.95020E-04  2232   0.119E-01    0.903E-02
DAV:   7    -0.716904374384E+02    0.10247E-03   -0.40633E-04  2432   0.732E-02    0.806E-02
DAV:   8    -0.716903977871E+02    0.39651E-04   -0.82598E-05  2120   0.321E-02    0.284E-02
DAV:   9    -0.716903807391E+02    0.17048E-04   -0.32216E-05  1896   0.211E-02    0.906E-03
DAV:  10    -0.716903749762E+02    0.57629E-05   -0.10862E-05  1912   0.130E-02    0.741E-03
DAV:  11    -0.716903696319E+02    0.53443E-05   -0.90792E-06  1504   0.133E-02    0.303E-03
DAV:  12    -0.716903686004E+02    0.10315E-05   -0.43682E-06  1712   0.938E-03    0.262E-03
DAV:  13    -0.716903683511E+02    0.24929E-06   -0.85021E-07  1160   0.505E-03
  22 F= -.71690368E+02 E0= -.71690368E+02  d E =-.114940E-18
       N       E                     dE             d eps       ncg     rms          rms(c)
DAV:   1    -0.717637532317E+02   -0.73385E-01   -0.33124E+00  1840   0.776E+00    0.169E+00
DAV:   2    -0.717340318696E+02    0.29721E-01   -0.90584E-02  2368   0.174E+00    0.101E+00
DAV:   3    -0.717145340969E+02    0.19498E-01   -0.15671E-02  2472   0.625E-01    0.313E-01
DAV:   4    -0.717135692476E+02    0.96485E-03   -0.48505E-03  2368   0.297E-01    0.158E-01
DAV:   5    -0.717135543071E+02    0.14940E-04   -0.57473E-04  2336   0.118E-01    0.775E-02
DAV:   6    -0.717135596426E+02   -0.53355E-05   -0.83403E-05  2160   0.316E-02    0.427E-02
DAV:   7    -0.717135610356E+02   -0.13929E-05   -0.10157E-05  1872   0.116E-02    0.187E-02
DAV:   8    -0.717135612445E+02   -0.20897E-06   -0.40080E-06  1536   0.731E-03
  23 F= -.71713561E+02 E0= -.71713561E+02  d E =-.207859E-17
       N       E                     dE             d eps       ncg     rms          rms(c)
DAV:   1    -0.719161509064E+02   -0.20259E+00   -0.13302E+01  1840   0.155E+01    0.339E+00
DAV:   2    -0.717962170018E+02    0.11993E+00   -0.37046E-01  2336   0.334E+00    0.203E+00
DAV:   3    -0.717172258412E+02    0.78991E-01   -0.61814E-02  2392   0.124E+00    0.626E-01
DAV:   4    -0.717132886935E+02    0.39371E-02   -0.19858E-02  2384   0.535E-01    0.324E-01
DAV:   5    -0.717131876484E+02    0.10105E-03   -0.21077E-03  2256   0.215E-01    0.170E-01
DAV:   6    -0.717132161474E+02   -0.28499E-04   -0.39143E-04  2176   0.668E-02    0.899E-02
DAV:   7    -0.717132205532E+02   -0.44058E-05   -0.43117E-05  2360   0.239E-02    0.417E-02
DAV:   8    -0.717132215717E+02   -0.10184E-05   -0.18783E-05  1736   0.147E-02    0.934E-03
DAV:   9    -0.717132220309E+02   -0.45918E-06   -0.32024E-06  1568   0.725E-03
  24 F= -.71713222E+02 E0= -.71713222E+02  d E =-.493765E-15
       N       E                     dE             d eps       ncg     rms          rms(c)
DAV:   1    -0.717410524074E+02   -0.27831E-01   -0.33398E+00  1856   0.781E+00    0.170E+00
DAV:   2    -0.717104048004E+02    0.30648E-01   -0.88864E-02  2368   0.173E+00    0.102E+00
DAV:   3    -0.716905286926E+02    0.19876E-01   -0.15976E-02  2488   0.604E-01    0.313E-01
DAV:   4    -0.716895457046E+02    0.98299E-03   -0.49128E-03  2312   0.277E-01    0.161E-01
DAV:   5    -0.716895199635E+02    0.25741E-04   -0.51232E-04  2272   0.101E-01    0.760E-02
DAV:   6    -0.716895265886E+02   -0.66250E-05   -0.90138E-05  2088   0.329E-02    0.433E-02
DAV:   7    -0.716895278661E+02   -0.12775E-05   -0.10625E-05  1872   0.116E-02    0.194E-02
DAV:   8    -0.716895280284E+02   -0.16235E-06   -0.42516E-06  1528   0.790E-03
  25 F= -.71689528E+02 E0= -.71689528E+02  d E =-.165128E-13
       N       E                     dE             d eps       ncg     rms          rms(c)
DAV:   1    -0.719147603807E+02   -0.22523E+00   -0.16782E+01  1848   0.167E+01    0.341E+00
DAV:   2    -0.718027177708E+02    0.11204E+00   -0.44491E-01  2336   0.356E+00    0.203E+00
DAV:   3    -0.717251531423E+02    0.77565E-01   -0.65208E-02  2472   0.137E+00    0.650E-01
DAV:   4    -0.717205859753E+02    0.45672E-02   -0.19197E-02  2320   0.573E-01    0.325E-01
DAV:   5    -0.717204828208E+02    0.10315E-03   -0.21934E-03  2336   0.239E-01    0.155E-01
DAV:   6    -0.717205158325E+02   -0.33012E-04   -0.38888E-04  2152   0.719E-02    0.835E-02
DAV:   7    -0.717205234400E+02   -0.76075E-05   -0.48595E-05  2464   0.275E-02    0.401E-02
DAV:   8    -0.717205218784E+02    0.15616E-05   -0.18721E-05  1816   0.153E-02    0.103E-02
DAV:   9    -0.717205228512E+02   -0.97281E-06   -0.57845E-06  1600   0.839E-03
  26 F= -.71720523E+02 E0= -.71720523E+02  d E =-.171336E-15
       N       E                     dE             d eps       ncg     rms          rms(c)
DAV:   1    -0.717198015774E+02    0.72030E-03   -0.86965E-01  1840   0.168E+00    0.490E-02
DAV:   2    -0.717210647840E+02   -0.12632E-02   -0.12755E-02  1888   0.260E-01    0.110E-02
DAV:   3    -0.717211107173E+02   -0.45933E-04   -0.47494E-04  2392   0.587E-02    0.112E-02
DAV:   4    -0.717211112588E+02   -0.54149E-06   -0.10678E-05  1552   0.109E-02    0.690E-03
DAV:   5    -0.717211113079E+02   -0.49076E-07   -0.96979E-07  1296   0.114E-02
  27 F= -.71721111E+02 E0= -.71721111E+02  d E =-.132958E-15
       N       E                     dE             d eps       ncg     rms          rms(c)
DAV:   1    -0.717154602701E+02    0.56510E-02   -0.34942E+00  1808   0.351E+00    0.105E-01
DAV:   2    -0.717210065873E+02   -0.55463E-02   -0.56341E-02  2024   0.595E-01    0.294E-02
DAV:   3    -0.717211444318E+02   -0.13784E-03   -0.15967E-03  2496   0.135E-01    0.219E-02
DAV:   4    -0.717211494306E+02   -0.49987E-05   -0.77848E-05  2256   0.287E-02    0.137E-02
DAV:   5    -0.717211493191E+02    0.11141E-06   -0.33796E-06  1664   0.224E-02
  28 F= -.71721149E+02 E0= -.71721149E+02  d E =-.788550E-16
       N       E                     dE             d eps       ncg     rms          rms(c)
DAV:   1    -0.717193177843E+02    0.18316E-02   -0.86971E-01  1824   0.173E+00    0.517E-02
DAV:   2    -0.717206062608E+02   -0.12885E-02   -0.12987E-02  1904   0.268E-01    0.114E-02
DAV:   3    -0.717206499074E+02   -0.43647E-04   -0.45183E-04  2424   0.576E-02    0.109E-02
DAV:   4    -0.717206504137E+02   -0.50625E-06   -0.82305E-06  1672   0.101E-02
  29 F= -.71720650E+02 E0= -.71720650E+02  d E =-.618149E-16
       N       E                     dE             d eps       ncg     rms          rms(c)
DAV:   1    -0.717081475350E+02    0.12502E-01   -0.70375E+00  1872   0.497E+00    0.158E-01
DAV:   2    -0.717196053778E+02   -0.11458E-01   -0.11678E-01  1968   0.858E-01    0.460E-02
DAV:   3    -0.717199566651E+02   -0.35129E-03   -0.40771E-03  2496   0.206E-01    0.348E-02
DAV:   4    -0.717199686970E+02   -0.12032E-04   -0.21104E-04  2536   0.441E-02    0.217E-02
DAV:   5    -0.717199663914E+02    0.23056E-05   -0.10574E-05  1768   0.294E-02    0.985E-03
DAV:   6    -0.717199668616E+02   -0.47022E-06   -0.78972E-06  1896   0.245E-02
  30 F= -.71719967E+02 E0= -.71719967E+02  d E =-.182917E-15
       N       E                     dE             d eps       ncg     rms          rms(c)
DAV:   1    -0.717196495924E+02    0.31680E-03   -0.86859E-01  2008   0.171E+00    0.495E-02
DAV:   2    -0.717209526185E+02   -0.13030E-02   -0.13175E-02  1896   0.264E-01    0.147E-02
DAV:   3    -0.717209960163E+02   -0.43398E-04   -0.47432E-04  2384   0.618E-02    0.115E-02
DAV:   4    -0.717209976528E+02   -0.16366E-05   -0.24373E-05  1848   0.149E-02    0.719E-03
DAV:   5    -0.717209976166E+02    0.36169E-07   -0.11949E-06  1360   0.102E-02
  31 F= -.71720998E+02 E0= -.71720998E+02  d E =-.153160E-15
       N       E                     dE             d eps       ncg     rms          rms(c)
DAV:   1    -0.717151340147E+02    0.58636E-02   -0.34920E+00  1984   0.348E+00    0.107E-01
DAV:   2    -0.717207288605E+02   -0.55948E-02   -0.56814E-02  1952   0.573E-01    0.328E-02
DAV:   3    -0.717209144431E+02   -0.18558E-03   -0.21228E-03  2464   0.148E-01    0.231E-02
DAV:   4    -0.717209268415E+02   -0.12398E-04   -0.15914E-04  2312   0.386E-02    0.157E-02
DAV:   5    -0.717209264891E+02    0.35231E-06   -0.73880E-06  1824   0.246E-02
  32 F= -.71720926E+02 E0= -.71720926E+02  d E =-.820834E-16
       N       E                     dE             d eps       ncg     rms          rms(c)
DAV:   1    -0.717184497652E+02    0.24771E-02   -0.86949E-01  1992   0.187E+00    0.534E-02
DAV:   2    -0.717197759554E+02   -0.13262E-02   -0.13370E-02  1984   0.257E-01    0.145E-02
DAV:   3    -0.717198210028E+02   -0.45047E-04   -0.48277E-04  2488   0.682E-02    0.115E-02
DAV:   4    -0.717198221751E+02   -0.11723E-05   -0.14657E-05  1840   0.133E-02    0.728E-03
DAV:   5    -0.717198224751E+02   -0.30007E-06   -0.11439E-06  1368   0.121E-02
  33 F= -.71719822E+02 E0= -.71719822E+02  d E =-.724658E-16
       N       E                     dE             d eps       ncg     rms          rms(c)
DAV:   1    -0.717084237916E+02    0.11398E-01   -0.70387E+00  1824   0.494E+00    0.144E-01
DAV:   2    -0.717197857913E+02   -0.11362E-01   -0.11519E-01  1936   0.765E-01    0.417E-02
DAV:   3    -0.717201687128E+02   -0.38292E-03   -0.41689E-03  2496   0.176E-01    0.337E-02
DAV:   4    -0.717201805282E+02   -0.11815E-04   -0.22289E-04  2328   0.495E-02    0.212E-02
DAV:   5    -0.717201797554E+02    0.77280E-06   -0.14212E-05  1912   0.330E-02    0.112E-02
DAV:   6    -0.717201810298E+02   -0.12744E-05   -0.98712E-06  1896   0.273E-02    0.388E-03
DAV:   7    -0.717201813891E+02   -0.35933E-06   -0.49102E-06  1544   0.152E-02
  34 F= -.71720181E+02 E0= -.71720181E+02  d E =-.744438E-16
       N       E                     dE             d eps       ncg     rms          rms(c)
DAV:   1    -0.717197586506E+02    0.42238E-03   -0.87014E-01  1848   0.167E+00    0.491E-02
DAV:   2    -0.717210247006E+02   -0.12660E-02   -0.12726E-02  1944   0.248E-01    0.128E-02
DAV:   3    -0.717210702351E+02   -0.45534E-04   -0.47638E-04  2544   0.554E-02    0.118E-02
DAV:   4    -0.717210701151E+02    0.11993E-06   -0.68830E-06  1696   0.884E-03
  35 F= -.71721070E+02 E0= -.71721070E+02  d E =-.867152E-16
       N       E                     dE             d eps       ncg     rms          rms(c)
DAV:   1    -0.717153168704E+02    0.57534E-02   -0.34986E+00  1848   0.340E+00    0.102E-01
DAV:   2    -0.717206773499E+02   -0.53605E-02   -0.54074E-02  1952   0.555E-01    0.288E-02
DAV:   3    -0.717208659047E+02   -0.18855E-03   -0.20373E-03  2608   0.128E-01    0.243E-02
DAV:   4    -0.717208689764E+02   -0.30718E-05   -0.65108E-05  2032   0.275E-02    0.150E-02
DAV:   5    -0.717208692234E+02   -0.24697E-06   -0.53808E-06  1744   0.243E-02
  36 F= -.71720869E+02 E0= -.71720869E+02  d E =-.123017E-15
       N       E                     dE             d eps       ncg     rms          rms(c)
DAV:   1    -0.717183942787E+02    0.24747E-02   -0.87094E-01  1848   0.170E+00    0.509E-02
DAV:   2    -0.717196568110E+02   -0.12625E-02   -0.12668E-02  1928   0.253E-01    0.129E-02
DAV:   3    -0.717197024371E+02   -0.45626E-04   -0.47336E-04  2560   0.542E-02    0.110E-02
DAV:   4    -0.717197026675E+02   -0.23041E-06   -0.72176E-06  1696   0.906E-03
  37 F= -.71719703E+02 E0= -.71719703E+02  d E =-.152552E-15
       N       E                     dE             d eps       ncg     rms          rms(c)
DAV:   1    -0.717091892867E+02    0.10513E-01   -0.69837E+00  2024   0.524E+00    0.134E-01
DAV:   2    -0.717203435272E+02   -0.11154E-01   -0.11264E-01  1920   0.840E-01    0.358E-02
DAV:   3    -0.717207186544E+02   -0.37513E-03   -0.39921E-03  2584   0.187E-01    0.339E-02
DAV:   4    -0.717207213537E+02   -0.26994E-05   -0.15410E-04  2312   0.431E-02    0.201E-02
DAV:   5    -0.717207176174E+02    0.37364E-05   -0.19605E-05  2024   0.390E-02    0.745E-03
DAV:   6    -0.717207173983E+02    0.21905E-06   -0.11016E-05  2280   0.198E-02    0.703E-03
DAV:   7    -0.717207172152E+02    0.18313E-06   -0.41021E-06  1816   0.115E-02
  38 F= -.71720717E+02 E0= -.71720717E+02  d E =-.114119E-15
       N       E                     dE             d eps       ncg     rms          rms(c)
DAV:   1    -0.717198763036E+02    0.84109E-03   -0.86787E-01  1880   0.112E+00    0.484E-02
DAV:   2    -0.717211872931E+02   -0.13110E-02   -0.13240E-02  1888   0.175E-01    0.112E-02
DAV:   3    -0.717212345542E+02   -0.47261E-04   -0.48176E-04  2200   0.394E-02    0.121E-02
DAV:   4    -0.717212338475E+02    0.70670E-06   -0.34243E-06  1408   0.775E-03
  39 F= -.71721234E+02 E0= -.71721234E+02  d E =-.120556E-15
       N       E                     dE             d eps       ncg     rms          rms(c)
DAV:   1    -0.717152254864E+02    0.60091E-02   -0.34884E+00  1880   0.242E+00    0.102E-01
DAV:   2    -0.717208071393E+02   -0.55817E-02   -0.56664E-02  1936   0.365E-01    0.258E-02
DAV:   3    -0.717210009301E+02   -0.19379E-03   -0.20549E-03  2568   0.838E-02    0.252E-02
DAV:   4    -0.717209996697E+02    0.12604E-05   -0.53935E-05  2024   0.215E-02    0.163E-02
DAV:   5    -0.717209992711E+02    0.39852E-06   -0.10453E-05  1608   0.239E-02    0.458E-03
DAV:   6    -0.717209996275E+02   -0.35631E-06   -0.38266E-06  1856   0.141E-02
  40 F= -.71721000E+02 E0= -.71721000E+02  d E =-.719500E-16
       N       E                     dE             d eps       ncg     rms          rms(c)
DAV:   1    -0.717189474716E+02    0.20518E-02   -0.86790E-01  1912   0.116E+00    0.510E-02
DAV:   2    -0.717202689732E+02   -0.13215E-02   -0.13334E-02  1920   0.171E-01    0.111E-02
DAV:   3    -0.717203158471E+02   -0.46874E-04   -0.47886E-04  2152   0.388E-02    0.117E-02
DAV:   4    -0.717203156363E+02    0.21078E-06   -0.84017E-06  1360   0.934E-03
  41 F= -.71720316E+02 E0= -.71720316E+02  d E =-.588350E-16
       N       E                     dE             d eps       ncg     rms          rms(c)
DAV:   1    -0.717088207860E+02    0.11495E-01   -0.70281E+00  1840   0.327E+00    0.140E-01
DAV:   2    -0.717203454812E+02   -0.11525E-01   -0.11670E-01  1992   0.525E-01    0.339E-02
DAV:   3    -0.717207664844E+02   -0.42100E-03   -0.43578E-03  2624   0.110E-01    0.374E-02
DAV:   4    -0.717207582458E+02    0.82386E-05   -0.32538E-05  2152   0.201E-02    0.236E-02
DAV:   5    -0.717207573093E+02    0.93655E-06   -0.12862E-05  1704   0.263E-02    0.712E-03
DAV:   6    -0.717207579829E+02   -0.67360E-06   -0.57538E-06  1840   0.176E-02
  42 F= -.71720758E+02 E0= -.71720758E+02  d E =-.103144E-15
       N       E                     dE             d eps       ncg     rms          rms(c)
DAV:   1    -0.717198359885E+02    0.92132E-03   -0.86920E-01  1872   0.119E+00    0.463E-02
DAV:   2    -0.717211292495E+02   -0.12933E-02   -0.13056E-02  1944   0.179E-01    0.111E-02
DAV:   3    -0.717211776269E+02   -0.48377E-04   -0.49504E-04  2008   0.359E-02    0.120E-02
DAV:   4    -0.717211770976E+02    0.52927E-06   -0.35734E-06  1312   0.648E-03
  43 F= -.71721177E+02 E0= -.71721177E+02  d E =-.106921E-15
       N       E                     dE             d eps       ncg     rms          rms(c)
DAV:   1    -0.717155074740E+02    0.56702E-02   -0.34941E+00  1880   0.241E+00    0.987E-02
DAV:   2    -0.717209774441E+02   -0.54700E-02   -0.55405E-02  1976   0.368E-01    0.244E-02
DAV:   3    -0.717211807289E+02   -0.20328E-03   -0.21249E-03  2456   0.753E-02    0.254E-02
DAV:   4    -0.717211776033E+02    0.31256E-05   -0.16310E-05  1904   0.145E-02    0.158E-02
DAV:   5    -0.717211768351E+02    0.76818E-06   -0.83303E-06  1768   0.194E-02
  44 F= -.71721177E+02 E0= -.71721177E+02  d E =-.102463E-15
       N       E                     dE             d eps       ncg     rms          rms(c)
DAV:   1    -0.717194123862E+02    0.17652E-02   -0.86929E-01  1888   0.130E+00    0.509E-02
DAV:   2    -0.717207105011E+02   -0.12981E-02   -0.13124E-02  1944   0.178E-01    0.118E-02
DAV:   3    -0.717207584707E+02   -0.47970E-04   -0.49326E-04  2056   0.367E-02    0.113E-02
DAV:   4    -0.717207579999E+02    0.47083E-06   -0.38602E-06  1344   0.695E-03
  45 F= -.71720758E+02 E0= -.71720758E+02  d E =-.107406E-15
       N       E                     dE             d eps       ncg     rms          rms(c)
DAV:   1    -0.717096269115E+02    0.11132E-01   -0.70279E+00  1856   0.347E+00    0.107E-01
DAV:   2    -0.717211480465E+02   -0.11521E-01   -0.11633E-01  2040   0.489E-01    0.346E-02
DAV:   3    -0.717215673975E+02   -0.41935E-03   -0.44185E-03  2616   0.108E-01    0.312E-02
DAV:   4    -0.717215563920E+02    0.11005E-04   -0.37455E-05  2120   0.251E-02    0.173E-02
DAV:   5    -0.717215518087E+02    0.45834E-05   -0.25289E-05  1856   0.282E-02    0.574E-03
DAV:   6    -0.717215514077E+02    0.40097E-06   -0.66160E-06  2032   0.110E-02
  46 F= -.71721551E+02 E0= -.71721551E+02  d E =-.381752E-16
       N       E                     dE             d eps       ncg     rms          rms(c)
DAV:   1    -0.717202187113E+02    0.13331E-02   -0.86866E-01  1904   0.108E+00    0.462E-02
DAV:   2    -0.717215165527E+02   -0.12978E-02   -0.13134E-02  1976   0.163E-01    0.109E-02
DAV:   3    -0.717215644792E+02   -0.47926E-04   -0.48940E-04  2192   0.368E-02    0.119E-02
DAV:   4    -0.717215638382E+02    0.64104E-06   -0.34042E-06  1432   0.669E-03
  47 F= -.71721564E+02 E0= -.71721564E+02  d E =-.623303E-16
       N       E                     dE             d eps       ncg     rms          rms(c)
DAV:   1    -0.717151199699E+02    0.64445E-02   -0.34926E+00  1920   0.223E+00    0.969E-02
DAV:   2    -0.717205960318E+02   -0.54761E-02   -0.55421E-02  2008   0.343E-01    0.224E-02
DAV:   3    -0.717208001831E+02   -0.20415E-03   -0.20869E-03  2608   0.780E-02    0.244E-02
DAV:   4    -0.717207974219E+02    0.27612E-05   -0.14401E-05  1920   0.134E-02    0.158E-02
DAV:   5    -0.717207969933E+02    0.42854E-06   -0.56386E-06  1752   0.183E-02
  48 F= -.71720797E+02 E0= -.71720797E+02  d E =-.229997E-15
       N       E                     dE             d eps       ncg     rms          rms(c)
DAV:   1    -0.717186239534E+02    0.21735E-02   -0.86872E-01  1960   0.108E+00    0.503E-02
DAV:   2    -0.717199244877E+02   -0.13005E-02   -0.13157E-02  2008   0.161E-01    0.113E-02
DAV:   3    -0.717199735040E+02   -0.49016E-04   -0.49457E-04  2176   0.365E-02    0.109E-02
DAV:   4    -0.717199730640E+02    0.43999E-06   -0.33940E-06  1408   0.672E-03
  49 F= -.71719973E+02 E0= -.71719973E+02  d E =-.969340E-16
       N       E                     dE             d eps       ncg     rms          rms(c)
DAV:   1    -0.717089928618E+02    0.10981E-01   -0.69754E+00  2088   0.470E+00    0.143E-01
DAV:   2    -0.717201808511E+02   -0.11188E-01   -0.11344E-01  1880   0.774E-01    0.331E-02
DAV:   3    -0.717205262944E+02   -0.34544E-03   -0.36086E-03  2392   0.154E-01    0.333E-02
DAV:   4    -0.717205368457E+02   -0.10551E-04   -0.18230E-04  2320   0.401E-02    0.210E-02
DAV:   5    -0.717205364165E+02    0.42918E-06   -0.12769E-05  1736   0.252E-02    0.928E-03
DAV:   6    -0.717205371651E+02   -0.74859E-06   -0.58438E-06  1840   0.225E-02
  50 F= -.71720537E+02 E0= -.71720537E+02  d E =-.219002E-15
       N       E                     dE             d eps       ncg     rms          rms(c)
DAV:   1    -0.717197558032E+02    0.78061E-03   -0.86873E-01  1848   0.150E+00    0.480E-02
DAV:   2    -0.717210553611E+02   -0.12996E-02   -0.13148E-02  1832   0.229E-01    0.108E-02
DAV:   3    -0.717211013223E+02   -0.45961E-04   -0.47802E-04  2432   0.493E-02    0.106E-02
DAV:   4    -0.717211018606E+02   -0.53826E-06   -0.12236E-05  1528   0.979E-03    0.672E-03
DAV:   5    -0.717211018554E+02    0.51768E-08   -0.13032E-06  1400   0.873E-03
  51 F= -.71721102E+02 E0= -.71721102E+02  d E =-.153243E-15
       N       E                     dE             d eps       ncg     rms          rms(c)
DAV:   1    -0.717152623033E+02    0.58396E-02   -0.34898E+00  1856   0.303E+00    0.105E-01
DAV:   2    -0.717210915296E+02   -0.58292E-02   -0.59352E-02  1984   0.504E-01    0.284E-02
DAV:   3    -0.717212336422E+02   -0.14211E-03   -0.16279E-03  2376   0.106E-01    0.218E-02
DAV:   4    -0.717212387487E+02   -0.51065E-05   -0.97857E-05  2328   0.317E-02    0.135E-02
DAV:   5    -0.717212386417E+02    0.10703E-06   -0.63359E-06  1664   0.194E-02
  52 F= -.71721239E+02 E0= -.71721239E+02  d E =-.729106E-16
       N       E                     dE             d eps       ncg     rms          rms(c)
DAV:   1    -0.717195079310E+02    0.17308E-02   -0.86913E-01  1856   0.152E+00    0.514E-02
DAV:   2    -0.717208310931E+02   -0.13232E-02   -0.13380E-02  1904   0.234E-01    0.115E-02
DAV:   3    -0.717208715719E+02   -0.40479E-04   -0.42521E-04  2400   0.502E-02    0.102E-02
DAV:   4    -0.717208724589E+02   -0.88705E-06   -0.13178E-05  1776   0.111E-02    0.633E-03
DAV:   5    -0.717208726476E+02   -0.18869E-06   -0.11298E-06  1368   0.840E-03
  53 F= -.71720873E+02 E0= -.71720873E+02  d E =-.455725E-16
       N       E                     dE             d eps       ncg     rms          rms(c)
DAV:   1    -0.717080873138E+02    0.12785E-01   -0.70332E+00  1864   0.455E+00    0.154E-01
DAV:   2    -0.717198494103E+02   -0.11762E-01   -0.11945E-01  1960   0.785E-01    0.382E-02
DAV:   3    -0.717202071670E+02   -0.35776E-03   -0.38669E-03  2456   0.145E-01    0.344E-02
DAV:   4    -0.717202182457E+02   -0.11079E-04   -0.20423E-04  2128   0.414E-02    0.210E-02
DAV:   5    -0.717202174578E+02    0.78785E-06   -0.15677E-05  1816   0.225E-02    0.106E-02
DAV:   6    -0.717202183335E+02   -0.87572E-06   -0.70842E-06  1824   0.231E-02
  54 F= -.71720218E+02 E0= -.71720218E+02  d E =-.103271E-15
       N       E                     dE             d eps       ncg     rms          rms(c)
DAV:   1    -0.717197031942E+02    0.51426E-03   -0.86960E-01  1912   0.175E+00    0.479E-02
DAV:   2    -0.717210052116E+02   -0.13020E-02   -0.13104E-02  1944   0.263E-01    0.128E-02
DAV:   3    -0.717210372557E+02   -0.32044E-04   -0.34218E-04  2376   0.460E-02    0.110E-02
DAV:   4    -0.717210374436E+02   -0.18799E-06   -0.94040E-06  1736   0.989E-03
  55 F= -.71721037E+02 E0= -.71721037E+02  d E =-.102707E-15
       N       E                     dE             d eps       ncg     rms          rms(c)
DAV:   1    -0.717153674299E+02    0.56698E-02   -0.34959E+00  1896   0.343E+00    0.102E-01
DAV:   2    -0.717209852127E+02   -0.56178E-02   -0.56772E-02  2040   0.533E-01    0.327E-02
DAV:   3    -0.717210343755E+02   -0.49163E-04   -0.68088E-04  2392   0.898E-02    0.220E-02
DAV:   4    -0.717210360733E+02   -0.16979E-05   -0.54857E-05  2112   0.282E-02    0.113E-02
DAV:   5    -0.717210369745E+02   -0.90116E-06   -0.52232E-06  1832   0.142E-02
  56 F= -.71721037E+02 E0= -.71721037E+02  d E =-.102722E-15
       N       E                     dE             d eps       ncg     rms          rms(c)
DAV:   1    -0.717188796817E+02    0.21564E-02   -0.86988E-01  1880   0.169E+00    0.514E-02
DAV:   2    -0.717201714610E+02   -0.12918E-02   -0.12983E-02  1920   0.259E-01    0.115E-02
DAV:   3    -0.717202179890E+02   -0.46528E-04   -0.47732E-04  2432   0.529E-02    0.111E-02
DAV:   4    -0.717202182095E+02   -0.22049E-06   -0.69278E-06  1696   0.823E-03
  57 F= -.71720218E+02 E0= -.71720218E+02  d E =-.104162E-15
       N       E                     dE             d eps       ncg     rms          rms(c)
DAV:   1    -0.717075107154E+02    0.12707E-01   -0.70321E+00  2000   0.490E+00    0.121E-01
DAV:   2    -0.717193871733E+02   -0.11876E-01   -0.12039E-01  2024   0.750E-01    0.419E-02
DAV:   3    -0.717197980893E+02   -0.41092E-03   -0.45173E-03  2536   0.151E-01    0.323E-02
DAV:   4    -0.717198000526E+02   -0.19633E-05   -0.17964E-04  2280   0.401E-02    0.174E-02
DAV:   5    -0.717197971120E+02    0.29407E-05   -0.29188E-05  2040   0.374E-02    0.626E-03
DAV:   6    -0.717197975710E+02   -0.45904E-06   -0.10677E-05  1920   0.129E-02    0.450E-03
DAV:   7    -0.717197974558E+02    0.11517E-06   -0.11034E-06  1280   0.680E-03
  58 F= -.71719797E+02 E0= -.71719797E+02  d E =-.138252E-15
       N       E                     dE             d eps       ncg     rms          rms(c)
DAV:   1    -0.717196045955E+02    0.19298E-03   -0.86894E-01  1880   0.146E+00    0.498E-02
DAV:   2    -0.717208902345E+02   -0.12856E-02   -0.12928E-02  1888   0.217E-01    0.127E-02
DAV:   3    -0.717209370547E+02   -0.46820E-04   -0.48239E-04  2424   0.457E-02    0.117E-02
DAV:   4    -0.717209369718E+02    0.82944E-07   -0.59386E-06  1744   0.802E-03
  59 F= -.71720937E+02 E0= -.71720937E+02  d E =-.134203E-15
       N       E                     dE             d eps       ncg     rms          rms(c)
DAV:   1    -0.717151626980E+02    0.57744E-02   -0.34912E+00  1888   0.300E+00    0.106E-01
DAV:   2    -0.717207359060E+02   -0.55732E-02   -0.56118E-02  1952   0.478E-01    0.284E-02
DAV:   3    -0.717209350158E+02   -0.19911E-03   -0.20874E-03  2536   0.104E-01    0.257E-02
DAV:   4    -0.717209357883E+02   -0.77251E-06   -0.43404E-05  2192   0.219E-02    0.153E-02
DAV:   5    -0.717209367322E+02   -0.94387E-06   -0.56552E-06  1880   0.201E-02
  60 F= -.71720937E+02 E0= -.71720937E+02  d E =-.835700E-16
       N       E                     dE             d eps       ncg     rms          rms(c)
DAV:   1    -0.717184278809E+02    0.25079E-02   -0.86906E-01  1848   0.157E+00    0.548E-02
DAV:   2    -0.717197486719E+02   -0.13208E-02   -0.13254E-02  2000   0.236E-01    0.137E-02
DAV:   3    -0.717197962959E+02   -0.47624E-04   -0.49285E-04  2440   0.524E-02    0.120E-02
DAV:   4    -0.717197966740E+02   -0.37812E-06   -0.82400E-06  1832   0.992E-03
  61 F= -.71719797E+02 E0= -.71719797E+02  d E =-.675858E-16
       N       E                     dE             d eps       ncg     rms          rms(c)
DAV:   1    -0.717088163516E+02    0.10980E-01   -0.69822E+00  1976   0.526E+00    0.165E-01
DAV:   2    -0.717202621244E+02   -0.11446E-01   -0.11718E-01  1976   0.881E-01    0.461E-02
DAV:   3    -0.717206385660E+02   -0.37644E-03   -0.43499E-03  2528   0.208E-01    0.398E-02
DAV:   4    -0.717206442566E+02   -0.56905E-05   -0.23801E-04  2368   0.540E-02    0.245E-02
DAV:   5    -0.717206385015E+02    0.57551E-05   -0.20872E-05  2048   0.439E-02    0.108E-02
DAV:   6    -0.717206388669E+02   -0.36539E-06   -0.12439E-05  1968   0.348E-02    0.606E-03
DAV:   7    -0.717206395431E+02   -0.67627E-06   -0.79405E-06  1712   0.162E-02
  62 F= -.71720640E+02 E0= -.71720640E+02  d E =-.102805E-15
       N       E                     dE             d eps       ncg     rms          rms(c)
DAV:   1    -0.717198189962E+02    0.81987E-03   -0.86891E-01  1808   0.165E+00    0.492E-02
DAV:   2    -0.717211087412E+02   -0.12897E-02   -0.13040E-02  1888   0.256E-01    0.118E-02
DAV:   3    -0.717211539715E+02   -0.45230E-04   -0.46578E-04  2384   0.526E-02    0.121E-02
DAV:   4    -0.717211534373E+02    0.53421E-06   -0.60996E-06  1600   0.934E-03
  63 F= -.71721153E+02 E0= -.71721153E+02  d E =-.102637E-15
       N       E                     dE             d eps       ncg     rms          rms(c)
DAV:   1    -0.717154932840E+02    0.56607E-02   -0.34930E+00  1808   0.320E+00    0.103E-01
DAV:   2    -0.717209610785E+02   -0.54678E-02   -0.55455E-02  1896   0.494E-01    0.254E-02
DAV:   3    -0.717211486183E+02   -0.18754E-03   -0.19764E-03  2352   0.115E-01    0.238E-02
DAV:   4    -0.717211537854E+02   -0.51671E-05   -0.10057E-04  2096   0.291E-02    0.172E-02
DAV:   5    -0.717211529916E+02    0.79375E-06   -0.98069E-06  1728   0.332E-02
  64 F= -.71721153E+02 E0= -.71721153E+02  d E =-.102269E-15
       N       E                     dE             d eps       ncg     rms          rms(c)
DAV:   1    -0.717193004614E+02    0.18533E-02   -0.86959E-01  1864   0.158E+00    0.530E-02
DAV:   2    -0.717205939486E+02   -0.12935E-02   -0.13086E-02  1920   0.249E-01    0.129E-02
DAV:   3    -0.717206395308E+02   -0.45582E-04   -0.46880E-04  2408   0.549E-02    0.113E-02
DAV:   4    -0.717206394416E+02    0.89256E-07   -0.88529E-06  1648   0.105E-02
  65 F= -.71720639E+02 E0= -.71720639E+02  d E =-.103060E-15
       N       E                     dE             d eps       ncg     rms          rms(c)
DAV:   1    -0.717093241389E+02    0.11315E-01   -0.70436E+00  1792   0.450E+00    0.147E-01
DAV:   2    -0.717201882404E+02   -0.10864E-01   -0.11024E-01  1992   0.703E-01    0.379E-02
DAV:   3    -0.717205755292E+02   -0.38729E-03   -0.41646E-03  2544   0.170E-01    0.383E-02
DAV:   4    -0.717205708605E+02    0.46687E-05   -0.73626E-05  2352   0.325E-02    0.236E-02
DAV:   5    -0.717205676384E+02    0.32221E-05   -0.14609E-05  1912   0.415E-02    0.761E-03
DAV:   6    -0.717205681260E+02   -0.48756E-06   -0.87706E-06  2184   0.218E-02
  66 F= -.71720568E+02 E0= -.71720568E+02  d E =-.115747E-15
       N       E                     dE             d eps       ncg     rms          rms(c)
DAV:   1    -0.717198120679E+02    0.75557E-03   -0.86962E-01  1800   0.163E+00    0.465E-02
DAV:   2    -0.717210794448E+02   -0.12674E-02   -0.12824E-02  1976   0.247E-01    0.121E-02
DAV:   3    -0.717211233718E+02   -0.43927E-04   -0.46063E-04  2432   0.505E-02    0.117E-02
DAV:   4    -0.717211232168E+02    0.15499E-06   -0.83487E-06  1592   0.968E-03
  67 F= -.71721123E+02 E0= -.71721123E+02  d E =-.110988E-15
       N       E                     dE             d eps       ncg     rms          rms(c)
DAV:   1    -0.717156365159E+02    0.54869E-02   -0.34970E+00  1832   0.318E+00    0.977E-02
DAV:   2    -0.717209361120E+02   -0.52996E-02   -0.53688E-02  2024   0.496E-01    0.242E-02
DAV:   3    -0.717211232930E+02   -0.18718E-03   -0.19682E-03  2496   0.105E-01    0.242E-02
DAV:   4    -0.717211243941E+02   -0.11011E-05   -0.55043E-05  2280   0.229E-02    0.160E-02
DAV:   5    -0.717211227464E+02    0.16477E-05   -0.63406E-06  1800   0.241E-02    0.500E-03
DAV:   6    -0.717211229199E+02   -0.17348E-06   -0.49575E-06  2048   0.140E-02
  68 F= -.71721123E+02 E0= -.71721123E+02  d E =-.107207E-15
       N       E                     dE             d eps       ncg     rms          rms(c)
DAV:   1    -0.717192544031E+02    0.18683E-02   -0.86984E-01  1824   0.159E+00    0.497E-02
DAV:   2    -0.717205243859E+02   -0.12700E-02   -0.12838E-02  2000   0.250E-01    0.117E-02
DAV:   3    -0.717205688116E+02   -0.44426E-04   -0.46578E-04  2424   0.506E-02    0.118E-02
DAV:   4    -0.717205685049E+02    0.30668E-06   -0.70044E-06  1624   0.962E-03
  69 F= -.71720569E+02 E0= -.71720569E+02  d E =-.114068E-15
       N       E                     dE             d eps       ncg     rms          rms(c)
DAV:   1    -0.717088687654E+02    0.11700E-01   -0.70332E+00  1824   0.463E+00    0.144E-01
DAV:   2    -0.717203207006E+02   -0.11452E-01   -0.11645E-01  1944   0.720E-01    0.374E-02
DAV:   3    -0.717207130898E+02   -0.39239E-03   -0.42100E-03  2520   0.163E-01    0.355E-02
DAV:   4    -0.717207208040E+02   -0.77142E-05   -0.18629E-04  2272   0.386E-02    0.240E-02
DAV:   5    -0.717207163796E+02    0.44244E-05   -0.16791E-05  2072   0.371E-02    0.844E-03
DAV:   6    -0.717207167530E+02   -0.37342E-06   -0.89525E-06  2144   0.229E-02
  70 F= -.71720717E+02 E0= -.71720717E+02  d E =-.112444E-15
       N       E                     dE             d eps       ncg     rms          rms(c)
DAV:   1    -0.717198489722E+02    0.86741E-03   -0.86948E-01  1848   0.155E+00    0.470E-02
DAV:   2    -0.717211164534E+02   -0.12675E-02   -0.12812E-02  1936   0.236E-01    0.114E-02
DAV:   3    -0.717211620927E+02   -0.45639E-04   -0.47181E-04  2448   0.498E-02    0.116E-02
DAV:   4    -0.717211617910E+02    0.30166E-06   -0.53337E-06  1536   0.810E-03
  71 F= -.71721162E+02 E0= -.71721162E+02  d E =-.108295E-15
       N       E                     dE             d eps       ncg     rms          rms(c)
DAV:   1    -0.717156294884E+02    0.55326E-02   -0.34955E+00  1856   0.304E+00    0.991E-02
DAV:   2    -0.717209714229E+02   -0.53419E-02   -0.54148E-02  1968   0.466E-01    0.238E-02
DAV:   3    -0.717211615497E+02   -0.19013E-03   -0.19878E-03  2440   0.107E-01    0.240E-02
DAV:   4    -0.717211625436E+02   -0.99384E-06   -0.48118E-05  2168   0.213E-02    0.166E-02
DAV:   5    -0.717211614183E+02    0.11253E-05   -0.71536E-06  1752   0.289E-02    0.439E-03
DAV:   6    -0.717211616653E+02   -0.24700E-06   -0.38245E-06  1816   0.142E-02
  72 F= -.71721162E+02 E0= -.71721162E+02  d E =-.105331E-15
       N       E                     dE             d eps       ncg     rms          rms(c)
DAV:   1    -0.717194015157E+02    0.17599E-02   -0.86970E-01  1848   0.152E+00    0.500E-02
DAV:   2    -0.717206711870E+02   -0.12697E-02   -0.12827E-02  1952   0.231E-01    0.109E-02
DAV:   3    -0.717207172915E+02   -0.46105E-04   -0.47193E-04  2360   0.499E-02    0.115E-02
DAV:   4    -0.717207170373E+02    0.25425E-06   -0.53890E-06  1640   0.885E-03
  73 F= -.71720717E+02 E0= -.71720717E+02  d E =-.109854E-15
       N       E                     dE             d eps       ncg     rms          rms(c)
DAV:   1    -0.716972052808E+02    0.23512E-01   -0.83067E+00  2120   0.599E+00    0.792E-01
DAV:   2    -0.717167333026E+02   -0.19528E-01   -0.20563E-01  2360   0.135E+00    0.238E-01
DAV:   3    -0.717168997479E+02   -0.16645E-03   -0.43156E-03  2488   0.297E-01    0.185E-01
DAV:   4    -0.717168631344E+02    0.36614E-04   -0.26111E-04  2496   0.810E-02    0.139E-01
DAV:   5    -0.717168386530E+02    0.24481E-04   -0.63533E-05  2368   0.660E-02    0.545E-02
DAV:   6    -0.717168327143E+02    0.59387E-05   -0.47878E-05  2488   0.632E-02    0.301E-02
DAV:   7    -0.717168344181E+02   -0.17038E-05   -0.39700E-05  2344   0.319E-02    0.163E-02
DAV:   8    -0.717168344503E+02   -0.32212E-07   -0.25271E-06  1424   0.742E-03
  74 F= -.71716834E+02 E0= -.71716834E+02  d E =-.110039E-15
       N       E                     dE             d eps       ncg     rms          rms(c)
DAV:   1    -0.717171931148E+02   -0.35870E-03   -0.12033E+00  2048   0.164E+00    0.344E-01
DAV:   2    -0.717199481606E+02   -0.27550E-02   -0.29364E-02  2400   0.423E-01    0.839E-02
DAV:   3    -0.717199698584E+02   -0.21698E-04   -0.62208E-04  2408   0.107E-01    0.815E-02
DAV:   4    -0.717199651103E+02    0.47481E-05   -0.32465E-05  2312   0.235E-02    0.593E-02
DAV:   5    -0.717199594799E+02    0.56304E-05   -0.22477E-05  2040   0.424E-02    0.158E-02
DAV:   6    -0.717199592287E+02    0.25115E-06   -0.69900E-06  2424   0.166E-02
  75 F= -.71719959E+02 E0= -.71719959E+02  d E =-.239554E-15
       N       E                     dE             d eps       ncg     rms          rms(c)
DAV:   1    -0.717068373072E+02    0.13122E-01   -0.48172E+00  2056   0.339E+00    0.772E-01
DAV:   2    -0.717203523733E+02   -0.13515E-01   -0.14329E-01  2592   0.990E-01    0.220E-01
DAV:   3    -0.717203664674E+02   -0.14094E-04   -0.23496E-03  2496   0.228E-01    0.179E-01
DAV:   4    -0.717203316201E+02    0.34847E-04   -0.19925E-04  2504   0.754E-02    0.128E-01
DAV:   5    -0.717203069542E+02    0.24666E-04   -0.66342E-05  2408   0.906E-02    0.339E-02
DAV:   6    -0.717203062282E+02    0.72606E-06   -0.45240E-05  2696   0.505E-02    0.308E-02
DAV:   7    -0.717203078229E+02   -0.15947E-05   -0.25465E-05  2184   0.229E-02    0.135E-02
DAV:   8    -0.717203075679E+02    0.25502E-06   -0.10123E-06  1224   0.989E-03
  76 F= -.71720308E+02 E0= -.71720308E+02  d E =-.364698E-16
       N       E                     dE             d eps       ncg     rms          rms(c)
DAV:   1    -0.717144389837E+02    0.58688E-02   -0.12020E+00  2176   0.171E+00    0.365E-01
DAV:   2    -0.717173389403E+02   -0.29000E-02   -0.31063E-02  2472   0.458E-01    0.941E-02
DAV:   3    -0.717173463490E+02   -0.74087E-05   -0.55828E-04  2408   0.109E-01    0.804E-02
DAV:   4    -0.717173392958E+02    0.70533E-05   -0.43843E-05  2224   0.330E-02    0.593E-02
DAV:   5    -0.717173334559E+02    0.58398E-05   -0.19589E-05  2080   0.397E-02    0.153E-02
DAV:   6    -0.717173334489E+02    0.70377E-08   -0.93607E-06  2640   0.201E-02
  77 F= -.71717333E+02 E0= -.71717333E+02  d E =-.142844E-16
       N       E                     dE             d eps       ncg     rms          rms(c)
DAV:   1    -0.716892004923E+02    0.28133E-01   -0.96877E+00  2048   0.494E+00    0.113E+00
DAV:   2    -0.717176315060E+02   -0.28431E-01   -0.29991E-01  2464   0.134E+00    0.304E-01
DAV:   3    -0.717179198487E+02   -0.28834E-03   -0.66684E-03  2704   0.294E-01    0.280E-01
DAV:   4    -0.717178671553E+02    0.52693E-04   -0.30571E-04  2640   0.783E-02    0.201E-01
DAV:   5    -0.717178142719E+02    0.52883E-04   -0.16599E-04  2408   0.111E-01    0.496E-02
DAV:   6    -0.717178099529E+02    0.43190E-05   -0.69652E-05  2680   0.617E-02    0.566E-02
DAV:   7    -0.717178127839E+02   -0.28310E-05   -0.62182E-05  2368   0.334E-02    0.184E-02
DAV:   8    -0.717178121945E+02    0.58942E-06   -0.59568E-06  1752   0.179E-02
  78 F= -.71717812E+02 E0= -.71717812E+02  d E =-.122485E-15
       N       E                     dE             d eps       ncg     rms          rms(c)
DAV:   1    -0.717176578668E+02    0.15492E-03   -0.12031E+00  2136   0.169E+00    0.341E-01
DAV:   2    -0.717204209148E+02   -0.27630E-02   -0.29493E-02  2416   0.444E-01    0.896E-02
DAV:   3    -0.717204340269E+02   -0.13112E-04   -0.53877E-04  2448   0.940E-02    0.806E-02
DAV:   4    -0.717204276431E+02    0.63837E-05   -0.32767E-05  2216   0.222E-02    0.568E-02
DAV:   5    -0.717204224112E+02    0.52319E-05   -0.18223E-05  2064   0.329E-02    0.162E-02
DAV:   6    -0.717204222518E+02    0.15934E-06   -0.66750E-06  2208   0.162E-02
  79 F= -.71720422E+02 E0= -.71720422E+02  d E =-.106913E-15
       N       E                     dE             d eps       ncg     rms          rms(c)
DAV:   1    -0.717073388584E+02    0.13084E-01   -0.48194E+00  2144   0.350E+00    0.739E-01
DAV:   2    -0.717204687404E+02   -0.13130E-01   -0.13951E-01  2424   0.935E-01    0.220E-01
DAV:   3    -0.717204810481E+02   -0.12308E-04   -0.21702E-03  2552   0.201E-01    0.181E-01
DAV:   4    -0.717204463190E+02    0.34729E-04   -0.15351E-04  2448   0.649E-02    0.126E-01
DAV:   5    -0.717204215455E+02    0.24773E-04   -0.82192E-05  2312   0.734E-02    0.350E-02
DAV:   6    -0.717204212258E+02    0.31973E-06   -0.33533E-05  2576   0.363E-02    0.319E-02
DAV:   7    -0.717204224945E+02   -0.12687E-05   -0.21376E-05  2160   0.183E-02    0.128E-02
DAV:   8    -0.717204223092E+02    0.18532E-06   -0.16548E-06  1344   0.611E-03
  80 F= -.71720422E+02 E0= -.71720422E+02  d E =-.106740E-15
       N       E                     dE             d eps       ncg     rms          rms(c)
DAV:   1    -0.717150608743E+02    0.53616E-02   -0.12030E+00  2136   0.173E+00    0.343E-01
DAV:   2    -0.717178095999E+02   -0.27487E-02   -0.29425E-02  2416   0.434E-01    0.882E-02
DAV:   3    -0.717178236410E+02   -0.14041E-04   -0.55391E-04  2440   0.976E-02    0.803E-02
DAV:   4    -0.717178175264E+02    0.61146E-05   -0.33566E-05  2200   0.217E-02    0.575E-02
DAV:   5    -0.717178122303E+02    0.52962E-05   -0.20123E-05  2056   0.287E-02    0.159E-02
DAV:   6    -0.717178122095E+02    0.20776E-07   -0.69267E-06  2248   0.150E-02
  81 F= -.71717812E+02 E0= -.71717812E+02  d E =-.121443E-15
       N       E                     dE             d eps       ncg     rms          rms(c)
DAV:   1    -0.716887705062E+02    0.29042E-01   -0.96905E+00  2040   0.499E+00    0.824E-01
DAV:   2    -0.717172523347E+02   -0.28482E-01   -0.29747E-01  2520   0.130E+00    0.266E-01
DAV:   3    -0.717173594395E+02   -0.10710E-03   -0.51231E-03  2496   0.268E-01    0.217E-01
DAV:   4    -0.717172515019E+02    0.10794E-03   -0.34295E-04  2712   0.943E-02    0.134E-01
DAV:   5    -0.717171392457E+02    0.11226E-03   -0.13994E-04  2336   0.106E-01    0.331E-02
DAV:   6    -0.717171147676E+02    0.24478E-04   -0.11252E-04  2544   0.440E-02    0.320E-02
DAV:   7    -0.717171101014E+02    0.46661E-05   -0.33684E-05  2288   0.219E-02    0.222E-02
DAV:   8    -0.717171051574E+02    0.49440E-05   -0.30518E-06  1712   0.105E-02    0.166E-02
DAV:   9    -0.717170920559E+02    0.13101E-04   -0.76218E-06  2104   0.273E-02    0.578E-03
DAV:  10    -0.717170874442E+02    0.46117E-05   -0.10430E-05  1920   0.175E-02    0.717E-03
DAV:  11    -0.717170861212E+02    0.13231E-05   -0.65892E-06  1824   0.119E-02    0.420E-03
DAV:  12    -0.717170848075E+02    0.13136E-05   -0.80586E-07  1328   0.103E-02    0.401E-03
DAV:  13    -0.717170844862E+02    0.32138E-06   -0.18259E-06  1464   0.824E-03
  82 F= -.71717084E+02 E0= -.71717084E+02  d E =-.974559E-16
       N       E                     dE             d eps       ncg     rms          rms(c)
DAV:   1    -0.717174587785E+02   -0.37397E-03   -0.12035E+00  2064   0.161E+00    0.339E-01
DAV:   2    -0.717201531872E+02   -0.26944E-02   -0.28555E-02  2384   0.404E-01    0.844E-02
DAV:   3    -0.717201748498E+02   -0.21663E-04   -0.52399E-04  2320   0.892E-02    0.797E-02
DAV:   4    -0.717201683159E+02    0.65339E-05   -0.28695E-05  2248   0.233E-02    0.552E-02
DAV:   5    -0.717201621888E+02    0.61272E-05   -0.26089E-05  2112   0.414E-02    0.194E-02
DAV:   6    -0.717201620534E+02    0.13533E-06   -0.76327E-06  2344   0.133E-02
  83 F= -.71720162E+02 E0= -.71720162E+02  d E =-.105585E-15
       N       E                     dE             d eps       ncg     rms          rms(c)
DAV:   1    -0.717071247701E+02    0.13037E-01   -0.48167E+00  2048   0.343E+00    0.767E-01
DAV:   2    -0.717203328332E+02   -0.13208E-01   -0.14031E-01  2496   0.929E-01    0.193E-01
DAV:   3    -0.717205009112E+02   -0.16808E-03   -0.37777E-03  2416   0.216E-01    0.186E-01
DAV:   4    -0.717204735325E+02    0.27379E-04   -0.19000E-04  2640   0.621E-02    0.138E-01
DAV:   5    -0.717204400033E+02    0.33529E-04   -0.99775E-05  2344   0.102E-01    0.323E-02
DAV:   6    -0.717204380647E+02    0.19386E-05   -0.42245E-05  2632   0.490E-02    0.393E-02
DAV:   7    -0.717204397908E+02   -0.17261E-05   -0.33806E-05  2336   0.256E-02    0.129E-02
DAV:   8    -0.717204394237E+02    0.36704E-06   -0.29749E-06  1568   0.133E-02
  84 F= -.71720439E+02 E0= -.71720439E+02  d E =-.100048E-15
       N       E                     dE             d eps       ncg     rms          rms(c)
DAV:   1    -0.717149330909E+02    0.55067E-02   -0.12036E+00  2064   0.167E+00    0.347E-01
DAV:   2    -0.717176230474E+02   -0.26900E-02   -0.28651E-02  2448   0.417E-01    0.853E-02
DAV:   3    -0.717176386957E+02   -0.15648E-04   -0.52442E-04  2440   0.104E-01    0.790E-02
DAV:   4    -0.717176316985E+02    0.69972E-05   -0.36612E-05  2296   0.277E-02    0.556E-02
DAV:   5    -0.717176252120E+02    0.64865E-05   -0.24439E-05  2072   0.415E-02    0.182E-02
DAV:   6    -0.717176252807E+02   -0.68694E-07   -0.86716E-06  2456   0.155E-02
  85 F= -.71717625E+02 E0= -.71717625E+02  d E =-.108674E-15
       N       E                     dE             d eps       ncg     rms          rms(c)
DAV:   1    -0.717014177985E+02    0.16207E-01   -0.58510E+00  1896   0.420E+00    0.915E-01
DAV:   2    -0.717198816199E+02   -0.18464E-01   -0.19768E-01  2384   0.126E+00    0.309E-01
DAV:   3    -0.717196912647E+02    0.19036E-03   -0.35268E-03  2560   0.228E-01    0.250E-01
DAV:   4    -0.717195114499E+02    0.17981E-03   -0.56751E-04  2240   0.938E-02    0.134E-01
DAV:   5    -0.717194927591E+02    0.18691E-04   -0.20113E-04  2456   0.735E-02    0.548E-02
DAV:   6    -0.717194959572E+02   -0.31981E-05   -0.54608E-05  2384   0.279E-02    0.401E-02
DAV:   7    -0.717194927924E+02    0.31648E-05   -0.19498E-05  1864   0.153E-02    0.189E-02
DAV:   8    -0.717194929393E+02   -0.14690E-06   -0.63284E-06  1672   0.150E-02
  86 F= -.71719493E+02 E0= -.71719493E+02  d E =-.163909E-15
       N       E                     dE             d eps       ncg     rms          rms(c)
DAV:   1    -0.717199708029E+02   -0.47801E-03   -0.24769E-01  1768   0.755E-01    0.240E-01
DAV:   2    -0.717208252955E+02   -0.85449E-03   -0.95982E-03  2048   0.262E-01    0.891E-02
DAV:   3    -0.717208040955E+02    0.21200E-04   -0.31617E-04  2424   0.558E-02    0.643E-02
DAV:   4    -0.717207704742E+02    0.33621E-04   -0.15974E-04  2072   0.378E-02    0.253E-02
DAV:   5    -0.717207731668E+02   -0.26927E-05   -0.30965E-05  2032   0.180E-02    0.866E-03
DAV:   6    -0.717207724887E+02    0.67816E-06   -0.11986E-06  1456   0.540E-03
  87 F= -.71720772E+02 E0= -.71720772E+02  d E =-.128600E-15
       N       E                     dE             d eps       ncg     rms          rms(c)
DAV:   1    -0.717179320233E+02    0.28411E-02   -0.99428E-01  1760   0.151E+00    0.502E-01
DAV:   2    -0.717214265658E+02   -0.34945E-02   -0.39106E-02  2192   0.531E-01    0.196E-01
DAV:   3    -0.717213199229E+02    0.10664E-03   -0.11526E-03  2400   0.109E-01    0.142E-01
DAV:   4    -0.717211797603E+02    0.14016E-03   -0.63478E-04  2104   0.810E-02    0.570E-02
DAV:   5    -0.717211926470E+02   -0.12887E-04   -0.13255E-04  2056   0.356E-02    0.183E-02
DAV:   6    -0.717211895840E+02    0.30630E-05   -0.47318E-06  1888   0.106E-02    0.114E-02
DAV:   7    -0.717211884311E+02    0.11529E-05   -0.12699E-05  1608   0.132E-02    0.522E-03
DAV:   8    -0.717211883929E+02    0.38252E-07   -0.32437E-06  1632   0.597E-03
  88 F= -.71721188E+02 E0= -.71721188E+02  d E =-.876517E-16
       N       E                     dE             d eps       ncg     rms          rms(c)
DAV:   1    -0.717195920206E+02    0.15964E-02   -0.24821E-01  1768   0.757E-01    0.232E-01
DAV:   2    -0.717204631644E+02   -0.87114E-03   -0.97345E-03  2256   0.275E-01    0.970E-02
DAV:   3    -0.717204388210E+02    0.24343E-04   -0.29417E-04  2400   0.566E-02    0.697E-02
DAV:   4    -0.717204034422E+02    0.35379E-04   -0.17096E-04  2056   0.438E-02    0.279E-02
DAV:   5    -0.717204064883E+02   -0.30462E-05   -0.34746E-05  2040   0.193E-02    0.905E-03
DAV:   6    -0.717204058110E+02    0.67732E-06   -0.13638E-06  1504   0.777E-03
  89 F= -.71720406E+02 E0= -.71720406E+02  d E =-.786134E-16
       N       E                     dE             d eps       ncg     rms          rms(c)
DAV:   1    -0.717131995093E+02    0.72070E-02   -0.20034E+00  1800   0.227E+00    0.603E-01
DAV:   2    -0.717199473008E+02   -0.67478E-02   -0.76028E-02  2272   0.894E-01    0.257E-01
DAV:   3    -0.717196479039E+02    0.29940E-03   -0.16449E-03  2240   0.170E-01    0.190E-01
DAV:   4    -0.717193618852E+02    0.28602E-03   -0.11391E-03  2280   0.126E-01    0.867E-02
DAV:   5    -0.717193863476E+02   -0.24462E-04   -0.26544E-04  2152   0.545E-02    0.259E-02
DAV:   6    -0.717193800724E+02    0.62752E-05   -0.10826E-05  2016   0.182E-02    0.148E-02
DAV:   7    -0.717193787387E+02    0.13337E-05   -0.82549E-06  1624   0.161E-02    0.451E-03
DAV:   8    -0.717193789551E+02   -0.21643E-06   -0.16283E-06  1368   0.717E-03
  90 F= -.71719379E+02 E0= -.71719379E+02  d E =-.904726E-16
       N       E                     dE             d eps       ncg     rms          rms(c)
DAV:   1    -0.717201327246E+02   -0.75399E-03   -0.25387E-01  1792   0.830E-01    0.189E-01
DAV:   2    -0.717208934238E+02   -0.76070E-03   -0.86230E-03  2296   0.292E-01    0.867E-02
DAV:   3    -0.717208535821E+02    0.39842E-04   -0.13193E-04  2312   0.494E-02    0.592E-02
DAV:   4    -0.717208203738E+02    0.33208E-04   -0.20983E-04  1992   0.514E-02    0.261E-02
DAV:   5    -0.717208232381E+02   -0.28644E-05   -0.41696E-05  2056   0.237E-02    0.993E-03
DAV:   6    -0.717208219968E+02    0.12413E-05   -0.13948E-06  1440   0.572E-03    0.747E-03
DAV:   7    -0.717208211765E+02    0.82024E-06   -0.82246E-06  1624   0.115E-02
  91 F= -.71720821E+02 E0= -.71720821E+02  d E =-.992160E-16
       N       E                     dE             d eps       ncg     rms          rms(c)
DAV:   1    -0.717180258050E+02    0.27962E-02   -0.10129E+00  1768   0.166E+00    0.391E-01
DAV:   2    -0.717211138304E+02   -0.30880E-02   -0.34982E-02  2272   0.595E-01    0.181E-01
DAV:   3    -0.717209533331E+02    0.16050E-03   -0.55208E-04  2512   0.104E-01    0.126E-01
DAV:   4    -0.717208133808E+02    0.13995E-03   -0.71672E-04  2104   0.117E-01    0.576E-02
DAV:   5    -0.717208275358E+02   -0.14155E-04   -0.16010E-04  2136   0.433E-02    0.186E-02
DAV:   6    -0.717208222984E+02    0.52374E-05   -0.72079E-06  1768   0.125E-02    0.112E-02
DAV:   7    -0.717208209990E+02    0.12994E-05   -0.11553E-05  1632   0.171E-02    0.422E-03
DAV:   8    -0.717208210869E+02   -0.87934E-07   -0.12080E-06  1288   0.555E-03
  92 F= -.71720821E+02 E0= -.71720821E+02  d E =-.991697E-16
       N       E                     dE             d eps       ncg     rms          rms(c)
DAV:   1    -0.717186969076E+02    0.21241E-02   -0.25378E-01  1768   0.829E-01    0.187E-01
DAV:   2    -0.717194512440E+02   -0.75434E-03   -0.85585E-03  2224   0.299E-01    0.884E-02
DAV:   3    -0.717194120825E+02    0.39161E-04   -0.13774E-04  2360   0.498E-02    0.605E-02
DAV:   4    -0.717193783225E+02    0.33760E-04   -0.21357E-04  2016   0.514E-02    0.265E-02
DAV:   5    -0.717193812124E+02   -0.28898E-05   -0.42156E-05  2056   0.234E-02    0.988E-03
DAV:   6    -0.717193798502E+02    0.13621E-05   -0.15277E-06  1464   0.561E-03    0.719E-03
DAV:   7    -0.717193790158E+02    0.83442E-06   -0.73923E-06  1632   0.102E-02
  93 F= -.71719379E+02 E0= -.71719379E+02  d E =-.904888E-16
       N       E                     dE             d eps       ncg     rms          rms(c)
DAV:   1    -0.717113801296E+02    0.79997E-02   -0.19764E+00  1760   0.243E+00    0.659E-01
DAV:   2    -0.717181030905E+02   -0.67230E-02   -0.75388E-02  2192   0.874E-01    0.145E-01
DAV:   3    -0.717178934444E+02    0.20965E-03   -0.26567E-03  2440   0.197E-01    0.122E-01
DAV:   4    -0.717176310523E+02    0.26239E-03   -0.61494E-04  2288   0.115E-01    0.488E-02
DAV:   5    -0.717175952233E+02    0.35829E-04   -0.20854E-04  2328   0.565E-02    0.337E-02
DAV:   6    -0.717175662374E+02    0.28986E-04   -0.32952E-05  2288   0.289E-02    0.200E-02
DAV:   7    -0.717175453906E+02    0.20847E-04   -0.29215E-05  1920   0.304E-02    0.549E-03
DAV:   8    -0.717175408078E+02    0.45827E-05   -0.15308E-05  2304   0.169E-02    0.636E-03
DAV:   9    -0.717175366602E+02    0.41476E-05   -0.32358E-06  1632   0.134E-02    0.212E-03
DAV:  10    -0.717175339459E+02    0.27143E-05   -0.46295E-06  1600   0.160E-02    0.384E-03
DAV:  11    -0.717175334523E+02    0.49360E-06   -0.33253E-06  1696   0.107E-02
  94 F= -.71717533E+02 E0= -.71717533E+02  d E =-.210808E-15
       N       E                     dE             d eps       ncg     rms          rms(c)
DAV:   1    -0.717196302556E+02   -0.20963E-02   -0.24114E-01  1800   0.790E-01    0.266E-01
DAV:   2    -0.717204774236E+02   -0.84717E-03   -0.10213E-02  2280   0.307E-01    0.681E-02
DAV:   3    -0.717204237528E+02    0.53671E-04   -0.31968E-04  2480   0.641E-02    0.503E-02
DAV:   4    -0.717203972653E+02    0.26487E-04   -0.13782E-04  2160   0.428E-02    0.200E-02
DAV:   5    -0.717203999973E+02   -0.27320E-05   -0.37028E-05  1968   0.210E-02    0.141E-02
DAV:   6    -0.717203993194E+02    0.67793E-06   -0.12969E-06  1616   0.859E-03
  95 F= -.71720399E+02 E0= -.71720399E+02  d E =-.158250E-15
       N       E                     dE             d eps       ncg     rms          rms(c)
DAV:   1    -0.717172795302E+02    0.31205E-02   -0.96433E-01  1808   0.158E+00    0.506E-01
DAV:   2    -0.717206891755E+02   -0.34096E-02   -0.41051E-02  2304   0.608E-01    0.145E-01
DAV:   3    -0.717204812713E+02    0.20790E-03   -0.13015E-03  2440   0.137E-01    0.112E-01
DAV:   4    -0.717203696779E+02    0.11159E-03   -0.57401E-04  2224   0.101E-01    0.423E-02
DAV:   5    -0.717203814353E+02   -0.11757E-04   -0.15759E-04  2000   0.431E-02    0.286E-02
DAV:   6    -0.717203793837E+02    0.20515E-05   -0.64218E-06  1904   0.194E-02    0.192E-02
DAV:   7    -0.717203781437E+02    0.12400E-05   -0.27176E-06  1616   0.149E-02    0.863E-03
DAV:   8    -0.717203783032E+02   -0.15951E-06   -0.16440E-06  1448   0.596E-03
  96 F= -.71720378E+02 E0= -.71720378E+02  d E =-.180303E-16
       N       E                     dE             d eps       ncg     rms          rms(c)
DAV:   1    -0.717170234967E+02    0.33546E-02   -0.24097E-01  1760   0.782E-01    0.255E-01
DAV:   2    -0.717178309930E+02   -0.80750E-03   -0.98166E-03  2304   0.306E-01    0.669E-02
DAV:   3    -0.717177837317E+02    0.47261E-04   -0.34241E-04  2520   0.675E-02    0.516E-02
DAV:   4    -0.717177569359E+02    0.26796E-04   -0.13106E-04  2096   0.441E-02    0.204E-02
DAV:   5    -0.717177596869E+02   -0.27510E-05   -0.35474E-05  1984   0.202E-02    0.136E-02
DAV:   6    -0.717177591096E+02    0.57723E-06   -0.13261E-06  1624   0.818E-03
  97 F= -.71717759E+02 E0= -.71717759E+02  d E =-.312489E-17
       N       E                     dE             d eps       ncg     rms          rms(c)
DAV:   1    -0.717116711612E+02    0.60885E-02   -0.19350E+00  1768   0.245E+00    0.731E-01
DAV:   2    -0.717206702742E+02   -0.89991E-02   -0.10185E-01  2176   0.945E-01    0.236E-01
DAV:   3    -0.717202657395E+02    0.40453E-03   -0.28624E-03  2344   0.193E-01    0.187E-01
DAV:   4    -0.717199676303E+02    0.29811E-03   -0.12479E-03  2208   0.110E-01    0.823E-02
DAV:   5    -0.717199956299E+02   -0.28000E-04   -0.29075E-04  2048   0.553E-02    0.349E-02
DAV:   6    -0.717199971004E+02   -0.14705E-05   -0.26047E-05  1640   0.231E-02    0.212E-02
DAV:   7    -0.717199925612E+02    0.45392E-05   -0.20122E-05  1720   0.215E-02    0.272E-03
DAV:   8    -0.717199928973E+02   -0.33609E-06   -0.52704E-06  1840   0.926E-03
  98 F= -.71719993E+02 E0= -.71719993E+02  d E =-.780576E-16
       N       E                     dE             d eps       ncg     rms          rms(c)
DAV:   1    -0.717202165857E+02   -0.22402E-03   -0.24874E-01  1768   0.827E-01    0.222E-01
DAV:   2    -0.717210727316E+02   -0.85615E-03   -0.96099E-03  2096   0.276E-01    0.909E-02
DAV:   3    -0.717210529626E+02    0.19769E-04   -0.31180E-04  2280   0.610E-02    0.663E-02
DAV:   4    -0.717210183907E+02    0.34572E-04   -0.14832E-04  2096   0.395E-02    0.271E-02
DAV:   5    -0.717210212030E+02   -0.28123E-05   -0.30708E-05  1984   0.185E-02    0.857E-03
DAV:   6    -0.717210204569E+02    0.74612E-06   -0.11316E-06  1336   0.643E-03
  99 F= -.71721020E+02 E0= -.71721020E+02  d E =-.896800E-16
       N       E                     dE             d eps       ncg     rms          rms(c)
DAV:   1    -0.717176751698E+02    0.33460E-02   -0.99614E-01  1776   0.166E+00    0.440E-01
DAV:   2    -0.717211088329E+02   -0.34337E-02   -0.38469E-02  2152   0.553E-01    0.185E-01
DAV:   3    -0.717210298310E+02    0.79002E-04   -0.12717E-03  2288   0.129E-01    0.136E-01
DAV:   4    -0.717208892144E+02    0.14062E-03   -0.53524E-04  2136   0.840E-02    0.584E-02
DAV:   5    -0.717209015214E+02   -0.12307E-04   -0.12484E-04  2064   0.361E-02    0.173E-02
DAV:   6    -0.717208988280E+02    0.26935E-05   -0.44429E-06  1760   0.115E-02    0.103E-02
DAV:   7    -0.717208978584E+02    0.96951E-06   -0.67673E-06  1552   0.111E-02
 100 F= -.71720898E+02 E0= -.71720898E+02  d E =-.638668E-16
       N       E                     dE             d eps       ncg     rms          rms(c)
DAV:   1    -0.717190726140E+02    0.18262E-02   -0.24749E-01  1784   0.828E-01    0.219E-01
DAV:   2    -0.717199109637E+02   -0.83835E-03   -0.94106E-03  2240   0.277E-01    0.885E-02
DAV:   3    -0.717198967641E+02    0.14200E-04   -0.34447E-04  2232   0.636E-02    0.650E-02
DAV:   4    -0.717198629086E+02    0.33856E-04   -0.14835E-04  2168   0.398E-02    0.255E-02
DAV:   5    -0.717198656064E+02   -0.26978E-05   -0.30151E-05  2024   0.182E-02    0.834E-03
DAV:   6    -0.717198648015E+02    0.80488E-06   -0.11528E-06  1344   0.590E-03
 101 F= -.71719865E+02 E0= -.71719865E+02  d E =-.334656E-16
       N       E                     dE             d eps       ncg     rms          rms(c)
DAV:   1    -0.717121919327E+02    0.76737E-02   -0.19303E+00  1760   0.239E+00    0.866E-01
DAV:   2    -0.717185884568E+02   -0.63965E-02   -0.74758E-02  2168   0.839E-01    0.193E-01
DAV:   3    -0.717183995177E+02    0.18894E-03   -0.29818E-03  2432   0.204E-01    0.172E-01
DAV:   4    -0.717181803176E+02    0.21920E-03   -0.78788E-04  2248   0.980E-02    0.766E-02
DAV:   5    -0.717181977761E+02   -0.17459E-04   -0.23647E-04  2288   0.493E-02    0.361E-02
DAV:   6    -0.717181953459E+02    0.24302E-05   -0.14068E-05  2256   0.161E-02    0.236E-02
DAV:   7    -0.717181928470E+02    0.24990E-05   -0.16398E-05  1728   0.140E-02    0.435E-03
DAV:   8    -0.717181929023E+02   -0.55341E-07   -0.45131E-06  1768   0.815E-03
 102 F= -.71718193E+02 E0= -.71718193E+02  d E =-.118490E-15
       N       E                     dE             d eps       ncg     rms          rms(c)
DAV:   1    -0.717197205518E+02   -0.15277E-02   -0.24289E-01  1760   0.834E-01    0.246E-01
DAV:   2    -0.717204873355E+02   -0.76678E-03   -0.92162E-03  2128   0.291E-01    0.691E-02
DAV:   3    -0.717204518886E+02    0.35447E-04   -0.34902E-04  2376   0.649E-02    0.522E-02
DAV:   4    -0.717204213349E+02    0.30554E-04   -0.13041E-04  2104   0.437E-02    0.209E-02
DAV:   5    -0.717204244694E+02   -0.31345E-05   -0.39951E-05  2024   0.201E-02    0.130E-02
DAV:   6    -0.717204237001E+02    0.76929E-06   -0.12515E-06  1472   0.572E-03
 103 F= -.71720424E+02 E0= -.71720424E+02  d E =-.126717E-15
       N       E                     dE             d eps       ncg     rms          rms(c)
DAV:   1    -0.717179350002E+02    0.24895E-02   -0.97241E-01  1760   0.167E+00    0.475E-01
DAV:   2    -0.717210079357E+02   -0.30729E-02   -0.37044E-02  2232   0.589E-01    0.145E-01
DAV:   3    -0.717208625551E+02    0.14538E-03   -0.13991E-03  2360   0.143E-01    0.112E-01
DAV:   4    -0.717207347622E+02    0.12779E-03   -0.55493E-04  2376   0.114E-01    0.422E-02
DAV:   5    -0.717207480196E+02   -0.13257E-04   -0.17408E-04  2040   0.441E-02    0.254E-02
DAV:   6    -0.717207454288E+02    0.25908E-05   -0.63369E-06  1856   0.136E-02    0.187E-02
DAV:   7    -0.717207430337E+02    0.23951E-05   -0.73250E-06  1704   0.148E-02    0.736E-03
DAV:   8    -0.717207432149E+02   -0.18117E-06   -0.27229E-06  1632   0.713E-03
 104 F= -.71720743E+02 E0= -.71720743E+02  d E =-.139426E-15
       N       E                     dE             d eps       ncg     rms          rms(c)
DAV:   1    -0.717180663388E+02    0.26767E-02   -0.24281E-01  1760   0.836E-01    0.239E-01
DAV:   2    -0.717188072553E+02   -0.74092E-03   -0.90030E-03  2176   0.304E-01    0.696E-02
DAV:   3    -0.717187706665E+02    0.36589E-04   -0.34312E-04  2392   0.723E-02    0.522E-02
DAV:   4    -0.717187394825E+02    0.31184E-04   -0.12060E-04  2312   0.484E-02    0.222E-02
DAV:   5    -0.717187427703E+02   -0.32877E-05   -0.40432E-05  2032   0.216E-02    0.125E-02
DAV:   6    -0.717187419911E+02    0.77913E-06   -0.12285E-06  1456   0.666E-03
 105 F= -.71718742E+02 E0= -.71718742E+02  d E =-.197149E-15
       N       E                     dE             d eps       ncg     rms          rms(c)
DAV:   1    -0.717132909148E+02    0.54519E-02   -0.19277E+00  1760   0.235E+00    0.828E-01
DAV:   2    -0.717193330198E+02   -0.60421E-02   -0.72957E-02  2192   0.861E-01    0.172E-01
DAV:   3    -0.717190688418E+02    0.26418E-03   -0.29422E-03  2456   0.201E-01    0.155E-01
DAV:   4    -0.717188572025E+02    0.21164E-03   -0.77472E-04  2400   0.115E-01    0.673E-02
DAV:   5    -0.717188681170E+02   -0.10914E-04   -0.22205E-04  2392   0.549E-02    0.366E-02
DAV:   6    -0.717188653577E+02    0.27593E-05   -0.15605E-05  2400   0.216E-02    0.227E-02
DAV:   7    -0.717188626849E+02    0.26727E-05   -0.11357E-05  1752   0.178E-02    0.460E-03
DAV:   8    -0.717188627690E+02   -0.84014E-07   -0.37987E-06  1808   0.923E-03
 106 F= -.71718863E+02 E0= -.71718863E+02  d E =-.217680E-15
       N       E                     dE             d eps       ncg     rms          rms(c)
DAV:   1    -0.717198123080E+02   -0.94962E-03   -0.24797E-01  1768   0.832E-01    0.228E-01
DAV:   2    -0.717206369496E+02   -0.82464E-03   -0.93983E-03  2216   0.301E-01    0.899E-02
DAV:   3    -0.717206007671E+02    0.36182E-04   -0.24921E-04  2304   0.602E-02    0.635E-02
DAV:   4    -0.717205651795E+02    0.35588E-04   -0.16760E-04  2184   0.467E-02    0.267E-02
DAV:   5    -0.717205685268E+02   -0.33473E-05   -0.40034E-05  1992   0.221E-02    0.100E-02
DAV:   6    -0.717205678547E+02    0.67208E-06   -0.12272E-06  1384   0.628E-03
 107 F= -.71720568E+02 E0= -.71720568E+02  d E =-.163381E-15
       N       E                     dE             d eps       ncg     rms          rms(c)
DAV:   1    -0.717180340184E+02    0.25345E-02   -0.99378E-01  1784   0.166E+00    0.452E-01
DAV:   2    -0.717213442961E+02   -0.33103E-02   -0.37755E-02  2224   0.598E-01    0.185E-01
DAV:   3    -0.717211973663E+02    0.14693E-03   -0.10131E-03  2424   0.127E-01    0.132E-01
DAV:   4    -0.717210511370E+02    0.14623E-03   -0.64313E-04  2256   0.108E-01    0.563E-02
DAV:   5    -0.717210652955E+02   -0.14159E-04   -0.16111E-04  2056   0.428E-02    0.197E-02
DAV:   6    -0.717210627669E+02    0.25285E-05   -0.56302E-06  1824   0.122E-02    0.133E-02
DAV:   7    -0.717210608176E+02    0.19494E-05   -0.10365E-05  1632   0.144E-02    0.458E-03
DAV:   8    -0.717210609084E+02   -0.90786E-07   -0.29486E-06  1664   0.683E-03
 108 F= -.71721061E+02 E0= -.71721061E+02  d E =-.444819E-16
       N       E                     dE             d eps       ncg     rms          rms(c)
DAV:   1    -0.717190135881E+02    0.20472E-02   -0.24797E-01  1768   0.828E-01    0.224E-01
DAV:   2    -0.717198188345E+02   -0.80525E-03   -0.92068E-03  2240   0.300E-01    0.897E-02
DAV:   3    -0.717197838296E+02    0.35005E-04   -0.25401E-04  2360   0.606E-02    0.632E-02
DAV:   4    -0.717197483296E+02    0.35500E-04   -0.16918E-04  2072   0.457E-02    0.266E-02
DAV:   5    -0.717197515959E+02   -0.32663E-05   -0.39433E-05  2056   0.212E-02    0.979E-03
DAV:   6    -0.717197508482E+02    0.74770E-06   -0.12338E-06  1408   0.575E-03
 109 F= -.71719751E+02 E0= -.71719751E+02  d E =-.190252E-16
       N       E                     dE             d eps       ncg     rms          rms(c)
DAV:   1    -0.717096478644E+02    0.10104E-01   -0.19224E+00  1808   0.244E+00    0.608E-01
DAV:   2    -0.717184476437E+02   -0.87998E-02   -0.97676E-02  2312   0.923E-01    0.209E-01
DAV:   3    -0.717179625311E+02    0.48511E-03   -0.13430E-03  2464   0.142E-01    0.162E-01
DAV:   4    -0.717176966406E+02    0.26589E-03   -0.91222E-04  2280   0.935E-02    0.710E-02
DAV:   5    -0.717176874674E+02    0.91732E-05   -0.21313E-04  2392   0.535E-02    0.419E-02
DAV:   6    -0.717176730209E+02    0.14446E-04   -0.24366E-05  2224   0.238E-02    0.283E-02
DAV:   7    -0.717176662820E+02    0.67389E-05   -0.13163E-05  2096   0.191E-02    0.171E-02
DAV:   8    -0.717176644291E+02    0.18529E-05   -0.68609E-06  2080   0.131E-02    0.477E-03
DAV:   9    -0.717176644020E+02    0.27176E-07   -0.20136E-06  1280   0.623E-03
 110 F= -.71717664E+02 E0= -.71717664E+02  d E =-.208595E-15
       N       E                     dE             d eps       ncg     rms          rms(c)
DAV:   1    -0.717194584105E+02   -0.17940E-02   -0.23859E-01  1760   0.763E-01    0.271E-01
DAV:   2    -0.717203277594E+02   -0.86935E-03   -0.99798E-03  2176   0.266E-01    0.629E-02
DAV:   3    -0.717202887091E+02    0.39050E-04   -0.29674E-04  2496   0.532E-02    0.468E-02
DAV:   4    -0.717202689996E+02    0.19709E-04   -0.10727E-04  2064   0.295E-02    0.192E-02
DAV:   5    -0.717202708916E+02   -0.18920E-05   -0.19759E-05  1832   0.144E-02    0.140E-02
DAV:   6    -0.717202711603E+02   -0.26866E-06   -0.14594E-06  1512   0.503E-03
 111 F= -.71720271E+02 E0= -.71720271E+02  d E =-.146803E-15
       N       E                     dE             d eps       ncg     rms          rms(c)
DAV:   1    -0.717173650177E+02    0.29059E-02   -0.95653E-01  1760   0.153E+00    0.588E-01
DAV:   2    -0.717208963056E+02   -0.35313E-02   -0.40570E-02  2208   0.536E-01    0.126E-01
DAV:   3    -0.717207359788E+02    0.16033E-03   -0.12293E-03  2472   0.113E-01    0.973E-02
DAV:   4    -0.717206561109E+02    0.79868E-04   -0.41345E-04  2248   0.625E-02    0.412E-02
DAV:   5    -0.717206627248E+02   -0.66139E-05   -0.70994E-05  2072   0.290E-02    0.265E-02
DAV:   6    -0.717206638369E+02   -0.11121E-05   -0.80766E-06  1744   0.117E-02    0.158E-02
DAV:   7    -0.717206626917E+02    0.11451E-05   -0.75414E-06  1632   0.133E-02    0.494E-03
DAV:   8    -0.717206628579E+02   -0.16618E-06   -0.21422E-06  1536   0.594E-03
 112 F= -.71720663E+02 E0= -.71720663E+02  d E =-.112726E-15
       N       E                     dE             d eps       ncg     rms          rms(c)
DAV:   1    -0.717172885389E+02    0.33742E-02   -0.23837E-01  1776   0.777E-01    0.281E-01
DAV:   2    -0.717182109207E+02   -0.92238E-03   -0.10530E-02  2200   0.280E-01    0.624E-02
DAV:   3    -0.717181693171E+02    0.41604E-04   -0.31956E-04  2472   0.573E-02    0.467E-02
DAV:   4    -0.717181493738E+02    0.19943E-04   -0.11727E-04  2136   0.320E-02    0.189E-02
DAV:   5    -0.717181513190E+02   -0.19452E-05   -0.21186E-05  1952   0.150E-02    0.151E-02
DAV:   6    -0.717181516287E+02   -0.30965E-06   -0.15364E-06  1528   0.537E-03
 113 F= -.71718152E+02 E0= -.71718152E+02  d E =-.128463E-15
       N       E                     dE             d eps       ncg     rms          rms(c)
DAV:   1    -0.717123904739E+02    0.57608E-02   -0.19542E+00  1816   0.228E+00    0.657E-01
DAV:   2    -0.717199024132E+02   -0.75119E-02   -0.85105E-02  2176   0.914E-01    0.229E-01
DAV:   3    -0.717196303473E+02    0.27207E-03   -0.25872E-03  2296   0.192E-01    0.185E-01
DAV:   4    -0.717193715398E+02    0.25881E-03   -0.11701E-03  2136   0.120E-01    0.713E-02
DAV:   5    -0.717193970327E+02   -0.25493E-04   -0.28985E-04  2024   0.588E-02    0.380E-02
DAV:   6    -0.717193942340E+02    0.27987E-05   -0.10874E-05  1952   0.180E-02    0.282E-02
DAV:   7    -0.717193910717E+02    0.31623E-05   -0.11097E-05  1704   0.181E-02    0.123E-02
DAV:   8    -0.717193912108E+02   -0.13913E-06   -0.36449E-06  1688   0.817E-03
 114 F= -.71719391E+02 E0= -.71719391E+02  d E =-.107337E-15
       N       E                     dE             d eps       ncg     rms          rms(c)
DAV:   1    -0.717201119171E+02   -0.72085E-03   -0.25241E-01  1776   0.824E-01    0.202E-01
DAV:   2    -0.717209162292E+02   -0.80431E-03   -0.90855E-03  2168   0.287E-01    0.925E-02
DAV:   3    -0.717208720196E+02    0.44210E-04   -0.14256E-04  2288   0.508E-02    0.639E-02
DAV:   4    -0.717208353845E+02    0.36635E-04   -0.21287E-04  1960   0.536E-02    0.278E-02
DAV:   5    -0.717208386687E+02   -0.32843E-05   -0.44337E-05  2040   0.240E-02    0.106E-02
DAV:   6    -0.717208376521E+02    0.10166E-05   -0.12778E-06  1448   0.524E-03    0.833E-03
DAV:   7    -0.717208367459E+02    0.90618E-06   -0.76763E-06  1632   0.985E-03
 115 F= -.71720837E+02 E0= -.71720837E+02  d E =-.103404E-15
       N       E                     dE             d eps       ncg     rms          rms(c)
DAV:   1    -0.717179037467E+02    0.29339E-02   -0.10073E+00  1800   0.165E+00    0.415E-01
DAV:   2    -0.717211639127E+02   -0.32602E-02   -0.36816E-02  2256   0.581E-01    0.188E-01
DAV:   3    -0.717209781348E+02    0.18578E-03   -0.54063E-04  2440   0.107E-01    0.132E-01
DAV:   4    -0.717208272552E+02    0.15088E-03   -0.76550E-04  2216   0.129E-01    0.595E-02
DAV:   5    -0.717208430663E+02   -0.15811E-04   -0.18183E-04  2136   0.468E-02    0.202E-02
DAV:   6    -0.717208386462E+02    0.44201E-05   -0.60292E-06  1816   0.118E-02    0.137E-02
DAV:   7    -0.717208365950E+02    0.20513E-05   -0.13601E-05  1616   0.198E-02    0.388E-03
DAV:   8    -0.717208366387E+02   -0.43719E-07   -0.20927E-06  1536   0.641E-03
 116 F= -.71720837E+02 E0= -.71720837E+02  d E =-.103334E-15
       N       E                     dE             d eps       ncg     rms          rms(c)
DAV:   1    -0.717186677336E+02    0.21689E-02   -0.25247E-01  1800   0.824E-01    0.200E-01
DAV:   2    -0.717194718615E+02   -0.80413E-03   -0.90811E-03  2256   0.300E-01    0.940E-02
DAV:   3    -0.717194272573E+02    0.44604E-04   -0.14568E-04  2208   0.517E-02    0.648E-02
DAV:   4    -0.717193900494E+02    0.37208E-04   -0.22315E-04  1928   0.552E-02    0.280E-02
DAV:   5    -0.717193934268E+02   -0.33774E-05   -0.46471E-05  2056   0.249E-02    0.106E-02
DAV:   6    -0.717193922952E+02    0.11316E-05   -0.13782E-06  1480   0.542E-03    0.833E-03
DAV:   7    -0.717193912677E+02    0.10276E-05   -0.77250E-06  1640   0.102E-02    0.391E-03
DAV:   8    -0.717193912430E+02    0.24695E-07   -0.15149E-06  1440   0.495E-03
 117 F= -.71719391E+02 E0= -.71719391E+02  d E =-.106938E-15
       N       E                     dE             d eps       ncg     rms          rms(c)
DAV:   1    -0.717129480189E+02    0.64432E-02   -0.20132E+00  1800   0.237E+00    0.494E-01
DAV:   2    -0.717195939747E+02   -0.66460E-02   -0.73461E-02  2176   0.790E-01    0.201E-01
DAV:   3    -0.717193701954E+02    0.22378E-03   -0.14504E-03  2496   0.150E-01    0.151E-01
DAV:   4    -0.717190679734E+02    0.30222E-03   -0.61355E-04  2016   0.109E-01    0.749E-02
DAV:   5    -0.717190254368E+02    0.42537E-04   -0.24446E-04  2392   0.652E-02    0.201E-02
DAV:   6    -0.717189885922E+02    0.36845E-04   -0.48851E-05  2144   0.375E-02    0.125E-02
DAV:   7    -0.717189748441E+02    0.13748E-04   -0.28407E-05  2200   0.274E-02    0.458E-03
DAV:   8    -0.717189649029E+02    0.99411E-05   -0.19653E-05  1928   0.290E-02    0.534E-03
DAV:   9    -0.717189630070E+02    0.18960E-05   -0.12750E-05  2144   0.152E-02    0.309E-03
DAV:  10    -0.717189614632E+02    0.15438E-05   -0.15328E-06  1544   0.103E-02    0.256E-03
DAV:  11    -0.717189605690E+02    0.89415E-06   -0.25005E-06  1528   0.115E-02
 118 F= -.71718961E+02 E0= -.71718961E+02  d E =-.186277E-15
       N       E                     dE             d eps       ncg     rms          rms(c)
DAV:   1    -0.717198825583E+02   -0.92110E-03   -0.25093E-01  1776   0.761E-01    0.223E-01
DAV:   2    -0.717207437221E+02   -0.86116E-03   -0.98072E-03  2312   0.279E-01    0.987E-02
DAV:   3    -0.717206884848E+02    0.55237E-04   -0.13658E-04  2376   0.479E-02    0.690E-02
DAV:   4    -0.717206483744E+02    0.40110E-04   -0.21629E-04  2056   0.502E-02    0.306E-02
DAV:   5    -0.717206520533E+02   -0.36788E-05   -0.45442E-05  2048   0.226E-02    0.101E-02
DAV:   6    -0.717206509778E+02    0.10755E-05   -0.17930E-06  1616   0.790E-03    0.574E-03
DAV:   7    -0.717206506065E+02    0.37132E-06   -0.28956E-06  1544   0.917E-03
 119 F= -.71720651E+02 E0= -.71720651E+02  d E =-.135886E-15
       N       E                     dE             d eps       ncg     rms          rms(c)
DAV:   1    -0.717179759768E+02    0.26750E-02   -0.10031E+00  1784   0.151E+00    0.460E-01
DAV:   2    -0.717214440891E+02   -0.34681E-02   -0.39486E-02  2344   0.557E-01    0.199E-01
DAV:   3    -0.717212161751E+02    0.22791E-03   -0.52816E-04  2328   0.974E-02    0.142E-01
DAV:   4    -0.717210555358E+02    0.16064E-03   -0.73058E-04  2088   0.977E-02    0.665E-02
DAV:   5    -0.717210706414E+02   -0.15106E-04   -0.16646E-04  2160   0.424E-02    0.191E-02
DAV:   6    -0.717210666288E+02    0.40126E-05   -0.68560E-06  1864   0.167E-02    0.880E-03
DAV:   7    -0.717210658640E+02    0.76478E-06   -0.47211E-06  1616   0.147E-02
 120 F= -.71721066E+02 E0= -.71721066E+02  d E =-.665253E-16
       N       E                     dE             d eps       ncg     rms          rms(c)
DAV:   1    -0.717191396960E+02    0.19269E-02   -0.25123E-01  1768   0.751E-01    0.218E-01
DAV:   2    -0.717199964460E+02   -0.85675E-03   -0.97561E-03  2336   0.273E-01    0.995E-02
DAV:   3    -0.717199409180E+02    0.55528E-04   -0.13441E-04  2448   0.458E-02    0.690E-02
DAV:   4    -0.717199004534E+02    0.40465E-04   -0.22768E-04  2016   0.467E-02    0.304E-02
DAV:   5    -0.717199039164E+02   -0.34631E-05   -0.45185E-05  2064   0.219E-02    0.100E-02
DAV:   6    -0.717199025832E+02    0.13333E-05   -0.23256E-06  1688   0.816E-03    0.507E-03
DAV:   7    -0.717199023222E+02    0.26100E-06   -0.24027E-06  1520   0.786E-03
 121 F= -.71719902E+02 E0= -.71719902E+02  d E =-.385072E-16
