 vasp.6.3.2 27Jun22 (build Mar 25 2024 10:42:18) complex                         
 executed on             LinuxGNU date 2024.03.31  10:54:16
 running on   32 total cores
 distrk:  each k-point on   32 cores,    1 groups
 distr:  one band on NCORE=   1 cores,   32 groups


--------------------------------------------------------------------------------------------------------


 INCAR:
   ISTART = 0
   ICHARG = 2
   PREC = Accurate
   IBRION = -1
   EDIFF = 0.000000001
   EDIFFG = -0.0005
   NSW = 0
   NELM = 100
   ENCUT = 520
   ISMEAR = -5
   SIGMA = 0.05
   ISPIN = 2
   ISYM = 0
   LWAVE = False
   LCHARG = False
   LASPH = True
   LORBIT = 11
   ADDGRID = TRUE

 POTCAR:    PAW_PBE S 06Sep2000                   
 -----------------------------------------------------------------------------
|                                                                             |
|           W    W    AA    RRRRR   N    N  II  N    N   GGGG   !!!           |
|           W    W   A  A   R    R  NN   N  II  NN   N  G    G  !!!           |
|           W    W  A    A  R    R  N N  N  II  N N  N  G       !!!           |
|           W WW W  AAAAAA  RRRRR   N  N N  II  N  N N  G  GGG   !            |
|           WW  WW  A    A  R   R   N   NN  II  N   NN  G    G                |
|           W    W  A    A  R    R  N    N  II  N    N   GGGG   !!!           |
|                                                                             |
|     You use a magnetic or noncollinear calculation, but did not specify     |
|     the initial magnetic moment with the MAGMOM tag. Note that a            |
|     default of 1 will be used for all atoms. This ferromagnetic setup       |
|     may break the symmetry of the crystal, in particular it may rule        |
|     out finding an antiferromagnetic solution. Thence, we recommend         |
|     setting the initial magnetic moment manually or verifying carefully     |
|     that this magnetic setup is desired.                                    |
|                                                                             |
 -----------------------------------------------------------------------------

 -----------------------------------------------------------------------------
|                                                                             |
|           W    W    AA    RRRRR   N    N  II  N    N   GGGG   !!!           |
|           W    W   A  A   R    R  NN   N  II  NN   N  G    G  !!!           |
|           W    W  A    A  R    R  N N  N  II  N N  N  G       !!!           |
|           W WW W  AAAAAA  RRRRR   N  N N  II  N  N N  G  GGG   !            |
|           WW  WW  A    A  R   R   N   NN  II  N   NN  G    G                |
|           W    W  A    A  R    R  N    N  II  N    N   GGGG   !!!           |
|                                                                             |
|     For optimal performance we recommend to set                             |
|       NCORE = 2 up to number-of-cores-per-socket                            |
|     NCORE specifies how many cores store one orbital (NPAR=cpu/NCORE).      |
|     This setting can greatly improve the performance of VASP for DFT.       |
|     The default, NCORE=1 might be grossly inefficient on modern             |
|     multi-core architectures or massively parallel machines. Do your        |
|     own testing! More info at https://www.vasp.at/wiki/index.php/NCORE      |
|     Unfortunately you need to use the default for GW and RPA                |
|     calculations (for HF NCORE is supported but not extensively tested      |
|     yet).                                                                   |
|                                                                             |
 -----------------------------------------------------------------------------

 POTCAR:    PAW_PBE S 06Sep2000                   
   SHA256 =  0fc7481fb0695f01bdc6462160264c5c84044ae9ec85a907d398b887a2bc3132 S/POTCAR              
   COPYR  = (c) Copyright 06Sep2000 Georg Kresse                                                    
   COPYR  = This file is part of the software VASP. Any use, copying, and all other rights are regul
   COPYR  = If you do not have a valid VASP license, you may not use, copy or distribute this file. 
   VRHFIN =S : s2p4                                                                                 
   LEXCH  = PE                                                                                      
   EATOM  =   276.8230 eV,   20.3459 Ry                                                             
                                                                                                    
   TITEL  = PAW_PBE S 06Sep2000                                                                     
   LULTRA =        F    use ultrasoft PP ?                                                          
   IUNSCR =        1    unscreen: 0-lin 1-nonlin 2-no                                               
   RPACOR =    1.500    partial core radius                                                         
   POMASS =   32.066; ZVAL   =    6.000    mass and valenz                                          
   RCORE  =    1.900    outmost cutoff radius                                                       
   RWIGS  =    2.200; RWIGS  =    1.164    wigner-seitz radius (au A)                               
   ENMAX  =  258.689; ENMIN  =  194.016 eV                                                          
   ICORE  =        2    local potential                                                             
   LCOR   =        T    correct aug charges                                                         
   LPAW   =        T    paw PP                                                                      
   EAUG   =  335.092                                                                                
   DEXC   =    0.000                                                                                
   RMAX   =    1.942    core radius for proj-oper                                                   
   RAUG   =    1.300    factor for augmentation sphere                                              
   RDEP   =    1.954    radius for radial grids                                                     
   RDEPT  =    1.744    core radius for aug-charge                                                  
                                                                                                    
   Atomic configuration                                                                             
    6 entries                                                                                       
     n  l   j            E        occ.                                                              
     1  0  0.50     -2405.8406   2.0000                                                             
     2  0  0.50      -211.7007   2.0000                                                             
     2  1  1.50      -156.4958   6.0000                                                             
     3  0  0.50       -17.2562   2.0000                                                             
     3  1  0.50        -7.0085   4.0000                                                             
     3  2  1.50        -6.8029   0.0000                                                             
   Description                                                                                      
     l       E           TYP  RCUT    TYP  RCUT                                                     
     0    -17.2561641     23  1.900                                                                 
     0    -15.8743224     23  1.900                                                                 
     1     -7.0085400     23  1.900                                                                 
     1     -2.7779785     23  1.900                                                                 
     2     -6.8029130     23  1.900                                                                 
  local pseudopotential read in
  partial core-charges read in
  partial kinetic energy density read in
  atomic valenz-charges read in
  non local Contribution for L=           0  read in
    real space projection operators read in
  non local Contribution for L=           0  read in
    real space projection operators read in
  non local Contribution for L=           1  read in
    real space projection operators read in
  non local Contribution for L=           1  read in
    real space projection operators read in
    PAW grid and wavefunctions read in

   number of l-projection  operators is LMAX  =           4
   number of lm-projection operators is LMMAX =           8

 -----------------------------------------------------------------------------
|                                                                             |
|               ----> ADVICE to this user running VASP <----                  |
|                                                                             |
|     You have a (more or less) 'large supercell' and for larger cells it     |
|     might be more efficient to use real-space projection operators.         |
|     Therefore, try LREAL= Auto in the INCAR file.                           |
|     Mind: For very accurate calculation, you might also keep the            |
|     reciprocal projection scheme (i.e. LREAL=.FALSE.).                      |
|                                                                             |
 -----------------------------------------------------------------------------

  PAW_PBE S 06Sep2000                   :
 energy of atom  1       EATOM= -276.8230
 kinetic energy error for atom=    0.0016 (will be added to EATOM!!)


 POSCAR: generated by phonopy
  positions in direct lattice
  No initial velocities read in
 exchange correlation table for  LEXCH =        8
   RHO(1)=    0.500       N(1)  =     2000
   RHO(2)=  100.500       N(2)  =     4000



--------------------------------------------------------------------------------------------------------


 ion  position               nearest neighbor table
   1  0.886  0.467  0.678-  45 1.98  24 2.13
   2  0.886  0.967  0.678-  46 1.98  23 2.13
   3  0.331  0.189  0.551-  41 2.04  19 2.13
   4  0.330  0.689  0.551-  42 2.05  20 2.13
   5  0.913  0.105  0.912-  51 1.98  11 2.13
   6  0.913  0.605  0.912-  52 1.98  12 2.13
   7  0.240  0.301  0.777-  19 1.98  37 2.23
   8  0.240  0.801  0.777-  20 1.98  38 2.23
   9  0.144  0.306  0.224-  31 2.05  39 2.13
  10  0.144  0.806  0.224-  32 2.05  40 2.13
  11  0.856  0.194  0.776-  47 2.05   5 2.13
  12  0.856  0.694  0.776-  48 2.05   6 2.13
  13  0.760  0.199  0.223-  27 1.98  33 2.23
  14  0.760  0.699  0.223-  28 1.98  34 2.23
  15  0.170  0.439  0.449-  31 2.05  30 2.13
  16  0.170  0.939  0.449-  32 2.05  29 2.13
  17  0.413  0.145  0.912-  37 1.98  43 2.13
  18  0.413  0.645  0.912-  38 1.98  44 2.13
  19  0.386  0.283  0.678-   7 1.98   3 2.13
  20  0.386  0.783  0.678-   8 1.98   4 2.13
  21  0.644  0.444  0.224-  53 2.05  35 2.13
  22  0.644  0.944  0.224-  54 2.05  36 2.13
  23  0.830  0.061  0.551-  47 2.05   2 2.13
  24  0.830  0.561  0.551-  48 2.05   1 2.13
  25  0.260  0.051  0.223-  29 1.98  50 2.23
  26  0.260  0.551  0.223-  30 1.98  49 2.23
  27  0.614  0.217  0.322-  13 1.98  55 2.13
  28  0.614  0.717  0.322-  14 1.98  56 2.13
  29  0.114  0.033  0.322-  25 1.98  16 2.13
  30  0.114  0.533  0.322-  26 1.98  15 2.13
  31  0.060  0.345  0.374-   9 2.05  15 2.05
  32  0.060  0.845  0.374-  10 2.05  16 2.05
  33  0.743  0.289  0.071-  35 1.98  13 2.23
  34  0.743  0.789  0.071-  36 1.98  14 2.23
  35  0.587  0.355  0.088-  33 1.98  21 2.13
  36  0.587  0.855  0.088-  34 1.98  22 2.13
  37  0.257  0.211  0.929-  17 1.98   7 2.23
  38  0.257  0.711  0.929-  18 1.98   8 2.23
  39  0.087  0.395  0.088-  49 1.98   9 2.13
  40  0.087  0.895  0.088-  50 1.98  10 2.13
  41  0.440  0.095  0.626-   3 2.04  43 2.05
  42  0.440  0.595  0.626-  44 2.05   4 2.05
  43  0.356  0.056  0.776-  41 2.05  17 2.13
  44  0.356  0.556  0.776-  42 2.05  18 2.13
  45  0.740  0.449  0.777-   1 1.98  52 2.23
  46  0.740  0.949  0.777-   2 1.98  51 2.23
  47  0.940  0.155  0.626-  11 2.05  23 2.05
  48  0.940  0.655  0.626-  12 2.05  24 2.05
  49  0.243  0.461  0.071-  39 1.98  26 2.23
  50  0.243  0.961  0.071-  40 1.98  25 2.23
  51  0.757  0.039  0.929-   5 1.98  46 2.23
  52  0.757  0.539  0.929-   6 1.98  45 2.23
  53  0.560  0.405  0.374-  21 2.05  55 2.05
  54  0.560  0.905  0.374-  22 2.05  56 2.05
  55  0.670  0.311  0.449-  53 2.05  27 2.13
  56  0.670  0.811  0.449-  54 2.05  28 2.13


IMPORTANT INFORMATION: All symmetrisations will be switched off!
NOSYMM: (Re-)initialisation of all symmetry stuff for point group C_1.


----------------------------------------------------------------------------------------

                                     Primitive cell                                     

  volume of cell :    1863.6770

  direct lattice vectors                    reciprocal lattice vectors
     0.000000000 10.307367086 -0.372855731     0.000000000  0.096453423 -0.015606996
    16.788494411  0.000000000  0.000000000     0.059564603  0.000000000  0.000000000
     0.000000000 -1.732519801-10.707215182     0.000000000 -0.003358783 -0.092851486

  length of vectors
    10.314108670 16.788494411 10.846477853     0.097707938  0.059564603  0.092912216

  position of ions in fractional coordinates (direct lattice)
     0.886423141  0.467004751  0.678126386
     0.886423141  0.967004751  0.678126386
     0.330532809  0.188743823  0.550707721
     0.329563264  0.688743823  0.550707721
     0.912671285  0.105241885  0.911960471
     0.912671285  0.605241885  0.911960471
     0.239736405  0.300831047  0.776574189
     0.239736405  0.800831047  0.776574189
     0.144417516  0.305688762  0.224396680
     0.144417516  0.805688762  0.224396680
     0.855582484  0.194311238  0.775603320
     0.855582484  0.694311238  0.775603320
     0.760263595  0.199168953  0.223425811
     0.760263595  0.699168953  0.223425811
     0.170436736  0.438743823  0.449292279
     0.170436736  0.938743823  0.449292279
     0.412671285  0.144758115  0.911960471
     0.412671285  0.644758115  0.911960471
     0.386423141  0.282995249  0.678126386
     0.386423141  0.782995249  0.678126386
     0.644417516  0.444311238  0.224396680
     0.644417516  0.944311238  0.224396680
     0.829563264  0.061256177  0.550707721
     0.829563264  0.561256177  0.550707721
     0.260263595  0.050831047  0.223425811
     0.260263595  0.550831047  0.223425811
     0.613576859  0.217004751  0.321873614
     0.613576859  0.717004751  0.321873614
     0.113576859  0.032995249  0.321873614
     0.113576859  0.532995249  0.321873614
     0.059895700  0.345087734  0.374484367
     0.059895700  0.845087734  0.374484367
     0.743425210  0.289344343  0.071165234
     0.743425210  0.789344343  0.071165234
     0.587328715  0.355241885  0.088039529
     0.587328715  0.855241885  0.088039529
     0.256574790  0.210655657  0.928834766
     0.256574790  0.710655657  0.928834766
     0.087328715  0.394758115  0.088039529
     0.087328715  0.894758115  0.088039529
     0.440104300  0.095087734  0.625515633
     0.440104300  0.595087734  0.625515633
     0.355582484  0.055688762  0.775603320
     0.355582484  0.555688762  0.775603320
     0.739736405  0.449168953  0.776574189
     0.739736405  0.949168953  0.776574189
     0.940104300  0.154912266  0.625515633
     0.940104300  0.654912266  0.625515633
     0.243425210  0.460655657  0.071165234
     0.243425210  0.960655657  0.071165234
     0.756574790  0.039344343  0.928834766
     0.756574790  0.539344343  0.928834766
     0.559895700  0.404912266  0.374484367
     0.559895700  0.904912266  0.374484367
     0.670436736  0.311256177  0.449292279
     0.670436736  0.811256177  0.449292279

  ion indices of the primitive-cell ions
   primitive index   ion index
                 1           1
                 2           2
                 3           3
                 4           4
                 5           5
                 6           6
                 7           7
                 8           8
                 9           9
                10          10
                11          11
                12          12
                13          13
                14          14
                15          15
                16          16
                17          17
                18          18
                19          19
                20          20
                21          21
                22          22
                23          23
                24          24
                25          25
                26          26
                27          27
                28          28
                29          29
                30          30
                31          31
                32          32
                33          33
                34          34
                35          35
                36          36
                37          37
                38          38
                39          39
                40          40
                41          41
                42          42
                43          43
                44          44
                45          45
                46          46
                47          47
                48          48
                49          49
                50          50
                51          51
                52          52
                53          53
                54          54
                55          55
                56          56

----------------------------------------------------------------------------------------



 KPOINTS: pymatgen with grid density = 595 / numbe

Automatic generation of k-mesh.
 Grid dimensions read from file:
 generate k-points for:    2    2    2

 Generating k-lattice:

  Cartesian coordinates                     Fractional coordinates (reciprocal lattice)
     0.000000000  0.048226712 -0.007803498     0.500000000  0.000000000 -0.000000000
     0.029782301  0.000000000  0.000000000     0.000000000  0.500000000  0.000000000
     0.000000000 -0.001679391 -0.046425743    -0.000000000  0.000000000  0.500000000

  Length of vectors
     0.048853969  0.029782301  0.046456108

  Shift w.r.t. Gamma in fractional coordinates (k-lattice)
     0.000000000  0.000000000  0.000000000

 TETIRR: Found     24 inequivalent tetrahedra from       48
 
 Subroutine IBZKPT returns following result:
 ===========================================
 
 Found      8 irreducible k-points:
 
 Following reciprocal coordinates:
            Coordinates               Weight
  0.000000  0.000000  0.000000      1.000000
  0.500000  0.000000  0.000000      1.000000
  0.000000  0.500000  0.000000      1.000000
  0.500000  0.500000  0.000000      1.000000
  0.000000  0.000000  0.500000      1.000000
  0.500000  0.000000  0.500000      1.000000
  0.000000  0.500000  0.500000      1.000000
  0.500000  0.500000  0.500000      1.000000
 
 Following cartesian coordinates:
            Coordinates               Weight
  0.000000  0.000000 -0.000000      1.000000
  0.000000  0.048227 -0.007803      1.000000
  0.029782  0.000000 -0.000000      1.000000
  0.029782  0.048227 -0.007803      1.000000
  0.000000 -0.001679 -0.046426      1.000000
  0.000000  0.046547 -0.054229      1.000000
  0.029782 -0.001679 -0.046426      1.000000
  0.029782  0.046547 -0.054229      1.000000
 


--------------------------------------------------------------------------------------------------------




 Dimension of arrays:
   k-points           NKPTS =      8   k-points in BZ     NKDIM =      8   number of bands    NBANDS=    256
   number of dos      NEDOS =    301   number of ions     NIONS =     56
   non local maximal  LDIM  =      4   non local SUM 2l+1 LMDIM =      8
   total plane-waves  NPLWV = 846720
   max r-space proj   IRMAX =      1   max aug-charges    IRDMAX= 114695
   dimension x,y,z NGX =    80 NGY =  126 NGZ =   84
   dimension x,y,z NGXF=   160 NGYF=  252 NGZF=  168
   support grid    NGXF=   320 NGYF=  504 NGZF=  336
   ions per type =              56
   NGX,Y,Z   is equivalent  to a cutoff of  12.89, 12.48, 12.87 a.u.
   NGXF,Y,Z  is equivalent  to a cutoff of  25.79, 24.95, 25.75 a.u.

 SYSTEM =  unknown system                          
 POSCAR =  generated by phonopy                    

 Startparameter for this run:
   NWRITE =      2    write-flag & timer
   PREC   = accura    normal or accurate (medium, high low for compatibility)
   ISTART =      0    job   : 0-new  1-cont  2-samecut
   ICHARG =      2    charge: 1-file 2-atom 10-const
   ISPIN  =      2    spin polarized calculation?
   LNONCOLLINEAR =      F non collinear calculations
   LSORBIT =      F    spin-orbit coupling
   INIWAV =      1    electr: 0-lowe 1-rand  2-diag
   LASPH  =      T    aspherical Exc in radial PAW
 Electronic Relaxation 1
   ENCUT  =  520.0 eV  38.22 Ry    6.18 a.u.  19.18 31.22 20.17*2*pi/ulx,y,z
   ENINI  =  520.0     initial cutoff
   ENAUG  =  335.1 eV  augmentation charge cutoff
   NELM   =    100;   NELMIN=  2; NELMDL= -5     # of ELM steps 
   EDIFF  = 0.1E-08   stopping-criterion for ELM
   LREAL  =      F    real-space projection
   NLSPLINE    = F    spline interpolate recip. space projectors
   LCOMPAT=      F    compatible to vasp.4.4
   GGA_COMPAT  = T    GGA compatible to vasp.4.4-vasp.4.6
   LMAXPAW     = -100 max onsite density
   LMAXMIX     =    2 max onsite mixed and CHGCAR
   VOSKOWN=      0    Vosko Wilk Nusair interpolation
   ROPT   =    0.00000
 Ionic relaxation
   EDIFFG = -.5E-03   stopping-criterion for IOM
   NSW    =      0    number of steps for IOM
   NBLOCK =      1;   KBLOCK =      1    inner block; outer block 
   IBRION =     -1    ionic relax: 0-MD 1-quasi-New 2-CG
   NFREE  =      0    steps in history (QN), initial steepest desc. (CG)
   ISIF   =      2    stress and relaxation
   IWAVPR =     10    prediction:  0-non 1-charg 2-wave 3-comb
   ISYM   =      0    0-nonsym 1-usesym 2-fastsym
   LCORR  =      T    Harris-Foulkes like correction to forces

   POTIM  = 0.5000    time-step for ionic-motion
   TEIN   =    0.0    initial temperature
   TEBEG  =    0.0;   TEEND  =   0.0 temperature during run
   SMASS  =  -3.00    Nose mass-parameter (am)
   estimated Nose-frequenzy (Omega)   =  0.10E-29 period in steps = 0.13E+47 mass=  -0.243E-26a.u.
   SCALEE = 1.0000    scale energy and forces
   NPACO  =    256;   APACO  = 10.0  distance and # of slots for P.C.
   PSTRESS=    0.0 pullay stress

  Mass of Ions in am
   POMASS =  32.07
  Ionic Valenz
   ZVAL   =   6.00
  Atomic Wigner-Seitz radii
   RWIGS  =  -1.00
  virtual crystal weights 
   VCA    =   1.00
   NELECT =     336.0000    total number of electrons
   NUPDOWN=      -1.0000    fix difference up-down

 DOS related values:
   EMIN   =  10.00;   EMAX   =-10.00  energy-range for DOS
   EFERMI =   0.00
   ISMEAR =    -5;   SIGMA  =   0.05  broadening in eV -4-tet -1-fermi 0-gaus

 Electronic relaxation 2 (details)
   IALGO  =     38    algorithm
   LDIAG  =      T    sub-space diagonalisation (order eigenvalues)
   LSUBROT=      F    optimize rotation matrix (better conditioning)
   TURBO    =      0    0=normal 1=particle mesh
   IRESTART =      0    0=no restart 2=restart with 2 vectors
   NREBOOT  =      0    no. of reboots
   NMIN     =      0    reboot dimension
   EREF     =   0.00    reference energy to select bands
   IMIX   =      4    mixing-type and parameters
     AMIX     =   0.40;   BMIX     =  1.00
     AMIX_MAG =   1.60;   BMIX_MAG =  1.00
     AMIN     =   0.10
     WC   =   100.;   INIMIX=   1;  MIXPRE=   1;  MAXMIX= -45

 Intra band minimization:
   WEIMIN = 0.0000     energy-eigenvalue tresh-hold
   EBREAK =  0.98E-12  absolut break condition
   DEPER  =   0.30     relativ break condition  

   TIME   =   0.40     timestep for ELM

  volume/ion in A,a.u.               =      33.28       224.58
  Fermi-wavevector in a.u.,A,eV,Ry     =   0.924835  1.747685 11.637339  0.855320
  Thomas-Fermi vector in A             =   2.050624

 Write flags
   LWAVE        =      F    write WAVECAR
   LDOWNSAMPLE  =      F    k-point downsampling of WAVECAR
   LCHARG       =      F    write CHGCAR
   LVTOT        =      F    write LOCPOT, total local potential
   LVHAR        =      F    write LOCPOT, Hartree potential only
   LELF         =      F    write electronic localiz. function (ELF)
   LORBIT       =     11    0 simple, 1 ext, 2 COOP (PROOUT), +10 PAW based schemes


 Dipole corrections
   LMONO  =      F    monopole corrections only (constant potential shift)
   LDIPOL =      F    correct potential (dipole corrections)
   IDIPOL =      0    1-x, 2-y, 3-z, 4-all directions 
   EPSILON=  1.0000000 bulk dielectric constant

 Exchange correlation treatment:
   GGA     =    --    GGA type
   LEXCH   =     8    internal setting for exchange type
   LIBXC   =     F    Libxc                    
   VOSKOWN =     0    Vosko Wilk Nusair interpolation
   LHFCALC =     F    Hartree Fock is set to
   LHFONE  =     F    Hartree Fock one center treatment
   AEXX    =    0.0000 exact exchange contribution

 Linear response parameters
   LEPSILON=     F    determine dielectric tensor
   LRPA    =     F    only Hartree local field effects (RPA)
   LNABLA  =     F    use nabla operator in PAW spheres
   LVEL    =     F    velocity operator in full k-point grid
   CSHIFT  =0.1000    complex shift for real part using Kramers Kronig
   OMEGAMAX=  -1.0    maximum frequency
   DEG_THRESHOLD= 0.2000000E-02 threshold for treating states as degnerate
   RTIME   =   -0.100 relaxation time in fs
  (WPLASMAI=    0.000 imaginary part of plasma frequency in eV, 0.658/RTIME)
   DFIELD  = 0.0000000 0.0000000 0.0000000 field for delta impulse in time

  Optional k-point grid parameters
   LKPOINTS_OPT  =     F    use optional k-point grid
   KPOINTS_OPT_MODE=     1    mode for optional k-point grid

 Orbital magnetization related:
   ORBITALMAG=     F  switch on orbital magnetization
   LCHIMAG   =     F  perturbation theory with respect to B field
   DQ        =  0.001000  dq finite difference perturbation B field
   LLRAUG    =     F  two centre corrections for induced B field



--------------------------------------------------------------------------------------------------------


 Static calculation
 charge density and potential will be updated during run
 spin polarized calculation
 Variant of blocked Davidson
 Davidson routine will perform the subspace rotation
 perform sub-space diagonalisation
    after iterative eigenvector-optimisation
 modified Broyden-mixing scheme, WC =      100.0
 initial mixing is a Kerker type mixing with AMIX =  0.4000 and BMIX =      1.0000
 Hartree-type preconditioning will be used
 using additional bands           88
 reciprocal scheme for non local part
 use partial core corrections
 calculate Harris-corrections to forces   (improved forces if not selfconsistent)
 use gradient corrections 
 use of overlap-Matrix (Vanderbilt PP)
 Fermi weights with tetrahedron method with Bloechl corrections


--------------------------------------------------------------------------------------------------------


  energy-cutoff  :      520.00
  volume of cell :     1863.68
      direct lattice vectors                 reciprocal lattice vectors
     0.000000000 10.307367086 -0.372855731     0.000000000  0.096453423 -0.015606996
    16.788494411  0.000000000  0.000000000     0.059564603  0.000000000  0.000000000
     0.000000000 -1.732519801-10.707215182     0.000000000 -0.003358783 -0.092851486

  length of vectors
    10.314108670 16.788494411 10.846477853     0.097707938  0.059564603  0.092912216



 k-points in units of 2pi/SCALE and weight: pymatgen with grid density = 595 / numbe
   0.00000000  0.00000000 -0.00000000       0.125
   0.00000000  0.04822671 -0.00780350       0.125
   0.02978230  0.00000000 -0.00000000       0.125
   0.02978230  0.04822671 -0.00780350       0.125
   0.00000000 -0.00167939 -0.04642574       0.125
   0.00000000  0.04654732 -0.05422924       0.125
   0.02978230 -0.00167939 -0.04642574       0.125
   0.02978230  0.04654732 -0.05422924       0.125

 k-points in reciprocal lattice and weights: pymatgen with grid density = 595 / numbe
   0.00000000  0.00000000  0.00000000       0.125
   0.50000000  0.00000000  0.00000000       0.125
   0.00000000  0.50000000  0.00000000       0.125
   0.50000000  0.50000000  0.00000000       0.125
   0.00000000  0.00000000  0.50000000       0.125
   0.50000000  0.00000000  0.50000000       0.125
   0.00000000  0.50000000  0.50000000       0.125
   0.50000000  0.50000000  0.50000000       0.125

 position of ions in fractional coordinates (direct lattice) 
   0.88642314  0.46700475  0.67812639
   0.88642314  0.96700475  0.67812639
   0.33053281  0.18874382  0.55070772
   0.32956326  0.68874382  0.55070772
   0.91267129  0.10524188  0.91196047
   0.91267129  0.60524188  0.91196047
   0.23973640  0.30083105  0.77657419
   0.23973640  0.80083105  0.77657419
   0.14441752  0.30568876  0.22439668
   0.14441752  0.80568876  0.22439668
   0.85558248  0.19431124  0.77560332
   0.85558248  0.69431124  0.77560332
   0.76026360  0.19916895  0.22342581
   0.76026360  0.69916895  0.22342581
   0.17043674  0.43874382  0.44929228
   0.17043674  0.93874382  0.44929228
   0.41267129  0.14475812  0.91196047
   0.41267129  0.64475812  0.91196047
   0.38642314  0.28299525  0.67812639
   0.38642314  0.78299525  0.67812639
   0.64441752  0.44431124  0.22439668
   0.64441752  0.94431124  0.22439668
   0.82956326  0.06125618  0.55070772
   0.82956326  0.56125618  0.55070772
   0.26026360  0.05083105  0.22342581
   0.26026360  0.55083105  0.22342581
   0.61357686  0.21700475  0.32187361
   0.61357686  0.71700475  0.32187361
   0.11357686  0.03299525  0.32187361
   0.11357686  0.53299525  0.32187361
   0.05989570  0.34508773  0.37448437
   0.05989570  0.84508773  0.37448437
   0.74342521  0.28934434  0.07116523
   0.74342521  0.78934434  0.07116523
   0.58732871  0.35524188  0.08803953
   0.58732871  0.85524188  0.08803953
   0.25657479  0.21065566  0.92883477
   0.25657479  0.71065566  0.92883477
   0.08732871  0.39475812  0.08803953
   0.08732871  0.89475812  0.08803953
   0.44010430  0.09508773  0.62551563
   0.44010430  0.59508773  0.62551563
   0.35558248  0.05568876  0.77560332
   0.35558248  0.55568876  0.77560332
   0.73973640  0.44916895  0.77657419
   0.73973640  0.94916895  0.77657419
   0.94010430  0.15491227  0.62551563
   0.94010430  0.65491227  0.62551563
   0.24342521  0.46065566  0.07116523
   0.24342521  0.96065566  0.07116523
   0.75657479  0.03934434  0.92883477
   0.75657479  0.53934434  0.92883477
   0.55989570  0.40491227  0.37448437
   0.55989570  0.90491227  0.37448437
   0.67043674  0.31125618  0.44929228
   0.67043674  0.81125618  0.44929228

 position of ions in cartesian coordinates  (Angst):
   7.84030666  7.96182132 -7.59135308
  16.23455387  7.96182132 -7.59135308
   3.16872461  2.45281097 -6.01978712
  11.56297182  2.44281751 -6.01942562
   1.76685280  7.82724839-10.10485172
  10.16110000  7.82724839-10.10485172
   5.05050035  1.12562097 -8.40433404
  13.44474755  1.12562097 -8.40433404
   5.13205407  1.09979266 -2.45651044
  13.52630128  1.09979266 -2.45651044
   3.26219313  7.47505463 -8.62356047
  11.65644034  7.47505463 -8.62356047
   3.34374686  7.44922632 -2.67573688
  11.73799406  7.44922632 -2.67573688
   7.36584822  0.97834624 -4.87421742
  15.76009542  0.97834624 -4.87421742
   2.43027081  2.67356485 -9.91842386
  10.82451801  2.67356485 -9.91842386
   4.75106415  2.80813777 -7.40492521
  13.14531135  2.80813777 -7.40492521
   7.45931673  6.25347620 -2.64293831
  15.85356394  6.25347620 -2.64293831
   1.02839899  7.59650105 -6.20585349
   9.42264619  7.59650105 -6.20585349
   0.85337674  2.29554277 -2.48930901
   9.24762395  2.29554277 -2.48930901
   3.64318306  5.76670951 -3.67514570
  12.03743026  5.76670951 -3.67514570
   0.55394055  0.61302597 -3.48871783
   8.94818775  0.61302597 -3.48871783
   5.79350349 -0.03143461 -4.03201715
  14.18775070 -0.03143461 -4.03201715
   4.85765589  7.53946136 -1.03917182
  13.25190310  7.53946136 -1.03917182
   5.96397640  5.90128244 -1.16164705
  14.35822361  5.90128244 -1.16164705
   3.53659131  1.03538593-10.04089909
  11.93083852  1.03538593-10.04089909
   6.62739441  0.74759889 -0.97521919
  15.02164161  0.74759889 -0.97521919
   1.59637989  3.45259836 -6.86162589
   9.99062710  3.45259836 -6.86162589
   0.93493047  2.32137108 -8.43713261
   9.32917768  2.32137108 -8.43713261
   7.54087046  6.27930451 -8.59076190
  15.93511767  6.27930451 -8.59076190
   2.60074371  8.60628190 -7.04805376
  10.99499092  8.60628190 -7.04805376
   7.73371492  2.38577782 -0.85274396
  16.12796212  2.38577782 -0.85274396
   0.66053229  6.18906947-10.22732695
   9.05477950  6.18906947-10.22732695
   6.79786731  5.12224893 -4.21844502
  15.19211452  5.12224893 -4.21844502
   5.22552259  6.13202978 -5.06064529
  13.61976980  6.13202978 -5.06064529



--------------------------------------------------------------------------------------------------------


 k-point   1 :   0.0000 0.0000 0.0000  plane waves:   50179
 k-point   2 :   0.5000 0.0000 0.0000  plane waves:   50160
 k-point   3 :   0.0000 0.5000 0.0000  plane waves:   50162
 k-point   4 :   0.5000 0.5000 0.0000  plane waves:   50192
 k-point   5 :   0.0000 0.0000 0.5000  plane waves:   50190
 k-point   6 :   0.5000 0.0000 0.5000  plane waves:   50190
 k-point   7 :   0.0000 0.5000 0.5000  plane waves:   50172
 k-point   8 :   0.5000 0.5000 0.5000  plane waves:   50200

 maximum and minimum number of plane-waves per node :     50200    50160

 maximum number of plane-waves:     50200
 maximum index in each direction: 
   IXMAX=   19   IYMAX=   31   IZMAX=   20
   IXMIN=  -19   IYMIN=  -31   IZMIN=  -20


 serial   3D FFT for wavefunctions
 parallel 3D FFT for charge:
    minimum data exchange during FFTs selected (reduces bandwidth)


 total amount of memory used by VASP MPI-rank0   322725. kBytes
=======================================================================

   base      :      30000. kBytes
   nonl-proj :      70692. kBytes
   fftplans  :      34504. kBytes
   grid      :      83442. kBytes
   one-center:        344. kBytes
   wavefun   :     103743. kBytes

     INWAV:  cpu time      0.0000: real time      0.0002
 Broyden mixing: mesh for mixing (old mesh)
   NGX = 39   NGY = 63   NGZ = 41
  (NGX  =160   NGY  =252   NGZ  =168)
  gives a total of 100737 points

 initial charge density was supplied:
 charge density of overlapping atoms calculated
 number of electron     336.0000000 magnetization      56.0000000
 keeping initial charge density in first step


--------------------------------------------------------------------------------------------------------


 Maximum index for augmentation-charges         3947 (set IRDMAX)


--------------------------------------------------------------------------------------------------------


 First call to EWALD:  gamma=   0.144
 Maximum number of real-space cells 3x 2x 3
 Maximum number of reciprocal cells 2x 4x 2

    FEWALD:  cpu time      0.0020: real time      0.0020


--------------------------------------- Iteration      1(   1)  ---------------------------------------


    POTLOK:  cpu time      0.4963: real time      0.5050
    SETDIJ:  cpu time     11.7041: real time     11.7056
     EDDAV:  cpu time     51.3647: real time     51.3816
 BZINTS: Fermi energy:   10.166585;  336.000000 electrons
         Band energy: 0.225078E+03;  BLOECHL correction:   -0.008809
       DOS:  cpu time      0.0478: real time      0.0478
    --------------------------------------------
      LOOP:  cpu time     63.6129: real time     63.6400

 eigenvalue-minimisations  :  8192
 total energy-change (2. order) : 0.2106265E+04  (-0.1333801E+05)
 number of electron     336.0000000 magnetization      56.0000000
 augmentation part      336.0000000 magnetization      56.0000000

 Free energy of the ion-electron system (eV)
  ---------------------------------------------------
  alpha Z        PSCENC =       253.99581917
  Ewald energy   TEWEN  =     -9970.41671554
  -Hartree energ DENC   =     -4766.16390783
  -exchange      EXHF   =         0.00000000
  -V(xc)+E(xc)   XCENC  =       682.52439331
  PAW double counting   =     12174.71095765   -11995.46358648
  entropy T*S    EENTRO =         0.00000000
  eigenvalues    EBANDS =       225.07835278
  atomic energy  EATOM  =     15501.99929693
  Solvation  Ediel_sol  =         0.00000000
  ---------------------------------------------------
  free energy    TOTEN  =      2106.26461000 eV

  energy without entropy =     2106.26461000  energy(sigma->0) =     2106.26461000


--------------------------------------------------------------------------------------------------------




--------------------------------------- Iteration      1(   2)  ---------------------------------------


     EDDAV:  cpu time     61.5373: real time     61.5497
 BZINTS: Fermi energy:    1.451863;  336.000000 electrons
         Band energy:-0.187491E+04;  BLOECHL correction:    0.000000
       DOS:  cpu time      0.0277: real time      0.0277
    --------------------------------------------
      LOOP:  cpu time     61.5650: real time     61.5774

 eigenvalue-minimisations  : 10272
 total energy-change (2. order) :-0.2099990E+04  (-0.2021806E+04)
 number of electron     336.0000000 magnetization      56.0000000
 augmentation part      336.0000000 magnetization      56.0000000

 Free energy of the ion-electron system (eV)
  ---------------------------------------------------
  alpha Z        PSCENC =       253.99581917
  Ewald energy   TEWEN  =     -9970.41671554
  -Hartree energ DENC   =     -4766.16390783
  -exchange      EXHF   =         0.00000000
  -V(xc)+E(xc)   XCENC  =       682.52439331
  PAW double counting   =     12174.71095765   -11995.46358648
  entropy T*S    EENTRO =         0.00000000
  eigenvalues    EBANDS =     -1874.91170098
  atomic energy  EATOM  =     15501.99929693
  Solvation  Ediel_sol  =         0.00000000
  ---------------------------------------------------
  free energy    TOTEN  =         6.27455624 eV

  energy without entropy =        6.27455624  energy(sigma->0) =        6.27455624


--------------------------------------------------------------------------------------------------------




--------------------------------------- Iteration      1(   3)  ---------------------------------------


     EDDAV:  cpu time     58.2955: real time     58.3067
 BZINTS: Fermi energy:    0.219699;  336.000000 electrons
         Band energy:-0.209476E+04;  BLOECHL correction:    0.000000
       DOS:  cpu time      0.0276: real time      0.0277
    --------------------------------------------
      LOOP:  cpu time     58.3231: real time     58.3344

 eigenvalue-minimisations  : 10240
 total energy-change (2. order) :-0.2198531E+03  (-0.2171674E+03)
 number of electron     336.0000000 magnetization      56.0000000
 augmentation part      336.0000000 magnetization      56.0000000

 Free energy of the ion-electron system (eV)
  ---------------------------------------------------
  alpha Z        PSCENC =       253.99581917
  Ewald energy   TEWEN  =     -9970.41671554
  -Hartree energ DENC   =     -4766.16390783
  -exchange      EXHF   =         0.00000000
  -V(xc)+E(xc)   XCENC  =       682.52439331
  PAW double counting   =     12174.71095765   -11995.46358648
  entropy T*S    EENTRO =         0.00000000
  eigenvalues    EBANDS =     -2094.76477439
  atomic energy  EATOM  =     15501.99929693
  Solvation  Ediel_sol  =         0.00000000
  ---------------------------------------------------
  free energy    TOTEN  =      -213.57851717 eV

  energy without entropy =     -213.57851717  energy(sigma->0) =     -213.57851717


--------------------------------------------------------------------------------------------------------




--------------------------------------- Iteration      1(   4)  ---------------------------------------


     EDDAV:  cpu time     58.7470: real time     58.7642
 BZINTS: Fermi energy:    0.191563;  336.000000 electrons
         Band energy:-0.209966E+04;  BLOECHL correction:   -0.000000
       DOS:  cpu time      0.0295: real time      0.0295
    --------------------------------------------
      LOOP:  cpu time     58.7765: real time     58.7937

 eigenvalue-minimisations  : 10304
 total energy-change (2. order) :-0.4896274E+01  (-0.4877918E+01)
 number of electron     336.0000000 magnetization      56.0000000
 augmentation part      336.0000000 magnetization      56.0000000

 Free energy of the ion-electron system (eV)
  ---------------------------------------------------
  alpha Z        PSCENC =       253.99581917
  Ewald energy   TEWEN  =     -9970.41671554
  -Hartree energ DENC   =     -4766.16390783
  -exchange      EXHF   =         0.00000000
  -V(xc)+E(xc)   XCENC  =       682.52439331
  PAW double counting   =     12174.71095765   -11995.46358648
  entropy T*S    EENTRO =         0.00000000
  eigenvalues    EBANDS =     -2099.66104799
  atomic energy  EATOM  =     15501.99929693
  Solvation  Ediel_sol  =         0.00000000
  ---------------------------------------------------
  free energy    TOTEN  =      -218.47479078 eV

  energy without entropy =     -218.47479078  energy(sigma->0) =     -218.47479078


--------------------------------------------------------------------------------------------------------




--------------------------------------- Iteration      1(   5)  ---------------------------------------


     EDDAV:  cpu time     62.5716: real time     62.5832
 BZINTS: Fermi energy:    0.191461;  336.000000 electrons
         Band energy:-0.209980E+04;  BLOECHL correction:    0.000000
       DOS:  cpu time      0.0267: real time      0.0268
    CHARGE:  cpu time     18.4298: real time     18.4327
    MIXING:  cpu time      0.0164: real time      0.0164
    --------------------------------------------
      LOOP:  cpu time     81.0446: real time     81.0591

 eigenvalue-minimisations  : 10080
 total energy-change (2. order) :-0.1371809E+00  (-0.1371145E+00)
 number of electron     335.9999997 magnetization      44.9918631
 augmentation part      -47.3221149 magnetization      44.8836832

 Broyden mixing:
  rms(total) = 0.82958E+01    rms(broyden)= 0.82958E+01
  rms(prec ) = 0.83157E+01
  weight for this iteration     100.00

 Free energy of the ion-electron system (eV)
  ---------------------------------------------------
  alpha Z        PSCENC =       253.99581917
  Ewald energy   TEWEN  =     -9970.41671554
  -Hartree energ DENC   =     -4766.16390783
  -exchange      EXHF   =         0.00000000
  -V(xc)+E(xc)   XCENC  =       682.52439331
  PAW double counting   =     12174.71095765   -11995.46358648
  entropy T*S    EENTRO =         0.00000000
  eigenvalues    EBANDS =     -2099.79822885
  atomic energy  EATOM  =     15501.99929693
  Solvation  Ediel_sol  =         0.00000000
  ---------------------------------------------------
  free energy    TOTEN  =      -218.61197164 eV

  energy without entropy =     -218.61197164  energy(sigma->0) =     -218.61197164


--------------------------------------------------------------------------------------------------------




--------------------------------------- Iteration      1(   6)  ---------------------------------------


    POTLOK:  cpu time      0.4523: real time      0.4584
    SETDIJ:  cpu time     19.7837: real time     19.7863
     EDDAV:  cpu time     56.1398: real time     56.1493
 BZINTS: Fermi energy:    0.408817;  336.000000 electrons
         Band energy:-0.201429E+04;  BLOECHL correction:    0.000000
       DOS:  cpu time      0.0288: real time      0.0288
    CHARGE:  cpu time     27.3140: real time     27.3163
    MIXING:  cpu time      0.0201: real time      0.0201
    --------------------------------------------
      LOOP:  cpu time    103.7388: real time    103.7593

 eigenvalue-minimisations  :  9632
 total energy-change (2. order) : 0.1022904E+03  (-0.2667774E+02)
 number of electron     335.9999996 magnetization      26.4960597
 augmentation part      -47.6484143 magnetization      27.5545809

 Broyden mixing:
  rms(total) = 0.49379E+01    rms(broyden)= 0.49379E+01
  rms(prec ) = 0.49602E+01
  weight for this iteration     100.00

 eigenvalues of (default mixing * dielectric matrix)
  average eigenvalue GAMMA=   1.6663
  1.6663

 Free energy of the ion-electron system (eV)
  ---------------------------------------------------
  alpha Z        PSCENC =       253.99581917
  Ewald energy   TEWEN  =     -9970.41671554
  -Hartree energ DENC   =     -4810.50364641
  -exchange      EXHF   =         0.00000000
  -V(xc)+E(xc)   XCENC  =       746.11829025
  PAW double counting   =     20738.75499005   -20561.97805849
  entropy T*S    EENTRO =         0.00000000
  eigenvalues    EBANDS =     -2014.29155652
  atomic energy  EATOM  =     15501.99929693
  Solvation  Ediel_sol  =         0.00000000
  ---------------------------------------------------
  free energy    TOTEN  =      -116.32158056 eV

  energy without entropy =     -116.32158056  energy(sigma->0) =     -116.32158056


--------------------------------------------------------------------------------------------------------




--------------------------------------- Iteration      1(   7)  ---------------------------------------


    POTLOK:  cpu time      0.4313: real time      0.4338
    SETDIJ:  cpu time     25.3454: real time     25.3485
     EDDAV:  cpu time     59.8747: real time     59.8902
 BZINTS: Fermi energy:    0.737690;  336.000000 electrons
         Band energy:-0.186793E+04;  BLOECHL correction:    0.000000
       DOS:  cpu time      0.0258: real time      0.0258
    CHARGE:  cpu time     23.7995: real time     23.8026
    MIXING:  cpu time      0.0220: real time      0.0220
    --------------------------------------------
      LOOP:  cpu time    109.4986: real time    109.5229

 eigenvalue-minimisations  : 10144
 total energy-change (2. order) :-0.1114712E+02  (-0.2695742E+01)
 number of electron     335.9999997 magnetization      19.7208872
 augmentation part      -47.3164411 magnetization      20.9265813

 Broyden mixing:
  rms(total) = 0.13984E+01    rms(broyden)= 0.13984E+01
  rms(prec ) = 0.14021E+01
  weight for this iteration     100.00

 eigenvalues of (default mixing * dielectric matrix)
  average eigenvalue GAMMA=   1.4857
  0.7903  2.1810

 Free energy of the ion-electron system (eV)
  ---------------------------------------------------
  alpha Z        PSCENC =       253.99581917
  Ewald energy   TEWEN  =     -9970.41671554
  -Hartree energ DENC   =     -4969.92697217
  -exchange      EXHF   =         0.00000000
  -V(xc)+E(xc)   XCENC  =       751.44980722
  PAW double counting   =     37045.49565880   -36872.13196793
  entropy T*S    EENTRO =         0.00000000
  eigenvalues    EBANDS =     -1867.93362284
  atomic energy  EATOM  =     15501.99929693
  Solvation  Ediel_sol  =         0.00000000
  ---------------------------------------------------
  free energy    TOTEN  =      -127.46869634 eV

  energy without entropy =     -127.46869634  energy(sigma->0) =     -127.46869634


--------------------------------------------------------------------------------------------------------




--------------------------------------- Iteration      1(   8)  ---------------------------------------


    POTLOK:  cpu time      0.4477: real time      0.4480
    SETDIJ:  cpu time     21.9929: real time     21.9998
     EDDAV:  cpu time     55.2340: real time     55.2482
 BZINTS: Fermi energy:    0.705803;  336.000000 electrons
         Band energy:-0.185538E+04;  BLOECHL correction:    0.000000
       DOS:  cpu time      0.0265: real time      0.0266
    CHARGE:  cpu time     21.0391: real time     21.0425
    MIXING:  cpu time      0.0171: real time      0.0171
    --------------------------------------------
      LOOP:  cpu time     98.7573: real time     98.7822

 eigenvalue-minimisations  :  9312
 total energy-change (2. order) :-0.4274840E+02  (-0.1979263E+01)
 number of electron     335.9999997 magnetization      16.0631520
 augmentation part      -47.0115744 magnetization      17.1077104

 Broyden mixing:
  rms(total) = 0.78203E+00    rms(broyden)= 0.78203E+00
  rms(prec ) = 0.78718E+00
  weight for this iteration     100.00

 eigenvalues of (default mixing * dielectric matrix)
  average eigenvalue GAMMA=   1.3385
  2.4898  0.9420  0.5835

 Free energy of the ion-electron system (eV)
  ---------------------------------------------------
  alpha Z        PSCENC =       253.99581917
  Ewald energy   TEWEN  =     -9970.41671554
  -Hartree energ DENC   =     -4999.56853203
  -exchange      EXHF   =         0.00000000
  -V(xc)+E(xc)   XCENC  =       726.55760901
  PAW double counting   =     40195.23204191   -40022.63533588
  entropy T*S    EENTRO =         0.00000000
  eigenvalues    EBANDS =     -1855.38128390
  atomic energy  EATOM  =     15501.99929693
  Solvation  Ediel_sol  =         0.00000000
  ---------------------------------------------------
  free energy    TOTEN  =      -170.21710033 eV

  energy without entropy =     -170.21710033  energy(sigma->0) =     -170.21710033


--------------------------------------------------------------------------------------------------------




--------------------------------------- Iteration      1(   9)  ---------------------------------------


    POTLOK:  cpu time      0.4254: real time      0.4257
    SETDIJ:  cpu time     22.4059: real time     22.4086
     EDDAV:  cpu time     56.1446: real time     56.1556
 BZINTS: Fermi energy:    0.628153;  336.000000 electrons
         Band energy:-0.186663E+04;  BLOECHL correction:    0.000000
       DOS:  cpu time      0.0258: real time      0.0258
    CHARGE:  cpu time     23.7786: real time     23.7821
    MIXING:  cpu time      1.5970: real time      1.5973
    --------------------------------------------
      LOOP:  cpu time    104.3772: real time    104.3952

 eigenvalue-minimisations  : 10240
 total energy-change (2. order) :-0.1673526E+02  (-0.6406166E+00)
 number of electron     335.9999997 magnetization      11.5340101
 augmentation part      -46.9153161 magnetization      12.3717563

 Broyden mixing:
  rms(total) = 0.43627E+00    rms(broyden)= 0.43627E+00
  rms(prec ) = 0.44832E+00
  weight for this iteration     100.00

 eigenvalues of (default mixing * dielectric matrix)
  average eigenvalue GAMMA=   1.3244
  2.5742  1.3009  0.7113  0.7113

 Free energy of the ion-electron system (eV)
  ---------------------------------------------------
  alpha Z        PSCENC =       253.99581917
  Ewald energy   TEWEN  =     -9970.41671554
  -Hartree energ DENC   =     -4995.75450557
  -exchange      EXHF   =         0.00000000
  -V(xc)+E(xc)   XCENC  =       717.24340650
  PAW double counting   =     40973.63210659   -40801.01695764
  entropy T*S    EENTRO =         0.00000000
  eigenvalues    EBANDS =     -1866.63481162
  atomic energy  EATOM  =     15501.99929693
  Solvation  Ediel_sol  =         0.00000000
  ---------------------------------------------------
  free energy    TOTEN  =      -186.95236117 eV

  energy without entropy =     -186.95236117  energy(sigma->0) =     -186.95236117


--------------------------------------------------------------------------------------------------------




--------------------------------------- Iteration      1(  10)  ---------------------------------------


    POTLOK:  cpu time      0.4417: real time      0.4420
    SETDIJ:  cpu time     23.9447: real time     23.9478
     EDDAV:  cpu time     59.6230: real time     59.6387
 BZINTS: Fermi energy:    0.474966;  336.000000 electrons
         Band energy:-0.190113E+04;  BLOECHL correction:    0.000000
       DOS:  cpu time      0.0265: real time      0.0266
    CHARGE:  cpu time     25.2060: real time     25.2083
    MIXING:  cpu time      0.0180: real time      0.0180
    --------------------------------------------
      LOOP:  cpu time    109.2599: real time    109.2814

 eigenvalue-minimisations  :  9984
 total energy-change (2. order) :-0.2006584E+02  (-0.1301759E+01)
 number of electron     335.9999997 magnetization       5.3077747
 augmentation part      -46.8734851 magnetization       5.8425513

 Broyden mixing:
  rms(total) = 0.32428E+00    rms(broyden)= 0.32428E+00
  rms(prec ) = 0.33723E+00
  weight for this iteration     100.00

 eigenvalues of (default mixing * dielectric matrix)
  average eigenvalue GAMMA=   1.4488
  2.4861  2.4861  0.9417  0.7282  0.6021

 Free energy of the ion-electron system (eV)
  ---------------------------------------------------
  alpha Z        PSCENC =       253.99581917
  Ewald energy   TEWEN  =     -9970.41671554
  -Hartree energ DENC   =     -4970.40247768
  -exchange      EXHF   =         0.00000000
  -V(xc)+E(xc)   XCENC  =       705.66334430
  PAW double counting   =     40983.58431564   -40810.31484244
  entropy T*S    EENTRO =         0.00000000
  eigenvalues    EBANDS =     -1901.12694072
  atomic energy  EATOM  =     15501.99929693
  Solvation  Ediel_sol  =         0.00000000
  ---------------------------------------------------
  free energy    TOTEN  =      -207.01820033 eV

  energy without entropy =     -207.01820033  energy(sigma->0) =     -207.01820033


--------------------------------------------------------------------------------------------------------




--------------------------------------- Iteration      1(  11)  ---------------------------------------


    POTLOK:  cpu time      0.4368: real time      0.4377
    SETDIJ:  cpu time     21.2980: real time     21.3006
     EDDAV:  cpu time     59.7532: real time     59.7645
 BZINTS: Fermi energy:    0.257496;  336.000000 electrons
         Band energy:-0.195850E+04;  BLOECHL correction:    0.000000
       DOS:  cpu time      0.0258: real time      0.0258
    CHARGE:  cpu time     25.5640: real time     25.5674
    MIXING:  cpu time      0.0119: real time      0.0119
    --------------------------------------------
      LOOP:  cpu time    107.0896: real time    107.1078

 eigenvalue-minimisations  :  9952
 total energy-change (2. order) :-0.1785434E+02  (-0.2165335E+01)
 number of electron     335.9999997 magnetization       3.5760788
 augmentation part      -46.9050770 magnetization       3.7594361

 Broyden mixing:
  rms(total) = 0.18665E+00    rms(broyden)= 0.18665E+00
  rms(prec ) = 0.20034E+00
  weight for this iteration     100.00

 eigenvalues of (default mixing * dielectric matrix)
  average eigenvalue GAMMA=   1.4663
  2.7965  2.7965  1.0264  0.8893  0.6992  0.5899

 Free energy of the ion-electron system (eV)
  ---------------------------------------------------
  alpha Z        PSCENC =       253.99581917
  Ewald energy   TEWEN  =     -9970.41671554
  -Hartree energ DENC   =     -4920.83025927
  -exchange      EXHF   =         0.00000000
  -V(xc)+E(xc)   XCENC  =       694.55121422
  PAW double counting   =     40411.24910740   -40236.92011590
  entropy T*S    EENTRO =         0.00000000
  eigenvalues    EBANDS =     -1958.50088886
  atomic energy  EATOM  =     15501.99929693
  Solvation  Ediel_sol  =         0.00000000
  ---------------------------------------------------
  free energy    TOTEN  =      -224.87254185 eV

  energy without entropy =     -224.87254185  energy(sigma->0) =     -224.87254185


--------------------------------------------------------------------------------------------------------




--------------------------------------- Iteration      1(  12)  ---------------------------------------


    POTLOK:  cpu time      0.4449: real time      0.4453
    SETDIJ:  cpu time     26.7559: real time     26.7594
     EDDAV:  cpu time     61.7117: real time     61.7257
 BZINTS: Fermi energy:    0.184009;  336.000000 electrons
         Band energy:-0.197912E+04;  BLOECHL correction:    0.000000
       DOS:  cpu time      0.0264: real time      0.0264
    CHARGE:  cpu time     20.8139: real time     20.8160
    MIXING:  cpu time      0.0235: real time      0.0235
    --------------------------------------------
      LOOP:  cpu time    109.7763: real time    109.7963

 eigenvalue-minimisations  : 10048
 total energy-change (2. order) :-0.3387373E+01  (-0.3877361E+00)
 number of electron     335.9999997 magnetization       2.3930803
 augmentation part      -46.9150385 magnetization       2.4763202

 Broyden mixing:
  rms(total) = 0.15986E+00    rms(broyden)= 0.15986E+00
  rms(prec ) = 0.17241E+00
  weight for this iteration     100.00

 eigenvalues of (default mixing * dielectric matrix)
  average eigenvalue GAMMA=   1.4913
  3.1002  3.1002  1.0546  1.0546  0.7809  0.7809  0.5677

 Free energy of the ion-electron system (eV)
  ---------------------------------------------------
  alpha Z        PSCENC =       253.99581917
  Ewald energy   TEWEN  =     -9970.41671554
  -Hartree energ DENC   =     -4901.38092639
  -exchange      EXHF   =         0.00000000
  -V(xc)+E(xc)   XCENC  =       692.10030579
  PAW double counting   =     39979.47091786   -39804.90563243
  entropy T*S    EENTRO =         0.00000000
  eigenvalues    EBANDS =     -1979.12298044
  atomic energy  EATOM  =     15501.99929693
  Solvation  Ediel_sol  =         0.00000000
  ---------------------------------------------------
  free energy    TOTEN  =      -228.25991505 eV

  energy without entropy =     -228.25991505  energy(sigma->0) =     -228.25991505


--------------------------------------------------------------------------------------------------------




--------------------------------------- Iteration      1(  13)  ---------------------------------------


    POTLOK:  cpu time      0.4501: real time      0.4504
    SETDIJ:  cpu time     19.1080: real time     19.1099
     EDDAV:  cpu time     55.9676: real time     55.9780
 BZINTS: Fermi energy:    0.116064;  336.000000 electrons
         Band energy:-0.200159E+04;  BLOECHL correction:    0.000000
       DOS:  cpu time      0.0257: real time      0.0257
    CHARGE:  cpu time     19.1454: real time     19.1484
    MIXING:  cpu time      0.0125: real time      0.0125
    --------------------------------------------
      LOOP:  cpu time     94.7092: real time     94.7248

 eigenvalue-minimisations  :  9568
 total energy-change (2. order) :-0.1054857E+01  (-0.1338575E+00)
 number of electron     335.9999997 magnetization       0.8904095
 augmentation part      -46.9733688 magnetization       0.9164382

 Broyden mixing:
  rms(total) = 0.93120E-01    rms(broyden)= 0.93120E-01
  rms(prec ) = 0.99944E-01
  weight for this iteration     100.00

 eigenvalues of (default mixing * dielectric matrix)
  average eigenvalue GAMMA=   1.5510
  3.3215  3.3215  1.5818  1.2849  0.9270  0.6995  0.6995  0.5721

 Free energy of the ion-electron system (eV)
  ---------------------------------------------------
  alpha Z        PSCENC =       253.99581917
  Ewald energy   TEWEN  =     -9970.41671554
  -Hartree energ DENC   =     -4878.22019351
  -exchange      EXHF   =         0.00000000
  -V(xc)+E(xc)   XCENC  =       690.11511815
  PAW double counting   =     39158.38179470   -38983.57643408
  entropy T*S    EENTRO =         0.00000000
  eigenvalues    EBANDS =     -2001.59345789
  atomic energy  EATOM  =     15501.99929693
  Solvation  Ediel_sol  =         0.00000000
  ---------------------------------------------------
  free energy    TOTEN  =      -229.31477206 eV

  energy without entropy =     -229.31477206  energy(sigma->0) =     -229.31477206


--------------------------------------------------------------------------------------------------------




--------------------------------------- Iteration      1(  14)  ---------------------------------------


    POTLOK:  cpu time      2.2916: real time      2.2922
    SETDIJ:  cpu time     18.1241: real time     18.1264
     EDDAV:  cpu time     52.2859: real time     52.2975
 BZINTS: Fermi energy:    0.080559;  336.000000 electrons
         Band energy:-0.201208E+04;  BLOECHL correction:    0.000000
       DOS:  cpu time      0.0257: real time      0.0258
    CHARGE:  cpu time     22.5575: real time     22.5606
    MIXING:  cpu time      0.0216: real time      0.0216
    --------------------------------------------
      LOOP:  cpu time     95.3065: real time     95.3240

 eigenvalue-minimisations  :  9056
 total energy-change (2. order) :-0.6521643E-01  (-0.1627679E-01)
 number of electron     335.9999997 magnetization       0.4180981
 augmentation part      -47.0005006 magnetization       0.4251154

 Broyden mixing:
  rms(total) = 0.43809E-01    rms(broyden)= 0.43809E-01
  rms(prec ) = 0.46513E-01
  weight for this iteration     100.00

 eigenvalues of (default mixing * dielectric matrix)
  average eigenvalue GAMMA=   1.5782
  4.1291  2.5566  2.5566  1.0964  1.0964  0.7712  0.7712  0.5746  0.6518

 Free energy of the ion-electron system (eV)
  ---------------------------------------------------
  alpha Z        PSCENC =       253.99581917
  Ewald energy   TEWEN  =     -9970.41671554
  -Hartree energ DENC   =     -4866.84160578
  -exchange      EXHF   =         0.00000000
  -V(xc)+E(xc)   XCENC  =       689.20122538
  PAW double counting   =     39096.52498797   -38921.76464697
  entropy T*S    EENTRO =         0.00000000
  eigenvalues    EBANDS =     -2012.07834966
  atomic energy  EATOM  =     15501.99929693
  Solvation  Ediel_sol  =         0.00000000
  ---------------------------------------------------
  free energy    TOTEN  =      -229.37998849 eV

  energy without entropy =     -229.37998849  energy(sigma->0) =     -229.37998849


--------------------------------------------------------------------------------------------------------




--------------------------------------- Iteration      1(  15)  ---------------------------------------


    POTLOK:  cpu time      0.4325: real time      0.4328
    SETDIJ:  cpu time     25.8009: real time     25.8043
     EDDAV:  cpu time     54.3850: real time     54.3951
 BZINTS: Fermi energy:    0.078592;  336.000000 electrons
         Band energy:-0.201179E+04;  BLOECHL correction:    0.000000
       DOS:  cpu time      0.0256: real time      0.0256
    CHARGE:  cpu time     19.1793: real time     19.1812
    MIXING:  cpu time      0.0207: real time      0.0207
    --------------------------------------------
      LOOP:  cpu time     99.8440: real time     99.8597

 eigenvalue-minimisations  :  9568
 total energy-change (2. order) : 0.1253616E-02  (-0.2077632E-02)
 number of electron     335.9999997 magnetization       0.1722361
 augmentation part      -46.9943931 magnetization       0.1765273

 Broyden mixing:
  rms(total) = 0.20224E-01    rms(broyden)= 0.20224E-01
  rms(prec ) = 0.21803E-01
  weight for this iteration     100.00

 eigenvalues of (default mixing * dielectric matrix)
  average eigenvalue GAMMA=   1.5645
  4.5529  2.5274  2.5274  1.3334  0.9968  0.9968  0.7585  0.7585  0.6240  0.5690

 Free energy of the ion-electron system (eV)
  ---------------------------------------------------
  alpha Z        PSCENC =       253.99581917
  Ewald energy   TEWEN  =     -9970.41671554
  -Hartree energ DENC   =     -4867.00756972
  -exchange      EXHF   =         0.00000000
  -V(xc)+E(xc)   XCENC  =       689.16253223
  PAW double counting   =     39182.21265167   -39007.53951729
  entropy T*S    EENTRO =         0.00000000
  eigenvalues    EBANDS =     -2011.78523233
  atomic energy  EATOM  =     15501.99929693
  Solvation  Ediel_sol  =         0.00000000
  ---------------------------------------------------
  free energy    TOTEN  =      -229.37873488 eV

  energy without entropy =     -229.37873488  energy(sigma->0) =     -229.37873488


--------------------------------------------------------------------------------------------------------




--------------------------------------- Iteration      1(  16)  ---------------------------------------


    POTLOK:  cpu time      0.4533: real time      0.4536
    SETDIJ:  cpu time     14.8006: real time     14.8040
     EDDAV:  cpu time     53.5050: real time     53.5160
 BZINTS: Fermi energy:    0.076650;  336.000000 electrons
         Band energy:-0.201225E+04;  BLOECHL correction:    0.000000
       DOS:  cpu time      0.0266: real time      0.0266
    CHARGE:  cpu time     19.4752: real time     19.4773
    MIXING:  cpu time      0.0166: real time      0.0166
    --------------------------------------------
      LOOP:  cpu time     88.2772: real time     88.2941

 eigenvalue-minimisations  :  9152
 total energy-change (2. order) : 0.3114992E-02  (-0.5527525E-03)
 number of electron     335.9999997 magnetization       0.0697028
 augmentation part      -46.9932326 magnetization       0.0705024

 Broyden mixing:
  rms(total) = 0.12336E-01    rms(broyden)= 0.12336E-01
  rms(prec ) = 0.13349E-01
  weight for this iteration     100.00

 eigenvalues of (default mixing * dielectric matrix)
  average eigenvalue GAMMA=   1.5463
  4.7581  2.4275  2.4275  1.8397  0.9954  0.9954  0.9226  0.7280  0.7280  0.5804
  0.6069

 Free energy of the ion-electron system (eV)
  ---------------------------------------------------
  alpha Z        PSCENC =       253.99581917
  Ewald energy   TEWEN  =     -9970.41671554
  -Hartree energ DENC   =     -4866.44985802
  -exchange      EXHF   =         0.00000000
  -V(xc)+E(xc)   XCENC  =       689.09446061
  PAW double counting   =     39152.40073800   -38977.75154993
  entropy T*S    EENTRO =         0.00000000
  eigenvalues    EBANDS =     -2012.24781112
  atomic energy  EATOM  =     15501.99929693
  Solvation  Ediel_sol  =         0.00000000
  ---------------------------------------------------
  free energy    TOTEN  =      -229.37561989 eV

  energy without entropy =     -229.37561989  energy(sigma->0) =     -229.37561989


--------------------------------------------------------------------------------------------------------




--------------------------------------- Iteration      1(  17)  ---------------------------------------


    POTLOK:  cpu time      0.4492: real time      0.4497
    SETDIJ:  cpu time     19.6274: real time     19.6304
     EDDAV:  cpu time     53.9789: real time     53.9889
 BZINTS: Fermi energy:    0.078684;  336.000000 electrons
         Band energy:-0.201132E+04;  BLOECHL correction:    0.000000
       DOS:  cpu time      0.0257: real time      0.0257
    CHARGE:  cpu time     21.8564: real time     21.8592
    MIXING:  cpu time      0.0233: real time      0.0233
    --------------------------------------------
      LOOP:  cpu time     95.9608: real time     95.9771

 eigenvalue-minimisations  :  9504
 total energy-change (2. order) :-0.5011828E-03  (-0.1192697E-03)
 number of electron     335.9999997 magnetization       0.0177929
 augmentation part      -46.9881681 magnetization       0.0181872

 Broyden mixing:
  rms(total) = 0.49310E-02    rms(broyden)= 0.49310E-02
  rms(prec ) = 0.55335E-02
  weight for this iteration     100.00

 eigenvalues of (default mixing * dielectric matrix)
  average eigenvalue GAMMA=   1.5758
  4.9483  2.6009  2.6009  2.2009  1.1771  0.9959  0.9959  0.7617  0.7617  0.6812
  0.5867  0.5979

 Free energy of the ion-electron system (eV)
  ---------------------------------------------------
  alpha Z        PSCENC =       253.99581917
  Ewald energy   TEWEN  =     -9970.41671554
  -Hartree energ DENC   =     -4867.40989102
  -exchange      EXHF   =         0.00000000
  -V(xc)+E(xc)   XCENC  =       689.15420463
  PAW double counting   =     39193.17732389   -39018.55238892
  entropy T*S    EENTRO =         0.00000000
  eigenvalues    EBANDS =     -2011.32377022
  atomic energy  EATOM  =     15501.99929693
  Solvation  Ediel_sol  =         0.00000000
  ---------------------------------------------------
  free energy    TOTEN  =      -229.37612107 eV

  energy without entropy =     -229.37612107  energy(sigma->0) =     -229.37612107


--------------------------------------------------------------------------------------------------------




--------------------------------------- Iteration      1(  18)  ---------------------------------------


    POTLOK:  cpu time      1.7553: real time      1.7584
    SETDIJ:  cpu time     24.1324: real time     24.1401
     EDDAV:  cpu time     56.1533: real time     56.1637
 BZINTS: Fermi energy:    0.079656;  336.000000 electrons
         Band energy:-0.201080E+04;  BLOECHL correction:    0.000000
       DOS:  cpu time      0.0271: real time      0.0272
    CHARGE:  cpu time     22.4511: real time     22.4538
    MIXING:  cpu time      0.0226: real time      0.0226
    --------------------------------------------
      LOOP:  cpu time    104.5418: real time    104.5658

 eigenvalue-minimisations  :  9536
 total energy-change (2. order) :-0.1158349E-03  (-0.3961738E-04)
 number of electron     335.9999997 magnetization       0.0051368
 augmentation part      -46.9848252 magnetization       0.0056765

 Broyden mixing:
  rms(total) = 0.44569E-02    rms(broyden)= 0.44569E-02
  rms(prec ) = 0.47101E-02
  weight for this iteration     100.00

 eigenvalues of (default mixing * dielectric matrix)
  average eigenvalue GAMMA=   1.5443
  5.0022  2.6446  2.6446  2.2631  1.1302  1.1302  0.9905  0.9905  0.7251  0.7251
  0.5781  0.6443  0.6066

 Free energy of the ion-electron system (eV)
  ---------------------------------------------------
  alpha Z        PSCENC =       253.99581917
  Ewald energy   TEWEN  =     -9970.41671554
  -Hartree energ DENC   =     -4867.95589410
  -exchange      EXHF   =         0.00000000
  -V(xc)+E(xc)   XCENC  =       689.18965500
  PAW double counting   =     39222.04614772   -39047.43609079
  entropy T*S    EENTRO =         0.00000000
  eigenvalues    EBANDS =     -2010.79845531
  atomic energy  EATOM  =     15501.99929693
  Solvation  Ediel_sol  =         0.00000000
  ---------------------------------------------------
  free energy    TOTEN  =      -229.37623690 eV

  energy without entropy =     -229.37623690  energy(sigma->0) =     -229.37623690


--------------------------------------------------------------------------------------------------------




--------------------------------------- Iteration      1(  19)  ---------------------------------------


    POTLOK:  cpu time      0.4600: real time      0.4603
    SETDIJ:  cpu time     22.9891: real time     22.9917
     EDDAV:  cpu time     54.2885: real time     54.2985
 BZINTS: Fermi energy:    0.078990;  336.000000 electrons
         Band energy:-0.201106E+04;  BLOECHL correction:    0.000000
       DOS:  cpu time      0.0258: real time      0.0258
    CHARGE:  cpu time     22.0581: real time     22.0613
    MIXING:  cpu time      0.0198: real time      0.0198
    --------------------------------------------
      LOOP:  cpu time     99.8414: real time     99.8575

 eigenvalue-minimisations  :  9728
 total energy-change (2. order) :-0.6300259E-05  (-0.6221549E-05)
 number of electron     335.9999997 magnetization      -0.0005457
 augmentation part      -46.9856579 magnetization      -0.0003042

 Broyden mixing:
  rms(total) = 0.20228E-02    rms(broyden)= 0.20227E-02
  rms(prec ) = 0.21981E-02
  weight for this iteration     100.00

 eigenvalues of (default mixing * dielectric matrix)
  average eigenvalue GAMMA=   1.5454
  5.0454  2.7063  2.7063  2.1086  1.4094  1.4094  1.0323  1.0323  0.8581  0.7537
  0.7537  0.5795  0.6095  0.6306

 Free energy of the ion-electron system (eV)
  ---------------------------------------------------
  alpha Z        PSCENC =       253.99581917
  Ewald energy   TEWEN  =     -9970.41671554
  -Hartree energ DENC   =     -4867.68151265
  -exchange      EXHF   =         0.00000000
  -V(xc)+E(xc)   XCENC  =       689.17273407
  PAW double counting   =     39220.68420173   -39046.07101022
  entropy T*S    EENTRO =         0.00000000
  eigenvalues    EBANDS =     -2011.05905670
  atomic energy  EATOM  =     15501.99929693
  Solvation  Ediel_sol  =         0.00000000
  ---------------------------------------------------
  free energy    TOTEN  =      -229.37624320 eV

  energy without entropy =     -229.37624320  energy(sigma->0) =     -229.37624320


--------------------------------------------------------------------------------------------------------




--------------------------------------- Iteration      1(  20)  ---------------------------------------


    POTLOK:  cpu time      0.4204: real time      0.4273
    SETDIJ:  cpu time     27.2867: real time     27.2898
     EDDAV:  cpu time     55.6115: real time     55.6214
 BZINTS: Fermi energy:    0.078636;  336.000000 electrons
         Band energy:-0.201120E+04;  BLOECHL correction:    0.000000
       DOS:  cpu time      0.0257: real time      0.0257
    CHARGE:  cpu time     17.6795: real time     17.6815
    MIXING:  cpu time      1.6188: real time      1.6190
    --------------------------------------------
      LOOP:  cpu time    102.6426: real time    102.6647

 eigenvalue-minimisations  :  9184
 total energy-change (2. order) :-0.1057833E-04  (-0.3471146E-05)
 number of electron     335.9999997 magnetization      -0.0016444
 augmentation part      -46.9861869 magnetization      -0.0015662

 Broyden mixing:
  rms(total) = 0.95010E-03    rms(broyden)= 0.94998E-03
  rms(prec ) = 0.10095E-02
  weight for this iteration     100.00

 eigenvalues of (default mixing * dielectric matrix)
  average eigenvalue GAMMA=   1.5470
  5.0953  2.7076  2.7076  2.0988  2.0988  1.2306  1.2306  0.9901  0.9901  0.7798
  0.7330  0.7330  0.5776  0.6158  0.6158

 Free energy of the ion-electron system (eV)
  ---------------------------------------------------
  alpha Z        PSCENC =       253.99581917
  Ewald energy   TEWEN  =     -9970.41671554
  -Hartree energ DENC   =     -4867.53840928
  -exchange      EXHF   =         0.00000000
  -V(xc)+E(xc)   XCENC  =       689.16569566
  PAW double counting   =     39225.85280602   -39051.23770649
  entropy T*S    EENTRO =         0.00000000
  eigenvalues    EBANDS =     -2011.19704025
  atomic energy  EATOM  =     15501.99929693
  Solvation  Ediel_sol  =         0.00000000
  ---------------------------------------------------
  free energy    TOTEN  =      -229.37625378 eV

  energy without entropy =     -229.37625378  energy(sigma->0) =     -229.37625378


--------------------------------------------------------------------------------------------------------




--------------------------------------- Iteration      1(  21)  ---------------------------------------


    POTLOK:  cpu time      0.4159: real time      0.4164
    SETDIJ:  cpu time     24.8897: real time     24.8925
     EDDAV:  cpu time     53.1592: real time     53.1697
 BZINTS: Fermi energy:    0.078310;  336.000000 electrons
         Band energy:-0.201125E+04;  BLOECHL correction:    0.000000
       DOS:  cpu time      0.0272: real time      0.0272
    CHARGE:  cpu time     26.0402: real time     26.0431
    MIXING:  cpu time      0.1439: real time      0.1440
    --------------------------------------------
      LOOP:  cpu time    104.6761: real time    104.6929

 eigenvalue-minimisations  :  9280
 total energy-change (2. order) : 0.1138553E-05  (-0.8851086E-06)
 number of electron     335.9999997 magnetization      -0.0013517
 augmentation part      -46.9863821 magnetization      -0.0013556

 Broyden mixing:
  rms(total) = 0.42525E-03    rms(broyden)= 0.42498E-03
  rms(prec ) = 0.44738E-03
  weight for this iteration     100.00

 eigenvalues of (default mixing * dielectric matrix)
  average eigenvalue GAMMA=   1.5117
  5.0970  2.6675  2.6675  2.5700  1.6177  1.3955  1.1554  1.1554  0.9277  0.9277
  0.7393  0.7393  0.7248  0.5773  0.6125  0.6125

 Free energy of the ion-electron system (eV)
  ---------------------------------------------------
  alpha Z        PSCENC =       253.99581917
  Ewald energy   TEWEN  =     -9970.41671554
  -Hartree energ DENC   =     -4867.47913938
  -exchange      EXHF   =         0.00000000
  -V(xc)+E(xc)   XCENC  =       689.16206426
  PAW double counting   =     39225.29631571   -39050.68040057
  entropy T*S    EENTRO =         0.00000000
  eigenvalues    EBANDS =     -2011.25349323
  atomic energy  EATOM  =     15501.99929693
  Solvation  Ediel_sol  =         0.00000000
  ---------------------------------------------------
  free energy    TOTEN  =      -229.37625264 eV

  energy without entropy =     -229.37625264  energy(sigma->0) =     -229.37625264


--------------------------------------------------------------------------------------------------------




--------------------------------------- Iteration      1(  22)  ---------------------------------------


    POTLOK:  cpu time      0.4135: real time      0.4204
    SETDIJ:  cpu time     27.2977: real time     27.3014
     EDDAV:  cpu time     58.0788: real time     58.0896
 BZINTS: Fermi energy:    0.078180;  336.000000 electrons
         Band energy:-0.201127E+04;  BLOECHL correction:   -0.000000
       DOS:  cpu time      0.0281: real time      0.0282
    CHARGE:  cpu time     18.8312: real time     18.8334
    MIXING:  cpu time      0.0202: real time      0.0202
    --------------------------------------------
      LOOP:  cpu time    104.6695: real time    104.6931

 eigenvalue-minimisations  :  9888
 total energy-change (2. order) : 0.4541107E-06  (-0.1402704E-06)
 number of electron     335.9999997 magnetization      -0.0004747
 augmentation part      -46.9864518 magnetization      -0.0004963

 Broyden mixing:
  rms(total) = 0.23145E-03    rms(broyden)= 0.23096E-03
  rms(prec ) = 0.24566E-03
  weight for this iteration     100.00

 eigenvalues of (default mixing * dielectric matrix)
  average eigenvalue GAMMA=   1.5003
  5.0913  2.6560  2.6560  2.6237  1.6732  1.4389  1.4389  1.0824  1.0824  0.9007
  0.9007  0.7423  0.7423  0.6731  0.5784  0.6126  0.6126

 Free energy of the ion-electron system (eV)
  ---------------------------------------------------
  alpha Z        PSCENC =       253.99581917
  Ewald energy   TEWEN  =     -9970.41671554
  -Hartree energ DENC   =     -4867.45736118
  -exchange      EXHF   =         0.00000000
  -V(xc)+E(xc)   XCENC  =       689.16047455
  PAW double counting   =     39223.88171640   -39049.26549316
  entropy T*S    EENTRO =         0.00000000
  eigenvalues    EBANDS =     -2011.27398937
  atomic energy  EATOM  =     15501.99929693
  Solvation  Ediel_sol  =         0.00000000
  ---------------------------------------------------
  free energy    TOTEN  =      -229.37625219 eV

  energy without entropy =     -229.37625219  energy(sigma->0) =     -229.37625219


--------------------------------------------------------------------------------------------------------




--------------------------------------- Iteration      1(  23)  ---------------------------------------


    POTLOK:  cpu time      0.4191: real time      0.4194
    SETDIJ:  cpu time     29.1940: real time     29.1970
     EDDAV:  cpu time     52.5730: real time     52.5827
 BZINTS: Fermi energy:    0.078221;  336.000000 electrons
         Band energy:-0.201127E+04;  BLOECHL correction:    0.000000
       DOS:  cpu time      0.0281: real time      0.0281
    CHARGE:  cpu time     22.5650: real time     22.5685
    MIXING:  cpu time      0.0190: real time      0.0190
    --------------------------------------------
      LOOP:  cpu time    104.7982: real time    104.8147

 eigenvalue-minimisations  :  9216
 total energy-change (2. order) :-0.2271299E-06  (-0.5686082E-07)
 number of electron     335.9999997 magnetization      -0.0002599
 augmentation part      -46.9864248 magnetization      -0.0002562

 Broyden mixing:
[...]

  length of vectors
    10.314108670 16.788494411 10.846477853     0.097707938  0.059564603  0.092912216


 FORCES acting on ions
    electron-ion (+dipol)            ewald-force                    non-local-force                 convergence-correction
 -----------------------------------------------------------------------------------------------
   0.987E+02 -.105E+03 -.125E+02   -.104E+03 0.113E+03 0.112E+02   0.495E+01 -.888E+01 0.132E+01   0.181E-05 -.595E-06 0.902E-06
   0.986E+02 -.105E+03 -.125E+02   -.104E+03 0.113E+03 0.112E+02   0.495E+01 -.888E+01 0.132E+01   0.156E-05 -.496E-06 0.930E-06
   -.128E+02 0.418E+02 -.127E+03   0.131E+02 -.470E+02 0.134E+03   -.223E+00 0.512E+01 -.708E+01   0.200E-06 0.251E-06 -.943E-06
   -.124E+02 0.420E+02 -.127E+03   0.126E+02 -.472E+02 0.134E+03   -.246E+00 0.519E+01 -.705E+01   0.817E-07 0.178E-06 -.121E-05
   -.211E+02 -.902E+02 0.981E+02   0.198E+02 0.990E+02 -.103E+03   0.134E+01 -.874E+01 0.530E+01   0.174E-09 -.367E-06 0.167E-05
   -.211E+02 -.902E+02 0.981E+02   0.198E+02 0.989E+02 -.103E+03   0.134E+01 -.874E+01 0.530E+01   -.657E-07 -.317E-06 0.189E-05
   -.108E+03 0.951E+02 0.614E+01   0.114E+03 -.101E+03 -.402E+01   -.535E+01 0.591E+01 -.211E+01   -.155E-05 -.787E-08 0.610E-06
   -.108E+03 0.950E+02 0.625E+01   0.114E+03 -.101E+03 -.413E+01   -.534E+01 0.592E+01 -.212E+01   -.189E-05 -.177E-07 0.656E-06
   0.136E+03 -.539E+02 -.187E+02   -.143E+03 0.594E+02 0.192E+02   0.680E+01 -.552E+01 -.558E+00   0.168E-05 -.107E-06 -.103E-05
   0.136E+03 -.539E+02 -.187E+02   -.143E+03 0.595E+02 0.193E+02   0.680E+01 -.552E+01 -.558E+00   0.155E-05 -.568E-07 -.101E-05
   -.136E+03 0.539E+02 0.187E+02   0.143E+03 -.594E+02 -.193E+02   -.680E+01 0.552E+01 0.558E+00   -.145E-05 -.234E-06 0.101E-05
   -.136E+03 0.539E+02 0.187E+02   0.143E+03 -.595E+02 -.193E+02   -.680E+01 0.552E+01 0.558E+00   -.171E-05 -.156E-06 0.103E-05
   0.108E+03 -.951E+02 -.625E+01   -.114E+03 0.101E+03 0.414E+01   0.534E+01 -.592E+01 0.212E+01   0.181E-05 -.123E-06 -.704E-06
   0.108E+03 -.950E+02 -.625E+01   -.114E+03 0.101E+03 0.414E+01   0.534E+01 -.592E+01 0.212E+01   0.162E-05 -.104E-06 -.661E-06
   -.123E+02 -.420E+02 0.127E+03   0.126E+02 0.472E+02 -.134E+03   -.246E+00 -.519E+01 0.705E+01   0.171E-06 -.417E-07 0.138E-05
   -.124E+02 -.420E+02 0.127E+03   0.126E+02 0.472E+02 -.134E+03   -.246E+00 -.519E+01 0.705E+01   -.165E-07 -.236E-08 0.136E-05
   0.211E+02 -.901E+02 0.981E+02   -.198E+02 0.989E+02 -.103E+03   -.134E+01 -.874E+01 0.530E+01   0.150E-06 0.255E-06 0.147E-05
   0.211E+02 -.902E+02 0.981E+02   -.198E+02 0.989E+02 -.103E+03   -.134E+01 -.874E+01 0.530E+01   0.499E-07 0.228E-06 0.171E-05
   -.988E+02 -.104E+03 -.124E+02   0.104E+03 0.113E+03 0.110E+02   -.497E+01 -.889E+01 0.132E+01   -.150E-05 0.109E-06 0.873E-06
   -.986E+02 -.105E+03 -.125E+02   0.104E+03 0.113E+03 0.112E+02   -.495E+01 -.888E+01 0.132E+01   -.181E-05 -.207E-07 0.784E-06
   -.136E+03 -.540E+02 -.187E+02   0.143E+03 0.595E+02 0.193E+02   -.680E+01 -.552E+01 -.558E+00   -.165E-05 0.611E-07 -.105E-05
   -.136E+03 -.540E+02 -.187E+02   0.143E+03 0.595E+02 0.193E+02   -.680E+01 -.552E+01 -.558E+00   -.158E-05 0.415E-07 -.108E-05
   0.124E+02 0.419E+02 -.127E+03   -.126E+02 -.471E+02 0.134E+03   0.246E+00 0.519E+01 -.705E+01   -.760E-07 -.203E-06 -.875E-06
   0.124E+02 0.420E+02 -.127E+03   -.126E+02 -.472E+02 0.134E+03   0.246E+00 0.519E+01 -.705E+01   -.136E-06 -.233E-06 -.110E-05
   -.108E+03 -.950E+02 -.625E+01   0.114E+03 0.101E+03 0.413E+01   -.534E+01 -.592E+01 0.212E+01   -.171E-05 0.261E-06 -.753E-06
   -.108E+03 -.950E+02 -.625E+01   0.114E+03 0.101E+03 0.414E+01   -.534E+01 -.592E+01 0.212E+01   -.176E-05 0.270E-06 -.710E-06
   0.986E+02 0.104E+03 0.124E+02   -.104E+03 -.113E+03 -.111E+02   0.495E+01 0.888E+01 -.132E+01   0.182E-05 0.463E-06 -.657E-06
   0.986E+02 0.105E+03 0.125E+02   -.104E+03 -.113E+03 -.112E+02   0.495E+01 0.888E+01 -.132E+01   0.164E-05 0.400E-06 -.776E-06
   -.987E+02 0.105E+03 0.126E+02   0.104E+03 -.113E+03 -.113E+02   -.495E+01 0.888E+01 -.132E+01   -.169E-05 0.682E-07 -.655E-06
   -.986E+02 0.105E+03 0.125E+02   0.104E+03 -.113E+03 -.112E+02   -.495E+01 0.888E+01 -.132E+01   -.171E-05 0.667E-07 -.740E-06
   0.729E+02 0.961E+02 0.633E+02   -.756E+02 -.106E+03 -.654E+02   0.274E+01 0.971E+01 0.207E+01   0.924E-06 0.819E-07 0.764E-06
   0.728E+02 0.961E+02 0.633E+02   -.755E+02 -.106E+03 -.653E+02   0.274E+01 0.971E+01 0.207E+01   0.780E-06 0.181E-06 0.619E-06
   0.218E+02 -.938E+02 -.889E+02   -.205E+02 0.100E+03 0.940E+02   -.133E+01 -.628E+01 -.509E+01   0.411E-06 -.389E-07 -.172E-05
   0.218E+02 -.938E+02 -.889E+02   -.205E+02 0.100E+03 0.940E+02   -.133E+01 -.628E+01 -.509E+01   0.196E-06 -.198E-07 -.155E-05
   -.211E+02 0.902E+02 -.981E+02   0.198E+02 -.989E+02 0.103E+03   0.134E+01 0.874E+01 -.530E+01   0.740E-08 0.293E-06 -.213E-05
   -.211E+02 0.902E+02 -.981E+02   0.198E+02 -.989E+02 0.103E+03   0.134E+01 0.874E+01 -.530E+01   -.153E-06 0.210E-06 -.203E-05
   -.218E+02 0.938E+02 0.888E+02   0.205E+02 -.100E+03 -.939E+02   0.134E+01 0.628E+01 0.508E+01   -.187E-06 -.115E-07 0.119E-05
   -.218E+02 0.938E+02 0.889E+02   0.205E+02 -.100E+03 -.940E+02   0.133E+01 0.628E+01 0.509E+01   -.344E-06 -.447E-07 0.145E-05
   0.211E+02 0.902E+02 -.981E+02   -.198E+02 -.989E+02 0.103E+03   -.134E+01 0.874E+01 -.530E+01   0.129E-06 -.225E-06 -.194E-05
   0.211E+02 0.902E+02 -.981E+02   -.198E+02 -.989E+02 0.103E+03   -.134E+01 0.874E+01 -.530E+01   -.281E-07 -.130E-06 -.190E-05
   0.735E+02 -.960E+02 -.629E+02   -.762E+02 0.106E+03 0.650E+02   0.272E+01 -.969E+01 -.209E+01   0.846E-06 -.128E-06 -.330E-06
   0.728E+02 -.961E+02 -.633E+02   -.755E+02 0.106E+03 0.653E+02   0.274E+01 -.971E+01 -.207E+01   0.860E-06 -.111E-06 -.516E-06
   0.136E+03 0.541E+02 0.187E+02   -.143E+03 -.596E+02 -.192E+02   0.680E+01 0.551E+01 0.551E+00   0.150E-05 0.188E-06 0.939E-06
   0.136E+03 0.540E+02 0.187E+02   -.143E+03 -.595E+02 -.193E+02   0.680E+01 0.552E+01 0.558E+00   0.171E-05 0.212E-06 0.946E-06
   0.108E+03 0.950E+02 0.626E+01   -.114E+03 -.101E+03 -.415E+01   0.534E+01 0.592E+01 -.212E+01   0.177E-05 -.913E-07 0.657E-06
   0.108E+03 0.950E+02 0.626E+01   -.114E+03 -.101E+03 -.415E+01   0.534E+01 0.592E+01 -.212E+01   0.150E-05 -.759E-07 0.662E-06
   -.728E+02 -.963E+02 -.633E+02   0.755E+02 0.106E+03 0.653E+02   -.274E+01 -.971E+01 -.207E+01   -.788E-06 -.789E-06 -.291E-06
   -.728E+02 -.962E+02 -.633E+02   0.755E+02 0.106E+03 0.653E+02   -.274E+01 -.971E+01 -.207E+01   -.915E-06 -.705E-06 -.511E-06
   -.218E+02 -.938E+02 -.889E+02   0.205E+02 0.100E+03 0.940E+02   0.133E+01 -.628E+01 -.509E+01   -.265E-06 0.255E-06 -.163E-05
   -.218E+02 -.938E+02 -.889E+02   0.205E+02 0.100E+03 0.940E+02   0.133E+01 -.628E+01 -.509E+01   -.406E-06 0.237E-06 -.167E-05
   0.218E+02 0.938E+02 0.889E+02   -.205E+02 -.100E+03 -.940E+02   -.133E+01 0.628E+01 0.509E+01   0.276E-06 -.176E-06 0.118E-05
   0.218E+02 0.938E+02 0.889E+02   -.205E+02 -.100E+03 -.940E+02   -.133E+01 0.628E+01 0.509E+01   0.251E-06 -.198E-06 0.137E-05
   -.728E+02 0.961E+02 0.632E+02   0.756E+02 -.106E+03 -.653E+02   -.274E+01 0.971E+01 0.207E+01   -.864E-06 0.741E-06 0.661E-06
   -.727E+02 0.961E+02 0.632E+02   0.755E+02 -.106E+03 -.653E+02   -.274E+01 0.971E+01 0.207E+01   -.929E-06 0.661E-06 0.669E-06
   0.123E+02 -.421E+02 0.127E+03   -.125E+02 0.473E+02 -.134E+03   0.245E+00 -.519E+01 0.705E+01   0.246E-07 0.879E-07 0.149E-05
   0.124E+02 -.420E+02 0.127E+03   -.126E+02 0.472E+02 -.134E+03   0.246E+00 -.519E+01 0.705E+01   -.200E-06 0.328E-07 0.134E-05
 -----------------------------------------------------------------------------------------------
   0.229E-01 0.907E-01 0.460E-01   0.782E-13 0.711E-13 0.114E-12   -.229E-01 -.907E-01 -.460E-01   -.604E-07 0.932E-08 0.508E-07


 POSITION                                       TOTAL-FORCE (eV/Angst)
 -----------------------------------------------------------------------------------
      7.84031      7.96182     -7.59135         0.002463     -0.001312      0.000890
     16.23455      7.96182     -7.59135         0.002561     -0.001380      0.000958
      3.16872      2.45281     -6.01979         0.030911     -0.068712      0.038429
     11.56297      2.44282     -6.01943         0.002126     -0.000891     -0.002505
      1.76685      7.82725    -10.10485         0.000006     -0.000072     -0.000405
     10.16110      7.82725    -10.10485        -0.000016      0.000026     -0.000493
      5.05050      1.12562     -8.40433        -0.008805     -0.008203      0.007040
     13.44475      1.12562     -8.40433         0.001587     -0.000648     -0.000700
      5.13205      1.09979     -2.45651        -0.000071      0.000132     -0.000662
     13.52630      1.09979     -2.45651        -0.000117      0.000427     -0.000306
      3.26219      7.47505     -8.62356        -0.000023     -0.000342      0.000285
     11.65644      7.47505     -8.62356         0.000101     -0.000425      0.000281
      3.34375      7.44923     -2.67574        -0.001534      0.000635      0.000840
     11.73799      7.44923     -2.67574        -0.001572      0.000628      0.000685
      7.36585      0.97835     -4.87422         0.001820      0.000783      0.002688
     15.76010      0.97835     -4.87422         0.002404      0.000782      0.002680
      2.43027      2.67356     -9.91842         0.000887      0.001937      0.000166
     10.82452      2.67356     -9.91842         0.000050     -0.000002     -0.000475
      4.75106      2.80814     -7.40493         0.019039      0.030104     -0.020737
     13.14531      2.80814     -7.40493        -0.002478     -0.001257      0.000916
      7.45932      6.25348     -2.64294         0.000108      0.000378     -0.000172
     15.85356      6.25348     -2.64294         0.000134      0.000458     -0.000275
      1.02840      7.59650     -6.20585        -0.002126     -0.000621     -0.002575
      9.42265      7.59650     -6.20585        -0.002135     -0.000872     -0.002495
      0.85338      2.29554     -2.48931         0.001451      0.000262      0.000477
      9.24762      2.29554     -2.48931         0.001618      0.000638      0.000658
      3.64318      5.76671     -3.67515         0.002527      0.001484     -0.001125
     12.03743      5.76671     -3.67515         0.002480      0.001261     -0.000948
      0.55394      0.61303     -3.48872        -0.002506      0.001318     -0.000948
      8.94819      0.61303     -3.48872        -0.002411      0.001311     -0.000875
      5.79350     -0.03143     -4.03202        -0.001078      0.001730      0.000333
     14.18775     -0.03143     -4.03202        -0.001308      0.001855      0.000233
      4.85766      7.53946     -1.03917        -0.003969      0.002040     -0.000299
     13.25190      7.53946     -1.03917        -0.003915      0.002038     -0.000261
      5.96398      5.90128     -1.16165        -0.000029      0.000078      0.000484
     14.35822      5.90128     -1.16165        -0.000088     -0.000003      0.000457
      3.53659      1.03539    -10.04090         0.004046     -0.001076      0.001157
     11.93084      1.03539    -10.04090         0.003942     -0.002031      0.000289
      6.62739      0.74760     -0.97522         0.000047      0.000125      0.000634
     15.02164      0.74760     -0.97522         0.000242      0.000122      0.000383
      1.59638      3.45260     -6.86163        -0.040505      0.056186     -0.024522
      9.99063      3.45260     -6.86163        -0.001223     -0.001775     -0.000227
      0.93493      2.32137     -8.43713        -0.001852     -0.018007     -0.004341
      9.32918      2.32137     -8.43713        -0.000042     -0.000442      0.000293
      7.54087      6.27930     -8.59076        -0.001620     -0.000649     -0.000657
     15.93512      6.27930     -8.59076        -0.001670     -0.000511     -0.000871
      2.60074      8.60628     -7.04805         0.001357     -0.001515     -0.000060
     10.99499      8.60628     -7.04805         0.001231     -0.001793     -0.000220
      7.73371      2.38578     -0.85274         0.004055      0.002100     -0.000273
     16.12796      2.38578     -0.85274         0.003680      0.002095     -0.000030
      0.66053      6.18907    -10.22733        -0.004044     -0.002109      0.000368
      9.05478      6.18907    -10.22733        -0.003974     -0.002037      0.000295
      6.79787      5.12225     -4.21845         0.001138      0.001911      0.000096
     15.19211      5.12225     -4.21845         0.001142      0.001798      0.000275
      5.22552      6.13203     -5.06065        -0.001894      0.001157      0.002679
     13.61977      6.13203     -5.06065        -0.002145      0.000885      0.002489
 -----------------------------------------------------------------------------------
    total drift:                                0.000000     -0.000013      0.000001


--------------------------------------------------------------------------------------------------------



  FREE ENERGIE OF THE ION-ELECTRON SYSTEM (eV)
  ---------------------------------------------------
  free  energy   TOTEN  =      -229.37625222 eV

  energy  without entropy=     -229.37625222  energy(sigma->0) =     -229.37625222



--------------------------------------------------------------------------------------------------------


    POTLOK:  cpu time     23.3172: real time     23.3237


--------------------------------------------------------------------------------------------------------


     LOOP+:  cpu time   3631.8127: real time   3632.5282
    4ORBIT:  cpu time      0.0000: real time      0.0000



 total charge

# of ion       s       p       d       tot
------------------------------------------
    1        1.376   2.247   0.000   3.623
    2        1.376   2.247   0.000   3.623
    3        1.376   2.261   0.000   3.637
    4        1.376   2.258   0.000   3.635
    5        1.376   2.247   0.000   3.623
    6        1.376   2.247   0.000   3.623
    7        1.375   2.262   0.000   3.638
    8        1.375   2.262   0.000   3.638
    9        1.377   2.257   0.000   3.634
   10        1.377   2.257   0.000   3.634
   11        1.377   2.257   0.000   3.634
   12        1.377   2.257   0.000   3.634
   13        1.375   2.262   0.000   3.638
   14        1.375   2.262   0.000   3.638
   15        1.376   2.258   0.000   3.635
   16        1.376   2.258   0.000   3.635
   17        1.376   2.247   0.000   3.622
   18        1.376   2.247   0.000   3.623
   19        1.376   2.248   0.000   3.623
   20        1.376   2.247   0.000   3.623
   21        1.377   2.257   0.000   3.634
   22        1.377   2.257   0.000   3.634
   23        1.376   2.258   0.000   3.635
   24        1.376   2.258   0.000   3.635
   25        1.375   2.262   0.000   3.638
   26        1.375   2.262   0.000   3.638
   27        1.376   2.247   0.000   3.623
   28        1.376   2.247   0.000   3.623
   29        1.376   2.247   0.000   3.623
   30        1.376   2.247   0.000   3.623
   31        1.376   2.254   0.000   3.630
   32        1.376   2.254   0.000   3.630
   33        1.375   2.263   0.000   3.638
   34        1.375   2.263   0.000   3.638
   35        1.376   2.247   0.000   3.623
   36        1.376   2.247   0.000   3.623
   37        1.375   2.263   0.000   3.638
   38        1.375   2.263   0.000   3.638
   39        1.376   2.247   0.000   3.623
   40        1.376   2.247   0.000   3.622
   41        1.375   2.256   0.000   3.632
   42        1.376   2.254   0.000   3.630
   43        1.377   2.258   0.000   3.634
   44        1.377   2.257   0.000   3.634
   45        1.375   2.262   0.000   3.638
   46        1.375   2.262   0.000   3.638
   47        1.376   2.254   0.000   3.630
   48        1.376   2.254   0.000   3.630
   49        1.375   2.263   0.000   3.638
   50        1.375   2.263   0.000   3.638
   51        1.375   2.263   0.000   3.638
   52        1.375   2.263   0.000   3.638
   53        1.376   2.254   0.000   3.630
   54        1.376   2.254   0.000   3.630
   55        1.376   2.258   0.000   3.635
   56        1.376   2.258   0.000   3.635
--------------------------------------------------
tot         77.048 126.318   0.000 203.366



 magnetization (x)

# of ion       s       p       d       tot
------------------------------------------
    1        0.000   0.000   0.000   0.000
    2        0.000   0.000   0.000   0.000
    3        0.000   0.000   0.000   0.000
    4        0.000   0.000   0.000   0.000
    5        0.000   0.000   0.000   0.000
    6        0.000   0.000   0.000   0.000
    7        0.000   0.000   0.000   0.000
    8        0.000   0.000   0.000   0.000
    9        0.000   0.000   0.000   0.000
   10        0.000   0.000   0.000   0.000
   11        0.000   0.000   0.000   0.000
   12        0.000   0.000   0.000   0.000
   13        0.000   0.000   0.000   0.000
   14        0.000   0.000   0.000   0.000
   15        0.000   0.000   0.000   0.000
   16        0.000   0.000   0.000   0.000
   17        0.000  -0.000   0.000   0.000
   18        0.000   0.000   0.000   0.000
   19        0.000   0.000   0.000   0.000
   20        0.000   0.000   0.000   0.000
   21        0.000   0.000   0.000   0.000
   22        0.000   0.000   0.000   0.000
   23        0.000   0.000   0.000   0.000
   24        0.000   0.000   0.000   0.000
   25        0.000   0.000   0.000   0.000
   26        0.000   0.000   0.000   0.000
   27        0.000   0.000   0.000   0.000
   28        0.000   0.000   0.000   0.000
   29        0.000   0.000   0.000   0.000
   30        0.000   0.000   0.000   0.000
   31        0.000   0.000   0.000   0.000
   32        0.000   0.000   0.000   0.000
   33        0.000   0.000   0.000   0.000
   34        0.000   0.000   0.000   0.000
   35        0.000   0.000   0.000   0.000
   36        0.000   0.000   0.000   0.000
   37        0.000   0.000   0.000   0.000
   38        0.000   0.000   0.000   0.000
   39        0.000   0.000   0.000   0.000
   40        0.000   0.000   0.000   0.000
   41        0.000   0.000   0.000   0.000
   42        0.000   0.000   0.000   0.000
   43        0.000   0.000   0.000   0.000
   44        0.000   0.000   0.000   0.000
   45        0.000   0.000   0.000   0.000
   46        0.000   0.000   0.000   0.000
   47        0.000   0.000   0.000   0.000
   48        0.000   0.000   0.000   0.000
   49        0.000   0.000   0.000   0.000
   50        0.000   0.000   0.000   0.000
   51        0.000   0.000   0.000   0.000
   52        0.000   0.000   0.000   0.000
   53        0.000   0.000   0.000   0.000
   54        0.000   0.000   0.000   0.000
   55        0.000   0.000   0.000   0.000
   56        0.000   0.000   0.000   0.000
--------------------------------------------------
tot          0.000   0.000   0.000   0.000

 BZINTS: Fermi energy:    0.078170;  336.000000 electrons
         Band energy:-0.201128E+04;  BLOECHL correction:   -0.000000

 total amount of memory used by VASP MPI-rank0   322725. kBytes
=======================================================================

   base      :      30000. kBytes
   nonl-proj :      70692. kBytes
   fftplans  :      34504. kBytes
   grid      :      83442. kBytes
   one-center:        344. kBytes
   wavefun   :     103743. kBytes

  
  
 General timing and accounting informations for this job:
 ========================================================
  
                  Total CPU time used (sec):     3682.653
                            User time (sec):     3681.201
                          System time (sec):        1.453
                         Elapsed time (sec):     3683.851
  
                   Maximum memory used (kb):      610540.
                   Average memory used (kb):          N/A
  
                          Minor page faults:       614621
                          Major page faults:           22
                 Voluntary context switches:         5675
