 vasp.6.3.2 27Jun22 (build Mar 25 2024 10:42:18) complex                         
 executed on             LinuxGNU date 2024.03.31  09:00:26
 running on   32 total cores
 distrk:  each k-point on   32 cores,    1 groups
 distr:  one band on NCORE=   1 cores,   32 groups


--------------------------------------------------------------------------------------------------------


 INCAR:
   ISTART = 0
   ICHARG = 2
   PREC = Accurate
   IBRION = -1
   EDIFF = 0.000000001
   EDIFFG = -0.0005
   NSW = 0
   NELM = 100
   ENCUT = 520
   ISMEAR = -5
   SIGMA = 0.05
   ISPIN = 2
   ISYM = 0
   LWAVE = False
   LCHARG = False
   LASPH = True
   LORBIT = 11
   ADDGRID = TRUE

 POTCAR:    PAW_PBE S 06Sep2000                   
 -----------------------------------------------------------------------------
|                                                                             |
|           W    W    AA    RRRRR   N    N  II  N    N   GGGG   !!!           |
|           W    W   A  A   R    R  NN   N  II  NN   N  G    G  !!!           |
|           W    W  A    A  R    R  N N  N  II  N N  N  G       !!!           |
|           W WW W  AAAAAA  RRRRR   N  N N  II  N  N N  G  GGG   !            |
|           WW  WW  A    A  R   R   N   NN  II  N   NN  G    G                |
|           W    W  A    A  R    R  N    N  II  N    N   GGGG   !!!           |
|                                                                             |
|     You use a magnetic or noncollinear calculation, but did not specify     |
|     the initial magnetic moment with the MAGMOM tag. Note that a            |
|     default of 1 will be used for all atoms. This ferromagnetic setup       |
|     may break the symmetry of the crystal, in particular it may rule        |
|     out finding an antiferromagnetic solution. Thence, we recommend         |
|     setting the initial magnetic moment manually or verifying carefully     |
|     that this magnetic setup is desired.                                    |
|                                                                             |
 -----------------------------------------------------------------------------

 -----------------------------------------------------------------------------
|                                                                             |
|           W    W    AA    RRRRR   N    N  II  N    N   GGGG   !!!           |
|           W    W   A  A   R    R  NN   N  II  NN   N  G    G  !!!           |
|           W    W  A    A  R    R  N N  N  II  N N  N  G       !!!           |
|           W WW W  AAAAAA  RRRRR   N  N N  II  N  N N  G  GGG   !            |
|           WW  WW  A    A  R   R   N   NN  II  N   NN  G    G                |
|           W    W  A    A  R    R  N    N  II  N    N   GGGG   !!!           |
|                                                                             |
|     For optimal performance we recommend to set                             |
|       NCORE = 2 up to number-of-cores-per-socket                            |
|     NCORE specifies how many cores store one orbital (NPAR=cpu/NCORE).      |
|     This setting can greatly improve the performance of VASP for DFT.       |
|     The default, NCORE=1 might be grossly inefficient on modern             |
|     multi-core architectures or massively parallel machines. Do your        |
|     own testing! More info at https://www.vasp.at/wiki/index.php/NCORE      |
|     Unfortunately you need to use the default for GW and RPA                |
|     calculations (for HF NCORE is supported but not extensively tested      |
|     yet).                                                                   |
|                                                                             |
 -----------------------------------------------------------------------------

 POTCAR:    PAW_PBE S 06Sep2000                   
   SHA256 =  0fc7481fb0695f01bdc6462160264c5c84044ae9ec85a907d398b887a2bc3132 S/POTCAR              
   COPYR  = (c) Copyright 06Sep2000 Georg Kresse                                                    
   COPYR  = This file is part of the software VASP. Any use, copying, and all other rights are regul
   COPYR  = If you do not have a valid VASP license, you may not use, copy or distribute this file. 
   VRHFIN =S : s2p4                                                                                 
   LEXCH  = PE                                                                                      
   EATOM  =   276.8230 eV,   20.3459 Ry                                                             
                                                                                                    
   TITEL  = PAW_PBE S 06Sep2000                                                                     
   LULTRA =        F    use ultrasoft PP ?                                                          
   IUNSCR =        1    unscreen: 0-lin 1-nonlin 2-no                                               
   RPACOR =    1.500    partial core radius                                                         
   POMASS =   32.066; ZVAL   =    6.000    mass and valenz                                          
   RCORE  =    1.900    outmost cutoff radius                                                       
   RWIGS  =    2.200; RWIGS  =    1.164    wigner-seitz radius (au A)                               
   ENMAX  =  258.689; ENMIN  =  194.016 eV                                                          
   ICORE  =        2    local potential                                                             
   LCOR   =        T    correct aug charges                                                         
   LPAW   =        T    paw PP                                                                      
   EAUG   =  335.092                                                                                
   DEXC   =    0.000                                                                                
   RMAX   =    1.942    core radius for proj-oper                                                   
   RAUG   =    1.300    factor for augmentation sphere                                              
   RDEP   =    1.954    radius for radial grids                                                     
   RDEPT  =    1.744    core radius for aug-charge                                                  
                                                                                                    
   Atomic configuration                                                                             
    6 entries                                                                                       
     n  l   j            E        occ.                                                              
     1  0  0.50     -2405.8406   2.0000                                                             
     2  0  0.50      -211.7007   2.0000                                                             
     2  1  1.50      -156.4958   6.0000                                                             
     3  0  0.50       -17.2562   2.0000                                                             
     3  1  0.50        -7.0085   4.0000                                                             
     3  2  1.50        -6.8029   0.0000                                                             
   Description                                                                                      
     l       E           TYP  RCUT    TYP  RCUT                                                     
     0    -17.2561641     23  1.900                                                                 
     0    -15.8743224     23  1.900                                                                 
     1     -7.0085400     23  1.900                                                                 
     1     -2.7779785     23  1.900                                                                 
     2     -6.8029130     23  1.900                                                                 
  local pseudopotential read in
  partial core-charges read in
  partial kinetic energy density read in
  atomic valenz-charges read in
  non local Contribution for L=           0  read in
    real space projection operators read in
  non local Contribution for L=           0  read in
    real space projection operators read in
  non local Contribution for L=           1  read in
    real space projection operators read in
  non local Contribution for L=           1  read in
    real space projection operators read in
    PAW grid and wavefunctions read in

   number of l-projection  operators is LMAX  =           4
   number of lm-projection operators is LMMAX =           8

 -----------------------------------------------------------------------------
|                                                                             |
|               ----> ADVICE to this user running VASP <----                  |
|                                                                             |
|     You have a (more or less) 'large supercell' and for larger cells it     |
|     might be more efficient to use real-space projection operators.         |
|     Therefore, try LREAL= Auto in the INCAR file.                           |
|     Mind: For very accurate calculation, you might also keep the            |
|     reciprocal projection scheme (i.e. LREAL=.FALSE.).                      |
|                                                                             |
 -----------------------------------------------------------------------------

  PAW_PBE S 06Sep2000                   :
 energy of atom  1       EATOM= -276.8230
 kinetic energy error for atom=    0.0016 (will be added to EATOM!!)


 POSCAR: generated by phonopy
  positions in direct lattice
  No initial velocities read in
 exchange correlation table for  LEXCH =        8
   RHO(1)=    0.500       N(1)  =     2000
   RHO(2)=  100.500       N(2)  =     4000



--------------------------------------------------------------------------------------------------------


 ion  position               nearest neighbor table
   1  0.885  0.467  0.678-  45 1.97  24 2.13
   2  0.886  0.967  0.678-  46 1.98  23 2.13
   3  0.330  0.189  0.551-  41 2.05  19 2.13
   4  0.330  0.689  0.551-  42 2.05  20 2.13
   5  0.913  0.105  0.912-  51 1.98  11 2.13
   6  0.913  0.605  0.912-  52 1.98  12 2.13
   7  0.240  0.301  0.777-  19 1.98  37 2.23
   8  0.240  0.801  0.777-  20 1.98  38 2.23
   9  0.144  0.306  0.224-  31 2.05  39 2.13
  10  0.144  0.806  0.224-  32 2.05  40 2.13
  11  0.856  0.194  0.776-  47 2.05   5 2.13
  12  0.856  0.694  0.776-  48 2.05   6 2.13
  13  0.760  0.199  0.223-  27 1.98  33 2.23
  14  0.760  0.699  0.223-  28 1.98  34 2.23
  15  0.170  0.439  0.449-  31 2.05  30 2.13
  16  0.170  0.939  0.449-  32 2.05  29 2.13
  17  0.413  0.145  0.912-  37 1.98  43 2.13
  18  0.413  0.645  0.912-  38 1.98  44 2.13
  19  0.386  0.283  0.678-   7 1.98   3 2.13
  20  0.386  0.783  0.678-   8 1.98   4 2.13
  21  0.644  0.444  0.224-  53 2.05  35 2.13
  22  0.644  0.944  0.224-  54 2.05  36 2.13
  23  0.830  0.061  0.551-  47 2.05   2 2.13
  24  0.830  0.561  0.551-  48 2.05   1 2.13
  25  0.260  0.051  0.223-  29 1.98  50 2.23
  26  0.260  0.551  0.223-  30 1.98  49 2.23
  27  0.614  0.217  0.322-  13 1.98  55 2.13
  28  0.614  0.717  0.322-  14 1.98  56 2.13
  29  0.114  0.033  0.322-  25 1.98  16 2.13
  30  0.114  0.533  0.322-  26 1.98  15 2.13
  31  0.060  0.345  0.374-   9 2.05  15 2.05
  32  0.060  0.845  0.374-  10 2.05  16 2.05
  33  0.743  0.289  0.071-  35 1.98  13 2.23
  34  0.743  0.789  0.071-  36 1.98  14 2.23
  35  0.587  0.355  0.088-  33 1.98  21 2.13
  36  0.587  0.855  0.088-  34 1.98  22 2.13
  37  0.257  0.211  0.929-  17 1.98   7 2.23
  38  0.257  0.711  0.929-  18 1.98   8 2.23
  39  0.087  0.395  0.088-  49 1.98   9 2.13
  40  0.087  0.895  0.088-  50 1.98  10 2.13
  41  0.440  0.095  0.626-  43 2.05   3 2.05
  42  0.440  0.595  0.626-  44 2.05   4 2.05
  43  0.356  0.056  0.776-  41 2.05  17 2.13
  44  0.356  0.556  0.776-  42 2.05  18 2.13
  45  0.740  0.449  0.777-   1 1.97  52 2.23
  46  0.740  0.949  0.777-   2 1.98  51 2.23
  47  0.940  0.155  0.626-  11 2.05  23 2.05
  48  0.940  0.655  0.626-  12 2.05  24 2.05
  49  0.243  0.461  0.071-  39 1.98  26 2.23
  50  0.243  0.961  0.071-  40 1.98  25 2.23
  51  0.757  0.039  0.929-   5 1.98  46 2.23
  52  0.757  0.539  0.929-   6 1.98  45 2.23
  53  0.560  0.405  0.374-  21 2.05  55 2.05
  54  0.560  0.905  0.374-  22 2.05  56 2.05
  55  0.670  0.311  0.449-  53 2.05  27 2.13
  56  0.670  0.811  0.449-  54 2.05  28 2.13


IMPORTANT INFORMATION: All symmetrisations will be switched off!
NOSYMM: (Re-)initialisation of all symmetry stuff for point group C_1.


----------------------------------------------------------------------------------------

                                     Primitive cell                                     

  volume of cell :    1863.6770

  direct lattice vectors                    reciprocal lattice vectors
     0.000000000 10.307367086 -0.372855731     0.000000000  0.096453423 -0.015606996
    16.788494411  0.000000000  0.000000000     0.059564603  0.000000000  0.000000000
     0.000000000 -1.732519801-10.707215182     0.000000000 -0.003358783 -0.092851486

  length of vectors
    10.314108670 16.788494411 10.846477853     0.097707938  0.059564603  0.092912216

  position of ions in fractional coordinates (direct lattice)
     0.885453595  0.467004751  0.678126386
     0.886423141  0.967004751  0.678126386
     0.329563264  0.188743823  0.550707721
     0.329563264  0.688743823  0.550707721
     0.912671285  0.105241885  0.911960471
     0.912671285  0.605241885  0.911960471
     0.239736405  0.300831047  0.776574189
     0.239736405  0.800831047  0.776574189
     0.144417516  0.305688762  0.224396680
     0.144417516  0.805688762  0.224396680
     0.855582484  0.194311238  0.775603320
     0.855582484  0.694311238  0.775603320
     0.760263595  0.199168953  0.223425811
     0.760263595  0.699168953  0.223425811
     0.170436736  0.438743823  0.449292279
     0.170436736  0.938743823  0.449292279
     0.412671285  0.144758115  0.911960471
     0.412671285  0.644758115  0.911960471
     0.386423141  0.282995249  0.678126386
     0.386423141  0.782995249  0.678126386
     0.644417516  0.444311238  0.224396680
     0.644417516  0.944311238  0.224396680
     0.829563264  0.061256177  0.550707721
     0.829563264  0.561256177  0.550707721
     0.260263595  0.050831047  0.223425811
     0.260263595  0.550831047  0.223425811
     0.613576859  0.217004751  0.321873614
     0.613576859  0.717004751  0.321873614
     0.113576859  0.032995249  0.321873614
     0.113576859  0.532995249  0.321873614
     0.059895700  0.345087734  0.374484367
     0.059895700  0.845087734  0.374484367
     0.743425210  0.289344343  0.071165234
     0.743425210  0.789344343  0.071165234
     0.587328715  0.355241885  0.088039529
     0.587328715  0.855241885  0.088039529
     0.256574790  0.210655657  0.928834766
     0.256574790  0.710655657  0.928834766
     0.087328715  0.394758115  0.088039529
     0.087328715  0.894758115  0.088039529
     0.440104300  0.095087734  0.625515633
     0.440104300  0.595087734  0.625515633
     0.355582484  0.055688762  0.775603320
     0.355582484  0.555688762  0.775603320
     0.739736405  0.449168953  0.776574189
     0.739736405  0.949168953  0.776574189
     0.940104300  0.154912266  0.625515633
     0.940104300  0.654912266  0.625515633
     0.243425210  0.460655657  0.071165234
     0.243425210  0.960655657  0.071165234
     0.756574790  0.039344343  0.928834766
     0.756574790  0.539344343  0.928834766
     0.559895700  0.404912266  0.374484367
     0.559895700  0.904912266  0.374484367
     0.670436736  0.311256177  0.449292279
     0.670436736  0.811256177  0.449292279

  ion indices of the primitive-cell ions
   primitive index   ion index
                 1           1
                 2           2
                 3           3
                 4           4
                 5           5
                 6           6
                 7           7
                 8           8
                 9           9
                10          10
                11          11
                12          12
                13          13
                14          14
                15          15
                16          16
                17          17
                18          18
                19          19
                20          20
                21          21
                22          22
                23          23
                24          24
                25          25
                26          26
                27          27
                28          28
                29          29
                30          30
                31          31
                32          32
                33          33
                34          34
                35          35
                36          36
                37          37
                38          38
                39          39
                40          40
                41          41
                42          42
                43          43
                44          44
                45          45
                46          46
                47          47
                48          48
                49          49
                50          50
                51          51
                52          52
                53          53
                54          54
                55          55
                56          56

----------------------------------------------------------------------------------------



 KPOINTS: pymatgen with grid density = 595 / numbe

Automatic generation of k-mesh.
 Grid dimensions read from file:
 generate k-points for:    2    2    2

 Generating k-lattice:

  Cartesian coordinates                     Fractional coordinates (reciprocal lattice)
     0.000000000  0.048226712 -0.007803498     0.500000000  0.000000000 -0.000000000
     0.029782301  0.000000000  0.000000000     0.000000000  0.500000000  0.000000000
     0.000000000 -0.001679391 -0.046425743    -0.000000000  0.000000000  0.500000000

  Length of vectors
     0.048853969  0.029782301  0.046456108

  Shift w.r.t. Gamma in fractional coordinates (k-lattice)
     0.000000000  0.000000000  0.000000000

 TETIRR: Found     24 inequivalent tetrahedra from       48
 
 Subroutine IBZKPT returns following result:
 ===========================================
 
 Found      8 irreducible k-points:
 
 Following reciprocal coordinates:
            Coordinates               Weight
  0.000000  0.000000  0.000000      1.000000
  0.500000  0.000000  0.000000      1.000000
  0.000000  0.500000  0.000000      1.000000
  0.500000  0.500000  0.000000      1.000000
  0.000000  0.000000  0.500000      1.000000
  0.500000  0.000000  0.500000      1.000000
  0.000000  0.500000  0.500000      1.000000
  0.500000  0.500000  0.500000      1.000000
 
 Following cartesian coordinates:
            Coordinates               Weight
  0.000000  0.000000 -0.000000      1.000000
  0.000000  0.048227 -0.007803      1.000000
  0.029782  0.000000 -0.000000      1.000000
  0.029782  0.048227 -0.007803      1.000000
  0.000000 -0.001679 -0.046426      1.000000
  0.000000  0.046547 -0.054229      1.000000
  0.029782 -0.001679 -0.046426      1.000000
  0.029782  0.046547 -0.054229      1.000000
 


--------------------------------------------------------------------------------------------------------




 Dimension of arrays:
   k-points           NKPTS =      8   k-points in BZ     NKDIM =      8   number of bands    NBANDS=    256
   number of dos      NEDOS =    301   number of ions     NIONS =     56
   non local maximal  LDIM  =      4   non local SUM 2l+1 LMDIM =      8
   total plane-waves  NPLWV = 846720
   max r-space proj   IRMAX =      1   max aug-charges    IRDMAX= 114695
   dimension x,y,z NGX =    80 NGY =  126 NGZ =   84
   dimension x,y,z NGXF=   160 NGYF=  252 NGZF=  168
   support grid    NGXF=   320 NGYF=  504 NGZF=  336
   ions per type =              56
   NGX,Y,Z   is equivalent  to a cutoff of  12.89, 12.48, 12.87 a.u.
   NGXF,Y,Z  is equivalent  to a cutoff of  25.79, 24.95, 25.75 a.u.

 SYSTEM =  unknown system                          
 POSCAR =  generated by phonopy                    

 Startparameter for this run:
   NWRITE =      2    write-flag & timer
   PREC   = accura    normal or accurate (medium, high low for compatibility)
   ISTART =      0    job   : 0-new  1-cont  2-samecut
   ICHARG =      2    charge: 1-file 2-atom 10-const
   ISPIN  =      2    spin polarized calculation?
   LNONCOLLINEAR =      F non collinear calculations
   LSORBIT =      F    spin-orbit coupling
   INIWAV =      1    electr: 0-lowe 1-rand  2-diag
   LASPH  =      T    aspherical Exc in radial PAW
 Electronic Relaxation 1
   ENCUT  =  520.0 eV  38.22 Ry    6.18 a.u.  19.18 31.22 20.17*2*pi/ulx,y,z
   ENINI  =  520.0     initial cutoff
   ENAUG  =  335.1 eV  augmentation charge cutoff
   NELM   =    100;   NELMIN=  2; NELMDL= -5     # of ELM steps 
   EDIFF  = 0.1E-08   stopping-criterion for ELM
   LREAL  =      F    real-space projection
   NLSPLINE    = F    spline interpolate recip. space projectors
   LCOMPAT=      F    compatible to vasp.4.4
   GGA_COMPAT  = T    GGA compatible to vasp.4.4-vasp.4.6
   LMAXPAW     = -100 max onsite density
   LMAXMIX     =    2 max onsite mixed and CHGCAR
   VOSKOWN=      0    Vosko Wilk Nusair interpolation
   ROPT   =    0.00000
 Ionic relaxation
   EDIFFG = -.5E-03   stopping-criterion for IOM
   NSW    =      0    number of steps for IOM
   NBLOCK =      1;   KBLOCK =      1    inner block; outer block 
   IBRION =     -1    ionic relax: 0-MD 1-quasi-New 2-CG
   NFREE  =      0    steps in history (QN), initial steepest desc. (CG)
   ISIF   =      2    stress and relaxation
   IWAVPR =     10    prediction:  0-non 1-charg 2-wave 3-comb
   ISYM   =      0    0-nonsym 1-usesym 2-fastsym
   LCORR  =      T    Harris-Foulkes like correction to forces

   POTIM  = 0.5000    time-step for ionic-motion
   TEIN   =    0.0    initial temperature
   TEBEG  =    0.0;   TEEND  =   0.0 temperature during run
   SMASS  =  -3.00    Nose mass-parameter (am)
   estimated Nose-frequenzy (Omega)   =  0.10E-29 period in steps = 0.13E+47 mass=  -0.243E-26a.u.
   SCALEE = 1.0000    scale energy and forces
   NPACO  =    256;   APACO  = 10.0  distance and # of slots for P.C.
   PSTRESS=    0.0 pullay stress

  Mass of Ions in am
   POMASS =  32.07
  Ionic Valenz
   ZVAL   =   6.00
  Atomic Wigner-Seitz radii
   RWIGS  =  -1.00
  virtual crystal weights 
   VCA    =   1.00
   NELECT =     336.0000    total number of electrons
   NUPDOWN=      -1.0000    fix difference up-down

 DOS related values:
   EMIN   =  10.00;   EMAX   =-10.00  energy-range for DOS
   EFERMI =   0.00
   ISMEAR =    -5;   SIGMA  =   0.05  broadening in eV -4-tet -1-fermi 0-gaus

 Electronic relaxation 2 (details)
   IALGO  =     38    algorithm
   LDIAG  =      T    sub-space diagonalisation (order eigenvalues)
   LSUBROT=      F    optimize rotation matrix (better conditioning)
   TURBO    =      0    0=normal 1=particle mesh
   IRESTART =      0    0=no restart 2=restart with 2 vectors
   NREBOOT  =      0    no. of reboots
   NMIN     =      0    reboot dimension
   EREF     =   0.00    reference energy to select bands
   IMIX   =      4    mixing-type and parameters
     AMIX     =   0.40;   BMIX     =  1.00
     AMIX_MAG =   1.60;   BMIX_MAG =  1.00
     AMIN     =   0.10
     WC   =   100.;   INIMIX=   1;  MIXPRE=   1;  MAXMIX= -45

 Intra band minimization:
   WEIMIN = 0.0000     energy-eigenvalue tresh-hold
   EBREAK =  0.98E-12  absolut break condition
   DEPER  =   0.30     relativ break condition  

   TIME   =   0.40     timestep for ELM

  volume/ion in A,a.u.               =      33.28       224.58
  Fermi-wavevector in a.u.,A,eV,Ry     =   0.924835  1.747685 11.637339  0.855320
  Thomas-Fermi vector in A             =   2.050624

 Write flags
   LWAVE        =      F    write WAVECAR
   LDOWNSAMPLE  =      F    k-point downsampling of WAVECAR
   LCHARG       =      F    write CHGCAR
   LVTOT        =      F    write LOCPOT, total local potential
   LVHAR        =      F    write LOCPOT, Hartree potential only
   LELF         =      F    write electronic localiz. function (ELF)
   LORBIT       =     11    0 simple, 1 ext, 2 COOP (PROOUT), +10 PAW based schemes


 Dipole corrections
   LMONO  =      F    monopole corrections only (constant potential shift)
   LDIPOL =      F    correct potential (dipole corrections)
   IDIPOL =      0    1-x, 2-y, 3-z, 4-all directions 
   EPSILON=  1.0000000 bulk dielectric constant

 Exchange correlation treatment:
   GGA     =    --    GGA type
   LEXCH   =     8    internal setting for exchange type
   LIBXC   =     F    Libxc                    
   VOSKOWN =     0    Vosko Wilk Nusair interpolation
   LHFCALC =     F    Hartree Fock is set to
   LHFONE  =     F    Hartree Fock one center treatment
   AEXX    =    0.0000 exact exchange contribution

 Linear response parameters
   LEPSILON=     F    determine dielectric tensor
   LRPA    =     F    only Hartree local field effects (RPA)
   LNABLA  =     F    use nabla operator in PAW spheres
   LVEL    =     F    velocity operator in full k-point grid
   CSHIFT  =0.1000    complex shift for real part using Kramers Kronig
   OMEGAMAX=  -1.0    maximum frequency
   DEG_THRESHOLD= 0.2000000E-02 threshold for treating states as degnerate
   RTIME   =   -0.100 relaxation time in fs
  (WPLASMAI=    0.000 imaginary part of plasma frequency in eV, 0.658/RTIME)
   DFIELD  = 0.0000000 0.0000000 0.0000000 field for delta impulse in time

  Optional k-point grid parameters
   LKPOINTS_OPT  =     F    use optional k-point grid
   KPOINTS_OPT_MODE=     1    mode for optional k-point grid

 Orbital magnetization related:
   ORBITALMAG=     F  switch on orbital magnetization
   LCHIMAG   =     F  perturbation theory with respect to B field
   DQ        =  0.001000  dq finite difference perturbation B field
   LLRAUG    =     F  two centre corrections for induced B field



--------------------------------------------------------------------------------------------------------


 Static calculation
 charge density and potential will be updated during run
 spin polarized calculation
 Variant of blocked Davidson
 Davidson routine will perform the subspace rotation
 perform sub-space diagonalisation
    after iterative eigenvector-optimisation
 modified Broyden-mixing scheme, WC =      100.0
 initial mixing is a Kerker type mixing with AMIX =  0.4000 and BMIX =      1.0000
 Hartree-type preconditioning will be used
 using additional bands           88
 reciprocal scheme for non local part
 use partial core corrections
 calculate Harris-corrections to forces   (improved forces if not selfconsistent)
 use gradient corrections 
 use of overlap-Matrix (Vanderbilt PP)
 Fermi weights with tetrahedron method with Bloechl corrections


--------------------------------------------------------------------------------------------------------


  energy-cutoff  :      520.00
  volume of cell :     1863.68
      direct lattice vectors                 reciprocal lattice vectors
     0.000000000 10.307367086 -0.372855731     0.000000000  0.096453423 -0.015606996
    16.788494411  0.000000000  0.000000000     0.059564603  0.000000000  0.000000000
     0.000000000 -1.732519801-10.707215182     0.000000000 -0.003358783 -0.092851486

  length of vectors
    10.314108670 16.788494411 10.846477853     0.097707938  0.059564603  0.092912216



 k-points in units of 2pi/SCALE and weight: pymatgen with grid density = 595 / numbe
   0.00000000  0.00000000 -0.00000000       0.125
   0.00000000  0.04822671 -0.00780350       0.125
   0.02978230  0.00000000 -0.00000000       0.125
   0.02978230  0.04822671 -0.00780350       0.125
   0.00000000 -0.00167939 -0.04642574       0.125
   0.00000000  0.04654732 -0.05422924       0.125
   0.02978230 -0.00167939 -0.04642574       0.125
   0.02978230  0.04654732 -0.05422924       0.125

 k-points in reciprocal lattice and weights: pymatgen with grid density = 595 / numbe
   0.00000000  0.00000000  0.00000000       0.125
   0.50000000  0.00000000  0.00000000       0.125
   0.00000000  0.50000000  0.00000000       0.125
   0.50000000  0.50000000  0.00000000       0.125
   0.00000000  0.00000000  0.50000000       0.125
   0.50000000  0.00000000  0.50000000       0.125
   0.00000000  0.50000000  0.50000000       0.125
   0.50000000  0.50000000  0.50000000       0.125

 position of ions in fractional coordinates (direct lattice) 
   0.88545360  0.46700475  0.67812639
   0.88642314  0.96700475  0.67812639
   0.32956326  0.18874382  0.55070772
   0.32956326  0.68874382  0.55070772
   0.91267129  0.10524188  0.91196047
   0.91267129  0.60524188  0.91196047
   0.23973640  0.30083105  0.77657419
   0.23973640  0.80083105  0.77657419
   0.14441752  0.30568876  0.22439668
   0.14441752  0.80568876  0.22439668
   0.85558248  0.19431124  0.77560332
   0.85558248  0.69431124  0.77560332
   0.76026360  0.19916895  0.22342581
   0.76026360  0.69916895  0.22342581
   0.17043674  0.43874382  0.44929228
   0.17043674  0.93874382  0.44929228
   0.41267129  0.14475812  0.91196047
   0.41267129  0.64475812  0.91196047
   0.38642314  0.28299525  0.67812639
   0.38642314  0.78299525  0.67812639
   0.64441752  0.44431124  0.22439668
   0.64441752  0.94431124  0.22439668
   0.82956326  0.06125618  0.55070772
   0.82956326  0.56125618  0.55070772
   0.26026360  0.05083105  0.22342581
   0.26026360  0.55083105  0.22342581
   0.61357686  0.21700475  0.32187361
   0.61357686  0.71700475  0.32187361
   0.11357686  0.03299525  0.32187361
   0.11357686  0.53299525  0.32187361
   0.05989570  0.34508773  0.37448437
   0.05989570  0.84508773  0.37448437
   0.74342521  0.28934434  0.07116523
   0.74342521  0.78934434  0.07116523
   0.58732871  0.35524188  0.08803953
   0.58732871  0.85524188  0.08803953
   0.25657479  0.21065566  0.92883477
   0.25657479  0.71065566  0.92883477
   0.08732871  0.39475812  0.08803953
   0.08732871  0.89475812  0.08803953
   0.44010430  0.09508773  0.62551563
   0.44010430  0.59508773  0.62551563
   0.35558248  0.05568876  0.77560332
   0.35558248  0.55568876  0.77560332
   0.73973640  0.44916895  0.77657419
   0.73973640  0.94916895  0.77657419
   0.94010430  0.15491227  0.62551563
   0.94010430  0.65491227  0.62551563
   0.24342521  0.46065566  0.07116523
   0.24342521  0.96065566  0.07116523
   0.75657479  0.03934434  0.92883477
   0.75657479  0.53934434  0.92883477
   0.55989570  0.40491227  0.37448437
   0.55989570  0.90491227  0.37448437
   0.67043674  0.31125618  0.44929228
   0.67043674  0.81125618  0.44929228

 position of ions in cartesian coordinates  (Angst):
   7.84030666  7.95182785 -7.59099158
  16.23455387  7.96182132 -7.59135308
   3.16872461  2.44281751 -6.01942562
  11.56297182  2.44281751 -6.01942562
   1.76685280  7.82724839-10.10485172
  10.16110000  7.82724839-10.10485172
   5.05050035  1.12562097 -8.40433404
  13.44474755  1.12562097 -8.40433404
   5.13205407  1.09979266 -2.45651044
  13.52630128  1.09979266 -2.45651044
   3.26219313  7.47505463 -8.62356047
  11.65644034  7.47505463 -8.62356047
   3.34374686  7.44922632 -2.67573688
  11.73799406  7.44922632 -2.67573688
   7.36584822  0.97834624 -4.87421742
  15.76009542  0.97834624 -4.87421742
   2.43027081  2.67356485 -9.91842386
  10.82451801  2.67356485 -9.91842386
   4.75106415  2.80813777 -7.40492521
  13.14531135  2.80813777 -7.40492521
   7.45931673  6.25347620 -2.64293831
  15.85356394  6.25347620 -2.64293831
   1.02839899  7.59650105 -6.20585349
   9.42264619  7.59650105 -6.20585349
   0.85337674  2.29554277 -2.48930901
   9.24762395  2.29554277 -2.48930901
   3.64318306  5.76670951 -3.67514570
  12.03743026  5.76670951 -3.67514570
   0.55394055  0.61302597 -3.48871783
   8.94818775  0.61302597 -3.48871783
   5.79350349 -0.03143461 -4.03201715
  14.18775070 -0.03143461 -4.03201715
   4.85765589  7.53946136 -1.03917182
  13.25190310  7.53946136 -1.03917182
   5.96397640  5.90128244 -1.16164705
  14.35822361  5.90128244 -1.16164705
   3.53659131  1.03538593-10.04089909
  11.93083852  1.03538593-10.04089909
   6.62739441  0.74759889 -0.97521919
  15.02164161  0.74759889 -0.97521919
   1.59637989  3.45259836 -6.86162589
   9.99062710  3.45259836 -6.86162589
   0.93493047  2.32137108 -8.43713261
   9.32917768  2.32137108 -8.43713261
   7.54087046  6.27930451 -8.59076190
  15.93511767  6.27930451 -8.59076190
   2.60074371  8.60628190 -7.04805376
  10.99499092  8.60628190 -7.04805376
   7.73371492  2.38577782 -0.85274396
  16.12796212  2.38577782 -0.85274396
   0.66053229  6.18906947-10.22732695
   9.05477950  6.18906947-10.22732695
   6.79786731  5.12224893 -4.21844502
  15.19211452  5.12224893 -4.21844502
   5.22552259  6.13202978 -5.06064529
  13.61976980  6.13202978 -5.06064529



--------------------------------------------------------------------------------------------------------


 k-point   1 :   0.0000 0.0000 0.0000  plane waves:   50179
 k-point   2 :   0.5000 0.0000 0.0000  plane waves:   50160
 k-point   3 :   0.0000 0.5000 0.0000  plane waves:   50162
 k-point   4 :   0.5000 0.5000 0.0000  plane waves:   50192
 k-point   5 :   0.0000 0.0000 0.5000  plane waves:   50190
 k-point   6 :   0.5000 0.0000 0.5000  plane waves:   50190
 k-point   7 :   0.0000 0.5000 0.5000  plane waves:   50172
 k-point   8 :   0.5000 0.5000 0.5000  plane waves:   50200

 maximum and minimum number of plane-waves per node :     50200    50160

 maximum number of plane-waves:     50200
 maximum index in each direction: 
   IXMAX=   19   IYMAX=   31   IZMAX=   20
   IXMIN=  -19   IYMIN=  -31   IZMIN=  -20


 serial   3D FFT for wavefunctions
 parallel 3D FFT for charge:
    minimum data exchange during FFTs selected (reduces bandwidth)


 total amount of memory used by VASP MPI-rank0   322725. kBytes
=======================================================================

   base      :      30000. kBytes
   nonl-proj :      70692. kBytes
   fftplans  :      34504. kBytes
   grid      :      83442. kBytes
   one-center:        344. kBytes
   wavefun   :     103743. kBytes

     INWAV:  cpu time      0.0000: real time      0.0002
 Broyden mixing: mesh for mixing (old mesh)
   NGX = 39   NGY = 63   NGZ = 41
  (NGX  =160   NGY  =252   NGZ  =168)
  gives a total of 100737 points

 initial charge density was supplied:
 charge density of overlapping atoms calculated
 number of electron     336.0000000 magnetization      56.0000000
 keeping initial charge density in first step


--------------------------------------------------------------------------------------------------------


 Maximum index for augmentation-charges         3947 (set IRDMAX)


--------------------------------------------------------------------------------------------------------


 First call to EWALD:  gamma=   0.144
 Maximum number of real-space cells 3x 2x 3
 Maximum number of reciprocal cells 2x 4x 2

    FEWALD:  cpu time      0.0021: real time      0.0021


--------------------------------------- Iteration      1(   1)  ---------------------------------------


    POTLOK:  cpu time      0.5169: real time      0.5257
    SETDIJ:  cpu time      7.7714: real time      7.7724
     EDDAV:  cpu time     53.9550: real time     53.9738
 BZINTS: Fermi energy:   10.167120;  336.000000 electrons
         Band energy: 0.225051E+03;  BLOECHL correction:   -0.008708
       DOS:  cpu time      0.0513: real time      0.0514
    --------------------------------------------
      LOOP:  cpu time     62.2946: real time     62.3233

 eigenvalue-minimisations  :  8192
 total energy-change (2. order) : 0.2106358E+04  (-0.1330938E+05)
 number of electron     336.0000000 magnetization      56.0000000
 augmentation part      336.0000000 magnetization      56.0000000

 Free energy of the ion-electron system (eV)
  ---------------------------------------------------
  alpha Z        PSCENC =       253.99581917
  Ewald energy   TEWEN  =     -9969.80316382
  -Hartree energ DENC   =     -4766.66533993
  -exchange      EXHF   =         0.00000000
  -V(xc)+E(xc)   XCENC  =       682.53326832
  PAW double counting   =     12174.71095765   -11995.46358648
  entropy T*S    EENTRO =         0.00000000
  eigenvalues    EBANDS =       225.05091394
  atomic energy  EATOM  =     15501.99929693
  Solvation  Ediel_sol  =         0.00000000
  ---------------------------------------------------
  free energy    TOTEN  =      2106.35816580 eV

  energy without entropy =     2106.35816580  energy(sigma->0) =     2106.35816580


--------------------------------------------------------------------------------------------------------




--------------------------------------- Iteration      1(   2)  ---------------------------------------


     EDDAV:  cpu time     63.1987: real time     63.2138
 BZINTS: Fermi energy:    1.450794;  336.000000 electrons
         Band energy:-0.187502E+04;  BLOECHL correction:    0.000000
       DOS:  cpu time      0.0274: real time      0.0274
    --------------------------------------------
      LOOP:  cpu time     63.2260: real time     63.2412

 eigenvalue-minimisations  : 10272
 total energy-change (2. order) :-0.2100071E+04  (-0.2021880E+04)
 number of electron     336.0000000 magnetization      56.0000000
 augmentation part      336.0000000 magnetization      56.0000000

 Free energy of the ion-electron system (eV)
  ---------------------------------------------------
  alpha Z        PSCENC =       253.99581917
  Ewald energy   TEWEN  =     -9969.80316382
  -Hartree energ DENC   =     -4766.66533993
  -exchange      EXHF   =         0.00000000
  -V(xc)+E(xc)   XCENC  =       682.53326832
  PAW double counting   =     12174.71095765   -11995.46358648
  entropy T*S    EENTRO =         0.00000000
  eigenvalues    EBANDS =     -1875.02041373
  atomic energy  EATOM  =     15501.99929693
  Solvation  Ediel_sol  =         0.00000000
  ---------------------------------------------------
  free energy    TOTEN  =         6.28683812 eV

  energy without entropy =        6.28683812  energy(sigma->0) =        6.28683812


--------------------------------------------------------------------------------------------------------




--------------------------------------- Iteration      1(   3)  ---------------------------------------


     EDDAV:  cpu time     56.4966: real time     56.5116
 BZINTS: Fermi energy:    0.219385;  336.000000 electrons
         Band energy:-0.209489E+04;  BLOECHL correction:    0.000000
       DOS:  cpu time      0.0284: real time      0.0285
    --------------------------------------------
      LOOP:  cpu time     56.5250: real time     56.5400

 eigenvalue-minimisations  : 10240
 total energy-change (2. order) :-0.2198652E+03  (-0.2171797E+03)
 number of electron     336.0000000 magnetization      56.0000000
 augmentation part      336.0000000 magnetization      56.0000000

 Free energy of the ion-electron system (eV)
  ---------------------------------------------------
  alpha Z        PSCENC =       253.99581917
  Ewald energy   TEWEN  =     -9969.80316382
  -Hartree energ DENC   =     -4766.66533993
  -exchange      EXHF   =         0.00000000
  -V(xc)+E(xc)   XCENC  =       682.53326832
  PAW double counting   =     12174.71095765   -11995.46358648
  entropy T*S    EENTRO =         0.00000000
  eigenvalues    EBANDS =     -2094.88562878
  atomic energy  EATOM  =     15501.99929693
  Solvation  Ediel_sol  =         0.00000000
  ---------------------------------------------------
  free energy    TOTEN  =      -213.57837693 eV

  energy without entropy =     -213.57837693  energy(sigma->0) =     -213.57837693


--------------------------------------------------------------------------------------------------------




--------------------------------------- Iteration      1(   4)  ---------------------------------------


     EDDAV:  cpu time     60.0122: real time     60.0292
 BZINTS: Fermi energy:    0.191851;  336.000000 electrons
         Band energy:-0.209978E+04;  BLOECHL correction:    0.000000
       DOS:  cpu time      0.0274: real time      0.0275
    --------------------------------------------
      LOOP:  cpu time     60.0396: real time     60.0567

 eigenvalue-minimisations  : 10336
 total energy-change (2. order) :-0.4898841E+01  (-0.4880489E+01)
 number of electron     336.0000000 magnetization      56.0000000
 augmentation part      336.0000000 magnetization      56.0000000

 Free energy of the ion-electron system (eV)
  ---------------------------------------------------
  alpha Z        PSCENC =       253.99581917
  Ewald energy   TEWEN  =     -9969.80316382
  -Hartree energ DENC   =     -4766.66533993
  -exchange      EXHF   =         0.00000000
  -V(xc)+E(xc)   XCENC  =       682.53326832
  PAW double counting   =     12174.71095765   -11995.46358648
  entropy T*S    EENTRO =         0.00000000
  eigenvalues    EBANDS =     -2099.78446964
  atomic energy  EATOM  =     15501.99929693
  Solvation  Ediel_sol  =         0.00000000
  ---------------------------------------------------
  free energy    TOTEN  =      -218.47721778 eV

  energy without entropy =     -218.47721778  energy(sigma->0) =     -218.47721778


--------------------------------------------------------------------------------------------------------




--------------------------------------- Iteration      1(   5)  ---------------------------------------


     EDDAV:  cpu time     61.5385: real time     61.5535
 BZINTS: Fermi energy:    0.191418;  336.000000 electrons
         Band energy:-0.209992E+04;  BLOECHL correction:   -0.000000
       DOS:  cpu time      0.0284: real time      0.0285
    CHARGE:  cpu time     12.4972: real time     12.5003
    MIXING:  cpu time      0.0213: real time      0.0213
    --------------------------------------------
      LOOP:  cpu time     74.0854: real time     74.1036

 eigenvalue-minimisations  : 10048
 total energy-change (2. order) :-0.1351109E+00  (-0.1350445E+00)
 number of electron     335.9999997 magnetization      44.9918631
 augmentation part      -47.3229147 magnetization      44.8832614

 Broyden mixing:
  rms(total) = 0.82930E+01    rms(broyden)= 0.82930E+01
  rms(prec ) = 0.83130E+01
  weight for this iteration     100.00

 Free energy of the ion-electron system (eV)
  ---------------------------------------------------
  alpha Z        PSCENC =       253.99581917
  Ewald energy   TEWEN  =     -9969.80316382
  -Hartree energ DENC   =     -4766.66533993
  -exchange      EXHF   =         0.00000000
  -V(xc)+E(xc)   XCENC  =       682.53326832
  PAW double counting   =     12174.71095765   -11995.46358648
  entropy T*S    EENTRO =         0.00000000
  eigenvalues    EBANDS =     -2099.91958052
  atomic energy  EATOM  =     15501.99929693
  Solvation  Ediel_sol  =         0.00000000
  ---------------------------------------------------
  free energy    TOTEN  =      -218.61232866 eV

  energy without entropy =     -218.61232866  energy(sigma->0) =     -218.61232866


--------------------------------------------------------------------------------------------------------




--------------------------------------- Iteration      1(   6)  ---------------------------------------


    POTLOK:  cpu time      0.4893: real time      0.4920
    SETDIJ:  cpu time      5.3583: real time      5.3593
     EDDAV:  cpu time     59.5911: real time     59.6050
 BZINTS: Fermi energy:    0.408236;  336.000000 electrons
         Band energy:-0.201438E+04;  BLOECHL correction:    0.000000
       DOS:  cpu time      0.0286: real time      0.0286
    CHARGE:  cpu time     11.1832: real time     11.1853
    MIXING:  cpu time      0.0197: real time      0.0197
    --------------------------------------------
      LOOP:  cpu time     76.6703: real time     76.6899

 eigenvalue-minimisations  :  9632
 total energy-change (2. order) : 0.1022910E+03  (-0.2667703E+02)
 number of electron     335.9999997 magnetization      26.4788112
 augmentation part      -47.6488502 magnetization      27.5370515

 Broyden mixing:
  rms(total) = 0.49393E+01    rms(broyden)= 0.49393E+01
  rms(prec ) = 0.49616E+01
  weight for this iteration     100.00

 eigenvalues of (default mixing * dielectric matrix)
  average eigenvalue GAMMA=   1.6680
  1.6680

 Free energy of the ion-electron system (eV)
  ---------------------------------------------------
  alpha Z        PSCENC =       253.99581917
  Ewald energy   TEWEN  =     -9969.80316382
  -Hartree energ DENC   =     -4811.04243034
  -exchange      EXHF   =         0.00000000
  -V(xc)+E(xc)   XCENC  =       746.12918690
  PAW double counting   =     20736.60857471   -20559.83249374
  entropy T*S    EENTRO =         0.00000000
  eigenvalues    EBANDS =     -2014.37607895
  atomic energy  EATOM  =     15501.99929693
  Solvation  Ediel_sol  =         0.00000000
  ---------------------------------------------------
  free energy    TOTEN  =      -116.32128912 eV

  energy without entropy =     -116.32128912  energy(sigma->0) =     -116.32128912


--------------------------------------------------------------------------------------------------------




--------------------------------------- Iteration      1(   7)  ---------------------------------------


    POTLOK:  cpu time      0.5227: real time      0.5290
    SETDIJ:  cpu time      4.5087: real time      4.5094
     EDDAV:  cpu time     60.0122: real time     60.0272
 BZINTS: Fermi energy:    0.738359;  336.000000 electrons
         Band energy:-0.186784E+04;  BLOECHL correction:    0.000000
       DOS:  cpu time      0.0268: real time      0.0268
    CHARGE:  cpu time      7.8494: real time      7.8507
    MIXING:  cpu time      0.0091: real time      0.0091
    --------------------------------------------
      LOOP:  cpu time     72.9288: real time     72.9522

 eigenvalue-minimisations  : 10176
 total energy-change (2. order) :-0.1115417E+02  (-0.2697642E+01)
 number of electron     335.9999997 magnetization      19.7293469
 augmentation part      -47.3159051 magnetization      20.9348470

 Broyden mixing:
  rms(total) = 0.14021E+01    rms(broyden)= 0.14021E+01
  rms(prec ) = 0.14058E+01
  weight for this iteration     100.00

 eigenvalues of (default mixing * dielectric matrix)
  average eigenvalue GAMMA=   1.4837
  0.7881  2.1792

 Free energy of the ion-electron system (eV)
  ---------------------------------------------------
  alpha Z        PSCENC =       253.99581917
  Ewald energy   TEWEN  =     -9969.80316382
  -Hartree energ DENC   =     -4970.65688639
  -exchange      EXHF   =         0.00000000
  -V(xc)+E(xc)   XCENC  =       751.47047363
  PAW double counting   =     37066.03488543   -36892.67582723
  entropy T*S    EENTRO =         0.00000000
  eigenvalues    EBANDS =     -1867.84005395
  atomic energy  EATOM  =     15501.99929693
  Solvation  Ediel_sol  =         0.00000000
  ---------------------------------------------------
  free energy    TOTEN  =      -127.47545623 eV

  energy without entropy =     -127.47545623  energy(sigma->0) =     -127.47545623


--------------------------------------------------------------------------------------------------------




--------------------------------------- Iteration      1(   8)  ---------------------------------------


    POTLOK:  cpu time      0.5084: real time      0.5093
    SETDIJ:  cpu time      6.5555: real time      6.5616
     EDDAV:  cpu time     53.5769: real time     53.5893
 BZINTS: Fermi energy:    0.705781;  336.000000 electrons
         Band energy:-0.185543E+04;  BLOECHL correction:    0.000000
       DOS:  cpu time      0.0276: real time      0.0277
    CHARGE:  cpu time      9.7729: real time      9.7744
    MIXING:  cpu time      0.0150: real time      0.0150
    --------------------------------------------
      LOOP:  cpu time     70.4563: real time     70.4772

 eigenvalue-minimisations  :  9312
 total energy-change (2. order) :-0.4266963E+02  (-0.1971517E+01)
 number of electron     335.9999997 magnetization      16.0573426
 augmentation part      -47.0121521 magnetization      17.1019370

 Broyden mixing:
  rms(total) = 0.78389E+00    rms(broyden)= 0.78389E+00
  rms(prec ) = 0.78902E+00
  weight for this iteration     100.00

 eigenvalues of (default mixing * dielectric matrix)
  average eigenvalue GAMMA=   1.3390
  2.4912  0.9433  0.5825

 Free energy of the ion-electron system (eV)
  ---------------------------------------------------
  alpha Z        PSCENC =       253.99581917
  Ewald energy   TEWEN  =     -9969.80316382
  -Hartree energ DENC   =     -5000.11245778
  -exchange      EXHF   =         0.00000000
  -V(xc)+E(xc)   XCENC  =       726.61297269
  PAW double counting   =     40199.87077661   -40027.27846798
  entropy T*S    EENTRO =         0.00000000
  eigenvalues    EBANDS =     -1855.42985804
  atomic energy  EATOM  =     15501.99929693
  Solvation  Ediel_sol  =         0.00000000
  ---------------------------------------------------
  free energy    TOTEN  =      -170.14508222 eV

  energy without entropy =     -170.14508222  energy(sigma->0) =     -170.14508222


--------------------------------------------------------------------------------------------------------




--------------------------------------- Iteration      1(   9)  ---------------------------------------


    POTLOK:  cpu time      0.5013: real time      0.5017
    SETDIJ:  cpu time      9.5280: real time      9.5293
     EDDAV:  cpu time     59.8878: real time     59.9016
 BZINTS: Fermi energy:    0.627851;  336.000000 electrons
         Band energy:-0.186667E+04;  BLOECHL correction:    0.000000
       DOS:  cpu time      0.0311: real time      0.0312
    CHARGE:  cpu time      5.8601: real time      5.8611
    MIXING:  cpu time      0.0132: real time      0.0132
    --------------------------------------------
      LOOP:  cpu time     75.8216: real time     75.8380

 eigenvalue-minimisations  : 10240
 total energy-change (2. order) :-0.1682944E+02  (-0.6456927E+00)
 number of electron     335.9999997 magnetization      11.5308327
 augmentation part      -46.9151981 magnetization      12.3684693

 Broyden mixing:
  rms(total) = 0.43654E+00    rms(broyden)= 0.43654E+00
  rms(prec ) = 0.44861E+00
  weight for this iteration     100.00

 eigenvalues of (default mixing * dielectric matrix)
  average eigenvalue GAMMA=   1.3242
  2.5747  1.3002  0.7110  0.7110

 Free energy of the ion-electron system (eV)
  ---------------------------------------------------
  alpha Z        PSCENC =       253.99581917
  Ewald energy   TEWEN  =     -9969.80316382
  -Hartree energ DENC   =     -4996.35416886
  -exchange      EXHF   =         0.00000000
  -V(xc)+E(xc)   XCENC  =       717.24543674
  PAW double counting   =     40985.49496665   -40812.88281600
  entropy T*S    EENTRO =         0.00000000
  eigenvalues    EBANDS =     -1866.66988973
  atomic energy  EATOM  =     15501.99929693
  Solvation  Ediel_sol  =         0.00000000
  ---------------------------------------------------
  free energy    TOTEN  =      -186.97451890 eV

  energy without entropy =     -186.97451890  energy(sigma->0) =     -186.97451890


--------------------------------------------------------------------------------------------------------




--------------------------------------- Iteration      1(  10)  ---------------------------------------


    POTLOK:  cpu time      0.4693: real time      0.4697
    SETDIJ:  cpu time      4.7627: real time      4.7640
     EDDAV:  cpu time     60.9484: real time     60.9639
 BZINTS: Fermi energy:    0.474694;  336.000000 electrons
         Band energy:-0.190121E+04;  BLOECHL correction:    0.000000
       DOS:  cpu time      0.0277: real time      0.0278
    CHARGE:  cpu time      8.2384: real time      8.2398
    MIXING:  cpu time      0.0425: real time      0.0425
    --------------------------------------------
      LOOP:  cpu time     74.4890: real time     74.5077

 eigenvalue-minimisations  :  9984
 total energy-change (2. order) :-0.2005304E+02  (-0.1301694E+01)
 number of electron     335.9999997 magnetization       5.3088420
 augmentation part      -46.8735381 magnetization       5.8433386

 Broyden mixing:
  rms(total) = 0.32409E+00    rms(broyden)= 0.32409E+00
  rms(prec ) = 0.33705E+00
  weight for this iteration     100.00

 eigenvalues of (default mixing * dielectric matrix)
  average eigenvalue GAMMA=   1.4491
  2.4865  2.4865  0.9414  0.7291  0.6021

 Free energy of the ion-electron system (eV)
  ---------------------------------------------------
  alpha Z        PSCENC =       253.99581917
  Ewald energy   TEWEN  =     -9969.80316382
  -Hartree energ DENC   =     -4970.95110112
  -exchange      EXHF   =         0.00000000
  -V(xc)+E(xc)   XCENC  =       705.67165722
  PAW double counting   =     40993.14751640   -40819.88054107
  entropy T*S    EENTRO =         0.00000000
  eigenvalues    EBANDS =     -1901.20703772
  atomic energy  EATOM  =     15501.99929693
  Solvation  Ediel_sol  =         0.00000000
  ---------------------------------------------------
  free energy    TOTEN  =      -207.02755401 eV

  energy without entropy =     -207.02755401  energy(sigma->0) =     -207.02755401


--------------------------------------------------------------------------------------------------------




--------------------------------------- Iteration      1(  11)  ---------------------------------------


    POTLOK:  cpu time      0.4961: real time      0.4966
    SETDIJ:  cpu time      1.1899: real time      1.1902
     EDDAV:  cpu time     56.0911: real time     56.1041
 BZINTS: Fermi energy:    0.257132;  336.000000 electrons
         Band energy:-0.195857E+04;  BLOECHL correction:    0.000000
       DOS:  cpu time      0.0276: real time      0.0276
    CHARGE:  cpu time      5.4887: real time      5.4897
    MIXING:  cpu time      0.0179: real time      0.0179
    --------------------------------------------
      LOOP:  cpu time     63.3114: real time     63.3261

 eigenvalue-minimisations  :  9920
 total energy-change (2. order) :-0.1784455E+02  (-0.2163739E+01)
 number of electron     335.9999997 magnetization       3.5739089
 augmentation part      -46.9052079 magnetization       3.7572583

 Broyden mixing:
  rms(total) = 0.18651E+00    rms(broyden)= 0.18651E+00
  rms(prec ) = 0.20020E+00
  weight for this iteration     100.00

 eigenvalues of (default mixing * dielectric matrix)
  average eigenvalue GAMMA=   1.4667
  2.7970  2.7970  1.0273  0.8890  0.6995  0.5903

 Free energy of the ion-electron system (eV)
  ---------------------------------------------------
  alpha Z        PSCENC =       253.99581917
  Ewald energy   TEWEN  =     -9969.80316382
  -Hartree energ DENC   =     -4921.38269507
  -exchange      EXHF   =         0.00000000
  -V(xc)+E(xc)   XCENC  =       694.56300775
  PAW double counting   =     40420.42982317   -40246.10366268
  entropy T*S    EENTRO =         0.00000000
  eigenvalues    EBANDS =     -1958.57052888
  atomic energy  EATOM  =     15501.99929693
  Solvation  Ediel_sol  =         0.00000000
  ---------------------------------------------------
  free energy    TOTEN  =      -224.87210343 eV

  energy without entropy =     -224.87210343  energy(sigma->0) =     -224.87210343


--------------------------------------------------------------------------------------------------------




--------------------------------------- Iteration      1(  12)  ---------------------------------------


    POTLOK:  cpu time      0.5706: real time      0.5710
    SETDIJ:  cpu time     14.8708: real time     14.8728
     EDDAV:  cpu time     58.5258: real time     58.5454
 BZINTS: Fermi energy:    0.183834;  336.000000 electrons
         Band energy:-0.197922E+04;  BLOECHL correction:    0.000000
       DOS:  cpu time      0.0277: real time      0.0278
    CHARGE:  cpu time      8.7939: real time      8.7955
    MIXING:  cpu time      0.0164: real time      0.0164
    --------------------------------------------
      LOOP:  cpu time     82.8051: real time     82.8288

 eigenvalue-minimisations  : 10048
 total energy-change (2. order) :-0.3388446E+01  (-0.3878430E+00)
 number of electron     335.9999997 magnetization       2.3936033
 augmentation part      -46.9152617 magnetization       2.4767818

 Broyden mixing:
  rms(total) = 0.15970E+00    rms(broyden)= 0.15970E+00
  rms(prec ) = 0.17223E+00
  weight for this iteration     100.00

 eigenvalues of (default mixing * dielectric matrix)
  average eigenvalue GAMMA=   1.4917
  3.1001  3.1001  1.0556  1.0556  0.7809  0.7809  0.5684

 Free energy of the ion-electron system (eV)
  ---------------------------------------------------
  alpha Z        PSCENC =       253.99581917
  Ewald energy   TEWEN  =     -9969.80316382
  -Hartree energ DENC   =     -4901.90203937
  -exchange      EXHF   =         0.00000000
  -V(xc)+E(xc)   XCENC  =       692.10904074
  PAW double counting   =     39988.12510444   -39813.56229724
  entropy T*S    EENTRO =         0.00000000
  eigenvalues    EBANDS =     -1979.22231071
  atomic energy  EATOM  =     15501.99929693
  Solvation  Ediel_sol  =         0.00000000
  ---------------------------------------------------
  free energy    TOTEN  =      -228.26054986 eV

  energy without entropy =     -228.26054986  energy(sigma->0) =     -228.26054986


--------------------------------------------------------------------------------------------------------




--------------------------------------- Iteration      1(  13)  ---------------------------------------


    POTLOK:  cpu time      0.5795: real time      0.5799
    SETDIJ:  cpu time      6.3497: real time      6.3508
     EDDAV:  cpu time     55.1133: real time     55.1257
 BZINTS: Fermi energy:    0.116165;  336.000000 electrons
         Band energy:-0.200166E+04;  BLOECHL correction:    0.000000
       DOS:  cpu time      0.0268: real time      0.0268
    CHARGE:  cpu time     11.8368: real time     11.8387
    MIXING:  cpu time      0.0201: real time      0.0201
    --------------------------------------------
      LOOP:  cpu time     73.9261: real time     73.9419

 eigenvalue-minimisations  :  9536
 total energy-change (2. order) :-0.1053751E+01  (-0.1335795E+00)
 number of electron     335.9999997 magnetization       0.8874535
 augmentation part      -46.9734356 magnetization       0.9135302

 Broyden mixing:
  rms(total) = 0.93034E-01    rms(broyden)= 0.93034E-01
  rms(prec ) = 0.99853E-01
  weight for this iteration     100.00

 eigenvalues of (default mixing * dielectric matrix)
  average eigenvalue GAMMA=   1.5516
  3.3223  3.3223  1.5833  1.2855  0.9273  0.6998  0.6998  0.5728

 Free energy of the ion-electron system (eV)
  ---------------------------------------------------
  alpha Z        PSCENC =       253.99581917
  Ewald energy   TEWEN  =     -9969.80316382
  -Hartree energ DENC   =     -4878.77886278
  -exchange      EXHF   =         0.00000000
  -V(xc)+E(xc)   XCENC  =       690.12674164
  PAW double counting   =     39167.54848709   -38992.74636785
  entropy T*S    EENTRO =         0.00000000
  eigenvalues    EBANDS =     -2001.65625108
  atomic energy  EATOM  =     15501.99929693
  Solvation  Ediel_sol  =         0.00000000
  ---------------------------------------------------
  free energy    TOTEN  =      -229.31430069 eV

  energy without entropy =     -229.31430069  energy(sigma->0) =     -229.31430069


--------------------------------------------------------------------------------------------------------




--------------------------------------- Iteration      1(  14)  ---------------------------------------


    POTLOK:  cpu time      0.5016: real time      0.5020
    SETDIJ:  cpu time      7.0155: real time      7.0166
     EDDAV:  cpu time     53.4784: real time     53.4922
 BZINTS: Fermi energy:    0.080351;  336.000000 electrons
         Band energy:-0.201216E+04;  BLOECHL correction:    0.000000
       DOS:  cpu time      0.0268: real time      0.0268
    CHARGE:  cpu time      8.3377: real time      8.3393
    MIXING:  cpu time      0.0204: real time      0.0204
    --------------------------------------------
      LOOP:  cpu time     69.3805: real time     69.3973

 eigenvalue-minimisations  :  8992
 total energy-change (2. order) :-0.6531121E-01  (-0.1631809E-01)
 number of electron     335.9999997 magnetization       0.4187943
 augmentation part      -47.0006455 magnetization       0.4257737

 Broyden mixing:
  rms(total) = 0.43764E-01    rms(broyden)= 0.43764E-01
  rms(prec ) = 0.46467E-01
  weight for this iteration     100.00

 eigenvalues of (default mixing * dielectric matrix)
  average eigenvalue GAMMA=   1.5785
  4.1283  2.5577  2.5577  1.0965  1.0965  0.7711  0.7711  0.5754  0.6520

 Free energy of the ion-electron system (eV)
  ---------------------------------------------------
  alpha Z        PSCENC =       253.99581917
  Ewald energy   TEWEN  =     -9969.80316382
  -Hartree energ DENC   =     -4867.37832812
  -exchange      EXHF   =         0.00000000
  -V(xc)+E(xc)   XCENC  =       689.21164754
  PAW double counting   =     39106.01976350   -38931.26235756
  entropy T*S    EENTRO =         0.00000000
  eigenvalues    EBANDS =     -2012.16228955
  atomic energy  EATOM  =     15501.99929693
  Solvation  Ediel_sol  =         0.00000000
  ---------------------------------------------------
  free energy    TOTEN  =      -229.37961190 eV

  energy without entropy =     -229.37961190  energy(sigma->0) =     -229.37961190


--------------------------------------------------------------------------------------------------------




--------------------------------------- Iteration      1(  15)  ---------------------------------------


    POTLOK:  cpu time      0.5125: real time      0.5129
    SETDIJ:  cpu time      6.2333: real time      6.2343
     EDDAV:  cpu time     58.3294: real time     58.3421
 BZINTS: Fermi energy:    0.078439;  336.000000 electrons
         Band energy:-0.201184E+04;  BLOECHL correction:    0.000000
       DOS:  cpu time      0.0269: real time      0.0270
    CHARGE:  cpu time      6.3029: real time      6.3040
    MIXING:  cpu time      0.0189: real time      0.0189
    --------------------------------------------
      LOOP:  cpu time     71.4240: real time     71.4392

 eigenvalue-minimisations  :  9568
 total energy-change (2. order) : 0.1306725E-02  (-0.2080063E-02)
 number of electron     335.9999997 magnetization       0.1722558
 augmentation part      -46.9944542 magnetization       0.1765693

 Broyden mixing:
  rms(total) = 0.20221E-01    rms(broyden)= 0.20221E-01
  rms(prec ) = 0.21798E-01
  weight for this iteration     100.00

 eigenvalues of (default mixing * dielectric matrix)
  average eigenvalue GAMMA=   1.5649
  4.5530  2.5272  2.5272  1.3368  0.9967  0.9967  0.7588  0.7588  0.6240  0.5698

 Free energy of the ion-electron system (eV)
  ---------------------------------------------------
  alpha Z        PSCENC =       253.99581917
  Ewald energy   TEWEN  =     -9969.80316382
  -Hartree energ DENC   =     -4867.57443291
  -exchange      EXHF   =         0.00000000
  -V(xc)+E(xc)   XCENC  =       689.17513228
  PAW double counting   =     39192.13503030   -39017.46493906
  entropy T*S    EENTRO =         0.00000000
  eigenvalues    EBANDS =     -2011.84104806
  atomic energy  EATOM  =     15501.99929693
  Solvation  Ediel_sol  =         0.00000000
  ---------------------------------------------------
  free energy    TOTEN  =      -229.37830517 eV

  energy without entropy =     -229.37830517  energy(sigma->0) =     -229.37830517


--------------------------------------------------------------------------------------------------------




--------------------------------------- Iteration      1(  16)  ---------------------------------------


    POTLOK:  cpu time      0.4862: real time      0.4866
    SETDIJ:  cpu time      3.3263: real time      3.3286
     EDDAV:  cpu time     61.1888: real time     61.2038
 BZINTS: Fermi energy:    0.076612;  336.000000 electrons
         Band energy:-0.201231E+04;  BLOECHL correction:    0.000000
       DOS:  cpu time      0.0287: real time      0.0287
    CHARGE:  cpu time     11.1638: real time     11.1654
    MIXING:  cpu time      0.0179: real time      0.0179
    --------------------------------------------
      LOOP:  cpu time     76.2116: real time     76.2310

 eigenvalue-minimisations  :  9152
 total energy-change (2. order) : 0.3092960E-02  (-0.5513398E-03)
 number of electron     335.9999997 magnetization       0.0698600
 augmentation part      -46.9933247 magnetization       0.0706542

 Broyden mixing:
  rms(total) = 0.12347E-01    rms(broyden)= 0.12347E-01
  rms(prec ) = 0.13359E-01
  weight for this iteration     100.00

 eigenvalues of (default mixing * dielectric matrix)
  average eigenvalue GAMMA=   1.5465
  4.7570  2.4276  2.4276  1.8410  0.9958  0.9958  0.9230  0.7283  0.7283  0.5815
  0.6062

 Free energy of the ion-electron system (eV)
  ---------------------------------------------------
  alpha Z        PSCENC =       253.99581917
  Ewald energy   TEWEN  =     -9969.80316382
  -Hartree energ DENC   =     -4867.00740861
  -exchange      EXHF   =         0.00000000
  -V(xc)+E(xc)   XCENC  =       689.10641329
  PAW double counting   =     39161.85605218   -38987.20974606
  entropy T*S    EENTRO =         0.00000000
  eigenvalues    EBANDS =     -2012.31247530
  atomic energy  EATOM  =     15501.99929693
  Solvation  Ediel_sol  =         0.00000000
  ---------------------------------------------------
  free energy    TOTEN  =      -229.37521221 eV

  energy without entropy =     -229.37521221  energy(sigma->0) =     -229.37521221


--------------------------------------------------------------------------------------------------------




--------------------------------------- Iteration      1(  17)  ---------------------------------------


    POTLOK:  cpu time      0.4938: real time      0.4941
    SETDIJ:  cpu time      6.6909: real time      6.6923
     EDDAV:  cpu time     56.0532: real time     56.0662
 BZINTS: Fermi energy:    0.078623;  336.000000 electrons
         Band energy:-0.201138E+04;  BLOECHL correction:    0.000000
       DOS:  cpu time      0.0269: real time      0.0269
    CHARGE:  cpu time      5.4255: real time      5.4264
    MIXING:  cpu time      0.0107: real time      0.0107
    --------------------------------------------
      LOOP:  cpu time     68.7010: real time     68.7165

 eigenvalue-minimisations  :  9504
 total energy-change (2. order) :-0.4998324E-03  (-0.1198929E-03)
 number of electron     335.9999997 magnetization       0.0178794
 augmentation part      -46.9882480 magnetization       0.0182782

 Broyden mixing:
  rms(total) = 0.49328E-02    rms(broyden)= 0.49328E-02
  rms(prec ) = 0.55334E-02
  weight for this iteration     100.00

 eigenvalues of (default mixing * dielectric matrix)
  average eigenvalue GAMMA=   1.5759
  4.9477  2.6012  2.6012  2.2020  1.1770  0.9959  0.9959  0.7615  0.7615  0.6823
  0.5897  0.5953

 Free energy of the ion-electron system (eV)
  ---------------------------------------------------
  alpha Z        PSCENC =       253.99581917
  Ewald energy   TEWEN  =     -9969.80316382
  -Hartree energ DENC   =     -4867.97233376
  -exchange      EXHF   =         0.00000000
  -V(xc)+E(xc)   XCENC  =       689.16654200
  PAW double counting   =     39202.88812116   -39028.26609697
  entropy T*S    EENTRO =         0.00000000
  eigenvalues    EBANDS =     -2011.38389676
  atomic energy  EATOM  =     15501.99929693
  Solvation  Ediel_sol  =         0.00000000
  ---------------------------------------------------
  free energy    TOTEN  =      -229.37571205 eV

  energy without entropy =     -229.37571205  energy(sigma->0) =     -229.37571205


--------------------------------------------------------------------------------------------------------




--------------------------------------- Iteration      1(  18)  ---------------------------------------


    POTLOK:  cpu time      0.4395: real time      0.4429
    SETDIJ:  cpu time      5.9000: real time      5.9013
     EDDAV:  cpu time     59.2176: real time     59.2317
 BZINTS: Fermi energy:    0.079605;  336.000000 electrons
         Band energy:-0.201086E+04;  BLOECHL correction:    0.000000
       DOS:  cpu time      0.0278: real time      0.0278
    CHARGE:  cpu time      7.8977: real time      7.8990
    MIXING:  cpu time      0.0220: real time      0.0220
    --------------------------------------------
      LOOP:  cpu time     73.5045: real time     73.5247

 eigenvalue-minimisations  :  9472
 total energy-change (2. order) :-0.1162323E-03  (-0.3945625E-04)
 number of electron     335.9999997 magnetization       0.0052102
 augmentation part      -46.9849122 magnetization       0.0057517

 Broyden mixing:
  rms(total) = 0.44593E-02    rms(broyden)= 0.44593E-02
  rms(prec ) = 0.47121E-02
  weight for this iteration     100.00

 eigenvalues of (default mixing * dielectric matrix)
  average eigenvalue GAMMA=   1.5444
  5.0018  2.6452  2.6452  2.2638  1.1299  1.1299  0.9908  0.9908  0.7249  0.7249
  0.5791  0.6448  0.6062

 Free energy of the ion-electron system (eV)
  ---------------------------------------------------
  alpha Z        PSCENC =       253.99581917
  Ewald energy   TEWEN  =     -9969.80316382
  -Hartree energ DENC   =     -4868.51656194
  -exchange      EXHF   =         0.00000000
  -V(xc)+E(xc)   XCENC  =       689.20190573
  PAW double counting   =     39231.69320718   -39057.08601635
  entropy T*S    EENTRO =         0.00000000
  eigenvalues    EBANDS =     -2010.86031517
  atomic energy  EATOM  =     15501.99929693
  Solvation  Ediel_sol  =         0.00000000
  ---------------------------------------------------
  free energy    TOTEN  =      -229.37582828 eV

  energy without entropy =     -229.37582828  energy(sigma->0) =     -229.37582828


--------------------------------------------------------------------------------------------------------




--------------------------------------- Iteration      1(  19)  ---------------------------------------


    POTLOK:  cpu time      0.5181: real time      0.5185
    SETDIJ:  cpu time      8.6517: real time      8.6529
     EDDAV:  cpu time     62.4504: real time     62.4644
 BZINTS: Fermi energy:    0.078959;  336.000000 electrons
         Band energy:-0.201112E+04;  BLOECHL correction:    0.000000
       DOS:  cpu time      0.0269: real time      0.0270
    CHARGE:  cpu time      4.0538: real time      4.0546
    MIXING:  cpu time      0.0121: real time      0.0121
    --------------------------------------------
      LOOP:  cpu time     75.7130: real time     75.7294

 eigenvalue-minimisations  :  9824
 total energy-change (2. order) :-0.6021492E-05  (-0.6198046E-05)
 number of electron     335.9999997 magnetization      -0.0005335
 augmentation part      -46.9857425 magnetization      -0.0002904

 Broyden mixing:
  rms(total) = 0.20283E-02    rms(broyden)= 0.20283E-02
  rms(prec ) = 0.22033E-02
  weight for this iteration     100.00

 eigenvalues of (default mixing * dielectric matrix)
  average eigenvalue GAMMA=   1.5455
  5.0451  2.7069  2.7069  2.1100  1.4089  1.4089  1.0329  1.0329  0.8570  0.7536
  0.7536  0.5806  0.6088  0.6313

 Free energy of the ion-electron system (eV)
  ---------------------------------------------------
  alpha Z        PSCENC =       253.99581917
  Ewald energy   TEWEN  =     -9969.80316382
  -Hartree energ DENC   =     -4868.24311619
  -exchange      EXHF   =         0.00000000
  -V(xc)+E(xc)   XCENC  =       689.18505753
  PAW double counting   =     39230.36062943   -39055.75031649
  entropy T*S    EENTRO =         0.00000000
  eigenvalues    EBANDS =     -2011.12004087
  atomic energy  EATOM  =     15501.99929693
  Solvation  Ediel_sol  =         0.00000000
  ---------------------------------------------------
  free energy    TOTEN  =      -229.37583430 eV

  energy without entropy =     -229.37583430  energy(sigma->0) =     -229.37583430


--------------------------------------------------------------------------------------------------------




--------------------------------------- Iteration      1(  20)  ---------------------------------------


    POTLOK:  cpu time      0.4433: real time      0.4477
    SETDIJ:  cpu time     11.2415: real time     11.2432
     EDDAV:  cpu time     55.6886: real time     55.7021
 BZINTS: Fermi energy:    0.078622;  336.000000 electrons
         Band energy:-0.201126E+04;  BLOECHL correction:    0.000000
       DOS:  cpu time      0.0268: real time      0.0268
    CHARGE:  cpu time      6.1785: real time      6.1794
    MIXING:  cpu time      0.0241: real time      0.0241
    --------------------------------------------
      LOOP:  cpu time     73.6027: real time     73.6233

 eigenvalue-minimisations  :  9184
 total energy-change (2. order) :-0.1048420E-04  (-0.3476315E-05)
 number of electron     335.9999997 magnetization      -0.0016296
 augmentation part      -46.9862751 magnetization      -0.0015516

 Broyden mixing:
  rms(total) = 0.94967E-03    rms(broyden)= 0.94954E-03
  rms(prec ) = 0.10089E-02
  weight for this iteration     100.00

 eigenvalues of (default mixing * dielectric matrix)
  average eigenvalue GAMMA=   1.5470
  5.0951  2.7080  2.7080  2.0986  2.0986  1.2312  1.2312  0.9897  0.9897  0.7797
  0.7328  0.7328  0.5785  0.6156  0.6156

 Free energy of the ion-electron system (eV)
  ---------------------------------------------------
  alpha Z        PSCENC =       253.99581917
  Ewald energy   TEWEN  =     -9969.80316382
  -Hartree energ DENC   =     -4868.09921751
  -exchange      EXHF   =         0.00000000
  -V(xc)+E(xc)   XCENC  =       689.17797318
  PAW double counting   =     39235.49590346   -39060.88366433
  entropy T*S    EENTRO =         0.00000000
  eigenvalues    EBANDS =     -2011.25879187
  atomic energy  EATOM  =     15501.99929693
  Solvation  Ediel_sol  =         0.00000000
  ---------------------------------------------------
  free energy    TOTEN  =      -229.37584478 eV

  energy without entropy =     -229.37584478  energy(sigma->0) =     -229.37584478


--------------------------------------------------------------------------------------------------------




--------------------------------------- Iteration      1(  21)  ---------------------------------------


    POTLOK:  cpu time      0.5005: real time      0.5009
    SETDIJ:  cpu time      3.2095: real time      3.2101
     EDDAV:  cpu time     54.9636: real time     54.9782
 BZINTS: Fermi energy:    0.078311;  336.000000 electrons
         Band energy:-0.201131E+04;  BLOECHL correction:    0.000000
       DOS:  cpu time      0.0287: real time      0.0287
    CHARGE:  cpu time      3.3616: real time      3.3623
    MIXING:  cpu time      0.0178: real time      0.0178
    --------------------------------------------
      LOOP:  cpu time     62.0818: real time     62.0980

 eigenvalue-minimisations  :  9216
 total energy-change (2. order) : 0.1168140E-05  (-0.8847365E-06)
 number of electron     335.9999997 magnetization      -0.0013503
 augmentation part      -46.9864696 magnetization      -0.0013541

 Broyden mixing:
  rms(total) = 0.42643E-03    rms(broyden)= 0.42616E-03
  rms(prec ) = 0.44854E-03
  weight for this iteration     100.00

 eigenvalues of (default mixing * dielectric matrix)
  average eigenvalue GAMMA=   1.5118
  5.0969  2.6685  2.6685  2.5699  1.6105  1.3995  1.1552  1.1552  0.9287  0.9287
  0.7391  0.7391  0.7254  0.5782  0.6123  0.6123

 Free energy of the ion-electron system (eV)
  ---------------------------------------------------
  alpha Z        PSCENC =       253.99581917
  Ewald energy   TEWEN  =     -9969.80316382
  -Hartree energ DENC   =     -4868.04028387
  -exchange      EXHF   =         0.00000000
  -V(xc)+E(xc)   XCENC  =       689.17436727
  PAW double counting   =     39234.94126617   -39060.32821119
  entropy T*S    EENTRO =         0.00000000
  eigenvalues    EBANDS =     -2011.31493428
  atomic energy  EATOM  =     15501.99929693
  Solvation  Ediel_sol  =         0.00000000
  ---------------------------------------------------
  free energy    TOTEN  =      -229.37584362 eV

  energy without entropy =     -229.37584362  energy(sigma->0) =     -229.37584362


--------------------------------------------------------------------------------------------------------




--------------------------------------- Iteration      1(  22)  ---------------------------------------


    POTLOK:  cpu time      0.4777: real time      0.4831
    SETDIJ:  cpu time      8.5245: real time      8.5262
     EDDAV:  cpu time     58.1679: real time     58.1814
 BZINTS: Fermi energy:    0.078193;  336.000000 electrons
         Band energy:-0.201134E+04;  BLOECHL correction:    0.000000
       DOS:  cpu time      0.0297: real time      0.0298
    CHARGE:  cpu time      6.5204: real time      6.5221
    MIXING:  cpu time      0.0231: real time      0.0231
    --------------------------------------------
      LOOP:  cpu time     73.7433: real time     73.7657

 eigenvalue-minimisations  :  9824
 total energy-change (2. order) : 0.4544199E-06  (-0.1394850E-06)
 number of electron     335.9999997 magnetization      -0.0004732
 augmentation part      -46.9865390 magnetization      -0.0004949

 Broyden mixing:
  rms(total) = 0.23190E-03    rms(broyden)= 0.23141E-03
  rms(prec ) = 0.24616E-03
  weight for this iteration     100.00

 eigenvalues of (default mixing * dielectric matrix)
  average eigenvalue GAMMA=   1.5006
  5.0912  2.6573  2.6573  2.6223  1.6726  1.4398  1.4398  1.0830  1.0830  0.9005
  0.9005  0.7423  0.7423  0.6739  0.5794  0.6123  0.6123

 Free energy of the ion-electron system (eV)
  ---------------------------------------------------
  alpha Z        PSCENC =       253.99581917
  Ewald energy   TEWEN  =     -9969.80316382
  -Hartree energ DENC   =     -4868.01860249
  -exchange      EXHF   =         0.00000000
  -V(xc)+E(xc)   XCENC  =       689.17278501
  PAW double counting   =     39233.52711423   -39058.91375065
  entropy T*S    EENTRO =         0.00000000
  eigenvalues    EBANDS =     -2011.33534154
  atomic energy  EATOM  =     15501.99929693
  Solvation  Ediel_sol  =         0.00000000
  ---------------------------------------------------
  free energy    TOTEN  =      -229.37584316 eV

  energy without entropy =     -229.37584316  energy(sigma->0) =     -229.37584316


--------------------------------------------------------------------------------------------------------




--------------------------------------- Iteration      1(  23)  ---------------------------------------


    POTLOK:  cpu time      0.4236: real time      0.4241
    SETDIJ:  cpu time      6.7348: real time      6.7366
     EDDAV:  cpu time     55.3786: real time     55.3920
 BZINTS: Fermi energy:    0.078201;  336.000000 electrons
         Band energy:-0.201133E+04;  BLOECHL correction:   -0.000000
       DOS:  cpu time      0.0287: real time      0.0287
    CHARGE:  cpu time      4.9695: real time      4.9706
    MIXING:  cpu time      0.0259: real time      0.0259
    --------------------------------------------
      LOOP:  cpu time     67.5611: real time     67.5779

 eigenvalue-minimisations  :  9216
 total energy-change (2. order) :-0.2391316E-06  (-0.5729207E-07)
 number of electron     335.9999997 magnetization      -0.0002629
 augmentation part      -46.9865109 magnetization      -0.0002589

 Broyden mixing:
[...]

  length of vectors
    10.314108670 16.788494411 10.846477853     0.097707938  0.059564603  0.092912216


 FORCES acting on ions
    electron-ion (+dipol)            ewald-force                    non-local-force                 convergence-correction
 -----------------------------------------------------------------------------------------------
   0.986E+02 -.105E+03 -.134E+02   -.104E+03 0.114E+03 0.120E+02   0.500E+01 -.877E+01 0.139E+01   0.162E-05 -.643E-06 0.106E-05
   0.986E+02 -.105E+03 -.125E+02   -.104E+03 0.113E+03 0.112E+02   0.495E+01 -.888E+01 0.132E+01   0.186E-05 -.547E-06 0.943E-06
   -.124E+02 0.420E+02 -.127E+03   0.126E+02 -.472E+02 0.134E+03   -.246E+00 0.519E+01 -.705E+01   0.148E-06 0.260E-06 -.107E-05
   -.123E+02 0.420E+02 -.127E+03   0.126E+02 -.472E+02 0.134E+03   -.246E+00 0.519E+01 -.705E+01   0.183E-06 0.238E-06 -.992E-06
   -.211E+02 -.902E+02 0.981E+02   0.198E+02 0.989E+02 -.103E+03   0.134E+01 -.874E+01 0.530E+01   -.235E-08 -.375E-06 0.178E-05
   -.211E+02 -.903E+02 0.981E+02   0.198E+02 0.990E+02 -.103E+03   0.133E+01 -.874E+01 0.530E+01   0.166E-07 -.357E-06 0.167E-05
   -.109E+03 0.951E+02 0.623E+01   0.114E+03 -.101E+03 -.411E+01   -.534E+01 0.592E+01 -.212E+01   -.192E-05 0.950E-07 0.591E-06
   -.108E+03 0.950E+02 0.625E+01   0.114E+03 -.101E+03 -.413E+01   -.534E+01 0.592E+01 -.212E+01   -.167E-05 0.421E-08 0.618E-06
   0.136E+03 -.539E+02 -.187E+02   -.143E+03 0.595E+02 0.193E+02   0.680E+01 -.552E+01 -.558E+00   0.164E-05 -.697E-07 -.104E-05
   0.136E+03 -.540E+02 -.187E+02   -.143E+03 0.595E+02 0.193E+02   0.680E+01 -.552E+01 -.558E+00   0.172E-05 -.829E-07 -.104E-05
   -.136E+03 0.539E+02 0.187E+02   0.143E+03 -.594E+02 -.193E+02   -.680E+01 0.552E+01 0.558E+00   -.173E-05 -.234E-06 0.101E-05
   -.136E+03 0.539E+02 0.187E+02   0.143E+03 -.594E+02 -.193E+02   -.680E+01 0.553E+01 0.559E+00   -.152E-05 -.178E-06 0.995E-06
   0.108E+03 -.950E+02 -.625E+01   -.114E+03 0.101E+03 0.414E+01   0.534E+01 -.592E+01 0.212E+01   0.183E-05 -.144E-06 -.687E-06
   0.108E+03 -.950E+02 -.625E+01   -.114E+03 0.101E+03 0.413E+01   0.534E+01 -.592E+01 0.212E+01   0.178E-05 -.140E-06 -.704E-06
   -.124E+02 -.419E+02 0.127E+03   0.126E+02 0.471E+02 -.134E+03   -.246E+00 -.519E+01 0.705E+01   -.190E-08 0.101E-06 0.159E-05
   -.124E+02 -.420E+02 0.127E+03   0.126E+02 0.472E+02 -.134E+03   -.246E+00 -.519E+01 0.705E+01   0.136E-06 -.435E-07 0.146E-05
   0.211E+02 -.902E+02 0.981E+02   -.198E+02 0.989E+02 -.103E+03   -.134E+01 -.874E+01 0.530E+01   0.125E-06 0.263E-06 0.159E-05
   0.211E+02 -.902E+02 0.981E+02   -.198E+02 0.989E+02 -.103E+03   -.134E+01 -.874E+01 0.530E+01   0.597E-07 0.189E-06 0.151E-05
   -.986E+02 -.105E+03 -.125E+02   0.104E+03 0.113E+03 0.112E+02   -.495E+01 -.888E+01 0.132E+01   -.177E-05 0.833E-07 0.892E-06
   -.986E+02 -.105E+03 -.125E+02   0.104E+03 0.113E+03 0.112E+02   -.495E+01 -.888E+01 0.132E+01   -.163E-05 -.258E-07 0.891E-06
   -.136E+03 -.540E+02 -.187E+02   0.143E+03 0.595E+02 0.193E+02   -.680E+01 -.552E+01 -.558E+00   -.181E-05 -.657E-07 -.108E-05
   -.136E+03 -.540E+02 -.187E+02   0.143E+03 0.595E+02 0.193E+02   -.680E+01 -.552E+01 -.558E+00   -.159E-05 0.572E-07 -.107E-05
   0.124E+02 0.420E+02 -.127E+03   -.126E+02 -.472E+02 0.134E+03   0.246E+00 0.519E+01 -.705E+01   -.404E-07 -.198E-06 -.996E-06
   0.121E+02 0.415E+02 -.127E+03   -.124E+02 -.467E+02 0.134E+03   0.275E+00 0.516E+01 -.705E+01   -.185E-06 -.277E-06 -.808E-06
   -.108E+03 -.950E+02 -.625E+01   0.114E+03 0.101E+03 0.414E+01   -.534E+01 -.592E+01 0.212E+01   -.176E-05 0.245E-06 -.729E-06
   -.108E+03 -.950E+02 -.626E+01   0.114E+03 0.101E+03 0.414E+01   -.534E+01 -.592E+01 0.212E+01   -.184E-05 0.380E-06 -.784E-06
   0.987E+02 0.105E+03 0.125E+02   -.104E+03 -.113E+03 -.112E+02   0.495E+01 0.888E+01 -.132E+01   0.186E-05 0.488E-06 -.693E-06
   0.986E+02 0.105E+03 0.125E+02   -.104E+03 -.113E+03 -.112E+02   0.495E+01 0.888E+01 -.132E+01   0.175E-05 0.391E-06 -.648E-06
   -.987E+02 0.105E+03 0.125E+02   0.104E+03 -.113E+03 -.112E+02   -.495E+01 0.888E+01 -.132E+01   -.173E-05 0.701E-07 -.697E-06
   -.986E+02 0.105E+03 0.126E+02   0.104E+03 -.113E+03 -.113E+02   -.495E+01 0.888E+01 -.132E+01   -.180E-05 0.192E-06 -.639E-06
   0.727E+02 0.961E+02 0.633E+02   -.755E+02 -.106E+03 -.654E+02   0.274E+01 0.971E+01 0.207E+01   0.794E-06 0.153E-06 0.844E-06
   0.728E+02 0.961E+02 0.633E+02   -.755E+02 -.106E+03 -.653E+02   0.274E+01 0.971E+01 0.207E+01   0.947E-06 0.217E-06 0.783E-06
   0.218E+02 -.938E+02 -.889E+02   -.205E+02 0.100E+03 0.940E+02   -.133E+01 -.628E+01 -.509E+01   0.228E-06 -.114E-06 -.181E-05
   0.218E+02 -.938E+02 -.889E+02   -.205E+02 0.100E+03 0.940E+02   -.133E+01 -.628E+01 -.509E+01   0.393E-06 -.217E-07 -.179E-05
   -.211E+02 0.902E+02 -.981E+02   0.198E+02 -.990E+02 0.103E+03   0.134E+01 0.874E+01 -.530E+01   -.121E-06 0.233E-06 -.227E-05
   -.211E+02 0.902E+02 -.981E+02   0.198E+02 -.989E+02 0.103E+03   0.134E+01 0.874E+01 -.530E+01   -.340E-08 0.245E-06 -.217E-05
   -.218E+02 0.938E+02 0.889E+02   0.205E+02 -.100E+03 -.940E+02   0.133E+01 0.628E+01 0.509E+01   -.296E-06 0.116E-07 0.130E-05
   -.218E+02 0.938E+02 0.889E+02   0.205E+02 -.100E+03 -.940E+02   0.133E+01 0.628E+01 0.509E+01   -.193E-06 0.107E-07 0.124E-05
   0.211E+02 0.902E+02 -.981E+02   -.198E+02 -.989E+02 0.103E+03   -.134E+01 0.874E+01 -.530E+01   -.766E-07 -.126E-06 -.215E-05
   0.211E+02 0.902E+02 -.981E+02   -.198E+02 -.989E+02 0.103E+03   -.134E+01 0.874E+01 -.530E+01   0.964E-07 -.150E-06 -.203E-05
   0.728E+02 -.961E+02 -.633E+02   -.755E+02 0.106E+03 0.653E+02   0.274E+01 -.971E+01 -.207E+01   0.929E-06 -.145E-06 -.438E-06
   0.727E+02 -.960E+02 -.633E+02   -.755E+02 0.106E+03 0.653E+02   0.274E+01 -.971E+01 -.207E+01   0.829E-06 -.199E-06 -.318E-06
   0.136E+03 0.540E+02 0.187E+02   -.143E+03 -.595E+02 -.193E+02   0.680E+01 0.552E+01 0.558E+00   0.171E-05 0.207E-06 0.946E-06
   0.136E+03 0.541E+02 0.187E+02   -.143E+03 -.596E+02 -.192E+02   0.680E+01 0.552E+01 0.558E+00   0.163E-05 0.292E-06 0.894E-06
   0.109E+03 0.958E+02 0.712E+01   -.114E+03 -.102E+03 -.501E+01   0.533E+01 0.577E+01 -.217E+01   0.151E-05 -.251E-06 0.633E-06
   0.108E+03 0.950E+02 0.625E+01   -.114E+03 -.101E+03 -.414E+01   0.534E+01 0.592E+01 -.212E+01   0.184E-05 -.638E-07 0.650E-06
   -.728E+02 -.962E+02 -.632E+02   0.755E+02 0.106E+03 0.653E+02   -.274E+01 -.971E+01 -.207E+01   -.921E-06 -.808E-06 -.368E-06
   -.727E+02 -.963E+02 -.632E+02   0.754E+02 0.106E+03 0.653E+02   -.274E+01 -.970E+01 -.207E+01   -.790E-06 -.741E-06 -.316E-06
   -.218E+02 -.938E+02 -.889E+02   0.205E+02 0.100E+03 0.940E+02   0.133E+01 -.628E+01 -.509E+01   -.416E-06 0.396E-06 -.190E-05
   -.218E+02 -.938E+02 -.889E+02   0.205E+02 0.100E+03 0.940E+02   0.133E+01 -.628E+01 -.509E+01   -.287E-06 0.211E-06 -.174E-05
   0.218E+02 0.938E+02 0.889E+02   -.205E+02 -.100E+03 -.940E+02   -.133E+01 0.628E+01 0.509E+01   0.353E-06 -.178E-06 0.129E-05
   0.217E+02 0.938E+02 0.891E+02   -.204E+02 -.100E+03 -.941E+02   -.131E+01 0.628E+01 0.505E+01   0.143E-06 -.338E-06 0.113E-05
   -.727E+02 0.962E+02 0.632E+02   0.755E+02 -.106E+03 -.653E+02   -.274E+01 0.971E+01 0.207E+01   -.101E-05 0.723E-06 0.840E-06
   -.728E+02 0.961E+02 0.632E+02   0.755E+02 -.106E+03 -.653E+02   -.274E+01 0.971E+01 0.207E+01   -.865E-06 0.707E-06 0.727E-06
   0.124E+02 -.420E+02 0.127E+03   -.127E+02 0.472E+02 -.134E+03   0.245E+00 -.519E+01 0.705E+01   -.169E-06 -.538E-08 0.164E-05
   0.123E+02 -.420E+02 0.127E+03   -.126E+02 0.472E+02 -.134E+03   0.246E+00 -.519E+01 0.705E+01   -.150E-07 0.380E-07 0.156E-05
 -----------------------------------------------------------------------------------------------
   -.918E-01 0.683E-01 0.958E-02   0.639E-13 -.213E-12 0.313E-12   0.918E-01 -.683E-01 -.959E-02   -.509E-07 -.209E-07 0.936E-07


 POSITION                                       TOTAL-FORCE (eV/Angst)
 -----------------------------------------------------------------------------------
      7.84031      7.95183     -7.59099        -0.003226      0.157014      0.042132
     16.23455      7.96182     -7.59135         0.002468     -0.001292      0.000880
      3.16872      2.44282     -6.01943         0.002138     -0.000843     -0.002472
     11.56297      2.44282     -6.01943         0.002193     -0.000774     -0.002480
      1.76685      7.82725    -10.10485        -0.000121     -0.000103     -0.000619
     10.16110      7.82725    -10.10485        -0.002990      0.003933      0.001581
      5.05050      1.12562     -8.40433         0.001672     -0.000639     -0.000671
     13.44475      1.12562     -8.40433         0.001579     -0.000653     -0.000744
      5.13205      1.09979     -2.45651        -0.000334      0.000346      0.000009
     13.52630      1.09979     -2.45651        -0.000082      0.000462     -0.000291
      3.26219      7.47505     -8.62356        -0.000035     -0.000516      0.000335
     11.65644      7.47505     -8.62356         0.000119     -0.002147      0.002344
      3.34375      7.44923     -2.67574        -0.001804      0.000576      0.000481
     11.73799      7.44923     -2.67574        -0.001448      0.000129      0.000304
      7.36585      0.97835     -4.87422         0.002032      0.000682      0.002838
     15.76010      0.97835     -4.87422         0.002148      0.000893      0.002510
      2.43027      2.67356     -9.91842        -0.000027      0.000010     -0.000494
     10.82452      2.67356     -9.91842         0.000006      0.000057     -0.000397
      4.75106      2.80814     -7.40493        -0.002484     -0.001402      0.000870
     13.14531      2.80814     -7.40493        -0.002537     -0.001240      0.001019
      7.45932      6.25348     -2.64294         0.000215      0.000507     -0.000361
     15.85356      6.25348     -2.64294         0.000119      0.000429     -0.000257
      1.02840      7.59650     -6.20585        -0.002087     -0.000899     -0.002546
      9.42265      7.59650     -6.20585         0.021454     -0.031966      0.028259
      0.85338      2.29554     -2.48931         0.001596      0.000646      0.000704
      9.24762      2.29554     -2.48931         0.001611      0.000631      0.000711
      3.64318      5.76671     -3.67515         0.002457      0.001529     -0.000667
     12.03743      5.76671     -3.67515         0.002700      0.001531     -0.000604
      0.55394      0.61303     -3.48872        -0.002479      0.001256     -0.000960
      8.94819      0.61303     -3.48872        -0.002844      0.001281     -0.001279
      5.79350     -0.03143     -4.03202        -0.000695      0.002195      0.000010
     14.18775     -0.03143     -4.03202        -0.001216      0.001760      0.000280
      4.85766      7.53946     -1.03917        -0.004069      0.002113     -0.000525
     13.25190      7.53946     -1.03917        -0.003851      0.002108     -0.000170
      5.96398      5.90128     -1.16165         0.000136     -0.000284      0.000404
     14.35822      5.90128     -1.16165        -0.000085      0.000036      0.000524
      3.53659      1.03539    -10.04090         0.004018     -0.002005      0.000322
     11.93084      1.03539    -10.04090         0.003948     -0.002048      0.000300
      6.62739      0.74760     -0.97522         0.000015      0.000173      0.000347
     15.02164      0.74760     -0.97522         0.000056     -0.000036      0.000433
      1.59638      3.45260     -6.86163        -0.001256     -0.001811     -0.000226
      9.99063      3.45260     -6.86163        -0.001139     -0.001966     -0.000373
      0.93493      2.32137     -8.43713        -0.000095     -0.000396      0.000284
      9.32918      2.32137     -8.43713         0.000018     -0.000702      0.000235
      7.54087      6.27930     -8.59076        -0.019936     -0.130529     -0.055454
     15.93512      6.27930     -8.59076        -0.001511     -0.000586     -0.000661
      2.60074      8.60628     -7.04805         0.001229     -0.001720     -0.000080
     10.99499      8.60628     -7.04805        -0.003874      0.004038     -0.009681
      7.73371      2.38578     -0.85274         0.003986      0.002026     -0.000134
     16.12796      2.38578     -0.85274         0.003921      0.002061     -0.000262
      0.66053      6.18907    -10.22733        -0.003929     -0.001942      0.000286
      9.05478      6.18907    -10.22733         0.004517     -0.007048     -0.011877
      6.79787      5.12225     -4.21845         0.001167      0.001642      0.000466
     15.19211      5.12225     -4.21845         0.001263      0.001793      0.000157
      5.22552      6.13203     -5.06065        -0.002260      0.000841      0.002650
     13.61977      6.13203     -5.06065        -0.002368      0.000848      0.002610
 -----------------------------------------------------------------------------------
    total drift:                                0.000002      0.000016     -0.000003


--------------------------------------------------------------------------------------------------------



  FREE ENERGIE OF THE ION-ELECTRON SYSTEM (eV)
  ---------------------------------------------------
  free  energy   TOTEN  =      -229.37584320 eV

  energy  without entropy=     -229.37584320  energy(sigma->0) =     -229.37584320



--------------------------------------------------------------------------------------------------------


    POTLOK:  cpu time      7.8033: real time      7.8113


--------------------------------------------------------------------------------------------------------


     LOOP+:  cpu time   2423.4071: real time   2424.0379
    4ORBIT:  cpu time      0.0000: real time      0.0000



 total charge

# of ion       s       p       d       tot
------------------------------------------
    1        1.375   2.251   0.000   3.626
    2        1.376   2.247   0.000   3.623
    3        1.376   2.258   0.000   3.635
    4        1.376   2.258   0.000   3.635
    5        1.376   2.247   0.000   3.622
    6        1.376   2.247   0.000   3.623
    7        1.375   2.262   0.000   3.638
    8        1.375   2.262   0.000   3.638
    9        1.377   2.257   0.000   3.634
   10        1.377   2.257   0.000   3.634
   11        1.377   2.257   0.000   3.634
   12        1.377   2.257   0.000   3.634
   13        1.375   2.262   0.000   3.638
   14        1.375   2.262   0.000   3.638
   15        1.376   2.258   0.000   3.635
   16        1.376   2.258   0.000   3.635
   17        1.376   2.247   0.000   3.623
   18        1.376   2.247   0.000   3.623
   19        1.376   2.247   0.000   3.623
   20        1.376   2.247   0.000   3.623
   21        1.377   2.257   0.000   3.634
   22        1.377   2.257   0.000   3.634
   23        1.376   2.258   0.000   3.635
   24        1.376   2.260   0.000   3.636
   25        1.375   2.262   0.000   3.638
   26        1.375   2.262   0.000   3.638
   27        1.376   2.247   0.000   3.623
   28        1.376   2.247   0.000   3.623
   29        1.376   2.247   0.000   3.623
   30        1.376   2.247   0.000   3.623
   31        1.376   2.254   0.000   3.630
   32        1.376   2.254   0.000   3.630
   33        1.375   2.263   0.000   3.638
   34        1.375   2.263   0.000   3.638
   35        1.376   2.247   0.000   3.623
   36        1.376   2.247   0.000   3.623
   37        1.375   2.263   0.000   3.638
   38        1.375   2.263   0.000   3.638
   39        1.376   2.247   0.000   3.623
   40        1.376   2.247   0.000   3.623
   41        1.376   2.254   0.000   3.630
   42        1.376   2.254   0.000   3.630
   43        1.377   2.257   0.000   3.634
   44        1.377   2.257   0.000   3.634
   45        1.375   2.266   0.000   3.641
   46        1.375   2.262   0.000   3.638
   47        1.376   2.254   0.000   3.630
   48        1.376   2.254   0.000   3.630
   49        1.375   2.263   0.000   3.638
   50        1.375   2.263   0.000   3.638
   51        1.375   2.263   0.000   3.638
   52        1.375   2.263   0.000   3.639
   53        1.376   2.254   0.000   3.630
   54        1.376   2.254   0.000   3.630
   55        1.376   2.258   0.000   3.635
   56        1.376   2.258   0.000   3.635
--------------------------------------------------
tot         77.048 126.322   0.000 203.370



 magnetization (x)

# of ion       s       p       d       tot
------------------------------------------
    1        0.000   0.000   0.000   0.000
    2        0.000   0.000   0.000   0.000
    3        0.000   0.000   0.000   0.000
    4        0.000   0.000   0.000   0.000
    5        0.000   0.000   0.000   0.000
    6        0.000  -0.000   0.000   0.000
    7        0.000   0.000   0.000   0.000
    8        0.000   0.000   0.000   0.000
    9        0.000   0.000   0.000   0.000
   10        0.000   0.000   0.000   0.000
   11        0.000   0.000   0.000   0.000
   12        0.000   0.000   0.000   0.000
   13        0.000   0.000   0.000   0.000
   14        0.000   0.000   0.000   0.000
   15        0.000   0.000   0.000   0.000
   16        0.000   0.000   0.000   0.000
   17        0.000  -0.000   0.000   0.000
   18        0.000   0.000   0.000   0.000
   19        0.000   0.000   0.000   0.000
   20        0.000   0.000   0.000   0.000
   21        0.000   0.000   0.000   0.000
   22        0.000   0.000   0.000   0.000
   23        0.000   0.000   0.000   0.000
   24        0.000   0.000   0.000   0.000
   25        0.000   0.000   0.000   0.000
   26        0.000   0.000   0.000   0.000
   27        0.000   0.000   0.000   0.000
   28        0.000   0.000   0.000   0.000
   29        0.000   0.000   0.000   0.000
   30        0.000   0.000   0.000   0.000
   31        0.000   0.000   0.000   0.000
   32        0.000   0.000   0.000   0.000
   33        0.000   0.000   0.000   0.000
   34        0.000   0.000   0.000   0.000
   35        0.000   0.000   0.000   0.000
   36        0.000   0.000   0.000   0.000
   37        0.000   0.000   0.000   0.000
   38        0.000   0.000   0.000   0.000
   39        0.000  -0.000   0.000   0.000
   40        0.000   0.000   0.000   0.000
   41        0.000   0.000   0.000   0.000
   42        0.000   0.000   0.000   0.000
   43        0.000   0.000   0.000   0.000
   44        0.000   0.000   0.000   0.000
   45        0.000   0.000   0.000   0.000
   46        0.000   0.000   0.000   0.000
   47        0.000   0.000   0.000   0.000
   48        0.000   0.000   0.000   0.000
   49        0.000   0.000   0.000   0.000
   50        0.000   0.000   0.000   0.000
   51        0.000   0.000   0.000   0.000
   52        0.000   0.000   0.000   0.000
   53        0.000   0.000   0.000   0.000
   54        0.000   0.000   0.000   0.000
   55        0.000   0.000   0.000   0.000
   56        0.000   0.000   0.000   0.000
--------------------------------------------------
tot          0.000   0.000   0.000   0.000

 BZINTS: Fermi energy:    0.078171;  336.000000 electrons
         Band energy:-0.201134E+04;  BLOECHL correction:    0.000000

 total amount of memory used by VASP MPI-rank0   322725. kBytes
=======================================================================

   base      :      30000. kBytes
   nonl-proj :      70692. kBytes
   fftplans  :      34504. kBytes
   grid      :      83442. kBytes
   one-center:        344. kBytes
   wavefun   :     103743. kBytes

  
  
 General timing and accounting informations for this job:
 ========================================================
  
                  Total CPU time used (sec):     2467.301
                            User time (sec):     2465.733
                          System time (sec):        1.568
                         Elapsed time (sec):     2468.913
  
                   Maximum memory used (kb):      599412.
                   Average memory used (kb):          N/A
  
                          Minor page faults:       791292
                          Major page faults:            0
                 Voluntary context switches:         8837
