       N       E                     dE             d eps       ncg     rms          rms(c)
DAV:   1     0.635603457352E+04    0.63560E+04   -0.27055E+05  3520   0.138E+03
DAV:   2     0.434623873489E+03   -0.59214E+04   -0.56827E+04  3640   0.387E+02
DAV:   3    -0.415285198682E+03   -0.84991E+03   -0.84003E+03  3936   0.163E+02
DAV:   4    -0.463498904402E+03   -0.48214E+02   -0.47823E+02  3816   0.368E+01
DAV:   5    -0.465790595128E+03   -0.22917E+01   -0.22879E+01  4352   0.812E+00    0.440E+01
DAV:   6    -0.445961818656E+03    0.19829E+02   -0.37402E+01  3696   0.645E+00    0.273E+01
DAV:   7    -0.443819378754E+03    0.21424E+01   -0.24563E+01  4136   0.598E+00    0.103E+01
DAV:   8    -0.443670206303E+03    0.14917E+00   -0.31364E+00  3632   0.250E+00    0.357E+00
DAV:   9    -0.443667229421E+03    0.29769E-02   -0.12666E-01  3816   0.669E-01    0.163E+00
DAV:  10    -0.443681891056E+03   -0.14662E-01   -0.33925E-02  3944   0.324E-01    0.661E-01
DAV:  11    -0.443688474478E+03   -0.65834E-02   -0.13317E-02  3568   0.187E-01    0.482E-01
DAV:  12    -0.443687744993E+03    0.72948E-03   -0.11840E-03  3736   0.680E-02    0.299E-01
DAV:  13    -0.443688748237E+03   -0.10032E-02   -0.14759E-03  3568   0.592E-02    0.100E-01
DAV:  14    -0.443689017556E+03   -0.26932E-03   -0.59383E-04  4056   0.331E-02    0.830E-02
DAV:  15    -0.443689025137E+03   -0.75805E-05   -0.30533E-05  3744   0.110E-02    0.561E-02
DAV:  16    -0.443689054329E+03   -0.29192E-04   -0.41164E-05  3264   0.879E-03    0.216E-02
DAV:  17    -0.443689076895E+03   -0.22565E-04   -0.25863E-05  3024   0.689E-03    0.305E-02
DAV:  18    -0.443689078768E+03   -0.18735E-05   -0.18689E-06  2736   0.293E-03    0.153E-02
DAV:  19    -0.443689080793E+03   -0.20249E-05   -0.83053E-06  3176   0.407E-03    0.218E-02
DAV:  20    -0.443689080609E+03    0.18392E-06   -0.22071E-06  2528   0.263E-03
   1 F= -.44368908E+03 E0= -.44368908E+03  d E =-.206740E-13
 Found    81 degrees of freedom:
 Adding 6 more for cell shape distortion
       N       E                     dE             d eps       ncg     rms          rms(c)
DAV:   1    -0.446845103285E+03   -0.31560E+01   -0.15165E+02  3648   0.301E+01    0.145E+01
DAV:   2    -0.444194614134E+03    0.26505E+01   -0.64111E+00  3640   0.614E+00    0.719E+00
DAV:   3    -0.443306840441E+03    0.88777E+00   -0.17614E+00  3680   0.246E+00    0.312E+00
DAV:   4    -0.443193807022E+03    0.11303E+00   -0.17855E-01  4016   0.688E-01    0.165E+00
DAV:   5    -0.443168399393E+03    0.25408E-01   -0.22838E-02  3832   0.334E-01    0.765E-01
DAV:   6    -0.443166685729E+03    0.17137E-02   -0.11036E-02  3824   0.199E-01    0.313E-01
DAV:   7    -0.443166384406E+03    0.30132E-03   -0.93014E-04  3944   0.713E-02    0.250E-01
DAV:   8    -0.443166357839E+03    0.26568E-04   -0.13429E-03  3960   0.563E-02    0.508E-02
DAV:   9    -0.443166388466E+03   -0.30628E-04   -0.35266E-04  3600   0.314E-02    0.862E-02
DAV:  10    -0.443166394777E+03   -0.63111E-05   -0.51678E-05  3168   0.977E-03    0.425E-02
DAV:  11    -0.443166395354E+03   -0.57671E-06   -0.24238E-06  2792   0.360E-03
   2 F= -.44316640E+03 E0= -.44316640E+03  d E =-.110379E-10
       N       E                     dE             d eps       ncg     rms          rms(c)
DAV:   1    -0.444442671720E+03   -0.12763E+01   -0.36317E+01  3600   0.142E+01    0.750E+00
DAV:   2    -0.443801057135E+03    0.64161E+00   -0.15114E+00  3680   0.283E+00    0.363E+00
DAV:   3    -0.443593232527E+03    0.20782E+00   -0.39596E-01  3696   0.118E+00    0.169E+00
DAV:   4    -0.443563640874E+03    0.29592E-01   -0.43890E-02  4064   0.366E-01    0.921E-01
DAV:   5    -0.443556918140E+03    0.67227E-02   -0.70642E-03  3760   0.179E-01    0.434E-01
DAV:   6    -0.443556559632E+03    0.35851E-03   -0.30349E-03  3800   0.105E-01    0.176E-01
DAV:   7    -0.443556531876E+03    0.27756E-04   -0.22047E-04  4024   0.342E-02    0.147E-01
DAV:   8    -0.443556529900E+03    0.19761E-05   -0.43073E-04  3728   0.307E-02    0.265E-02
DAV:   9    -0.443556521616E+03    0.82842E-05   -0.10343E-04  3488   0.172E-02    0.383E-02
DAV:  10    -0.443556524822E+03   -0.32068E-05   -0.23040E-05  2912   0.607E-03    0.190E-02
DAV:  11    -0.443556525648E+03   -0.82565E-06   -0.10915E-06  2376   0.266E-03
   3 F= -.44355653E+03 E0= -.44355653E+03  d E =-.134383E-12
       N       E                     dE             d eps       ncg     rms          rms(c)
DAV:   1    -0.447175777575E+03   -0.36193E+01   -0.15024E+02  3600   0.286E+01    0.158E+01
DAV:   2    -0.444554845585E+03    0.26209E+01   -0.63432E+00  3664   0.567E+00    0.748E+00
DAV:   3    -0.443702893490E+03    0.85195E+00   -0.15663E+00  3696   0.232E+00    0.356E+00
DAV:   4    -0.443570110919E+03    0.13278E+00   -0.17343E-01  3976   0.675E-01    0.194E+00
DAV:   5    -0.443538009613E+03    0.32101E-01   -0.28101E-02  3784   0.408E-01    0.784E-01
DAV:   6    -0.443537022218E+03    0.98740E-03   -0.10505E-02  3808   0.213E-01    0.342E-01
DAV:   7    -0.443536884896E+03    0.13732E-03   -0.98370E-04  3968   0.701E-02    0.257E-01
DAV:   8    -0.443536869275E+03    0.15621E-04   -0.12526E-03  3848   0.538E-02    0.414E-02
DAV:   9    -0.443536872416E+03   -0.31418E-05   -0.23986E-04  3648   0.287E-02    0.856E-02
DAV:  10    -0.443536877855E+03   -0.54384E-05   -0.45187E-05  3160   0.899E-03    0.523E-02
DAV:  11    -0.443536882699E+03   -0.48442E-05   -0.46019E-06  3224   0.504E-03    0.373E-02
DAV:  12    -0.443536882870E+03   -0.17101E-06   -0.29817E-06  2608   0.396E-03
   4 F= -.44353688E+03 E0= -.44353688E+03  d E =-.401694E-11
       N       E                     dE             d eps       ncg     rms          rms(c)
DAV:   1    -0.444024020443E+03   -0.48714E+00   -0.39636E+01  3624   0.149E+01    0.801E+00
DAV:   2    -0.443339853331E+03    0.68417E+00   -0.16790E+00  3680   0.301E+00    0.383E+00
DAV:   3    -0.443114150157E+03    0.22570E+00   -0.41073E-01  3680   0.122E+00    0.180E+00
DAV:   4    -0.443079309153E+03    0.34841E-01   -0.49180E-02  4000   0.411E-01    0.969E-01
DAV:   5    -0.443071679930E+03    0.76292E-02   -0.83770E-03  3776   0.208E-01    0.428E-01
DAV:   6    -0.443071386766E+03    0.29316E-03   -0.29733E-03  3888   0.113E-01    0.184E-01
DAV:   7    -0.443071359997E+03    0.26769E-04   -0.26696E-04  3952   0.378E-02    0.147E-01
DAV:   8    -0.443071356556E+03    0.34414E-05   -0.42099E-04  3768   0.341E-02    0.255E-02
DAV:   9    -0.443071350260E+03    0.62962E-05   -0.99596E-05  3456   0.176E-02    0.497E-02
DAV:  10    -0.443071352062E+03   -0.18026E-05   -0.20214E-05  3080   0.542E-03    0.253E-02
DAV:  11    -0.443071353497E+03   -0.14345E-05   -0.92360E-07  2232   0.258E-03    0.198E-02
DAV:  12    -0.443071354794E+03   -0.12973E-05   -0.13735E-06  2096   0.238E-03    0.374E-03
DAV:  13    -0.443071354484E+03    0.31021E-06   -0.41224E-07  1832   0.179E-03
   5 F= -.44307135E+03 E0= -.44307135E+03  d E =-.691767E-19
       N       E                     dE             d eps       ncg     rms          rms(c)
DAV:   1    -0.455347195893E+03   -0.12276E+02   -0.39187E+02  4256   0.555E+01    0.251E+01
DAV:   2    -0.445962854979E+03    0.93843E+01   -0.19739E+01  3672   0.108E+01    0.116E+01
DAV:   3    -0.443489852840E+03    0.24730E+01   -0.58209E+00  3944   0.473E+00    0.460E+00
DAV:   4    -0.443222279964E+03    0.26757E+00   -0.29015E-01  4176   0.940E-01    0.253E+00
DAV:   5    -0.443157682028E+03    0.64598E-01   -0.39868E-02  3976   0.415E-01    0.137E+00
DAV:   6    -0.443146773406E+03    0.10909E-01   -0.26603E-02  3608   0.308E-01    0.535E-01
DAV:   7    -0.443146123629E+03    0.64978E-03   -0.17589E-03  3776   0.113E-01    0.398E-01
DAV:   8    -0.443146197349E+03   -0.73720E-04   -0.35997E-03  3664   0.795E-02    0.143E-01
DAV:   9    -0.443146116771E+03    0.80578E-04   -0.60152E-04  3720   0.465E-02    0.140E-01
DAV:  10    -0.443146127629E+03   -0.10858E-04   -0.34173E-04  3648   0.242E-02    0.353E-02
DAV:  11    -0.443146132935E+03   -0.53062E-05   -0.14699E-05  3032   0.703E-03    0.134E-02
DAV:  12    -0.443146135099E+03   -0.21634E-05   -0.21895E-06  2688   0.266E-03    0.876E-03
DAV:  13    -0.443146138126E+03   -0.30273E-05   -0.22677E-06  2496   0.288E-03    0.415E-03
DAV:  14    -0.443146137964E+03    0.16187E-06   -0.36614E-07  2392   0.147E-03
   6 F= -.44314614E+03 E0= -.44314614E+03  d E =-.567553E-12
       N       E                     dE             d eps       ncg     rms          rms(c)
DAV:   1    -0.444450988169E+03   -0.13049E+01   -0.36573E+01  3600   0.141E+01    0.740E+00
DAV:   2    -0.443792573299E+03    0.65841E+00   -0.14932E+00  3664   0.278E+00    0.359E+00
DAV:   3    -0.443576359893E+03    0.21621E+00   -0.45116E-01  3696   0.122E+00    0.153E+00
DAV:   4    -0.443552487908E+03    0.23872E-01   -0.28791E-02  3968   0.279E-01    0.919E-01
DAV:   5    -0.443545015271E+03    0.74726E-02   -0.70053E-03  3808   0.168E-01    0.351E-01
DAV:   6    -0.443544937335E+03    0.77935E-04   -0.26118E-03  3744   0.108E-01    0.115E-01
DAV:   7    -0.443544928796E+03    0.85391E-05   -0.14307E-04  4048   0.272E-02    0.945E-02
DAV:   8    -0.443544936061E+03   -0.72651E-05   -0.14483E-04  3576   0.168E-02    0.181E-02
DAV:   9    -0.443544932063E+03    0.39979E-05   -0.16621E-05  3336   0.858E-03    0.237E-02
DAV:  10    -0.443544930234E+03    0.18296E-05   -0.83501E-06  3080   0.387E-03    0.105E-02
DAV:  11    -0.443544931618E+03   -0.13841E-05   -0.51440E-07  2072   0.162E-03    0.615E-03
DAV:  12    -0.443544932125E+03   -0.50696E-06   -0.40532E-07  2008   0.134E-03
   7 F= -.44354493E+03 E0= -.44354493E+03  d E =-.929529E-17
       N       E                     dE             d eps       ncg     rms          rms(c)
DAV:   1    -0.447271007679E+03   -0.37261E+01   -0.15098E+02  3600   0.284E+01    0.154E+01
DAV:   2    -0.444579734689E+03    0.26913E+01   -0.62552E+00  3664   0.557E+00    0.739E+00
DAV:   3    -0.443681469847E+03    0.89826E+00   -0.18476E+00  3672   0.248E+00    0.319E+00
DAV:   4    -0.443584342831E+03    0.97127E-01   -0.11393E-01  4040   0.539E-01    0.197E+00
DAV:   5    -0.443549567969E+03    0.34775E-01   -0.31348E-02  3832   0.356E-01    0.695E-01
DAV:   6    -0.443549181148E+03    0.38682E-03   -0.99148E-03  3736   0.211E-01    0.240E-01
DAV:   7    -0.443549118279E+03    0.62869E-04   -0.55405E-04  4048   0.516E-02    0.188E-01
DAV:   8    -0.443549136735E+03   -0.18456E-04   -0.55021E-04  3656   0.348E-02    0.352E-02
DAV:   9    -0.443549133830E+03    0.29049E-05   -0.51192E-05  3728   0.162E-02    0.473E-02
DAV:  10    -0.443549131881E+03    0.19491E-05   -0.23890E-05  3248   0.688E-03    0.211E-02
DAV:  11    -0.443549135953E+03   -0.40726E-05   -0.28204E-06  2632   0.306E-03    0.566E-03
DAV:  12    -0.443549136356E+03   -0.40245E-06   -0.99515E-07  2280   0.226E-03
   8 F= -.44354914E+03 E0= -.44354914E+03  d E =-.447351E-16
       N       E                     dE             d eps       ncg     rms          rms(c)
DAV:   1    -0.444067122304E+03   -0.51799E+00   -0.39772E+01  3648   0.148E+01    0.775E+00
DAV:   2    -0.443362517627E+03    0.70460E+00   -0.16523E+00  3648   0.295E+00    0.377E+00
DAV:   3    -0.443123165545E+03    0.23935E+00   -0.49379E-01  3672   0.130E+00    0.157E+00
DAV:   4    -0.443099445667E+03    0.23720E-01   -0.31291E-02  4016   0.301E-01    0.978E-01
DAV:   5    -0.443091083237E+03    0.83624E-02   -0.75453E-03  3872   0.186E-01    0.369E-01
DAV:   6    -0.443091005472E+03    0.77765E-04   -0.28793E-03  3704   0.114E-01    0.128E-01
DAV:   7    -0.443090981867E+03    0.23605E-04   -0.16241E-04  4008   0.304E-02    0.988E-02
DAV:   8    -0.443090989031E+03   -0.71637E-05   -0.17597E-04  3624   0.196E-02    0.208E-02
DAV:   9    -0.443090984538E+03    0.44924E-05   -0.18830E-05  3400   0.965E-03    0.230E-02
DAV:  10    -0.443090982631E+03    0.19069E-05   -0.11234E-05  3048   0.440E-03    0.853E-03
DAV:  11    -0.443090984082E+03   -0.14503E-05   -0.79029E-07  2096   0.214E-03    0.669E-03
DAV:  12    -0.443090984541E+03   -0.45905E-06   -0.51270E-07  1976   0.172E-03
   9 F= -.44309098E+03 E0= -.44309098E+03  d E =-.200252E-18
       N       E                     dE             d eps       ncg     rms          rms(c)
DAV:   1    -0.455139841499E+03   -0.12049E+02   -0.38863E+02  4256   0.556E+01    0.249E+01
DAV:   2    -0.445853035320E+03    0.92868E+01   -0.19630E+01  3648   0.108E+01    0.115E+01
DAV:   3    -0.443386208979E+03    0.24668E+01   -0.59810E+00  3920   0.482E+00    0.435E+00
DAV:   4    -0.443155866098E+03    0.23034E+00   -0.25365E-01  4272   0.823E-01    0.254E+00
DAV:   5    -0.443086575070E+03    0.69291E-01   -0.33953E-02  4072   0.387E-01    0.115E+00
DAV:   6    -0.443079159891E+03    0.74152E-02   -0.15844E-02  3672   0.254E-01    0.418E-01
DAV:   7    -0.443078796671E+03    0.36322E-03   -0.12718E-03  4184   0.812E-02    0.294E-01
DAV:   8    -0.443078831242E+03   -0.34571E-04   -0.17770E-03  3688   0.597E-02    0.111E-01
DAV:   9    -0.443078825597E+03    0.56448E-05   -0.22918E-04  3608   0.287E-02    0.103E-01
DAV:  10    -0.443078826545E+03   -0.94787E-06   -0.57653E-05  3704   0.134E-02    0.485E-02
DAV:  11    -0.443078829464E+03   -0.29194E-05   -0.69771E-06  3152   0.476E-03    0.167E-02
DAV:  12    -0.443078830922E+03   -0.14578E-05   -0.35976E-06  2992   0.264E-03    0.467E-03
DAV:  13    -0.443078832570E+03   -0.16477E-05   -0.10621E-06  2088   0.206E-03    0.401E-03
DAV:  14    -0.443078832788E+03   -0.21824E-06   -0.45329E-07  2208   0.130E-03
  10 F= -.44307883E+03 E0= -.44307883E+03  d E =-.468207E-14
       N       E                     dE             d eps       ncg     rms          rms(c)
DAV:   1    -0.444423147405E+03   -0.13443E+01   -0.36431E+01  3632   0.142E+01    0.761E+00
DAV:   2    -0.443781177905E+03    0.64197E+00   -0.15272E+00  3656   0.282E+00    0.366E+00
DAV:   3    -0.443573729931E+03    0.20745E+00   -0.38471E-01  3688   0.117E+00    0.176E+00
DAV:   4    -0.443541642804E+03    0.32087E-01   -0.50340E-02  3960   0.384E-01    0.911E-01
DAV:   5    -0.443534740105E+03    0.69027E-02   -0.73463E-03  3680   0.182E-01    0.445E-01
DAV:   6    -0.443534388829E+03    0.35128E-03   -0.31674E-03  3904   0.105E-01    0.172E-01
DAV:   7    -0.443534337715E+03    0.51114E-04   -0.20428E-04  3992   0.338E-02    0.141E-01
DAV:   8    -0.443534338400E+03   -0.68510E-06   -0.45601E-04  3592   0.282E-02    0.289E-02
DAV:   9    -0.443534327571E+03    0.10829E-04   -0.96008E-05  3208   0.155E-02    0.380E-02
DAV:  10    -0.443534329284E+03   -0.17125E-05   -0.21476E-05  2912   0.547E-03    0.144E-02
DAV:  11    -0.443534329504E+03   -0.22086E-06   -0.67188E-07  2032   0.189E-03
  11 F= -.44353433E+03 E0= -.44353433E+03  d E =-.791978E-18
       N       E                     dE             d eps       ncg     rms          rms(c)
DAV:   1    -0.447145970824E+03   -0.36116E+01   -0.15055E+02  3632   0.286E+01    0.163E+01
DAV:   2    -0.444531335103E+03    0.26146E+01   -0.64364E+00  3688   0.572E+00    0.755E+00
DAV:   3    -0.443693873330E+03    0.83746E+00   -0.14820E+00  3680   0.230E+00    0.381E+00
DAV:   4    -0.443542218078E+03    0.15166E+00   -0.20147E-01  3944   0.791E-01    0.191E+00
DAV:   5    -0.443509536845E+03    0.32681E-01   -0.33185E-02  3728   0.402E-01    0.823E-01
DAV:   6    -0.443508764601E+03    0.77224E-03   -0.10470E-02  3952   0.213E-01    0.347E-01
DAV:   7    -0.443508518392E+03    0.24621E-03   -0.86335E-04  3912   0.658E-02    0.233E-01
DAV:   8    -0.443508507237E+03    0.11155E-04   -0.13207E-03  3736   0.568E-02    0.505E-02
DAV:   9    -0.443508503073E+03    0.41641E-05   -0.24590E-04  3680   0.276E-02    0.921E-02
DAV:  10    -0.443508506686E+03   -0.36129E-05   -0.34364E-05  3184   0.875E-03    0.419E-02
DAV:  11    -0.443508507408E+03   -0.72192E-06   -0.31032E-06  2848   0.358E-03
  12 F= -.44350851E+03 E0= -.44350851E+03  d E =-.826200E-16
       N       E                     dE             d eps       ncg     rms          rms(c)
DAV:   1    -0.443904143515E+03   -0.39564E+00   -0.39683E+01  3672   0.150E+01    0.830E+00
DAV:   2    -0.443223521421E+03    0.68062E+00   -0.17214E+00  3712   0.303E+00    0.386E+00
DAV:   3    -0.443003509464E+03    0.22001E+00   -0.37683E-01  3680   0.118E+00    0.196E+00
DAV:   4    -0.442962679373E+03    0.40830E-01   -0.59550E-02  3928   0.425E-01    0.945E-01
DAV:   5    -0.442954863071E+03    0.78163E-02   -0.75838E-03  3704   0.210E-01    0.430E-01
DAV:   6    -0.442954675225E+03    0.18785E-03   -0.27825E-03  3848   0.109E-01    0.182E-01
DAV:   7    -0.442954629288E+03    0.45937E-04   -0.25669E-04  3880   0.387E-02    0.121E-01
DAV:   8    -0.442954625759E+03    0.35292E-05   -0.35721E-04  3616   0.328E-02    0.277E-02
DAV:   9    -0.442954624038E+03    0.17205E-05   -0.82080E-05  3456   0.152E-02    0.522E-02
DAV:  10    -0.442954623943E+03    0.95912E-07   -0.74343E-06  3064   0.468E-03
  13 F= -.44295462E+03 E0= -.44295462E+03  d E =-.523424E-18
       N       E                     dE             d eps       ncg     rms          rms(c)
DAV:   1    -0.448159881876E+03   -0.52053E+01   -0.22225E+02  3584   0.349E+01    0.174E+01
DAV:   2    -0.444953068008E+03    0.32068E+01   -0.91327E+00  3656   0.723E+00    0.856E+00
DAV:   3    -0.443754450908E+03    0.11986E+01   -0.18254E+00  3728   0.252E+00    0.423E+00
DAV:   4    -0.443522094457E+03    0.23236E+00   -0.32786E-01  3920   0.993E-01    0.179E+00
DAV:   5    -0.443489681572E+03    0.32413E-01   -0.33024E-02  3960   0.485E-01    0.884E-01
DAV:   6    -0.443489573136E+03    0.10844E-03   -0.12648E-02  3824   0.232E-01    0.381E-01
DAV:   7    -0.443489124406E+03    0.44873E-03   -0.12720E-03  3960   0.973E-02    0.168E-01
DAV:   8    -0.443489094735E+03    0.29670E-04   -0.92567E-04  4024   0.717E-02    0.584E-02
DAV:   9    -0.443489145206E+03   -0.50470E-04   -0.35713E-04  3752   0.314E-02    0.746E-02
DAV:  10    -0.443489139380E+03    0.58256E-05   -0.17539E-05  3952   0.101E-02    0.358E-02
DAV:  11    -0.443489150162E+03   -0.10782E-04   -0.51865E-05  3936   0.151E-02    0.343E-02
DAV:  12    -0.443489149148E+03    0.10141E-05   -0.78179E-06  3312   0.555E-03    0.256E-02
DAV:  13    -0.443489150367E+03   -0.12191E-05   -0.61874E-06  3056   0.363E-03    0.650E-03
DAV:  14    -0.443489150396E+03   -0.29569E-07   -0.37037E-07  1856   0.153E-03
  14 F= -.44348915E+03 E0= -.44348915E+03  d E =-.464348E-12
       N       E                     dE             d eps       ncg     rms          rms(c)
DAV:   1    -0.443851647979E+03   -0.36250E+00   -0.15141E+01  3312   0.713E+00    0.401E+00
DAV:   2    -0.443728369417E+03    0.12328E+00   -0.42638E-01  3808   0.142E+00    0.207E+00
DAV:   3    -0.443664077393E+03    0.64292E-01   -0.38085E-02  4168   0.393E-01    0.126E+00
DAV:   4    -0.443639006410E+03    0.25071E-01   -0.43039E-02  4376   0.421E-01    0.191E-01
DAV:   5    -0.443639413743E+03   -0.40733E-03   -0.76483E-03  3656   0.199E-01    0.363E-01
DAV:   6    -0.443639409882E+03    0.38609E-05   -0.91903E-04  3896   0.451E-02    0.234E-01
DAV:   7    -0.443639423814E+03   -0.13932E-04   -0.58470E-05  4080   0.209E-02    0.895E-02
DAV:   8    -0.443639434022E+03   -0.10208E-04   -0.73281E-05  4160   0.261E-02    0.113E-02
DAV:   9    -0.443639439971E+03   -0.59496E-05   -0.34746E-05  3592   0.115E-02    0.241E-02
DAV:  10    -0.443639440640E+03   -0.66839E-06   -0.44812E-06  3096   0.415E-03
  15 F= -.44363944E+03 E0= -.44363944E+03  d E =-.300357E-12
       N       E                     dE             d eps       ncg     rms          rms(c)
DAV:   1    -0.444484555638E+03   -0.84512E+00   -0.60520E+01  3304   0.142E+01    0.803E+00
DAV:   2    -0.443995718516E+03    0.48884E+00   -0.17530E+00  3816   0.287E+00    0.413E+00
DAV:   3    -0.443737727592E+03    0.25799E+00   -0.15201E-01  3968   0.741E-01    0.250E+00
DAV:   4    -0.443637884791E+03    0.99843E-01   -0.16965E-01  4392   0.845E-01    0.368E-01
DAV:   5    -0.443639345456E+03   -0.14607E-02   -0.28620E-02  3680   0.375E-01    0.714E-01
DAV:   6    -0.443639326647E+03    0.18809E-04   -0.35444E-03  3848   0.960E-02    0.465E-01
DAV:   7    -0.443639373364E+03   -0.46717E-04   -0.25179E-04  4296   0.520E-02    0.174E-01
DAV:   8    -0.443639413026E+03   -0.39662E-04   -0.33591E-04  4544   0.636E-02    0.229E-02
DAV:   9    -0.443639436621E+03   -0.23595E-04   -0.15572E-04  3680   0.249E-02    0.545E-02
DAV:  10    -0.443639438989E+03   -0.23678E-05   -0.18686E-05  3808   0.836E-03    0.104E-02
DAV:  11    -0.443639440592E+03   -0.16038E-05   -0.81402E-06  3408   0.756E-03    0.154E-02
DAV:  12    -0.443639440837E+03   -0.24473E-06   -0.80718E-07  1920   0.236E-03
  16 F= -.44363944E+03 E0= -.44363944E+03  d E =-.300609E-12
       N       E                     dE             d eps       ncg     rms          rms(c)
DAV:   1    -0.443700459909E+03   -0.61019E-01   -0.15130E+01  3296   0.711E+00    0.401E+00
DAV:   2    -0.443577986191E+03    0.12247E+00   -0.43537E-01  3808   0.148E+00    0.207E+00
DAV:   3    -0.443513671377E+03    0.64315E-01   -0.38782E-02  4016   0.459E-01    0.126E+00
DAV:   4    -0.443488592958E+03    0.25078E-01   -0.43252E-02  4144   0.476E-01    0.185E-01
DAV:   5    -0.443489124269E+03   -0.53131E-03   -0.89087E-03  3664   0.223E-01    0.359E-01
DAV:   6    -0.443489117931E+03    0.63388E-05   -0.92988E-04  4000   0.549E-02    0.232E-01
DAV:   7    -0.443489132355E+03   -0.14424E-04   -0.72873E-05  4136   0.245E-02    0.902E-02
DAV:   8    -0.443489142515E+03   -0.10161E-04   -0.76183E-05  4240   0.302E-02    0.115E-02
DAV:   9    -0.443489149096E+03   -0.65811E-05   -0.39691E-05  3560   0.126E-02    0.242E-02
DAV:  10    -0.443489149780E+03   -0.68350E-06   -0.34238E-06  2840   0.406E-03
  17 F= -.44348915E+03 E0= -.44348915E+03  d E =-.465518E-12
       N       E                     dE             d eps       ncg     rms          rms(c)
DAV:   1    -0.445169384407E+03   -0.16802E+01   -0.11954E+02  3272   0.200E+01    0.100E+01
DAV:   2    -0.444277540941E+03    0.89184E+00   -0.34041E+00  3824   0.401E+00    0.569E+00
DAV:   3    -0.443687050148E+03    0.59049E+00   -0.32532E-01  3816   0.107E+00    0.284E+00
DAV:   4    -0.443516407856E+03    0.17064E+00   -0.29725E-01  4160   0.953E-01    0.534E-01
DAV:   5    -0.443516386547E+03    0.21309E-04   -0.48352E-02  3704   0.494E-01    0.829E-01
DAV:   6    -0.443515426797E+03    0.95975E-03   -0.81039E-03  3976   0.153E-01    0.245E-01
DAV:   7    -0.443514306188E+03    0.11206E-02   -0.19770E-03  4368   0.162E-01    0.779E-02
DAV:   8    -0.443514092329E+03    0.21386E-03   -0.93331E-04  4168   0.857E-02    0.149E-01
DAV:   9    -0.443513954828E+03    0.13750E-03   -0.29616E-04  4432   0.530E-02    0.239E-02
DAV:  10    -0.443513881392E+03    0.73436E-04   -0.17579E-04  4464   0.463E-02    0.675E-02
DAV:  11    -0.443513879711E+03    0.16807E-05   -0.82720E-05  3720   0.192E-02    0.403E-02
DAV:  12    -0.443513867224E+03    0.12487E-04   -0.17050E-05  3120   0.117E-02    0.550E-03
DAV:  13    -0.443513852293E+03    0.14932E-04   -0.16235E-05  3376   0.199E-02    0.370E-03
DAV:  14    -0.443513847516E+03    0.47765E-05   -0.11738E-05  3416   0.120E-02    0.826E-03
DAV:  15    -0.443513847577E+03   -0.61445E-07   -0.43790E-06  2648   0.409E-03
  18 F= -.44351385E+03 E0= -.44351385E+03  d E =-.130069E-12
       N       E                     dE             d eps       ncg     rms          rms(c)
DAV:   1    -0.443849309615E+03   -0.33546E+00   -0.14757E+01  3280   0.697E+00    0.389E+00
DAV:   2    -0.443730275600E+03    0.11903E+00   -0.40599E-01  3824   0.140E+00    0.205E+00
DAV:   3    -0.443667075714E+03    0.63200E-01   -0.39312E-02  4312   0.407E-01    0.122E+00
DAV:   4    -0.443645068939E+03    0.22007E-01   -0.41611E-02  4576   0.415E-01    0.187E-01
DAV:   5    -0.443645500898E+03   -0.43196E-03   -0.85806E-03  3608   0.228E-01    0.357E-01
DAV:   6    -0.443645496238E+03    0.46596E-05   -0.10432E-03  4016   0.513E-02    0.209E-01
DAV:   7    -0.443645512094E+03   -0.15856E-04   -0.65301E-05  3912   0.189E-02    0.917E-02
DAV:   8    -0.443645521091E+03   -0.89971E-05   -0.46524E-05  3592   0.227E-02    0.193E-02
DAV:   9    -0.443645526196E+03   -0.51050E-05   -0.21476E-05  3800   0.105E-02    0.163E-02
DAV:  10    -0.443645527241E+03   -0.10445E-05   -0.28880E-06  2608   0.402E-03    0.426E-03
DAV:  11    -0.443645527649E+03   -0.40804E-06   -0.20831E-06  2488   0.409E-03
  19 F= -.44364553E+03 E0= -.44364553E+03  d E =-.206045E-12
       N       E                     dE             d eps       ncg     rms          rms(c)
DAV:   1    -0.444460372460E+03   -0.81485E+00   -0.59031E+01  3280   0.139E+01    0.779E+00
DAV:   2    -0.443984901620E+03    0.47547E+00   -0.16328E+00  3824   0.274E+00    0.410E+00
DAV:   3    -0.443731829106E+03    0.25307E+00   -0.15739E-01  4048   0.751E-01    0.242E+00
DAV:   4    -0.443644089087E+03    0.87740E-01   -0.16420E-01  4496   0.786E-01    0.366E-01
DAV:   5    -0.443645452358E+03   -0.13633E-02   -0.30251E-02  3608   0.405E-01    0.703E-01
DAV:   6    -0.443645412981E+03    0.39376E-04   -0.39395E-03  3840   0.934E-02    0.419E-01
DAV:   7    -0.443645465984E+03   -0.53003E-04   -0.22511E-04  3904   0.409E-02    0.171E-01
DAV:   8    -0.443645500490E+03   -0.34506E-04   -0.23129E-04  4392   0.491E-02    0.252E-02
DAV:   9    -0.443645522165E+03   -0.21675E-04   -0.10618E-04  3816   0.221E-02    0.429E-02
DAV:  10    -0.443645525938E+03   -0.37734E-05   -0.11771E-05  3656   0.713E-03    0.129E-02
DAV:  11    -0.443645527347E+03   -0.14081E-05   -0.72462E-06  3472   0.745E-03    0.124E-02
DAV:  12    -0.443645527594E+03   -0.24696E-06   -0.16062E-06  2104   0.299E-03
  20 F= -.44364553E+03 E0= -.44364553E+03  d E =-.201986E-12
       N       E                     dE             d eps       ncg     rms          rms(c)
DAV:   1    -0.443717654100E+03   -0.72127E-01   -0.14757E+01  3280   0.697E+00    0.389E+00
DAV:   2    -0.443598452473E+03    0.11920E+00   -0.40499E-01  3824   0.143E+00    0.205E+00
DAV:   3    -0.443535349325E+03    0.63103E-01   -0.40835E-02  4112   0.434E-01    0.122E+00
DAV:   4    -0.443513328335E+03    0.22021E-01   -0.41515E-02  4528   0.440E-01    0.186E-01
DAV:   5    -0.443513819658E+03   -0.49132E-03   -0.91898E-03  3608   0.242E-01    0.354E-01
DAV:   6    -0.443513812631E+03    0.70270E-05   -0.10597E-03  4088   0.540E-02    0.207E-01
DAV:   7    -0.443513828991E+03   -0.16360E-04   -0.71046E-05  4000   0.207E-02    0.877E-02
DAV:   8    -0.443513838128E+03   -0.91372E-05   -0.45373E-05  3632   0.238E-02    0.197E-02
DAV:   9    -0.443513843583E+03   -0.54553E-05   -0.22046E-05  3808   0.116E-02    0.165E-02
DAV:  10    -0.443513844686E+03   -0.11030E-05   -0.33888E-06  2656   0.415E-03    0.465E-03
DAV:  11    -0.443513845079E+03   -0.39268E-06   -0.20039E-06  2440   0.356E-03
  21 F= -.44351385E+03 E0= -.44351385E+03  d E =-.126611E-12
       N       E                     dE             d eps       ncg     rms          rms(c)
DAV:   1    -0.445190003438E+03   -0.16762E+01   -0.11967E+02  3272   0.198E+01    0.986E+00
DAV:   2    -0.444268997890E+03    0.92101E+00   -0.33258E+00  3816   0.388E+00    0.564E+00
DAV:   3    -0.443650644028E+03    0.61835E+00   -0.36340E-01  3984   0.112E+00    0.248E+00
DAV:   4    -0.443512958971E+03    0.13769E+00   -0.23246E-01  4224   0.909E-01    0.489E-01
DAV:   5    -0.443512353216E+03    0.60575E-03   -0.41276E-02  3784   0.443E-01    0.454E-01
DAV:   6    -0.443511210235E+03    0.11430E-02   -0.42958E-03  4264   0.132E-01    0.130E-01
DAV:   7    -0.443510276019E+03    0.93422E-03   -0.16890E-03  4176   0.118E-01    0.562E-02
DAV:   8    -0.443510083865E+03    0.19215E-03   -0.90027E-04  4392   0.640E-02    0.599E-02
DAV:   9    -0.443510011029E+03    0.72836E-04   -0.16988E-04  4056   0.282E-02    0.167E-02
DAV:  10    -0.443509968431E+03    0.42597E-04   -0.61424E-05  4208   0.192E-02    0.114E-02
DAV:  11    -0.443509933425E+03    0.35007E-04   -0.59672E-05  4032   0.254E-02    0.410E-03
DAV:  12    -0.443509930147E+03    0.32775E-05   -0.35379E-05  4392   0.132E-02    0.489E-03
DAV:  13    -0.443509930536E+03   -0.38867E-06   -0.50125E-06  2544   0.523E-03
  22 F= -.44350993E+03 E0= -.44350993E+03  d E =-.455197E-12
       N       E                     dE             d eps       ncg     rms          rms(c)
DAV:   1    -0.443862823343E+03   -0.35289E+00   -0.15176E+01  3296   0.707E+00    0.373E+00
DAV:   2    -0.443731839543E+03    0.13098E+00   -0.40607E-01  3808   0.136E+00    0.203E+00
DAV:   3    -0.443661188623E+03    0.70651E-01   -0.48461E-02  4312   0.407E-01    0.103E+00
DAV:   4    -0.443643885260E+03    0.17303E-01   -0.28389E-02  4424   0.367E-01    0.195E-01
DAV:   5    -0.443644231575E+03   -0.34632E-03   -0.54276E-03  3616   0.179E-01    0.180E-01
DAV:   6    -0.443644268992E+03   -0.37416E-04   -0.38631E-04  4240   0.357E-02    0.787E-02
DAV:   7    -0.443644284255E+03   -0.15263E-04   -0.34365E-05  3912   0.146E-02    0.311E-02
DAV:   8    -0.443644295007E+03   -0.10752E-04   -0.24557E-05  3872   0.938E-03    0.103E-02
DAV:   9    -0.443644296508E+03   -0.15016E-05   -0.31655E-06  2768   0.402E-03    0.791E-03
DAV:  10    -0.443644297039E+03   -0.53080E-06   -0.97350E-07  2120   0.329E-03
  23 F= -.44364430E+03 E0= -.44364430E+03  d E =-.407373E-12
       N       E                     dE             d eps       ncg     rms          rms(c)
DAV:   1    -0.444517101155E+03   -0.87280E+00   -0.60690E+01  3296   0.142E+01    0.746E+00
DAV:   2    -0.443994417676E+03    0.52268E+00   -0.16372E+00  3808   0.273E+00    0.405E+00
DAV:   3    -0.443712642490E+03    0.28178E+00   -0.19623E-01  3960   0.780E-01    0.207E+00
DAV:   4    -0.443643026323E+03    0.69616E-01   -0.11374E-01  4400   0.678E-01    0.386E-01
DAV:   5    -0.443644047079E+03   -0.10208E-02   -0.17875E-02  3600   0.312E-01    0.364E-01
DAV:   6    -0.443644186833E+03   -0.13975E-03   -0.14974E-03  4056   0.661E-02    0.161E-01
DAV:   7    -0.443644247410E+03   -0.60577E-04   -0.13144E-04  3904   0.297E-02    0.608E-02
DAV:   8    -0.443644288815E+03   -0.41405E-04   -0.96156E-05  4184   0.185E-02    0.191E-02
DAV:   9    -0.443644294442E+03   -0.56270E-05   -0.11643E-05  3696   0.752E-03    0.154E-02
DAV:  10    -0.443644296441E+03   -0.19991E-05   -0.27270E-06  2688   0.474E-03    0.603E-03
DAV:  11    -0.443644296968E+03   -0.52671E-06   -0.18633E-06  2448   0.286E-03
  24 F= -.44364430E+03 E0= -.44364430E+03  d E =-.363594E-12
       N       E                     dE             d eps       ncg     rms          rms(c)
DAV:   1    -0.443728223519E+03   -0.83927E-01   -0.15174E+01  3304   0.709E+00    0.373E+00
DAV:   2    -0.443597321521E+03    0.13090E+00   -0.40686E-01  3800   0.140E+00    0.203E+00
DAV:   3    -0.443526805945E+03    0.70516E-01   -0.49686E-02  4128   0.459E-01    0.103E+00
DAV:   4    -0.443509507031E+03    0.17299E-01   -0.28937E-02  4368   0.374E-01    0.195E-01
DAV:   5    -0.443509862153E+03   -0.35512E-03   -0.55537E-03  3600   0.183E-01    0.179E-01
DAV:   6    -0.443509900575E+03   -0.38422E-04   -0.39196E-04  4232   0.376E-02    0.785E-02
DAV:   7    -0.443509915600E+03   -0.15025E-04   -0.36136E-05  4000   0.150E-02    0.324E-02
DAV:   8    -0.443509926835E+03   -0.11235E-04   -0.24792E-05  3800   0.993E-03    0.102E-02
DAV:   9    -0.443509928315E+03   -0.14808E-05   -0.37919E-06  2816   0.439E-03    0.817E-03
DAV:  10    -0.443509928787E+03   -0.47175E-06   -0.92177E-07  2104   0.337E-03
  25 F= -.44350993E+03 E0= -.44350993E+03  d E =-.438502E-12
       N       E                     dE             d eps       ncg     rms          rms(c)
DAV:   1    -0.444552055413E+03   -0.10421E+01   -0.64165E+01  3288   0.144E+01    0.746E+00
DAV:   2    -0.444037603430E+03    0.51445E+00   -0.17219E+00  3808   0.277E+00    0.405E+00
DAV:   3    -0.443756054943E+03    0.28155E+00   -0.20089E-01  4032   0.804E-01    0.207E+00
DAV:   4    -0.443686888128E+03    0.69167E-01   -0.11324E-01  4360   0.670E-01    0.391E-01
DAV:   5    -0.443687913042E+03   -0.10249E-02   -0.17885E-02  3616   0.311E-01    0.368E-01
DAV:   6    -0.443688049808E+03   -0.13677E-03   -0.14692E-03  4016   0.648E-02    0.168E-01
DAV:   7    -0.443688110320E+03   -0.60512E-04   -0.12972E-04  3768   0.290E-02    0.642E-02
DAV:   8    -0.443688152921E+03   -0.42601E-04   -0.92950E-05  4208   0.181E-02    0.197E-02
DAV:   9    -0.443688158937E+03   -0.60161E-05   -0.10715E-05  3672   0.754E-03    0.147E-02
DAV:  10    -0.443688161211E+03   -0.22736E-05   -0.31090E-06  2856   0.482E-03    0.553E-03
DAV:  11    -0.443688161653E+03   -0.44220E-06   -0.15046E-06  2304   0.254E-03
  26 F= -.44368816E+03 E0= -.44368816E+03  d E =-.349976E-12
       N       E                     dE             d eps       ncg     rms          rms(c)
DAV:   1    -0.443687510680E+03    0.65053E-03   -0.87033E-01  3472   0.481E-01    0.531E-02
DAV:   2    -0.443688798673E+03   -0.12880E-02   -0.13013E-02  3456   0.704E-02    0.145E-02
DAV:   3    -0.443688838398E+03   -0.39725E-04   -0.43922E-04  4088   0.196E-02    0.134E-02
DAV:   4    -0.443688841152E+03   -0.27542E-05   -0.37330E-05  3312   0.636E-03    0.107E-02
DAV:   5    -0.443688840821E+03    0.33165E-06   -0.16446E-06  2312   0.226E-03
  27 F= -.44368884E+03 E0= -.44368884E+03  d E =-.307540E-12
       N       E                     dE             d eps       ncg     rms          rms(c)
DAV:   1    -0.443683194237E+03    0.56469E-02   -0.34982E+00  3408   0.991E-01    0.110E-01
DAV:   2    -0.443688691301E+03   -0.54971E-02   -0.56087E-02  3656   0.166E-01    0.396E-02
DAV:   3    -0.443688821336E+03   -0.13003E-03   -0.17062E-03  4288   0.464E-02    0.283E-02
DAV:   4    -0.443688829776E+03   -0.84400E-05   -0.14884E-04  3544   0.160E-02    0.216E-02
DAV:   5    -0.443688827362E+03    0.24136E-05   -0.48821E-06  3544   0.656E-03    0.151E-02
DAV:   6    -0.443688823663E+03    0.36985E-05   -0.84678E-06  3472   0.199E-02    0.526E-03
DAV:   7    -0.443688824129E+03   -0.46573E-06   -0.11034E-05  3640   0.693E-03    0.716E-03
DAV:   8    -0.443688824495E+03   -0.36562E-06   -0.50131E-06  3136   0.333E-03
  28 F= -.44368882E+03 E0= -.44368882E+03  d E =-.286927E-12
       N       E                     dE             d eps       ncg     rms          rms(c)
DAV:   1    -0.443686772674E+03    0.20515E-02   -0.87069E-01  3392   0.494E-01    0.552E-02
DAV:   2    -0.443688030182E+03   -0.12575E-02   -0.12714E-02  3472   0.707E-02    0.144E-02
DAV:   3    -0.443688068193E+03   -0.38011E-04   -0.41374E-04  4032   0.187E-02    0.125E-02
DAV:   4    -0.443688070535E+03   -0.23425E-05   -0.32398E-05  3336   0.621E-03    0.100E-02
DAV:   5    -0.443688070300E+03    0.23584E-06   -0.16683E-06  2296   0.215E-03
  29 F= -.44368807E+03 E0= -.44368807E+03  d E =-.349666E-12
       N       E                     dE             d eps       ncg     rms          rms(c)
DAV:   1    -0.443675985297E+03    0.12085E-01   -0.70417E+00  3392   0.136E+00    0.153E-01
DAV:   2    -0.443687556221E+03   -0.11571E-01   -0.11824E-01  3640   0.231E-01    0.469E-02
DAV:   3    -0.443687871575E+03   -0.31535E-03   -0.37265E-03  4248   0.557E-02    0.357E-02
DAV:   4    -0.443687890563E+03   -0.18989E-04   -0.27648E-04  3800   0.142E-02    0.285E-02
DAV:   5    -0.443687886838E+03    0.37258E-05   -0.40233E-06  3048   0.593E-03    0.195E-02
DAV:   6    -0.443687883908E+03    0.29301E-05   -0.19161E-05  3560   0.204E-02    0.733E-03
DAV:   7    -0.443687884948E+03   -0.10405E-05   -0.12470E-05  3456   0.473E-03    0.581E-03
DAV:   8    -0.443687885106E+03   -0.15752E-06   -0.89778E-07  2368   0.271E-03
  30 F= -.44368789E+03 E0= -.44368789E+03  d E =-.255754E-12
       N       E                     dE             d eps       ncg     rms          rms(c)
DAV:   1    -0.443687731131E+03    0.15382E-03   -0.87266E-01  3408   0.449E-01    0.439E-02
DAV:   2    -0.443688674705E+03   -0.94357E-03   -0.95238E-03  3312   0.587E-02    0.112E-02
DAV:   3    -0.443688700060E+03   -0.25354E-04   -0.27315E-04  3984   0.124E-02    0.913E-03
DAV:   4    -0.443688701252E+03   -0.11920E-05   -0.16084E-05  2776   0.347E-03    0.639E-03
DAV:   5    -0.443688701150E+03    0.10125E-06   -0.77739E-07  2360   0.210E-03
  31 F= -.44368870E+03 E0= -.44368870E+03  d E =-.248929E-12
       N       E                     dE             d eps       ncg     rms          rms(c)
DAV:   1    -0.443683622531E+03    0.50787E-02   -0.34955E+00  3408   0.933E-01    0.105E-01
DAV:   2    -0.443688888635E+03   -0.52661E-02   -0.53692E-02  3368   0.152E-01    0.296E-02
DAV:   3    -0.443689024219E+03   -0.13558E-03   -0.15382E-03  4184   0.345E-02    0.233E-02
DAV:   4    -0.443689032677E+03   -0.84580E-05   -0.11419E-04  3560   0.991E-03    0.174E-02
DAV:   5    -0.443689031273E+03    0.14039E-05   -0.28475E-06  2760   0.547E-03    0.118E-02
DAV:   6    -0.443689030088E+03    0.11849E-05   -0.86894E-06  3352   0.146E-02    0.561E-03
DAV:   7    -0.443689030537E+03   -0.44968E-06   -0.65875E-06  3456   0.356E-03
  32 F= -.44368903E+03 E0= -.44368903E+03  d E =-.241554E-12
       N       E                     dE             d eps       ncg     rms          rms(c)
DAV:   1    -0.443687515387E+03    0.15147E-02   -0.87261E-01  3392   0.470E-01    0.468E-02
DAV:   2    -0.443688482765E+03   -0.96738E-03   -0.97751E-03  3328   0.600E-02    0.120E-02
DAV:   3    -0.443688510790E+03   -0.28025E-04   -0.30273E-04  3984   0.134E-02    0.933E-03
DAV:   4    -0.443688512576E+03   -0.17857E-05   -0.21858E-05  2936   0.409E-03    0.669E-03
DAV:   5    -0.443688512471E+03    0.10521E-06   -0.90347E-07  2424   0.246E-03
  33 F= -.44368851E+03 E0= -.44368851E+03  d E =-.248439E-12
       N       E                     dE             d eps       ncg     rms          rms(c)
DAV:   1    -0.443675914964E+03    0.12598E-01   -0.70374E+00  3352   0.138E+00    0.153E-01
DAV:   2    -0.443687548089E+03   -0.11633E-01   -0.11906E-01  3496   0.239E-01    0.509E-02
DAV:   3    -0.443687842204E+03   -0.29411E-03   -0.36391E-03  4200   0.562E-02    0.356E-02
DAV:   4    -0.443687857550E+03   -0.15347E-04   -0.24489E-04  3920   0.134E-02    0.263E-02
DAV:   5    -0.443687854216E+03    0.33341E-05   -0.45342E-06  3160   0.620E-03    0.169E-02
DAV:   6    -0.443687852299E+03    0.19175E-05   -0.15181E-05  3656   0.158E-02    0.536E-03
DAV:   7    -0.443687853060E+03   -0.76159E-06   -0.88087E-06  3344   0.414E-03
  34 F= -.44368785E+03 E0= -.44368785E+03  d E =-.236689E-12
       N       E                     dE             d eps       ncg     rms          rms(c)
DAV:   1    -0.443687411739E+03    0.44056E-03   -0.87122E-01  3392   0.508E-01    0.529E-02
DAV:   2    -0.443688669174E+03   -0.12574E-02   -0.12718E-02  3368   0.724E-02    0.133E-02
DAV:   3    -0.443688706285E+03   -0.37111E-04   -0.39686E-04  3864   0.149E-02    0.129E-02
DAV:   4    -0.443688708248E+03   -0.19638E-05   -0.26236E-05  2744   0.416E-03    0.929E-03
DAV:   5    -0.443688708049E+03    0.19933E-06   -0.10985E-06  2232   0.198E-03
  35 F= -.44368871E+03 E0= -.44368871E+03  d E =-.237962E-12
       N       E                     dE             d eps       ncg     rms          rms(c)
DAV:   1    -0.443683421216E+03    0.52870E-02   -0.35019E+00  3376   0.101E+00    0.114E-01
DAV:   2    -0.443688816433E+03   -0.53952E-02   -0.55011E-02  3440   0.162E-01    0.323E-02
DAV:   3    -0.443688971447E+03   -0.15501E-03   -0.17996E-03  4152   0.350E-02    0.268E-02
DAV:   4    -0.443688979960E+03   -0.85131E-05   -0.12618E-04  3648   0.975E-03    0.193E-02
DAV:   5    -0.443688978695E+03    0.12649E-05   -0.28620E-06  2560   0.392E-03    0.139E-02
DAV:   6    -0.443688978069E+03    0.62610E-06   -0.99821E-06  3640   0.130E-02
  36 F= -.44368898E+03 E0= -.44368898E+03  d E =-.243746E-12
       N       E                     dE             d eps       ncg     rms          rms(c)
DAV:   1    -0.443687085514E+03    0.18932E-02   -0.87160E-01  3416   0.519E-01    0.572E-02
DAV:   2    -0.443688354376E+03   -0.12689E-02   -0.12836E-02  3384   0.732E-02    0.144E-02
DAV:   3    -0.443688391496E+03   -0.37121E-04   -0.40402E-04  3888   0.167E-02    0.127E-02
DAV:   4    -0.443688394071E+03   -0.25753E-05   -0.31446E-05  2856   0.467E-03    0.925E-03
DAV:   5    -0.443688393927E+03    0.14383E-06   -0.10826E-06  2184   0.236E-03
  37 F= -.44368839E+03 E0= -.44368839E+03  d E =-.252005E-12
       N       E                     dE             d eps       ncg     rms          rms(c)
DAV:   1    -0.443677235824E+03    0.11158E-01   -0.70002E+00  3800   0.173E+00    0.163E-01
DAV:   2    -0.443688097091E+03   -0.10861E-01   -0.11039E-01  3680   0.277E-01    0.470E-02
DAV:   3    -0.443688408833E+03   -0.31174E-03   -0.36065E-03  4400   0.692E-02    0.401E-02
DAV:   4    -0.443688426549E+03   -0.17716E-04   -0.26425E-04  3760   0.182E-02    0.304E-02
DAV:   5    -0.443688423680E+03    0.28689E-05   -0.80521E-06  3336   0.578E-03    0.236E-02
DAV:   6    -0.443688419359E+03    0.43203E-05   -0.98680E-06  3864   0.176E-02    0.922E-03
DAV:   7    -0.443688419343E+03    0.16473E-07   -0.11629E-05  4088   0.121E-02    0.715E-03
DAV:   8    -0.443688420022E+03   -0.67952E-06   -0.97108E-06  3552   0.536E-03
  38 F= -.44368842E+03 E0= -.44368842E+03  d E =-.331503E-12
       N       E                     dE             d eps       ncg     rms          rms(c)
DAV:   1    -0.443687629602E+03    0.78974E-03   -0.87113E-01  3456   0.417E-01    0.509E-02
DAV:   2    -0.443688865587E+03   -0.12360E-02   -0.12451E-02  3496   0.583E-02    0.130E-02
DAV:   3    -0.443688902957E+03   -0.37370E-04   -0.39949E-04  4016   0.145E-02    0.136E-02
DAV:   4    -0.443688904435E+03   -0.14776E-05   -0.23821E-05  3352   0.448E-03    0.104E-02
DAV:   5    -0.443688904135E+03    0.29944E-06   -0.12061E-06  2208   0.167E-03
  39 F= -.44368890E+03 E0= -.44368890E+03  d E =-.298814E-12
       N       E                     dE             d eps       ncg     rms          rms(c)
DAV:   1    -0.443683501360E+03    0.54031E-02   -0.35014E+00  3432   0.857E-01    0.106E-01
DAV:   2    -0.443688743466E+03   -0.52421E-02   -0.53033E-02  3624   0.129E-01    0.300E-02
DAV:   3    -0.443688902788E+03   -0.15932E-03   -0.17679E-03  4200   0.365E-02    0.266E-02
DAV:   4    -0.443688910578E+03   -0.77899E-05   -0.12584E-04  3552   0.131E-02    0.210E-02
DAV:   5    -0.443688908957E+03    0.16205E-05   -0.60748E-06  3400   0.457E-03    0.161E-02
DAV:   6    -0.443688906296E+03    0.26615E-05   -0.44552E-06  3352   0.123E-02    0.614E-03
DAV:   7    -0.443688905905E+03    0.39091E-06   -0.78913E-06  3752   0.104E-02
  40 F= -.44368891E+03 E0= -.44368891E+03  d E =-.276211E-12
       N       E                     dE             d eps       ncg     rms          rms(c)
DAV:   1    -0.443687166085E+03    0.17402E-02   -0.87314E-01  3552   0.418E-01    0.539E-02
DAV:   2    -0.443688223503E+03   -0.10574E-02   -0.10671E-02  3496   0.577E-02    0.132E-02
DAV:   3    -0.443688256428E+03   -0.32926E-04   -0.35187E-04  4024   0.148E-02    0.119E-02
DAV:   4    -0.443688257854E+03   -0.14250E-05   -0.22526E-05  3368   0.489E-03    0.939E-03
DAV:   5    -0.443688257645E+03    0.20808E-06   -0.13005E-06  2264   0.177E-03
  41 F= -.44368826E+03 E0= -.44368826E+03  d E =-.321485E-12
       N       E                     dE             d eps       ncg     rms          rms(c)
DAV:   1    -0.443676546036E+03    0.11712E-01   -0.70483E+00  3360   0.122E+00    0.148E-01
DAV:   2    -0.443687809133E+03   -0.11263E-01   -0.11411E-01  3568   0.183E-01    0.342E-02
DAV:   3    -0.443688180725E+03   -0.37159E-03   -0.38586E-03  4200   0.428E-02    0.359E-02
DAV:   4    -0.443688196676E+03   -0.15952E-04   -0.21828E-04  3456   0.125E-02    0.289E-02
DAV:   5    -0.443688194444E+03    0.22325E-05   -0.87956E-06  2920   0.433E-03    0.232E-02
DAV:   6    -0.443688192667E+03    0.17773E-05   -0.12604E-05  3424   0.140E-02    0.688E-03
DAV:   7    -0.443688193709E+03   -0.10424E-05   -0.10870E-05  3768   0.583E-03    0.847E-03
DAV:   8    -0.443688193864E+03   -0.15525E-06   -0.40886E-06  3168   0.342E-03
  42 F= -.44368819E+03 E0= -.44368819E+03  d E =-.272537E-12
       N       E                     dE             d eps       ncg     rms          rms(c)
DAV:   1    -0.443687581788E+03    0.61192E-03   -0.86990E-01  3504   0.438E-01    0.493E-02
DAV:   2    -0.443688817478E+03   -0.12357E-02   -0.12530E-02  3416   0.613E-02    0.119E-02
DAV:   3    -0.443688854438E+03   -0.36960E-04   -0.39054E-04  3992   0.141E-02    0.117E-02
DAV:   4    -0.443688856136E+03   -0.16985E-05   -0.23021E-05  2792   0.371E-03    0.906E-03
DAV:   5    -0.443688855895E+03    0.24099E-06   -0.10995E-06  2368   0.181E-03
  43 F= -.44368886E+03 E0= -.44368886E+03  d E =-.256251E-12
       N       E                     dE             d eps       ncg     rms          rms(c)
DAV:   1    -0.443683421490E+03    0.54346E-02   -0.34961E+00  3480   0.888E-01    0.104E-01
DAV:   2    -0.443688724089E+03   -0.53026E-02   -0.53926E-02  3528   0.133E-01    0.270E-02
DAV:   3    -0.443688878056E+03   -0.15397E-03   -0.16639E-03  4232   0.315E-02    0.231E-02
DAV:   4    -0.443688887282E+03   -0.92261E-05   -0.11916E-04  3512   0.940E-03    0.177E-02
DAV:   5    -0.443688886016E+03    0.12654E-05   -0.43369E-06  2728   0.428E-03    0.131E-02
DAV:   6    -0.443688884661E+03    0.13551E-05   -0.82651E-06  3576   0.125E-02    0.534E-03
DAV:   7    -0.443688885116E+03   -0.45473E-06   -0.63045E-06  3456   0.311E-03
  44 F= -.44368889E+03 E0= -.44368889E+03  d E =-.242441E-12
       N       E                     dE             d eps       ncg     rms          rms(c)
DAV:   1    -0.443686949961E+03    0.19347E-02   -0.86983E-01  3480   0.424E-01    0.527E-02
DAV:   2    -0.443688200058E+03   -0.12501E-02   -0.12682E-02  3408   0.610E-02    0.126E-02
DAV:   3    -0.443688235151E+03   -0.35094E-04   -0.37263E-04  4080   0.141E-02    0.108E-02
DAV:   4    -0.443688236736E+03   -0.15847E-05   -0.21667E-05  2904   0.398E-03    0.782E-03
DAV:   5    -0.443688236576E+03    0.16054E-06   -0.11377E-06  2344   0.204E-03
  45 F= -.44368824E+03 E0= -.44368824E+03  d E =-.249845E-12
       N       E                     dE             d eps       ncg     rms          rms(c)
DAV:   1    -0.443676775721E+03    0.11461E-01   -0.70415E+00  3472   0.125E+00    0.150E-01
DAV:   2    -0.443688186992E+03   -0.11411E-01   -0.11615E-01  3584   0.183E-01    0.412E-02
DAV:   3    -0.443688495666E+03   -0.30867E-03   -0.34276E-03  4352   0.445E-02    0.353E-02
DAV:   4    -0.443688509425E+03   -0.13760E-04   -0.19836E-04  3688   0.109E-02    0.266E-02
DAV:   5    -0.443688507111E+03    0.23140E-05   -0.62943E-06  2944   0.469E-03    0.196E-02
DAV:   6    -0.443688505919E+03    0.11924E-05   -0.15683E-05  3536   0.127E-02    0.573E-03
DAV:   7    -0.443688506573E+03   -0.65357E-06   -0.75506E-06  3496   0.341E-03
  46 F= -.44368851E+03 E0= -.44368851E+03  d E =-.285842E-12
       N       E                     dE             d eps       ncg     rms          rms(c)
DAV:   1    -0.443687742865E+03    0.76305E-03   -0.87161E-01  3488   0.424E-01    0.524E-02
DAV:   2    -0.443688986146E+03   -0.12433E-02   -0.12540E-02  3440   0.572E-02    0.122E-02
DAV:   3    -0.443689021796E+03   -0.35650E-04   -0.37287E-04  3920   0.107E-02    0.130E-02
DAV:   4    -0.443689023013E+03   -0.12170E-05   -0.18090E-05  2784   0.274E-03    0.927E-03
DAV:   5    -0.443689022926E+03    0.86446E-07   -0.95443E-07  2064   0.105E-03
  47 F= -.44368902E+03 E0= -.44368902E+03  d E =-.264738E-12
       N       E                     dE             d eps       ncg     rms          rms(c)
DAV:   1    -0.443683272628E+03    0.57504E-02   -0.35039E+00  3464   0.861E-01    0.110E-01
DAV:   2    -0.443688516454E+03   -0.52438E-02   -0.53023E-02  3496   0.123E-01    0.259E-02
DAV:   3    -0.443688670701E+03   -0.15425E-03   -0.16265E-03  4088   0.260E-02    0.259E-02
DAV:   4    -0.443688677627E+03   -0.69259E-05   -0.92965E-05  3360   0.729E-03    0.188E-02
DAV:   5    -0.443688677186E+03    0.44097E-06   -0.38686E-06  2520   0.286E-03
  48 F= -.44368868E+03 E0= -.44368868E+03  d E =-.231381E-12
       N       E                     dE             d eps       ncg     rms          rms(c)
DAV:   1    -0.443686510502E+03    0.21671E-02   -0.87190E-01  3472   0.461E-01    0.542E-02
DAV:   2    -0.443687758141E+03   -0.12476E-02   -0.12577E-02  3504   0.594E-02    0.135E-02
DAV:   3    -0.443687794790E+03   -0.36650E-04   -0.38309E-04  3952   0.123E-02    0.127E-02
DAV:   4    -0.443687796431E+03   -0.16404E-05   -0.20476E-05  2808   0.330E-03    0.890E-03
DAV:   5    -0.443687796493E+03   -0.61991E-07   -0.11331E-06  2160   0.163E-03
  49 F= -.44368780E+03 E0= -.44368780E+03  d E =-.229045E-12
       N       E                     dE             d eps       ncg     rms          rms(c)
DAV:   1    -0.443677719175E+03    0.10077E-01   -0.70000E+00  3768   0.166E+00    0.162E-01
DAV:   2    -0.443688597437E+03   -0.10878E-01   -0.11051E-01  3696   0.251E-01    0.421E-02
DAV:   3    -0.443688935279E+03   -0.33784E-03   -0.37063E-03  4280   0.585E-02    0.398E-02
DAV:   4    -0.443688952429E+03   -0.17151E-04   -0.25695E-04  3504   0.177E-02    0.305E-02
DAV:   5    -0.443688949748E+03    0.26814E-05   -0.10078E-05  2984   0.556E-03    0.246E-02
DAV:   6    -0.443688945508E+03    0.42404E-05   -0.79424E-06  3632   0.157E-02    0.107E-02
DAV:   7    -0.443688945181E+03    0.32708E-06   -0.12486E-05  3760   0.141E-02    0.797E-03
DAV:   8    -0.443688945991E+03   -0.80999E-06   -0.12066E-05  3464   0.610E-03    0.572E-03
DAV:   9    -0.443688945959E+03    0.31599E-07   -0.10214E-06  2136   0.198E-03
  50 F= -.44368895E+03 E0= -.44368895E+03  d E =-.295419E-12
       N       E                     dE             d eps       ncg     rms          rms(c)
DAV:   1    -0.443688062240E+03    0.88375E-03   -0.87173E-01  3472   0.475E-01    0.500E-02
DAV:   2    -0.443689227060E+03   -0.11648E-02   -0.11775E-02  3504   0.713E-02    0.138E-02
DAV:   3    -0.443689259813E+03   -0.32753E-04   -0.36423E-04  4120   0.172E-02    0.128E-02
DAV:   4    -0.443689261426E+03   -0.16131E-05   -0.25351E-05  3400   0.550E-03    0.982E-03
DAV:   5    -0.443689261111E+03    0.31524E-06   -0.12457E-06  2288   0.203E-03
  51 F= -.44368926E+03 E0= -.44368926E+03  d E =-.271535E-12
       N       E                     dE             d eps       ncg     rms          rms(c)
DAV:   1    -0.443682895183E+03    0.63662E-02   -0.34994E+00  3440   0.981E-01    0.107E-01
DAV:   2    -0.443688293796E+03   -0.53986E-02   -0.54864E-02  3792   0.155E-01    0.333E-02
DAV:   3    -0.443688430440E+03   -0.13664E-03   -0.16364E-03  4272   0.394E-02    0.266E-02
DAV:   4    -0.443688436751E+03   -0.63107E-05   -0.11819E-04  3600   0.136E-02    0.207E-02
DAV:   5    -0.443688434652E+03    0.20988E-05   -0.54220E-06  3528   0.544E-03    0.153E-02
DAV:   6    -0.443688431434E+03    0.32183E-05   -0.55166E-06  3432   0.137E-02    0.524E-03
DAV:   7    -0.443688431225E+03    0.20906E-06   -0.87622E-06  3872   0.874E-03
  52 F= -.44368843E+03 E0= -.44368843E+03  d E =-.292866E-12
       N       E                     dE             d eps       ncg     rms          rms(c)
DAV:   1    -0.443686101983E+03    0.23295E-02   -0.87106E-01  3512   0.443E-01    0.540E-02
DAV:   2    -0.443687339791E+03   -0.12378E-02   -0.12480E-02  3544   0.655E-02    0.140E-02
DAV:   3    -0.443687377496E+03   -0.37705E-04   -0.40489E-04  4120   0.167E-02    0.118E-02
DAV:   4    -0.443687379375E+03   -0.18788E-05   -0.27480E-05  3400   0.547E-03    0.950E-03
DAV:   5    -0.443687379126E+03    0.24887E-06   -0.14499E-06  2272   0.190E-03
  53 F= -.44368738E+03 E0= -.44368738E+03  d E =-.364179E-12
       N       E                     dE             d eps       ncg     rms          rms(c)
DAV:   1    -0.443676702029E+03    0.10677E-01   -0.70489E+00  3360   0.124E+00    0.150E-01
DAV:   2    -0.443687790341E+03   -0.11088E-01   -0.11269E-01  3680   0.189E-01    0.373E-02
DAV:   3    -0.443688133259E+03   -0.34292E-03   -0.36945E-03  4328   0.422E-02    0.362E-02
DAV:   4    -0.443688147189E+03   -0.13930E-04   -0.20678E-04  3704   0.113E-02    0.286E-02
DAV:   5    -0.443688144555E+03    0.26335E-05   -0.77630E-06  2976   0.430E-03    0.215E-02
DAV:   6    -0.443688142328E+03    0.22275E-05   -0.14383E-05  3544   0.146E-02    0.664E-03
DAV:   7    -0.443688143288E+03   -0.96000E-06   -0.11202E-05  3712   0.477E-03    0.713E-03
DAV:   8    -0.443688143439E+03   -0.15151E-06   -0.21886E-06  2688   0.238E-03
  54 F= -.44368814E+03 E0= -.44368814E+03  d E =-.316598E-12
       N       E                     dE             d eps       ncg     rms          rms(c)
DAV:   1    -0.443687676032E+03    0.46726E-03   -0.87081E-01  3496   0.441E-01    0.498E-02
DAV:   2    -0.443688819478E+03   -0.11434E-02   -0.11605E-02  3472   0.572E-02    0.116E-02
DAV:   3    -0.443688852666E+03   -0.33187E-04   -0.35088E-04  4120   0.118E-02    0.116E-02
DAV:   4    -0.443688853918E+03   -0.12521E-05   -0.18381E-05  2848   0.324E-03    0.865E-03
DAV:   5    -0.443688853742E+03    0.17552E-06   -0.98889E-07  2192   0.142E-03
  55 F= -.44368885E+03 E0= -.44368885E+03  d E =-.280021E-12
       N       E                     dE             d eps       ncg     rms          rms(c)
DAV:   1    -0.443683616415E+03    0.52375E-02   -0.34983E+00  3512   0.873E-01    0.105E-01
DAV:   2    -0.443688708869E+03   -0.50925E-02   -0.51810E-02  3552   0.126E-01    0.287E-02
DAV:   3    -0.443688825039E+03   -0.11617E-03   -0.13150E-03  4272   0.286E-02    0.228E-02
DAV:   4    -0.443688831609E+03   -0.65707E-05   -0.92949E-05  3672   0.855E-03    0.164E-02
DAV:   5    -0.443688830502E+03    0.11076E-05   -0.32125E-06  2880   0.491E-03    0.113E-02
DAV:   6    -0.443688829445E+03    0.10566E-05   -0.65540E-06  3480   0.113E-02    0.457E-03
DAV:   7    -0.443688829858E+03   -0.41325E-06   -0.57857E-06  3448   0.306E-03
  56 F= -.44368883E+03 E0= -.44368883E+03  d E =-.231725E-12
       N       E                     dE             d eps       ncg     rms          rms(c)
DAV:   1    -0.443686927894E+03    0.19016E-02   -0.87096E-01  3504   0.443E-01    0.530E-02
DAV:   2    -0.443688066277E+03   -0.11384E-02   -0.11539E-02  3488   0.597E-02    0.120E-02
DAV:   3    -0.443688099975E+03   -0.33698E-04   -0.35559E-04  4080   0.127E-02    0.109E-02
DAV:   4    -0.443688101388E+03   -0.14128E-05   -0.19604E-05  2992   0.358E-03    0.810E-03
DAV:   5    -0.443688101255E+03    0.13303E-06   -0.10212E-06  2224   0.155E-03
  57 F= -.44368810E+03 E0= -.44368810E+03  d E =-.228499E-12
       N       E                     dE             d eps       ncg     rms          rms(c)
DAV:   1    -0.443676374265E+03    0.11727E-01   -0.70447E+00  3440   0.131E+00    0.154E-01
DAV:   2    -0.443687362498E+03   -0.10988E-01   -0.11209E-01  3656   0.218E-01    0.432E-02
DAV:   3    -0.443687703537E+03   -0.34104E-03   -0.38371E-03  4272   0.505E-02    0.364E-02
DAV:   4    -0.443687720512E+03   -0.16975E-04   -0.24620E-04  3904   0.119E-02    0.274E-02
DAV:   5    -0.443687717526E+03    0.29866E-05   -0.52979E-06  2848   0.421E-03    0.207E-02
DAV:   6    -0.443687714985E+03    0.25403E-05   -0.18374E-05  3712   0.156E-02    0.577E-03
DAV:   7    -0.443687715730E+03   -0.74436E-06   -0.90410E-06  3656   0.390E-03
  58 F= -.44368772E+03 E0= -.44368772E+03  d E =-.236277E-12
       N       E                     dE             d eps       ncg     rms          rms(c)
DAV:   1    -0.443687381410E+03    0.33358E-03   -0.87186E-01  3488   0.472E-01    0.519E-02
DAV:   2    -0.443688589249E+03   -0.12078E-02   -0.12189E-02  3488   0.654E-02    0.124E-02
DAV:   3    -0.443688624939E+03   -0.35690E-04   -0.37628E-04  4016   0.126E-02    0.129E-02
DAV:   4    -0.443688626300E+03   -0.13608E-05   -0.19742E-05  2760   0.335E-03    0.919E-03
DAV:   5    -0.443688626171E+03    0.12834E-06   -0.98948E-07  2160   0.138E-03
  59 F= -.44368863E+03 E0= -.44368863E+03  d E =-.236046E-12
       N       E                     dE             d eps       ncg     rms          rms(c)
DAV:   1    -0.443683637178E+03    0.49891E-02   -0.35033E+00  3480   0.979E-01    0.111E-01
DAV:   2    -0.443688932350E+03   -0.52952E-02   -0.53687E-02  3640   0.147E-01    0.281E-02
DAV:   3    -0.443689083083E+03   -0.15073E-03   -0.16460E-03  4240   0.293E-02    0.263E-02
DAV:   4    -0.443689090126E+03   -0.70424E-05   -0.10041E-04  3576   0.778E-03    0.188E-02
DAV:   5    -0.443689089404E+03    0.72218E-06   -0.37757E-06  2400   0.294E-03
  60 F= -.44368909E+03 E0= -.44368909E+03  d E =-.244454E-12
       N       E                     dE             d eps       ncg     rms          rms(c)
DAV:   1    -0.443687277845E+03    0.18123E-02   -0.87132E-01  3496   0.473E-01    0.553E-02
DAV:   2    -0.443688575270E+03   -0.12974E-02   -0.13105E-02  3568   0.699E-02    0.142E-02
DAV:   3    -0.443688613757E+03   -0.38487E-04   -0.41046E-04  4080   0.140E-02    0.128E-02
DAV:   4    -0.443688615862E+03   -0.21052E-05   -0.25963E-05  2784   0.399E-03    0.916E-03
DAV:   5    -0.443688615816E+03    0.46319E-07   -0.12213E-06  2176   0.195E-03
  61 F= -.44368862E+03 E0= -.44368862E+03  d E =-.270452E-12
       N       E                     dE             d eps       ncg     rms          rms(c)
DAV:   1    -0.443676593112E+03    0.12023E-01   -0.69964E+00  3752   0.182E+00    0.168E-01
DAV:   2    -0.443687807104E+03   -0.11214E-01   -0.11445E-01  3832   0.297E-01    0.542E-02
DAV:   3    -0.443688028697E+03   -0.22159E-03   -0.29698E-03  4448   0.756E-02    0.407E-02
DAV:   4    -0.443688042577E+03   -0.13880E-04   -0.23920E-04  3976   0.185E-02    0.305E-02
DAV:   5    -0.443688039174E+03    0.34028E-05   -0.63655E-06  3480   0.643E-03    0.226E-02
DAV:   6    -0.443688034197E+03    0.49774E-05   -0.12936E-05  3904   0.218E-02    0.750E-03
DAV:   7    -0.443688034657E+03   -0.45975E-06   -0.12439E-05  4216   0.925E-03    0.690E-03
DAV:   8    -0.443688035147E+03   -0.49046E-06   -0.68754E-06  3528   0.415E-03
  62 F= -.44368804E+03 E0= -.44368804E+03  d E =-.357319E-12
       N       E                     dE             d eps       ncg     rms          rms(c)
DAV:   1    -0.443687472312E+03    0.56234E-03   -0.87074E-01  3440   0.479E-01    0.511E-02
DAV:   2    -0.443688708291E+03   -0.12360E-02   -0.12484E-02  3368   0.700E-02    0.140E-02
DAV:   3    -0.443688746094E+03   -0.37803E-04   -0.41010E-04  4016   0.174E-02    0.133E-02
DAV:   4    -0.443688748098E+03   -0.20039E-05   -0.29461E-05  3320   0.560E-03    0.102E-02
DAV:   5    -0.443688747746E+03    0.35247E-06   -0.13978E-06  2360   0.220E-03
  63 F= -.44368875E+03 E0= -.44368875E+03  d E =-.308720E-12
       N       E                     dE             d eps       ncg     rms          rms(c)
DAV:   1    -0.443683378993E+03    0.53691E-02   -0.34977E+00  3464   0.968E-01    0.109E-01
DAV:   2    -0.443688876977E+03   -0.54980E-02   -0.55997E-02  3704   0.162E-01    0.398E-02
DAV:   3    -0.443688982588E+03   -0.10561E-03   -0.14404E-03  4288   0.438E-02    0.276E-02
DAV:   4    -0.443688989322E+03   -0.67345E-05   -0.12748E-04  3520   0.156E-02    0.205E-02
DAV:   5    -0.443688987076E+03    0.22460E-05   -0.49295E-06  3312   0.690E-03    0.140E-02
DAV:   6    -0.443688983870E+03    0.32066E-05   -0.72714E-06  3352   0.180E-02    0.511E-03
DAV:   7    -0.443688984365E+03   -0.49520E-06   -0.10668E-05  3656   0.627E-03    0.665E-03
DAV:   8    -0.443688984690E+03   -0.32558E-06   -0.44052E-06  3120   0.301E-03
  64 F= -.44368898E+03 E0= -.44368898E+03  d E =-.287251E-12
       N       E                     dE             d eps       ncg     rms          rms(c)
DAV:   1    -0.443687228940E+03    0.17554E-02   -0.87165E-01  3440   0.494E-01    0.533E-02
DAV:   2    -0.443688377917E+03   -0.11490E-02   -0.11605E-02  3384   0.684E-02    0.138E-02
DAV:   3    -0.443688412928E+03   -0.35011E-04   -0.38044E-04  3984   0.177E-02    0.121E-02
DAV:   4    -0.443688414974E+03   -0.20456E-05   -0.28728E-05  3360   0.598E-03    0.969E-03
DAV:   5    -0.443688414762E+03    0.21134E-06   -0.15363E-06  2280   0.213E-03
  65 F= -.44368841E+03 E0= -.44368841E+03  d E =-.351016E-12
       N       E                     dE             d eps       ncg     rms          rms(c)
DAV:   1    -0.443675935913E+03    0.12479E-01   -0.70298E+00  3568   0.140E+00    0.173E-01
DAV:   2    -0.443688085548E+03   -0.12150E-01   -0.12586E-01  3752   0.255E-01    0.673E-02
DAV:   3    -0.443688247565E+03   -0.16202E-03   -0.29704E-03  4288   0.683E-02    0.397E-02
DAV:   4    -0.443688248244E+03   -0.67933E-06   -0.19972E-04  3992   0.189E-02    0.261E-02
DAV:   5    -0.443688240963E+03    0.72810E-05   -0.11608E-05  3600   0.114E-02    0.167E-02
DAV:   6    -0.443688233353E+03    0.76106E-05   -0.16936E-05  3792   0.284E-02    0.557E-03
DAV:   7    -0.443688234800E+03   -0.14469E-05   -0.22701E-05  3488   0.680E-03    0.619E-03
DAV:   8    -0.443688234974E+03   -0.17401E-06   -0.32295E-06  3152   0.278E-03
  66 F= -.44368823E+03 E0= -.44368823E+03  d E =-.251359E-12
       N       E                     dE             d eps       ncg     rms          rms(c)
DAV:   1    -0.443687658592E+03    0.57621E-03   -0.86990E-01  3496   0.446E-01    0.481E-02
DAV:   2    -0.443688864758E+03   -0.12062E-02   -0.12229E-02  3264   0.622E-02    0.127E-02
DAV:   3    -0.443688900953E+03   -0.36194E-04   -0.37916E-04  3960   0.134E-02    0.112E-02
DAV:   4    -0.443688902536E+03   -0.15836E-05   -0.20282E-05  2768   0.353E-03    0.807E-03
DAV:   5    -0.443688902412E+03    0.12419E-06   -0.11149E-06  2264   0.178E-03
  67 F= -.44368890E+03 E0= -.44368890E+03  d E =-.244704E-12
       N       E                     dE             d eps       ncg     rms          rms(c)
DAV:   1    -0.443683518617E+03    0.53839E-02   -0.34967E+00  3480   0.924E-01    0.103E-01
DAV:   2    -0.443688641428E+03   -0.51228E-02   -0.52240E-02  3304   0.148E-01    0.297E-02
DAV:   3    -0.443688789229E+03   -0.14780E-03   -0.16569E-03  4112   0.337E-02    0.222E-02
DAV:   4    -0.443688798188E+03   -0.89589E-05   -0.11761E-04  3560   0.943E-03    0.167E-02
DAV:   5    -0.443688796863E+03    0.13249E-05   -0.28819E-06  2712   0.459E-03    0.117E-02
DAV:   6    -0.443688795607E+03    0.12568E-05   -0.67138E-06  3336   0.109E-02    0.486E-03
DAV:   7    -0.443688796011E+03   -0.40453E-06   -0.59570E-06  3440   0.326E-03
  68 F= -.44368880E+03 E0= -.44368880E+03  d E =-.245610E-12
       N       E                     dE             d eps       ncg     rms          rms(c)
DAV:   1    -0.443686857812E+03    0.19378E-02   -0.87038E-01  3464   0.462E-01    0.523E-02
DAV:   2    -0.443688027583E+03   -0.11698E-02   -0.11869E-02  3296   0.614E-02    0.118E-02
DAV:   3    -0.443688062764E+03   -0.35181E-04   -0.37080E-04  3968   0.132E-02    0.105E-02
DAV:   4    -0.443688064460E+03   -0.16963E-05   -0.21559E-05  2800   0.371E-03    0.803E-03
DAV:   5    -0.443688064319E+03    0.14126E-06   -0.11402E-06  2296   0.184E-03
  69 F= -.44368806E+03 E0= -.44368806E+03  d E =-.255877E-12
       N       E                     dE             d eps       ncg     rms          rms(c)
DAV:   1    -0.443676876697E+03    0.11188E-01   -0.70447E+00  3440   0.132E+00    0.164E-01
DAV:   2    -0.443687994386E+03   -0.11118E-01   -0.11409E-01  3504   0.227E-01    0.498E-02
DAV:   3    -0.443688316819E+03   -0.32243E-03   -0.38793E-03  4232   0.571E-02    0.391E-02
DAV:   4    -0.443688333621E+03   -0.16802E-04   -0.27818E-04  4032   0.142E-02    0.280E-02
DAV:   5    -0.443688329015E+03    0.46061E-05   -0.58429E-06  2968   0.625E-03    0.193E-02
DAV:   6    -0.443688325007E+03    0.40076E-05   -0.20017E-05  3696   0.189E-02    0.651E-03
DAV:   7    -0.443688325967E+03   -0.96011E-06   -0.12284E-05  3416   0.428E-03    0.573E-03
DAV:   8    -0.443688325970E+03   -0.29468E-08   -0.57111E-07  2320   0.237E-03
  70 F= -.44368833E+03 E0= -.44368833E+03  d E =-.238769E-12
       N       E                     dE             d eps       ncg     rms          rms(c)
DAV:   1    -0.443687688414E+03    0.63755E-03   -0.87176E-01  3472   0.496E-01    0.529E-02
DAV:   2    -0.443688899528E+03   -0.12111E-02   -0.12246E-02  3328   0.706E-02    0.133E-02
DAV:   3    -0.443688935294E+03   -0.35766E-04   -0.38461E-04  3880   0.143E-02    0.125E-02
DAV:   4    -0.443688937270E+03   -0.19762E-05   -0.25535E-05  2760   0.404E-03    0.880E-03
DAV:   5    -0.443688937108E+03    0.16207E-06   -0.10396E-06  2216   0.218E-03
  71 F= -.44368894E+03 E0= -.44368894E+03  d E =-.238647E-12
       N       E                     dE             d eps       ncg     rms          rms(c)
DAV:   1    -0.443683207441E+03    0.57298E-02   -0.35022E+00  3480   0.993E-01    0.114E-01
DAV:   2    -0.443688583233E+03   -0.53758E-02   -0.54847E-02  3400   0.160E-01    0.323E-02
DAV:   3    -0.443688741547E+03   -0.15831E-03   -0.18351E-03  4144   0.344E-02    0.265E-02
DAV:   4    -0.443688749928E+03   -0.83814E-05   -0.12466E-04  3568   0.896E-03    0.192E-02
DAV:   5    -0.443688748641E+03    0.12875E-05   -0.34331E-06  2504   0.383E-03    0.138E-02
DAV:   6    -0.443688747923E+03    0.71758E-06   -0.94212E-06  3584   0.111E-02
  72 F= -.44368875E+03 E0= -.44368875E+03  d E =-.243233E-12
       N       E                     dE             d eps       ncg     rms          rms(c)
DAV:   1    -0.443686638138E+03    0.21105E-02   -0.87169E-01  3480   0.515E-01    0.572E-02
DAV:   2    -0.443687904094E+03   -0.12660E-02   -0.12803E-02  3328   0.730E-02    0.141E-02
DAV:   3    -0.443687941420E+03   -0.37326E-04   -0.40338E-04  3856   0.146E-02    0.127E-02
DAV:   4    -0.443687943612E+03   -0.21929E-05   -0.27747E-05  2816   0.425E-03    0.921E-03
DAV:   5    -0.443687943491E+03    0.12098E-06   -0.10657E-06  2208   0.217E-03
  73 F= -.44368794E+03 E0= -.44368794E+03  d E =-.250920E-12
       N       E                     dE             d eps       ncg     rms          rms(c)
DAV:   1    -0.443676219600E+03    0.11724E-01   -0.69999E+00  3752   0.177E+00    0.163E-01
DAV:   2    -0.443687174971E+03   -0.10955E-01   -0.11160E-01  3704   0.278E-01    0.485E-02
DAV:   3    -0.443687465886E+03   -0.29091E-03   -0.34618E-03  4392   0.697E-02    0.397E-02
DAV:   4    -0.443687480967E+03   -0.15081E-04   -0.24746E-04  3872   0.179E-02    0.301E-02
DAV:   5    -0.443687477942E+03    0.30247E-05   -0.85483E-06  3240   0.576E-03    0.229E-02
DAV:   6    -0.443687473273E+03    0.46692E-05   -0.10622E-05  3728   0.180E-02    0.832E-03
DAV:   7    -0.443687473464E+03   -0.19108E-06   -0.12557E-05  4048   0.107E-02    0.720E-03
DAV:   8    -0.443687474085E+03   -0.62102E-06   -0.87254E-06  3424   0.469E-03
  74 F= -.44368747E+03 E0= -.44368747E+03  d E =-.337353E-12
       N       E                     dE             d eps       ncg     rms          rms(c)
DAV:   1    -0.443687202041E+03    0.27142E-03   -0.87112E-01  3440   0.409E-01    0.506E-02
DAV:   2    -0.443688446903E+03   -0.12449E-02   -0.12554E-02  3544   0.588E-02    0.132E-02
DAV:   3    -0.443688478603E+03   -0.31701E-04   -0.34415E-04  4024   0.146E-02    0.134E-02
DAV:   4    -0.443688479829E+03   -0.12261E-05   -0.21236E-05  3400   0.452E-03    0.105E-02
DAV:   5    -0.443688479531E+03    0.29872E-06   -0.10792E-06  2208   0.167E-03
  75 F= -.44368848E+03 E0= -.44368848E+03  d E =-.302487E-12
       N       E                     dE             d eps       ncg     rms          rms(c)
DAV:   1    -0.443683803516E+03    0.46763E-02   -0.35012E+00  3456   0.829E-01    0.105E-01
DAV:   2    -0.443689073416E+03   -0.52699E-02   -0.53312E-02  3600   0.134E-01    0.286E-02
DAV:   3    -0.443689236916E+03   -0.16350E-03   -0.17730E-03  4160   0.354E-02    0.259E-02
DAV:   4    -0.443689245290E+03   -0.83741E-05   -0.12547E-04  3528   0.124E-02    0.212E-02
DAV:   5    -0.443689243835E+03    0.14558E-05   -0.64626E-06  3392   0.443E-03    0.165E-02
DAV:   6    -0.443689241459E+03    0.23754E-05   -0.35558E-06  3344   0.111E-02    0.669E-03
DAV:   7    -0.443689240916E+03    0.54344E-06   -0.79941E-06  3688   0.109E-02
  76 F= -.44368924E+03 E0= -.44368924E+03  d E =-.276414E-12
       N       E                     dE             d eps       ncg     rms          rms(c)
DAV:   1    -0.443687635595E+03    0.16059E-02   -0.87089E-01  3488   0.423E-01    0.544E-02
DAV:   2    -0.443688916382E+03   -0.12808E-02   -0.12921E-02  3528   0.613E-02    0.136E-02
DAV:   3    -0.443688954331E+03   -0.37950E-04   -0.40196E-04  4144   0.159E-02    0.121E-02
DAV:   4    -0.443688956075E+03   -0.17435E-05   -0.26019E-05  3392   0.516E-03    0.991E-03
DAV:   5    -0.443688955848E+03    0.22654E-06   -0.13848E-06  2232   0.175E-03
  77 F= -.44368896E+03 E0= -.44368896E+03  d E =-.320856E-12
       N       E                     dE             d eps       ncg     rms          rms(c)
DAV:   1    -0.443676452435E+03    0.12504E-01   -0.70382E+00  3504   0.123E+00    0.160E-01
DAV:   2    -0.443687857518E+03   -0.11405E-01   -0.11672E-01  3664   0.192E-01    0.428E-02
DAV:   3    -0.443688214343E+03   -0.35683E-03   -0.40210E-03  4320   0.534E-02    0.375E-02
DAV:   4    -0.443688230457E+03   -0.16114E-04   -0.28784E-04  3728   0.176E-02    0.277E-02
DAV:   5    -0.443688226293E+03    0.41646E-05   -0.13922E-05  3568   0.643E-03    0.218E-02
DAV:   6    -0.443688218086E+03    0.82074E-05   -0.99762E-06  3704   0.201E-02    0.777E-03
DAV:   7    -0.443688217174E+03    0.91170E-06   -0.15776E-05  3856   0.123E-02    0.925E-03
DAV:   8    -0.443688217968E+03   -0.79419E-06   -0.12023E-05  3312   0.498E-03    0.557E-03
DAV:   9    -0.443688217965E+03    0.31068E-08   -0.39589E-07  2080   0.136E-03
  78 F= -.44368822E+03 E0= -.44368822E+03  d E =-.260068E-12
       N       E                     dE             d eps       ncg     rms          rms(c)
DAV:   1    -0.443687627386E+03    0.59058E-03   -0.87010E-01  3480   0.417E-01    0.487E-02
DAV:   2    -0.443688834002E+03   -0.12066E-02   -0.12201E-02  3416   0.563E-02    0.111E-02
DAV:   3    -0.443688869374E+03   -0.35371E-04   -0.36721E-04  4048   0.109E-02    0.109E-02
DAV:   4    -0.443688870742E+03   -0.13684E-05   -0.17895E-05  2704   0.288E-03    0.841E-03
DAV:   5    -0.443688870667E+03    0.74971E-07   -0.10435E-06  2144   0.119E-03
  79 F= -.44368887E+03 E0= -.44368887E+03  d E =-.255271E-12
       N       E                     dE             d eps       ncg     rms          rms(c)
DAV:   1    -0.443683715878E+03    0.51549E-02   -0.34992E+00  3480   0.842E-01    0.101E-01
DAV:   2    -0.443688668563E+03   -0.49527E-02   -0.50217E-02  3472   0.121E-01    0.246E-02
DAV:   3    -0.443688814894E+03   -0.14633E-03   -0.15425E-03  4200   0.259E-02    0.220E-02
DAV:   4    -0.443688821429E+03   -0.65350E-05   -0.85397E-05  3472   0.771E-03    0.165E-02
DAV:   5    -0.443688820828E+03    0.60067E-06   -0.43111E-06  2584   0.311E-03
  80 F= -.44368882E+03 E0= -.44368882E+03  d E =-.244479E-12
       N       E                     dE             d eps       ncg     rms          rms(c)
DAV:   1    -0.443686826148E+03    0.19953E-02   -0.87018E-01  3592   0.424E-01    0.509E-02
DAV:   2    -0.443688070838E+03   -0.12447E-02   -0.12596E-02  3512   0.621E-02    0.133E-02
DAV:   3    -0.443688108403E+03   -0.37566E-04   -0.39133E-04  4168   0.132E-02    0.105E-02
DAV:   4    -0.443688110038E+03   -0.16347E-05   -0.20324E-05  2824   0.374E-03    0.760E-03
DAV:   5    -0.443688109918E+03    0.11975E-06   -0.12856E-06  2432   0.206E-03
  81 F= -.44368811E+03 E0= -.44368811E+03  d E =-.262723E-12
       N       E                     dE             d eps       ncg     rms          rms(c)
DAV:   1    -0.443676879188E+03    0.11231E-01   -0.70462E+00  3408   0.132E+00    0.162E-01
DAV:   2    -0.443688059728E+03   -0.11181E-01   -0.11444E-01  3696   0.214E-01    0.460E-02
DAV:   3    -0.443688382903E+03   -0.32317E-03   -0.37894E-03  4408   0.477E-02    0.393E-02
DAV:   4    -0.443688394800E+03   -0.11897E-04   -0.22528E-04  4136   0.139E-02    0.285E-02
DAV:   5    -0.443688390929E+03    0.38703E-05   -0.90445E-06  3056   0.605E-03    0.194E-02
DAV:   6    -0.443688387143E+03    0.37861E-05   -0.19654E-05  3920   0.177E-02    0.672E-03
DAV:   7    -0.443688388034E+03   -0.89030E-06   -0.11498E-05  3488   0.435E-03    0.550E-03
DAV:   8    -0.443688388029E+03    0.48312E-08   -0.56907E-07  2320   0.223E-03
  82 F= -.44368839E+03 E0= -.44368839E+03  d E =-.271955E-12
       N       E                     dE             d eps       ncg     rms          rms(c)
DAV:   1    -0.443687682846E+03    0.70519E-03   -0.87164E-01  3472   0.465E-01    0.529E-02
DAV:   2    -0.443688922972E+03   -0.12401E-02   -0.12521E-02  3472   0.628E-02    0.124E-02
DAV:   3    -0.443688959004E+03   -0.36032E-04   -0.37719E-04  3992   0.117E-02    0.127E-02
DAV:   4    -0.443688960494E+03   -0.14901E-05   -0.20513E-05  2752   0.314E-03    0.918E-03
DAV:   5    -0.443688960379E+03    0.11527E-06   -0.10059E-06  2120   0.148E-03
  83 F= -.44368896E+03 E0= -.44368896E+03  d E =-.260188E-12
       N       E                     dE             d eps       ncg     rms          rms(c)
DAV:   1    -0.443683388844E+03    0.55717E-02   -0.35042E+00  3496   0.897E-01    0.110E-01
DAV:   2    -0.443688643291E+03   -0.52544E-02   -0.53190E-02  3552   0.132E-01    0.271E-02
DAV:   3    -0.443688769765E+03   -0.12647E-03   -0.13757E-03  4128   0.270E-02    0.250E-02
DAV:   4    -0.443688776430E+03   -0.66653E-05   -0.90396E-05  3416   0.739E-03    0.182E-02
DAV:   5    -0.443688775904E+03    0.52602E-06   -0.32868E-06  2456   0.319E-03
  84 F= -.44368878E+03 E0= -.44368878E+03  d E =-.234582E-12
       N       E                     dE             d eps       ncg     rms          rms(c)
DAV:   1    -0.443686708466E+03    0.20680E-02   -0.87143E-01  3472   0.452E-01    0.553E-02
DAV:   2    -0.443688004058E+03   -0.12956E-02   -0.13090E-02  3512   0.674E-02    0.137E-02
DAV:   3    -0.443688041933E+03   -0.37875E-04   -0.40033E-04  4056   0.134E-02    0.122E-02
DAV:   4    -0.443688044068E+03   -0.21346E-05   -0.25777E-05  2792   0.366E-03    0.893E-03
DAV:   5    -0.443688044017E+03    0.50917E-07   -0.11249E-06  2104   0.183E-03
  85 F= -.44368804E+03 E0= -.44368804E+03  d E =-.234866E-12
       N       E                     dE             d eps       ncg     rms          rms(c)
DAV:   1    -0.443677142777E+03    0.10901E-01   -0.70005E+00  3752   0.160E+00    0.160E-01
DAV:   2    -0.443688096726E+03   -0.10954E-01   -0.11130E-01  3776   0.250E-01    0.430E-02
DAV:   3    -0.443688416062E+03   -0.31934E-03   -0.35525E-03  4320   0.575E-02    0.393E-02
DAV:   4    -0.443688429966E+03   -0.13904E-04   -0.23006E-04  3576   0.165E-02    0.303E-02
DAV:   5    -0.443688427158E+03    0.28077E-05   -0.92111E-06  3088   0.524E-03    0.238E-02
DAV:   6    -0.443688422904E+03    0.42545E-05   -0.10433E-05  3544   0.162E-02    0.892E-03
DAV:   7    -0.443688423114E+03   -0.21013E-06   -0.12653E-05  3768   0.110E-02    0.809E-03
DAV:   8    -0.443688423729E+03   -0.61568E-06   -0.93426E-06  3344   0.518E-03
  86 F= -.44368842E+03 E0= -.44368842E+03  d E =-.302656E-12
       N       E                     dE             d eps       ncg     rms          rms(c)
DAV:   1    -0.443687840498E+03    0.58262E-03   -0.87232E-01  3424   0.443E-01    0.506E-02
DAV:   2    -0.443688965413E+03   -0.11249E-02   -0.11395E-02  3496   0.622E-02    0.134E-02
DAV:   3    -0.443689000266E+03   -0.34853E-04   -0.38063E-04  4072   0.155E-02    0.135E-02
DAV:   4    -0.443689001772E+03   -0.15056E-05   -0.25516E-05  3400   0.490E-03    0.106E-02
DAV:   5    -0.443689001406E+03    0.36584E-06   -0.11656E-06  2224   0.175E-03
  87 F= -.44368900E+03 E0= -.44368900E+03  d E =-.275836E-12
       N       E                     dE             d eps       ncg     rms          rms(c)
DAV:   1    -0.443683106724E+03    0.58950E-02   -0.35005E+00  3408   0.872E-01    0.105E-01
DAV:   2    -0.443688482602E+03   -0.53759E-02   -0.54559E-02  3728   0.150E-01    0.313E-02
DAV:   3    -0.443688649593E+03   -0.16699E-03   -0.18837E-03  4272   0.361E-02    0.267E-02
DAV:   4    -0.443688657355E+03   -0.77616E-05   -0.13058E-04  3624   0.136E-02    0.215E-02
DAV:   5    -0.443688655535E+03    0.18199E-05   -0.68113E-06  3440   0.470E-03    0.165E-02
DAV:   6    -0.443688652562E+03    0.29730E-05   -0.48231E-06  3344   0.125E-02    0.617E-03
DAV:   7    -0.443688652147E+03    0.41484E-06   -0.88146E-06  3656   0.106E-02
  88 F= -.44368865E+03 E0= -.44368865E+03  d E =-.287768E-12
       N       E                     dE             d eps       ncg     rms          rms(c)
DAV:   1    -0.443686475116E+03    0.21774E-02   -0.87134E-01  3512   0.428E-01    0.545E-02
DAV:   2    -0.443687737269E+03   -0.12622E-02   -0.12734E-02  3584   0.621E-02    0.140E-02
DAV:   3    -0.443687776994E+03   -0.39725E-04   -0.42347E-04  4136   0.162E-02    0.120E-02
DAV:   4    -0.443687778994E+03   -0.19999E-05   -0.28518E-05  3400   0.522E-03    0.975E-03
DAV:   5    -0.443687778743E+03    0.25063E-06   -0.14066E-06  2240   0.179E-03
  89 F= -.44368778E+03 E0= -.44368778E+03  d E =-.349896E-12
       N       E                     dE             d eps       ncg     rms          rms(c)
DAV:   1    -0.443675927519E+03    0.11851E-01   -0.70349E+00  3488   0.122E+00    0.163E-01
DAV:   2    -0.443687605561E+03   -0.11678E-01   -0.11980E-01  3672   0.201E-01    0.462E-02
DAV:   3    -0.443687973525E+03   -0.36796E-03   -0.42358E-03  4376   0.505E-02    0.388E-02
DAV:   4    -0.443687984272E+03   -0.10747E-04   -0.25755E-04  3720   0.161E-02    0.281E-02
DAV:   5    -0.443687979542E+03    0.47298E-05   -0.13095E-05  3560   0.603E-03    0.220E-02
DAV:   6    -0.443687970711E+03    0.88313E-05   -0.11695E-05  3664   0.197E-02    0.753E-03
DAV:   7    -0.443687969873E+03    0.83803E-06   -0.15595E-05  3920   0.126E-02    0.890E-03
DAV:   8    -0.443687970736E+03   -0.86358E-06   -0.11820E-05  3280   0.480E-03    0.560E-03
DAV:   9    -0.443687970679E+03    0.57473E-07   -0.39175E-07  2056   0.129E-03
  90 F= -.44368797E+03 E0= -.44368797E+03  d E =-.231297E-12
       N       E                     dE             d eps       ncg     rms          rms(c)
DAV:   1    -0.443687554270E+03    0.41647E-03   -0.87052E-01  3504   0.438E-01    0.486E-02
DAV:   2    -0.443688712063E+03   -0.11578E-02   -0.11731E-02  3480   0.578E-02    0.109E-02
DAV:   3    -0.443688747023E+03   -0.34961E-04   -0.36339E-04  3992   0.116E-02    0.110E-02
DAV:   4    -0.443688748464E+03   -0.14403E-05   -0.18633E-05  2696   0.307E-03    0.850E-03
DAV:   5    -0.443688748370E+03    0.93409E-07   -0.10251E-06  2152   0.131E-03
  91 F= -.44368875E+03 E0= -.44368875E+03  d E =-.236500E-12
       N       E                     dE             d eps       ncg     rms          rms(c)
DAV:   1    -0.443683785155E+03    0.49633E-02   -0.34984E+00  3472   0.867E-01    0.998E-02
DAV:   2    -0.443688817702E+03   -0.50325E-02   -0.51097E-02  3504   0.125E-01    0.257E-02
DAV:   3    -0.443688971833E+03   -0.15413E-03   -0.16438E-03  4176   0.258E-02    0.222E-02
DAV:   4    -0.443688978731E+03   -0.68979E-05   -0.92626E-05  3608   0.770E-03    0.168E-02
DAV:   5    -0.443688977944E+03    0.78725E-06   -0.41136E-06  2584   0.356E-03
  92 F= -.44368898E+03 E0= -.44368898E+03  d E =-.254515E-12
       N       E                     dE             d eps       ncg     rms          rms(c)
DAV:   1    -0.443687163442E+03    0.18153E-02   -0.87061E-01  3520   0.438E-01    0.508E-02
DAV:   2    -0.443688359982E+03   -0.11965E-02   -0.12117E-02  3568   0.581E-02    0.128E-02
DAV:   3    -0.443688396529E+03   -0.36547E-04   -0.37956E-04  4096   0.125E-02    0.108E-02
DAV:   4    -0.443688398008E+03   -0.14797E-05   -0.19109E-05  2776   0.355E-03    0.792E-03
DAV:   5    -0.443688397896E+03    0.11212E-06   -0.11432E-06  2328   0.192E-03
[...]
       N       E                     dE             d eps       ncg     rms          rms(c)
DAV:   1    -0.443687801263E+03    0.14250E-02   -0.87140E-01  3256   0.414E-01    0.504E-02
DAV:   2    -0.443689090515E+03   -0.12893E-02   -0.12988E-02  3280   0.538E-02    0.129E-02
DAV:   3    -0.443689129945E+03   -0.39430E-04   -0.38923E-04  3904   0.122E-02    0.103E-02
DAV:   4    -0.443689131820E+03   -0.18751E-05   -0.19289E-05  2728   0.319E-03    0.745E-03
DAV:   5    -0.443689132068E+03   -0.24770E-06   -0.12089E-06  2344   0.167E-03
 141 F= -.44368913E+03 E0= -.44368913E+03  d E =-.254968E-12
       N       E                     dE             d eps       ncg     rms          rms(c)
DAV:   1    -0.443676770983E+03    0.12361E-01   -0.70527E+00  3288   0.115E+00    0.144E-01
DAV:   2    -0.443687717183E+03   -0.10946E-01   -0.11052E-01  3312   0.168E-01    0.336E-02
DAV:   3    -0.443688017314E+03   -0.30013E-03   -0.30963E-03  4000   0.321E-02    0.346E-02
DAV:   4    -0.443688029367E+03   -0.12053E-04   -0.16001E-04  3448   0.837E-03    0.267E-02
DAV:   5    -0.443688028948E+03    0.41944E-06   -0.81348E-06  2704   0.295E-03
 142 F= -.44368803E+03 E0= -.44368803E+03  d E =-.229199E-12
       N       E                     dE             d eps       ncg     rms          rms(c)
DAV:   1    -0.443687548269E+03    0.48110E-03   -0.87029E-01  3248   0.410E-01    0.552E-02
DAV:   2    -0.443688831525E+03   -0.12833E-02   -0.12903E-02  3264   0.600E-02    0.135E-02
DAV:   3    -0.443688869745E+03   -0.38220E-04   -0.40875E-04  3912   0.112E-02    0.137E-02
DAV:   4    -0.443688870470E+03   -0.72426E-06   -0.13904E-05  2864   0.271E-03    0.867E-03
DAV:   5    -0.443688870361E+03    0.10879E-06   -0.75797E-07  2080   0.118E-03
 143 F= -.44368887E+03 E0= -.44368887E+03  d E =-.232586E-12
       N       E                     dE             d eps       ncg     rms          rms(c)
DAV:   1    -0.443683362528E+03    0.55079E-02   -0.35028E+00  3320   0.858E-01    0.108E-01
DAV:   2    -0.443688488502E+03   -0.51260E-02   -0.51554E-02  3256   0.119E-01    0.269E-02
DAV:   3    -0.443688641825E+03   -0.15332E-03   -0.16196E-03  3976   0.231E-02    0.260E-02
DAV:   4    -0.443688646465E+03   -0.46392E-05   -0.63409E-05  3272   0.559E-03    0.170E-02
DAV:   5    -0.443688646581E+03   -0.11649E-06   -0.33010E-06  2528   0.216E-03
 144 F= -.44368865E+03 E0= -.44368865E+03  d E =-.244980E-12
       N       E                     dE             d eps       ncg     rms          rms(c)
DAV:   1    -0.443686229756E+03    0.24167E-02   -0.87124E-01  3248   0.426E-01    0.539E-02
DAV:   2    -0.443687505055E+03   -0.12753E-02   -0.12785E-02  3304   0.575E-02    0.135E-02
DAV:   3    -0.443687543862E+03   -0.38806E-04   -0.40173E-04  3896   0.114E-02    0.128E-02
DAV:   4    -0.443687545026E+03   -0.11643E-05   -0.13227E-05  2856   0.267E-03    0.837E-03
DAV:   5    -0.443687545257E+03   -0.23087E-06   -0.85641E-07  2120   0.126E-03
 145 F= -.44368755E+03 E0= -.44368755E+03  d E =-.254084E-12
       N       E                     dE             d eps       ncg     rms          rms(c)
DAV:   1    -0.443677176876E+03    0.10368E-01   -0.69969E+00  3552   0.166E+00    0.156E-01
DAV:   2    -0.443688144703E+03   -0.10968E-01   -0.11116E-01  3560   0.251E-01    0.435E-02
DAV:   3    -0.443688493593E+03   -0.34889E-03   -0.38716E-03  4264   0.589E-02    0.394E-02
DAV:   4    -0.443688507090E+03   -0.13497E-04   -0.25787E-04  3808   0.190E-02    0.285E-02
DAV:   5    -0.443688503447E+03    0.36430E-05   -0.14245E-05  3536   0.640E-03    0.231E-02
DAV:   6    -0.443688496115E+03    0.73320E-05   -0.40346E-06  3304   0.124E-02    0.120E-02
DAV:   7    -0.443688490380E+03    0.57347E-05   -0.15692E-05  3848   0.206E-02    0.106E-02
DAV:   8    -0.443688491964E+03   -0.15843E-05   -0.22432E-05  3344   0.596E-03    0.734E-03
DAV:   9    -0.443688491836E+03    0.12832E-06   -0.11673E-06  2504   0.207E-03
 146 F= -.44368849E+03 E0= -.44368849E+03  d E =-.367840E-12
       N       E                     dE             d eps       ncg     rms          rms(c)
DAV:   1    -0.443687783228E+03    0.70874E-03   -0.87159E-01  3496   0.437E-01    0.486E-02
DAV:   2    -0.443688965319E+03   -0.11821E-02   -0.12004E-02  3352   0.641E-02    0.145E-02
DAV:   3    -0.443688999610E+03   -0.34290E-04   -0.39880E-04  3944   0.175E-02    0.132E-02
DAV:   4    -0.443689000880E+03   -0.12708E-05   -0.31671E-05  3472   0.700E-03    0.872E-03
DAV:   5    -0.443689000240E+03    0.64022E-06   -0.23047E-06  2720   0.292E-03
 147 F= -.44368900E+03 E0= -.44368900E+03  d E =-.299736E-12
       N       E                     dE             d eps       ncg     rms          rms(c)
DAV:   1    -0.443683228265E+03    0.57726E-02   -0.35002E+00  3448   0.863E-01    0.103E-01
DAV:   2    -0.443688597867E+03   -0.53696E-02   -0.54731E-02  3592   0.139E-01    0.302E-02
DAV:   3    -0.443688755185E+03   -0.15732E-03   -0.18846E-03  4192   0.404E-02    0.277E-02
DAV:   4    -0.443688758918E+03   -0.37328E-05   -0.14779E-04  3656   0.184E-02    0.195E-02
DAV:   5    -0.443688754496E+03    0.44220E-05   -0.12867E-05  3688   0.784E-03    0.155E-02
DAV:   6    -0.443688747584E+03    0.69121E-05   -0.18418E-06  2992   0.113E-02    0.891E-03
DAV:   7    -0.443688739413E+03    0.81707E-05   -0.11904E-05  3648   0.240E-02    0.902E-03
DAV:   8    -0.443688741222E+03   -0.18088E-05   -0.23705E-05  3328   0.559E-03    0.644E-03
DAV:   9    -0.443688741243E+03   -0.20504E-07   -0.13478E-06  2560   0.189E-03
 148 F= -.44368874E+03 E0= -.44368874E+03  d E =-.328233E-12
       N       E                     dE             d eps       ncg     rms          rms(c)
DAV:   1    -0.443686676680E+03    0.20645E-02   -0.87052E-01  3448   0.390E-01    0.535E-02
DAV:   2    -0.443687982674E+03   -0.13060E-02   -0.13241E-02  3464   0.621E-02    0.133E-02
DAV:   3    -0.443688021292E+03   -0.38619E-04   -0.44427E-04  4184   0.175E-02    0.123E-02
DAV:   4    -0.443688022450E+03   -0.11572E-05   -0.34138E-05  3392   0.673E-03    0.931E-03
DAV:   5    -0.443688021794E+03    0.65569E-06   -0.25433E-06  2704   0.251E-03
 149 F= -.44368802E+03 E0= -.44368802E+03  d E =-.465167E-12
       N       E                     dE             d eps       ncg     rms          rms(c)
DAV:   1    -0.443676589278E+03    0.11433E-01   -0.70505E+00  3408   0.115E+00    0.160E-01
DAV:   2    -0.443687775184E+03   -0.11186E-01   -0.11395E-01  3656   0.175E-01    0.439E-02
DAV:   3    -0.443688119411E+03   -0.34423E-03   -0.38700E-03  4288   0.476E-02    0.402E-02
DAV:   4    -0.443688127366E+03   -0.79547E-05   -0.23241E-04  3656   0.161E-02    0.276E-02
DAV:   5    -0.443688121502E+03    0.58640E-05   -0.13735E-05  3584   0.667E-03    0.214E-02
DAV:   6    -0.443688110636E+03    0.10866E-04   -0.14019E-05  3560   0.198E-02    0.776E-03
DAV:   7    -0.443688108820E+03    0.18166E-05   -0.18822E-05  3864   0.138E-02    0.104E-02
DAV:   8    -0.443688110091E+03   -0.12718E-05   -0.17294E-05  3200   0.530E-03    0.730E-03
DAV:   9    -0.443688109933E+03    0.15863E-06   -0.49531E-07  2264   0.152E-03
 150 F= -.44368811E+03 E0= -.44368811E+03  d E =-.264372E-12
       N       E                     dE             d eps       ncg     rms          rms(c)
DAV:   1    -0.443687397926E+03    0.71216E-03   -0.87079E-01  3368   0.434E-01    0.456E-02
DAV:   2    -0.443688681685E+03   -0.12838E-02   -0.12949E-02  3424   0.647E-02    0.108E-02
DAV:   3    -0.443688722680E+03   -0.40995E-04   -0.41326E-04  3936   0.118E-02    0.116E-02
DAV:   4    -0.443688724320E+03   -0.16404E-05   -0.20673E-05  2648   0.302E-03    0.938E-03
DAV:   5    -0.443688724247E+03    0.72832E-07   -0.10937E-06  2144   0.138E-03
 151 F= -.44368872E+03 E0= -.44368872E+03  d E =-.255342E-12
       N       E                     dE             d eps       ncg     rms          rms(c)
DAV:   1    -0.443683929854E+03    0.47945E-02   -0.35042E+00  3392   0.890E-01    0.993E-02
DAV:   2    -0.443689008580E+03   -0.50787E-02   -0.51477E-02  3424   0.138E-01    0.251E-02
DAV:   3    -0.443689172553E+03   -0.16397E-03   -0.17019E-03  4248   0.271E-02    0.231E-02
DAV:   4    -0.443689179747E+03   -0.71940E-05   -0.91722E-05  3448   0.724E-03    0.182E-02
DAV:   5    -0.443689179107E+03    0.63943E-06   -0.40363E-06  2544   0.318E-03
 152 F= -.44368918E+03 E0= -.44368918E+03  d E =-.241088E-12
       N       E                     dE             d eps       ncg     rms          rms(c)
DAV:   1    -0.443687710786E+03    0.14690E-02   -0.87114E-01  3376   0.398E-01    0.509E-02
DAV:   2    -0.443689001858E+03   -0.12911E-02   -0.13015E-02  3456   0.629E-02    0.128E-02
DAV:   3    -0.443689043935E+03   -0.42077E-04   -0.41805E-04  4032   0.118E-02    0.104E-02
DAV:   4    -0.443689045887E+03   -0.19521E-05   -0.20555E-05  2688   0.320E-03    0.763E-03
DAV:   5    -0.443689046045E+03   -0.15728E-06   -0.12277E-06  2296   0.167E-03
 153 F= -.44368905E+03 E0= -.44368905E+03  d E =-.254048E-12
       N       E                     dE             d eps       ncg     rms          rms(c)
DAV:   1    -0.443677009290E+03    0.12037E-01   -0.70464E+00  3368   0.125E+00    0.144E-01
DAV:   2    -0.443688258207E+03   -0.11249E-01   -0.11369E-01  3408   0.170E-01    0.343E-02
DAV:   3    -0.443688619724E+03   -0.36152E-03   -0.37563E-03  4256   0.343E-02    0.356E-02
DAV:   4    -0.443688632566E+03   -0.12841E-04   -0.17838E-04  3728   0.852E-03    0.276E-02
DAV:   5    -0.443688631724E+03    0.84168E-06   -0.95569E-06  2768   0.352E-03
 154 F= -.44368863E+03 E0= -.44368863E+03  d E =-.252020E-12
       N       E                     dE             d eps       ncg     rms          rms(c)
DAV:   1    -0.443687860236E+03    0.77233E-03   -0.87010E-01  3368   0.426E-01    0.535E-02
DAV:   2    -0.443689137837E+03   -0.12776E-02   -0.12839E-02  3432   0.615E-02    0.132E-02
DAV:   3    -0.443689176635E+03   -0.38798E-04   -0.41163E-04  4072   0.125E-02    0.136E-02
DAV:   4    -0.443689177484E+03   -0.84918E-06   -0.15137E-05  2920   0.293E-03    0.882E-03
DAV:   5    -0.443689177384E+03    0.10010E-06   -0.89150E-07  2072   0.119E-03
 155 F= -.44368918E+03 E0= -.44368918E+03  d E =-.243950E-12
       N       E                     dE             d eps       ncg     rms          rms(c)
DAV:   1    -0.443682859455E+03    0.63180E-02   -0.35007E+00  3392   0.100E+00    0.109E-01
DAV:   2    -0.443688149631E+03   -0.52902E-02   -0.53370E-02  3472   0.133E-01    0.288E-02
DAV:   3    -0.443688307598E+03   -0.15797E-03   -0.17140E-03  4192   0.277E-02    0.258E-02
DAV:   4    -0.443688313896E+03   -0.62976E-05   -0.86583E-05  3600   0.727E-03    0.172E-02
DAV:   5    -0.443688313660E+03    0.23651E-06   -0.44539E-06  2568   0.283E-03
 156 F= -.44368831E+03 E0= -.44368831E+03  d E =-.237967E-12
       N       E                     dE             d eps       ncg     rms          rms(c)
DAV:   1    -0.443685580482E+03    0.27334E-02   -0.87108E-01  3376   0.448E-01    0.540E-02
DAV:   2    -0.443686855306E+03   -0.12748E-02   -0.12786E-02  3472   0.683E-02    0.136E-02
DAV:   3    -0.443686894217E+03   -0.38911E-04   -0.40369E-04  4088   0.122E-02    0.123E-02
DAV:   4    -0.443686895773E+03   -0.15564E-05   -0.17008E-05  2904   0.303E-03    0.822E-03
DAV:   5    -0.443686895995E+03   -0.22157E-06   -0.10596E-06  2080   0.128E-03
 157 F= -.44368690E+03 E0= -.44368690E+03  d E =-.240244E-12
       N       E                     dE             d eps       ncg     rms          rms(c)
DAV:   1    -0.443676075682E+03    0.10820E-01   -0.69928E+00  3536   0.174E+00    0.160E-01
DAV:   2    -0.443687357660E+03   -0.11282E-01   -0.11507E-01  3680   0.285E-01    0.485E-02
DAV:   3    -0.443687707593E+03   -0.34993E-03   -0.40903E-03  4344   0.655E-02    0.407E-02
DAV:   4    -0.443687720239E+03   -0.12645E-04   -0.29035E-04  3712   0.212E-02    0.294E-02
DAV:   5    -0.443687715279E+03    0.49596E-05   -0.16001E-05  3504   0.795E-03    0.234E-02
DAV:   6    -0.443687706007E+03    0.92718E-05   -0.58191E-06  3256   0.172E-02    0.120E-02
DAV:   7    -0.443687700194E+03    0.58132E-05   -0.19165E-05  3752   0.220E-02    0.903E-03
DAV:   8    -0.443687701832E+03   -0.16383E-05   -0.23232E-05  3264   0.620E-03    0.677E-03
DAV:   9    -0.443687701725E+03    0.10715E-06   -0.12459E-06  2544   0.198E-03
 158 F= -.44368770E+03 E0= -.44368770E+03  d E =-.524167E-12
       N       E                     dE             d eps       ncg     rms          rms(c)
DAV:   1    -0.443687278572E+03    0.42326E-03   -0.87036E-01  3400   0.390E-01    0.499E-02
DAV:   2    -0.443688574873E+03   -0.12963E-02   -0.13152E-02  3488   0.593E-02    0.135E-02
DAV:   3    -0.443688614072E+03   -0.39199E-04   -0.44154E-04  3984   0.164E-02    0.134E-02
DAV:   4    -0.443688615473E+03   -0.14012E-05   -0.32055E-05  3352   0.626E-03    0.924E-03
DAV:   5    -0.443688614821E+03    0.65171E-06   -0.21522E-06  2512   0.250E-03
 159 F= -.44368861E+03 E0= -.44368861E+03  d E =-.386415E-12
       N       E                     dE             d eps       ncg     rms          rms(c)
DAV:   1    -0.443683603882E+03    0.50116E-02   -0.34993E+00  3392   0.778E-01    0.104E-01
DAV:   2    -0.443689018554E+03   -0.54147E-02   -0.55016E-02  3560   0.127E-01    0.293E-02
DAV:   3    -0.443689177368E+03   -0.15881E-03   -0.18673E-03  4176   0.376E-02    0.272E-02
DAV:   4    -0.443689181130E+03   -0.37613E-05   -0.14067E-04  3624   0.177E-02    0.194E-02
DAV:   5    -0.443689177149E+03    0.39812E-05   -0.12888E-05  3552   0.704E-03    0.155E-02
DAV:   6    -0.443689170871E+03    0.62776E-05   -0.15177E-06  2888   0.957E-03    0.911E-03
DAV:   7    -0.443689162768E+03    0.81029E-05   -0.11813E-05  3720   0.225E-02    0.963E-03
DAV:   8    -0.443689164440E+03   -0.16721E-05   -0.22633E-05  3320   0.552E-03    0.667E-03
DAV:   9    -0.443689164498E+03   -0.57691E-07   -0.12865E-06  2520   0.184E-03
 160 F= -.44368916E+03 E0= -.44368916E+03  d E =-.274803E-12
       N       E                     dE             d eps       ncg     rms          rms(c)
DAV:   1    -0.443687775678E+03    0.13888E-02   -0.87263E-01  3448   0.419E-01    0.521E-02
DAV:   2    -0.443688868314E+03   -0.10926E-02   -0.11072E-02  3512   0.601E-02    0.139E-02
DAV:   3    -0.443688899838E+03   -0.31524E-04   -0.37493E-04  4216   0.183E-02    0.118E-02
DAV:   4    -0.443688900738E+03   -0.90035E-06   -0.31679E-05  3392   0.721E-03    0.836E-03
DAV:   5    -0.443688900045E+03    0.69328E-06   -0.28440E-06  3008   0.295E-03
 161 F= -.44368890E+03 E0= -.44368890E+03  d E =-.340379E-12
       N       E                     dE             d eps       ncg     rms          rms(c)
DAV:   1    -0.443676751491E+03    0.12149E-01   -0.70489E+00  3400   0.129E+00    0.164E-01
DAV:   2    -0.443688173252E+03   -0.11422E-01   -0.11699E-01  3824   0.213E-01    0.486E-02
DAV:   3    -0.443688508176E+03   -0.33492E-03   -0.40034E-03  4344   0.567E-02    0.415E-02
DAV:   4    -0.443688513593E+03   -0.54179E-05   -0.23380E-04  3744   0.182E-02    0.285E-02
DAV:   5    -0.443688505920E+03    0.76734E-05   -0.13922E-05  3592   0.894E-03    0.211E-02
DAV:   6    -0.443688493306E+03    0.12615E-04   -0.18370E-05  3704   0.271E-02    0.728E-03
DAV:   7    -0.443688492439E+03    0.86609E-06   -0.24138E-05  3848   0.136E-02    0.961E-03
DAV:   8    -0.443688493576E+03   -0.11365E-05   -0.16486E-05  3272   0.543E-03    0.743E-03
DAV:   9    -0.443688493376E+03    0.19977E-06   -0.46146E-07  2184   0.145E-03
 162 F= -.44368849E+03 E0= -.44368849E+03  d E =-.253973E-12
       N       E                     dE             d eps       ncg     rms          rms(c)
DAV:   1    -0.443687671358E+03    0.82222E-03   -0.87174E-01  3368   0.378E-01    0.452E-02
DAV:   2    -0.443688870629E+03   -0.11993E-02   -0.12100E-02  3456   0.566E-02    0.105E-02
DAV:   3    -0.443688909168E+03   -0.38539E-04   -0.38772E-04  4024   0.119E-02    0.113E-02
DAV:   4    -0.443688910667E+03   -0.14990E-05   -0.18902E-05  2664   0.309E-03    0.901E-03
DAV:   5    -0.443688910603E+03    0.63570E-07   -0.10152E-06  2104   0.129E-03
 163 F= -.44368891E+03 E0= -.44368891E+03  d E =-.249270E-12
       N       E                     dE             d eps       ncg     rms          rms(c)
DAV:   1    -0.443683578889E+03    0.53318E-02   -0.35026E+00  3352   0.923E-01    0.977E-02
DAV:   2    -0.443688848598E+03   -0.52697E-02   -0.53370E-02  3496   0.140E-01    0.255E-02
DAV:   3    -0.443689018259E+03   -0.16966E-03   -0.17565E-03  4280   0.276E-02    0.227E-02
DAV:   4    -0.443689025641E+03   -0.73817E-05   -0.94131E-05  3376   0.734E-03    0.179E-02
DAV:   5    -0.443689025071E+03    0.57007E-06   -0.46005E-06  2592   0.289E-03
 164 F= -.44368903E+03 E0= -.44368903E+03  d E =-.240111E-12
       N       E                     dE             d eps       ncg     rms          rms(c)
DAV:   1    -0.443687435398E+03    0.15902E-02   -0.87128E-01  3344   0.399E-01    0.509E-02
DAV:   2    -0.443688721920E+03   -0.12865E-02   -0.12973E-02  3536   0.629E-02    0.128E-02
DAV:   3    -0.443688763498E+03   -0.41578E-04   -0.41343E-04  4064   0.121E-02    0.105E-02
DAV:   4    -0.443688765374E+03   -0.18759E-05   -0.20037E-05  2688   0.331E-03    0.782E-03
DAV:   5    -0.443688765522E+03   -0.14815E-06   -0.11957E-06  2320   0.175E-03
 165 F= -.44368877E+03 E0= -.44368877E+03  d E =-.255763E-12
       N       E                     dE             d eps       ncg     rms          rms(c)
DAV:   1    -0.443676059245E+03    0.12706E-01   -0.70466E+00  3384   0.129E+00    0.145E-01
DAV:   2    -0.443687294945E+03   -0.11236E-01   -0.11365E-01  3456   0.197E-01    0.355E-02
DAV:   3    -0.443687654872E+03   -0.35993E-03   -0.37725E-03  4304   0.383E-02    0.356E-02
DAV:   4    -0.443687669815E+03   -0.14944E-04   -0.19939E-04  3624   0.937E-03    0.277E-02
DAV:   5    -0.443687668804E+03    0.10110E-05   -0.10007E-05  2720   0.359E-03    0.208E-02
DAV:   6    -0.443687670514E+03   -0.17095E-05   -0.16863E-05  3328   0.104E-02    0.596E-03
DAV:   7    -0.443687671240E+03   -0.72652E-06   -0.57145E-06  3416   0.288E-03
 166 F= -.44368767E+03 E0= -.44368767E+03  d E =-.235026E-12
       N       E                     dE             d eps       ncg     rms          rms(c)
DAV:   1    -0.443687435358E+03    0.23516E-03   -0.87088E-01  3368   0.498E-01    0.523E-02
DAV:   2    -0.443688669315E+03   -0.12340E-02   -0.12404E-02  3496   0.679E-02    0.138E-02
DAV:   3    -0.443688703500E+03   -0.34185E-04   -0.36657E-04  4184   0.121E-02    0.136E-02
DAV:   4    -0.443688704381E+03   -0.88056E-06   -0.14629E-05  2888   0.301E-03    0.841E-03
DAV:   5    -0.443688704340E+03    0.40323E-07   -0.85763E-07  2040   0.120E-03
 167 F= -.44368870E+03 E0= -.44368870E+03  d E =-.234627E-12
       N       E                     dE             d eps       ncg     rms          rms(c)
DAV:   1    -0.443683264175E+03    0.54402E-02   -0.34996E+00  3376   0.101E+00    0.111E-01
DAV:   2    -0.443688633378E+03   -0.53692E-02   -0.54171E-02  3536   0.146E-01    0.294E-02
DAV:   3    -0.443688785695E+03   -0.15232E-03   -0.16647E-03  4248   0.281E-02    0.261E-02
DAV:   4    -0.443688792692E+03   -0.69969E-05   -0.93810E-05  3480   0.732E-03    0.171E-02
DAV:   5    -0.443688792537E+03    0.15433E-06   -0.45791E-06  2544   0.285E-03
 168 F= -.44368879E+03 E0= -.44368879E+03  d E =-.243112E-12
       N       E                     dE             d eps       ncg     rms          rms(c)
DAV:   1    -0.443686482059E+03    0.23106E-02   -0.87080E-01  3352   0.460E-01    0.547E-02
DAV:   2    -0.443687774377E+03   -0.12923E-02   -0.12964E-02  3520   0.706E-02    0.139E-02
DAV:   3    -0.443687814754E+03   -0.40377E-04   -0.42112E-04  4152   0.123E-02    0.127E-02
DAV:   4    -0.443687816213E+03   -0.14588E-05   -0.16618E-05  2864   0.319E-03    0.840E-03
DAV:   5    -0.443687816412E+03   -0.19876E-06   -0.10160E-06  2136   0.142E-03
 169 F= -.44368782E+03 E0= -.44368782E+03  d E =-.252929E-12
