  80  80   0   0
  0.2323530E+02  0.1210264E-08  0.7093817E-09  0.2165102E-08  0.2000000E-14
   600.00000000000000     
  CAR 
 NVT-AIMD user_Na5AlS4_Na5AlS4 600K      
      9.12252335    -24.36762385  301      1.42915350      1.00000000
    -24.368  0.0000E+00  0.0000E+00
    -24.256  0.0000E+00  0.0000E+00
    -24.144  0.0000E+00  0.0000E+00
    -24.033 -0.4410E-28 -0.4945E-29
    -23.921 -0.3443E-24 -0.3862E-25
    -23.809 -0.1422E-20 -0.1596E-21
    -23.698 -0.3122E-17 -0.3505E-18
    -23.586 -0.3639E-14 -0.4088E-15
    -23.475 -0.2177E-11 -0.2448E-12
    -23.363 -0.7080E-09 -0.7969E-10
    -23.251 -0.1216E-06 -0.1372E-07
    -23.140 -0.1100E-04 -0.1247E-05
    -23.028 -0.5219E-03 -0.5974E-04
    -22.916 -0.1287E-01 -0.1501E-02
    -22.805 -0.1613E+00 -0.1954E-01
    -22.693 -0.9658E+00 -0.1274E+00
    -22.581 -0.2125E+01 -0.3639E+00
    -22.470  0.2790E+01 -0.4905E-01
    -22.358  0.2277E+02  0.2496E+01
    -22.247  0.5302E+02  0.8402E+01
    -22.135  0.8637E+02  0.1801E+02
    -22.023  0.1232E+03  0.3171E+02
    -21.912  0.1568E+03  0.4917E+02
    -21.800  0.1795E+03  0.6920E+02
    -21.688  0.1871E+03  0.9012E+02
    -21.577  0.1844E+03  0.1108E+03
    -21.465  0.1805E+03  0.1310E+03
    -21.354  0.1795E+03  0.1512E+03
    -21.242  0.1817E+03  0.1716E+03
    -21.130  0.1721E+03  0.1910E+03
    -21.019  0.1409E+03  0.2069E+03
    -20.907  0.1034E+03  0.2185E+03
    -20.795  0.7444E+02  0.2269E+03
    -20.684  0.5442E+02  0.2331E+03
    -20.572  0.3680E+02  0.2372E+03
    -20.460  0.1948E+02  0.2394E+03
    -20.349  0.6043E+01  0.2401E+03
    -20.237 -0.1533E-01  0.2401E+03
    -20.126 -0.7413E+00  0.2400E+03
    -20.014 -0.2554E+00  0.2400E+03
    -19.902 -0.3961E-01  0.2400E+03
    -19.791 -0.3180E-02  0.2400E+03
    -19.679 -0.1357E-03  0.2400E+03
    -19.567 -0.3087E-05  0.2400E+03
    -19.456 -0.3730E-07  0.2400E+03
    -19.344 -0.2387E-09  0.2400E+03
    -19.232 -0.8073E-12  0.2400E+03
    -19.121 -0.1374E-14  0.2400E+03
    -19.009  0.0000E+00  0.2400E+03
    -18.898  0.0000E+00  0.2400E+03
    -18.786  0.0000E+00  0.2400E+03
    -18.674  0.0000E+00  0.2400E+03
    -18.563  0.0000E+00  0.2400E+03
    -18.451  0.0000E+00  0.2400E+03
    -18.339  0.0000E+00  0.2400E+03
    -18.228  0.0000E+00  0.2400E+03
    -18.116  0.0000E+00  0.2400E+03
    -18.004  0.0000E+00  0.2400E+03
    -17.893  0.0000E+00  0.2400E+03
    -17.781  0.0000E+00  0.2400E+03
    -17.670  0.0000E+00  0.2400E+03
    -17.558  0.0000E+00  0.2400E+03
    -17.446  0.0000E+00  0.2400E+03
    -17.335  0.0000E+00  0.2400E+03
    -17.223  0.0000E+00  0.2400E+03
    -17.111  0.0000E+00  0.2400E+03
    -17.000  0.0000E+00  0.2400E+03
    -16.888  0.0000E+00  0.2400E+03
    -16.777  0.0000E+00  0.2400E+03
    -16.665  0.0000E+00  0.2400E+03
    -16.553  0.0000E+00  0.2400E+03
    -16.442  0.0000E+00  0.2400E+03
    -16.330  0.0000E+00  0.2400E+03
    -16.218  0.0000E+00  0.2400E+03
    -16.107  0.0000E+00  0.2400E+03
    -15.995  0.0000E+00  0.2400E+03
    -15.883  0.0000E+00  0.2400E+03
    -15.772  0.0000E+00  0.2400E+03
    -15.660  0.0000E+00  0.2400E+03
    -15.549  0.0000E+00  0.2400E+03
    -15.437  0.0000E+00  0.2400E+03
    -15.325  0.0000E+00  0.2400E+03
    -15.214  0.0000E+00  0.2400E+03
    -15.102  0.0000E+00  0.2400E+03
    -14.990  0.0000E+00  0.2400E+03
    -14.879  0.0000E+00  0.2400E+03
    -14.767  0.0000E+00  0.2400E+03
    -14.655  0.0000E+00  0.2400E+03
    -14.544  0.0000E+00  0.2400E+03
    -14.432  0.0000E+00  0.2400E+03
    -14.321  0.0000E+00  0.2400E+03
    -14.209  0.0000E+00  0.2400E+03
    -14.097  0.0000E+00  0.2400E+03
    -13.986  0.0000E+00  0.2400E+03
    -13.874  0.0000E+00  0.2400E+03
    -13.762  0.0000E+00  0.2400E+03
    -13.651  0.0000E+00  0.2400E+03
    -13.539  0.0000E+00  0.2400E+03
    -13.428  0.0000E+00  0.2400E+03
    -13.316  0.0000E+00  0.2400E+03
    -13.204  0.0000E+00  0.2400E+03
    -13.093  0.0000E+00  0.2400E+03
    -12.981  0.0000E+00  0.2400E+03
    -12.869  0.0000E+00  0.2400E+03
    -12.758  0.0000E+00  0.2400E+03
    -12.646 -0.1300E-29  0.2400E+03
    -12.534 -0.9325E-26  0.2400E+03
    -12.423 -0.3612E-22  0.2400E+03
    -12.311 -0.7615E-19  0.2400E+03
    -12.200 -0.8738E-16  0.2400E+03
    -12.088 -0.5284E-13  0.2400E+03
    -11.976 -0.1777E-10  0.2400E+03
    -11.865 -0.3233E-08  0.2400E+03
    -11.753 -0.3168E-06  0.2400E+03
    -11.641 -0.1663E-04  0.2400E+03
    -11.530 -0.4627E-03  0.2400E+03
    -11.418 -0.6712E-02  0.2400E+03
    -11.306 -0.4879E-01  0.2400E+03
    -11.195 -0.1571E+00  0.2400E+03
    -11.083 -0.6725E-01  0.2400E+03
    -10.972  0.9699E+00  0.2401E+03
    -10.860  0.3520E+01  0.2405E+03
    -10.748  0.7673E+01  0.2413E+03
    -10.637  0.1277E+02  0.2427E+03
    -10.525  0.1699E+02  0.2446E+03
    -10.413  0.1884E+02  0.2467E+03
    -10.302  0.1906E+02  0.2489E+03
    -10.190  0.2162E+02  0.2513E+03
    -10.078  0.2964E+02  0.2546E+03
     -9.967  0.3899E+02  0.2590E+03
     -9.855  0.4324E+02  0.2638E+03
     -9.744  0.4445E+02  0.2688E+03
     -9.632  0.4758E+02  0.2741E+03
     -9.520  0.5092E+02  0.2798E+03
     -9.409  0.4989E+02  0.2854E+03
     -9.297  0.4447E+02  0.2904E+03
     -9.185  0.3849E+02  0.2947E+03
     -9.074  0.3092E+02  0.2982E+03
     -8.962  0.2120E+02  0.3006E+03
     -8.851  0.1322E+02  0.3021E+03
     -8.739  0.7834E+01  0.3030E+03
     -8.627  0.4341E+01  0.3035E+03
     -8.516  0.2341E+01  0.3037E+03
     -8.404  0.1316E+01  0.3039E+03
     -8.292  0.7555E+00  0.3040E+03
     -8.181  0.2447E+00  0.3040E+03
     -8.069 -0.2588E-01  0.3040E+03
     -7.957 -0.3796E-01  0.3040E+03
     -7.846 -0.9018E-02  0.3040E+03
     -7.734 -0.9128E-03  0.3040E+03
     -7.623 -0.4471E-04  0.3040E+03
     -7.511 -0.1105E-05  0.3040E+03
     -7.399 -0.1405E-07  0.3040E+03
     -7.288 -0.9275E-10  0.3040E+03
     -7.176 -0.3195E-12  0.3040E+03
     -7.064 -0.5897E-15  0.3040E+03
     -6.953  0.0000E+00  0.3040E+03
     -6.841  0.0000E+00  0.3040E+03
     -6.729  0.0000E+00  0.3040E+03
     -6.618  0.0000E+00  0.3040E+03
     -6.506  0.0000E+00  0.3040E+03
     -6.395  0.0000E+00  0.3040E+03
     -6.283  0.0000E+00  0.3040E+03
     -6.171  0.0000E+00  0.3040E+03
     -6.060  0.0000E+00  0.3040E+03
     -5.948  0.0000E+00  0.3040E+03
     -5.836  0.0000E+00  0.3040E+03
     -5.725  0.0000E+00  0.3040E+03
     -5.613  0.0000E+00  0.3040E+03
     -5.502  0.0000E+00  0.3040E+03
     -5.390  0.0000E+00  0.3040E+03
     -5.278 -0.1022E-27  0.3040E+03
     -5.167 -0.5876E-24  0.3040E+03
     -5.055 -0.1799E-20  0.3040E+03
     -4.943 -0.2930E-17  0.3040E+03
     -4.832 -0.2480E-14  0.3040E+03
     -4.720 -0.1129E-11  0.3040E+03
     -4.608 -0.2746E-09  0.3040E+03
     -4.497 -0.3537E-07  0.3040E+03
     -4.385 -0.2410E-05  0.3040E+03
     -4.274 -0.8648E-04  0.3040E+03
     -4.162 -0.1622E-02  0.3040E+03
     -4.050 -0.1562E-01  0.3040E+03
     -3.939 -0.7328E-01  0.3040E+03
     -3.827 -0.1300E+00  0.3040E+03
     -3.715  0.1723E+00  0.3040E+03
     -3.604  0.1396E+01  0.3042E+03
     -3.492  0.4148E+01  0.3046E+03
     -3.380  0.9273E+01  0.3056E+03
     -3.269  0.1610E+02  0.3074E+03
     -3.157  0.2078E+02  0.3098E+03
     -3.046  0.2079E+02  0.3121E+03
     -2.934  0.1890E+02  0.3142E+03
     -2.822  0.1724E+02  0.3162E+03
     -2.711  0.1471E+02  0.3178E+03
     -2.599  0.1077E+02  0.3190E+03
     -2.487  0.6199E+01  0.3197E+03
     -2.376  0.2326E+01  0.3200E+03
     -2.264  0.1732E+00  0.3200E+03
     -2.152 -0.3022E-01  0.3200E+03
     -2.041  0.1660E+01  0.3202E+03
     -1.929  0.6730E+01  0.3209E+03
     -1.818  0.1719E+02  0.3229E+03
     -1.706  0.3135E+02  0.3264E+03
     -1.594  0.4406E+02  0.3313E+03
     -1.483  0.5240E+02  0.3371E+03
     -1.371  0.5630E+02  0.3434E+03
     -1.259  0.5508E+02  0.3496E+03
     -1.148  0.4962E+02  0.3552E+03
     -1.036  0.4269E+02  0.3600E+03
     -0.925  0.3705E+02  0.3642E+03
     -0.813  0.3641E+02  0.3682E+03
     -0.701  0.4075E+02  0.3728E+03
     -0.590  0.4579E+02  0.3779E+03
     -0.478  0.5059E+02  0.3836E+03
     -0.366  0.5681E+02  0.3900E+03
     -0.255  0.6406E+02  0.3971E+03
     -0.143  0.6906E+02  0.4049E+03
     -0.031  0.6957E+02  0.4127E+03
      0.080  0.6953E+02  0.4205E+03
      0.192  0.7196E+02  0.4285E+03
      0.303  0.7541E+02  0.4370E+03
      0.415  0.7839E+02  0.4458E+03
      0.527  0.7850E+02  0.4546E+03
      0.638  0.7490E+02  0.4629E+03
      0.750  0.6872E+02  0.4706E+03
      0.862  0.6075E+02  0.4775E+03
      0.973  0.5205E+02  0.4833E+03
      1.085  0.4281E+02  0.4881E+03
      1.197  0.3236E+02  0.4918E+03
      1.308  0.2094E+02  0.4941E+03
      1.420  0.1087E+02  0.4953E+03
      1.531  0.4503E+01  0.4959E+03
      1.643  0.1418E+01  0.4960E+03
      1.755  0.1061E+00  0.4960E+03
      1.866 -0.1733E+00  0.4960E+03
      1.978 -0.7866E-01  0.4960E+03
      2.090 -0.1406E-01  0.4960E+03
      2.201 -0.1211E-02  0.4960E+03
      2.313 -0.5290E-04  0.4960E+03
      2.424 -0.1264E-05  0.4960E+03
      2.536 -0.5309E-05  0.4960E+03
      2.648 -0.2194E-03  0.4960E+03
      2.759 -0.4689E-02  0.4960E+03
      2.871 -0.4933E-01  0.4960E+03
      2.983 -0.2228E+00  0.4960E+03
      3.094 -0.1419E+00  0.4960E+03
      3.206  0.1847E+01  0.4962E+03
      3.318  0.5549E+01  0.4968E+03
      3.429  0.6506E+01  0.4975E+03
      3.541  0.3711E+01  0.4979E+03
      3.652  0.8595E+00  0.4980E+03
      3.764 -0.3618E+00  0.4980E+03
      3.876 -0.1945E+00  0.4980E+03
      3.987  0.1956E+01  0.4982E+03
      4.099  0.5853E+01  0.4988E+03
      4.211  0.9511E+01  0.4999E+03
      4.322  0.1062E+02  0.5011E+03
      4.434  0.7287E+01  0.5019E+03
      4.546  0.4289E+01  0.5024E+03
      4.657  0.6338E+01  0.5031E+03
      4.769  0.9873E+01  0.5042E+03
      4.880  0.1336E+02  0.5057E+03
      4.992  0.2074E+02  0.5080E+03
      5.104  0.2826E+02  0.5112E+03
      5.215  0.3010E+02  0.5146E+03
      5.327  0.3121E+02  0.5181E+03
      5.439  0.3537E+02  0.5220E+03
      5.550  0.4027E+02  0.5266E+03
      5.662  0.4409E+02  0.5315E+03
      5.774  0.4492E+02  0.5365E+03
      5.885  0.4284E+02  0.5413E+03
      5.997  0.4243E+02  0.5461E+03
      6.108  0.4412E+02  0.5510E+03
      6.220  0.4390E+02  0.5560E+03
      6.332  0.4337E+02  0.5608E+03
      6.443  0.4509E+02  0.5659E+03
      6.555  0.4802E+02  0.5713E+03
      6.667  0.5008E+02  0.5769E+03
      6.778  0.5012E+02  0.5825E+03
      6.890  0.4870E+02  0.5879E+03
      7.001  0.4699E+02  0.5932E+03
      7.113  0.3906E+02  0.5976E+03
      7.225  0.2028E+02  0.5999E+03
      7.336  0.3541E+01  0.6003E+03
      7.448 -0.1435E+01  0.6001E+03
      7.560 -0.7715E+00  0.6000E+03
      7.671 -0.1355E+00  0.6000E+03
      7.783 -0.1111E-01  0.6000E+03
      7.895 -0.4590E-03  0.6000E+03
      8.006 -0.9795E-05  0.6000E+03
      8.118 -0.1092E-06  0.6000E+03
      8.229 -0.6397E-09  0.6000E+03
      8.341 -0.1975E-11  0.6000E+03
      8.453 -0.3198E-14  0.6000E+03
      8.564  0.0000E+00  0.6000E+03
      8.676  0.0000E+00  0.6000E+03
      8.788  0.0000E+00  0.6000E+03
      8.899  0.0000E+00  0.6000E+03
      9.011  0.0000E+00  0.6000E+03
      9.123  0.0000E+00  0.6000E+03
      9.13586028    -24.65715343  301      1.42131325      1.00000000
    -24.657  0.0000E+00  0.0000E+00
    -24.545  0.0000E+00  0.0000E+00
    -24.432  0.0000E+00  0.0000E+00
    -24.319 -0.3710E-28 -0.4139E-29
    -24.207 -0.2824E-24 -0.3151E-25
    -24.094 -0.1137E-20 -0.1269E-21
    -23.981 -0.2450E-17 -0.2735E-18
    -23.869 -0.2827E-14 -0.3157E-15
    -23.756 -0.1690E-11 -0.1889E-12
    -23.643 -0.5541E-09 -0.6202E-10
    -23.531 -0.9691E-07 -0.1088E-07
    -23.418 -0.9017E-05 -0.1017E-05
    -23.305 -0.4442E-03 -0.5057E-04
    -23.193 -0.1147E-01 -0.1330E-02
    -23.080 -0.1516E+00 -0.1823E-01
    -22.968 -0.9639E+00 -0.1257E+00
    -22.855 -0.2306E+01 -0.3825E+00
    -22.742  0.2511E+01 -0.1019E+00
    -22.630  0.2346E+02  0.2514E+01
    -22.517  0.5338E+02  0.8460E+01
    -22.404  0.8258E+02  0.1766E+02
    -22.292  0.1207E+03  0.3110E+02
    -22.179  0.1732E+03  0.5039E+02
    -22.066  0.2327E+03  0.7633E+02
    -21.954  0.2864E+03  0.1083E+03
    -21.841  0.3139E+03  0.1433E+03
    -21.728  0.2877E+03  0.1754E+03
    -21.616  0.2157E+03  0.1995E+03
    -21.503  0.1398E+03  0.2151E+03
    -21.390  0.8811E+02  0.2249E+03
    -21.278  0.6131E+02  0.2318E+03
    -21.165  0.4136E+02  0.2364E+03
    -21.053  0.2123E+02  0.2388E+03
    -20.940  0.7860E+01  0.2397E+03
    -20.827  0.2345E+01  0.2399E+03
    -20.715  0.5510E+00  0.2400E+03
    -20.602  0.4972E-01  0.2400E+03
    -20.489 -0.6526E-01  0.2400E+03
    -20.377 -0.4886E-01  0.2400E+03
    -20.264 -0.1400E-01  0.2400E+03
    -20.151 -0.1883E-02  0.2400E+03
    -20.039 -0.1265E-03  0.2400E+03
    -19.926 -0.4375E-05  0.2400E+03
    -19.813 -0.7899E-07  0.2400E+03
    -19.701 -0.7506E-09  0.2400E+03
    -19.588 -0.3768E-11  0.2400E+03
    -19.476 -0.9975E-14  0.2400E+03
    -19.363  0.0000E+00  0.2400E+03
    -19.250  0.0000E+00  0.2400E+03
    -19.138  0.0000E+00  0.2400E+03
    -19.025  0.0000E+00  0.2400E+03
    -18.912  0.0000E+00  0.2400E+03
    -18.800  0.0000E+00  0.2400E+03
    -18.687  0.0000E+00  0.2400E+03
    -18.574  0.0000E+00  0.2400E+03
    -18.462  0.0000E+00  0.2400E+03
    -18.349  0.0000E+00  0.2400E+03
    -18.236  0.0000E+00  0.2400E+03
    -18.124  0.0000E+00  0.2400E+03
    -18.011  0.0000E+00  0.2400E+03
    -17.899  0.0000E+00  0.2400E+03
    -17.786  0.0000E+00  0.2400E+03
    -17.673  0.0000E+00  0.2400E+03
    -17.561  0.0000E+00  0.2400E+03
    -17.448  0.0000E+00  0.2400E+03
    -17.335  0.0000E+00  0.2400E+03
    -17.223  0.0000E+00  0.2400E+03
    -17.110  0.0000E+00  0.2400E+03
    -16.997  0.0000E+00  0.2400E+03
    -16.885  0.0000E+00  0.2400E+03
    -16.772  0.0000E+00  0.2400E+03
    -16.659  0.0000E+00  0.2400E+03
    -16.547  0.0000E+00  0.2400E+03
    -16.434  0.0000E+00  0.2400E+03
    -16.322  0.0000E+00  0.2400E+03
    -16.209  0.0000E+00  0.2400E+03
    -16.096  0.0000E+00  0.2400E+03
    -15.984  0.0000E+00  0.2400E+03
    -15.871  0.0000E+00  0.2400E+03
    -15.758  0.0000E+00  0.2400E+03
    -15.646  0.0000E+00  0.2400E+03
    -15.533  0.0000E+00  0.2400E+03
    -15.420  0.0000E+00  0.2400E+03
    -15.308  0.0000E+00  0.2400E+03
    -15.195  0.0000E+00  0.2400E+03
    -15.082  0.0000E+00  0.2400E+03
    -14.970  0.0000E+00  0.2400E+03
    -14.857  0.0000E+00  0.2400E+03
    -14.745  0.0000E+00  0.2400E+03
    -14.632  0.0000E+00  0.2400E+03
    -14.519  0.0000E+00  0.2400E+03
    -14.407  0.0000E+00  0.2400E+03
    -14.294  0.0000E+00  0.2400E+03
    -14.181  0.0000E+00  0.2400E+03
    -14.069  0.0000E+00  0.2400E+03
    -13.956  0.0000E+00  0.2400E+03
    -13.843  0.0000E+00  0.2400E+03
    -13.731  0.0000E+00  0.2400E+03
    -13.618  0.0000E+00  0.2400E+03
    -13.505  0.0000E+00  0.2400E+03
    -13.393  0.0000E+00  0.2400E+03
    -13.280  0.0000E+00  0.2400E+03
    -13.168  0.0000E+00  0.2400E+03
    -13.055  0.0000E+00  0.2400E+03
    -12.942 -0.7006E-29  0.2400E+03
    -12.830 -0.4869E-25  0.2400E+03
    -12.717 -0.1802E-21  0.2400E+03
    -12.604 -0.3567E-18  0.2400E+03
    -12.492 -0.3780E-15  0.2400E+03
    -12.379 -0.2074E-12  0.2400E+03
    -12.266 -0.6248E-10  0.2400E+03
    -12.154 -0.1004E-07  0.2400E+03
    -12.041 -0.8595E-06  0.2400E+03
    -11.928 -0.3896E-04  0.2400E+03
    -11.816 -0.9247E-03  0.2400E+03
    -11.703 -0.1117E-01  0.2400E+03
    -11.591 -0.6355E-01  0.2400E+03
    -11.478 -0.1177E+00  0.2400E+03
    -11.365  0.2867E+00  0.2400E+03
    -11.253  0.1540E+01  0.2402E+03
    -11.140  0.2644E+01  0.2405E+03
    -11.027  0.3354E+01  0.2409E+03
    -10.915  0.6340E+01  0.2416E+03
    -10.802  0.1293E+02  0.2430E+03
    -10.689  0.2078E+02  0.2453E+03
    -10.577  0.2677E+02  0.2483E+03
    -10.464  0.2893E+02  0.2515E+03
    -10.351  0.2787E+02  0.2546E+03
    -10.239  0.2689E+02  0.2576E+03
    -10.126  0.3051E+02  0.2610E+03
    -10.014  0.3940E+02  0.2654E+03
     -9.901  0.4902E+02  0.2709E+03
     -9.788  0.5585E+02  0.2771E+03
     -9.676  0.5978E+02  0.2838E+03
     -9.563  0.5782E+02  0.2902E+03
     -9.450  0.4669E+02  0.2955E+03
     -9.338  0.3309E+02  0.2992E+03
     -9.225  0.2246E+02  0.3017E+03
     -9.112  0.1314E+02  0.3031E+03
     -9.000  0.5824E+01  0.3038E+03
     -8.887  0.1906E+01  0.3040E+03
     -8.774  0.2980E+00  0.3040E+03
     -8.662 -0.1494E+00  0.3040E+03
     -8.549 -0.1055E+00  0.3040E+03
     -8.437 -0.2551E-01  0.3040E+03
     -8.324 -0.2932E-02  0.3040E+03
     -8.211 -0.1714E-03  0.3040E+03
     -8.099 -0.5228E-05  0.3040E+03
     -7.986 -0.8422E-07  0.3040E+03
     -7.873 -0.7219E-09  0.3040E+03
     -7.761 -0.3307E-11  0.3040E+03
     -7.648 -0.8064E-14  0.3040E+03
     -7.535  0.0000E+00  0.3040E+03
     -7.423  0.0000E+00  0.3040E+03
     -7.310  0.0000E+00  0.3040E+03
     -7.197  0.0000E+00  0.3040E+03
     -7.085  0.0000E+00  0.3040E+03
     -6.972  0.0000E+00  0.3040E+03
     -6.859  0.0000E+00  0.3040E+03
     -6.747  0.0000E+00  0.3040E+03
     -6.634  0.0000E+00  0.3040E+03
     -6.522  0.0000E+00  0.3040E+03
     -6.409  0.0000E+00  0.3040E+03
     -6.296  0.0000E+00  0.3040E+03
     -6.184  0.0000E+00  0.3040E+03
     -6.071  0.0000E+00  0.3040E+03
     -5.958  0.0000E+00  0.3040E+03
     -5.846  0.0000E+00  0.3040E+03
     -5.733  0.0000E+00  0.3040E+03
     -5.620 -0.4688E-31  0.3040E+03
     -5.508 -0.5911E-27  0.3040E+03
     -5.395 -0.2993E-23  0.3040E+03
     -5.282 -0.8098E-20  0.3040E+03
     -5.170 -0.1172E-16  0.3040E+03
     -5.057 -0.8811E-14  0.3040E+03
     -4.945 -0.3621E-11  0.3040E+03
     -4.832 -0.7962E-09  0.3040E+03
     -4.719 -0.9342E-07  0.3040E+03
     -4.607 -0.5830E-05  0.3040E+03
     -4.494 -0.1920E-03  0.3040E+03
     -4.381 -0.3277E-02  0.3040E+03
     -4.269 -0.2759E-01  0.3040E+03
     -4.156 -0.9727E-01  0.3040E+03
     -4.043 -0.4187E-02  0.3040E+03
     -3.931  0.7969E+00  0.3041E+03
     -3.818  0.1934E+01  0.3043E+03
     -3.705  0.2488E+01  0.3046E+03
     -3.593  0.4192E+01  0.3050E+03
     -3.480  0.8823E+01  0.3060E+03
     -3.368  0.1516E+02  0.3077E+03
     -3.255  0.2134E+02  0.3101E+03
     -3.142  0.2490E+02  0.3129E+03
     -3.030  0.2359E+02  0.3155E+03
     -2.917  0.1828E+02  0.3175E+03
     -2.804  0.1227E+02  0.3189E+03
     -2.692  0.7026E+01  0.3197E+03
     -2.579  0.2656E+01  0.3200E+03
     -2.466  0.3575E+00  0.3200E+03
     -2.354  0.4872E+00  0.3201E+03
     -2.241  0.1893E+01  0.3203E+03
     -2.128  0.3726E+01  0.3207E+03
     -2.016  0.7397E+01  0.3215E+03
     -1.903  0.1653E+02  0.3234E+03
     -1.791  0.3160E+02  0.3269E+03
     -1.678  0.4681E+02  0.3321E+03
     -1.565  0.5735E+02  0.3385E+03
     -1.453  0.6270E+02  0.3455E+03
     -1.340  0.6151E+02  0.3524E+03
     -1.227  0.5443E+02  0.3584E+03
     -1.115  0.4479E+02  0.3634E+03
     -1.002  0.3383E+02  0.3672E+03
     -0.889  0.2806E+02  0.3704E+03
     -0.777  0.3373E+02  0.3741E+03
     -0.664  0.4571E+02  0.3792E+03
     -0.551  0.5573E+02  0.3854E+03
     -0.439  0.6148E+02  0.3923E+03
     -0.326  0.6524E+02  0.3996E+03
     -0.214  0.6836E+02  0.4072E+03
     -0.101  0.7076E+02  0.4151E+03
      0.012  0.7213E+02  0.4231E+03
      0.124  0.7260E+02  0.4312E+03
      0.237  0.7369E+02  0.4395E+03
      0.350  0.7600E+02  0.4479E+03
      0.462  0.7770E+02  0.4566E+03
      0.575  0.7694E+02  0.4652E+03
      0.688  0.7245E+02  0.4733E+03
      0.800  0.6304E+02  0.4803E+03
      0.913  0.5119E+02  0.4860E+03
      1.026  0.4059E+02  0.4905E+03
      1.138  0.2913E+02  0.4938E+03
      1.251  0.1554E+02  0.4955E+03
      1.363  0.4847E+01  0.4961E+03
      1.476  0.1539E+00  0.4961E+03
      1.589 -0.5510E+00  0.4960E+03
      1.701 -0.2216E+00  0.4960E+03
      1.814 -0.3899E-01  0.4960E+03
      1.927 -0.3497E-02  0.4960E+03
      2.039 -0.1658E-03  0.4960E+03
      2.152 -0.4209E-05  0.4960E+03
      2.265 -0.5757E-07  0.4960E+03
      2.377 -0.5163E-08  0.4960E+03
      2.490 -0.5320E-06  0.4960E+03
      2.603 -0.3179E-04  0.4960E+03
      2.715 -0.9993E-03  0.4960E+03
      2.828 -0.1611E-01  0.4960E+03
      2.940 -0.1247E+00  0.4960E+03
      3.053 -0.3617E+00  0.4959E+03
      3.166  0.4006E+00  0.4960E+03
      3.278  0.4190E+01  0.4965E+03
      3.391  0.7801E+01  0.4973E+03
      3.504  0.5517E+01  0.4979E+03
      3.616  0.1055E+01  0.4981E+03
      3.729 -0.6306E+00  0.4980E+03
      3.842 -0.6955E+00  0.4979E+03
      3.954  0.1304E+01  0.4981E+03
      4.067  0.7654E+01  0.4989E+03
      4.180  0.1343E+02  0.5004E+03
      4.292  0.1090E+02  0.5016E+03
      4.405  0.3639E+01  0.5020E+03
      4.517 -0.3031E+00  0.5020E+03
      4.630  0.9450E+00  0.5021E+03
      4.743  0.7625E+01  0.5030E+03
      4.855  0.1692E+02  0.5048E+03
      4.968  0.2287E+02  0.5074E+03
      5.081  0.2641E+02  0.5103E+03
      5.193  0.3076E+02  0.5138E+03
      5.306  0.3574E+02  0.5178E+03
      5.419  0.3966E+02  0.5222E+03
      5.531  0.4250E+02  0.5269E+03
      5.644  0.4584E+02  0.5320E+03
      5.757  0.4687E+02  0.5373E+03
      5.869  0.4326E+02  0.5421E+03
      5.982  0.3993E+02  0.5465E+03
      6.094  0.4068E+02  0.5511E+03
      6.207  0.4336E+02  0.5559E+03
      6.320  0.4636E+02  0.5611E+03
      6.432  0.4922E+02  0.5666E+03
      6.545  0.5055E+02  0.5722E+03
      6.658  0.5191E+02  0.5780E+03
      6.770  0.5336E+02  0.5840E+03
      6.883  0.5052E+02  0.5896E+03
      6.996  0.4329E+02  0.5944E+03
      7.108  0.3266E+02  0.5981E+03
      7.221  0.1653E+02  0.5999E+03
      7.334  0.2773E+01  0.6002E+03
      7.446 -0.1276E+01  0.6001E+03
      7.559 -0.6569E+00  0.6000E+03
      7.671 -0.1125E+00  0.6000E+03
      7.784 -0.9012E-02  0.6000E+03
      7.897 -0.3642E-03  0.6000E+03
      8.009 -0.7639E-05  0.6000E+03
      8.122 -0.8420E-07  0.6000E+03
      8.235 -0.4910E-09  0.6000E+03
      8.347 -0.1520E-11  0.6000E+03
      8.460 -0.2982E-14  0.6000E+03
      8.573  0.0000E+00  0.6000E+03
      8.685  0.0000E+00  0.6000E+03
      8.798  0.0000E+00  0.6000E+03
      8.911  0.0000E+00  0.6000E+03
      9.023  0.0000E+00  0.6000E+03
      9.136  0.0000E+00  0.6000E+03
      9.20809414    -24.21101965  301      1.21047766      1.00000000
    -24.211  0.0000E+00  0.0000E+00
    -24.100  0.0000E+00  0.0000E+00
    -23.988  0.0000E+00  0.0000E+00
    -23.877 -0.3940E-28 -0.4409E-29
    -23.765 -0.3052E-24 -0.3416E-25
    -23.654 -0.1250E-20 -0.1400E-21
    -23.543 -0.2733E-17 -0.3061E-18
    -23.431 -0.3185E-14 -0.3568E-15
    -23.320 -0.1914E-11 -0.2147E-12
    -23.208 -0.6284E-09 -0.7056E-10
    -23.097 -0.1094E-06 -0.1232E-07
    -22.986 -0.1008E-04 -0.1140E-05
    -22.874 -0.4878E-03 -0.5572E-04
    -22.763 -0.1225E-01 -0.1426E-02
    -22.651 -0.1553E+00 -0.1880E-01
    -22.540 -0.9206E+00 -0.1217E+00
    -22.429 -0.1830E+01 -0.3259E+00
    -22.317  0.3665E+01  0.8521E-01
    -22.206  0.2191E+02  0.2535E+01
    -22.094  0.4278E+02  0.7309E+01
    -21.983  0.6355E+02  0.1439E+02
    -21.872  0.1003E+03  0.2556E+02
    -21.760  0.1556E+03  0.4290E+02
    -21.649  0.2163E+03  0.6703E+02
    -21.537  0.2636E+03  0.9648E+02
    -21.426  0.2836E+03  0.1282E+03
    -21.315  0.2698E+03  0.1584E+03
    -21.203  0.2272E+03  0.1838E+03
    -21.092  0.1762E+03  0.2036E+03
    -20.981  0.1286E+03  0.2180E+03
    -20.869  0.8473E+02  0.2275E+03
    -20.758  0.5191E+02  0.2334E+03
    -20.646  0.3202E+02  0.2370E+03
    -20.535  0.1706E+02  0.2389E+03
    -20.424  0.5989E+01  0.2396E+03
    -20.312  0.1800E+01  0.2398E+03
    -20.201  0.1414E+01  0.2399E+03
    -20.089  0.7176E+00  0.2400E+03
    -19.978  0.5274E-02  0.2400E+03
    -19.867 -0.9384E-01  0.2400E+03
    -19.755 -0.2671E-01  0.2400E+03
    -19.644 -0.3063E-02  0.2400E+03
    -19.532 -0.1687E-03  0.2400E+03
    -19.421 -0.4704E-05  0.2400E+03
    -19.310 -0.6787E-07  0.2400E+03
    -19.198 -0.5118E-09  0.2400E+03
    -19.087 -0.2029E-11  0.2400E+03
    -18.975 -0.4215E-14  0.2400E+03
    -18.864  0.0000E+00  0.2400E+03
    -18.753  0.0000E+00  0.2400E+03
    -18.641  0.0000E+00  0.2400E+03
    -18.530  0.0000E+00  0.2400E+03
    -18.418  0.0000E+00  0.2400E+03
    -18.307  0.0000E+00  0.2400E+03
    -18.196  0.0000E+00  0.2400E+03
    -18.084  0.0000E+00  0.2400E+03
    -17.973  0.0000E+00  0.2400E+03
    -17.861  0.0000E+00  0.2400E+03
    -17.750  0.0000E+00  0.2400E+03
    -17.639  0.0000E+00  0.2400E+03
    -17.527  0.0000E+00  0.2400E+03
    -17.416  0.0000E+00  0.2400E+03
    -17.304  0.0000E+00  0.2400E+03
    -17.193  0.0000E+00  0.2400E+03
    -17.082  0.0000E+00  0.2400E+03
    -16.970  0.0000E+00  0.2400E+03
    -16.859  0.0000E+00  0.2400E+03
    -16.747  0.0000E+00  0.2400E+03
    -16.636  0.0000E+00  0.2400E+03
    -16.525  0.0000E+00  0.2400E+03
    -16.413  0.0000E+00  0.2400E+03
    -16.302  0.0000E+00  0.2400E+03
    -16.190  0.0000E+00  0.2400E+03
    -16.079  0.0000E+00  0.2400E+03
    -15.968  0.0000E+00  0.2400E+03
    -15.856  0.0000E+00  0.2400E+03
    -15.745  0.0000E+00  0.2400E+03
    -15.633  0.0000E+00  0.2400E+03
    -15.522  0.0000E+00  0.2400E+03
    -15.411  0.0000E+00  0.2400E+03
    -15.299  0.0000E+00  0.2400E+03
    -15.188  0.0000E+00  0.2400E+03
    -15.076  0.0000E+00  0.2400E+03
    -14.965  0.0000E+00  0.2400E+03
    -14.854  0.0000E+00  0.2400E+03
    -14.742  0.0000E+00  0.2400E+03
    -14.631  0.0000E+00  0.2400E+03
    -14.519  0.0000E+00  0.2400E+03
    -14.408  0.0000E+00  0.2400E+03
    -14.297  0.0000E+00  0.2400E+03
    -14.185  0.0000E+00  0.2400E+03
    -14.074  0.0000E+00  0.2400E+03
    -13.962  0.0000E+00  0.2400E+03
    -13.851  0.0000E+00  0.2400E+03
    -13.740  0.0000E+00  0.2400E+03
    -13.628  0.0000E+00  0.2400E+03
    -13.517  0.0000E+00  0.2400E+03
    -13.406  0.0000E+00  0.2400E+03
    -13.294  0.0000E+00  0.2400E+03
    -13.183  0.0000E+00  0.2400E+03
    -13.071  0.0000E+00  0.2400E+03
    -12.960  0.0000E+00  0.2400E+03
    -12.849  0.0000E+00  0.2400E+03
    -12.737  0.0000E+00  0.2400E+03
    -12.626 -0.2247E-31  0.2400E+03
    -12.514 -0.2667E-27  0.2400E+03
    -12.403 -0.1374E-23  0.2400E+03
    -12.292 -0.3777E-20  0.2400E+03
    -12.180 -0.5536E-17  0.2400E+03
    -12.069 -0.4195E-14  0.2400E+03
    -11.957 -0.1734E-11  0.2400E+03
    -11.846 -0.3802E-09  0.2400E+03
    -11.735 -0.4411E-07  0.2400E+03
    -11.623 -0.2696E-05  0.2400E+03
    -11.512 -0.8616E-04  0.2400E+03
    -11.400 -0.1422E-02  0.2400E+03
    -11.289 -0.1187E-01  0.2400E+03
    -11.178 -0.4783E-01  0.2400E+03
    -11.066 -0.7487E-01  0.2400E+03
    -10.955  0.9961E-01  0.2400E+03
    -10.843  0.8813E+00  0.2401E+03
    -10.732  0.2756E+01  0.2404E+03
    -10.621  0.6189E+01  0.2411E+03
    -10.509  0.1208E+02  0.2424E+03
    -10.398  0.1954E+02  0.2446E+03
    -10.286  0.2583E+02  0.2475E+03
    -10.175  0.2841E+02  0.2507E+03
    -10.064  0.2522E+02  0.2535E+03
     -9.952  0.2274E+02  0.2561E+03
     -9.841  0.2860E+02  0.2592E+03
     -9.729  0.3941E+02  0.2637E+03
     -9.618  0.4948E+02  0.2692E+03
     -9.507  0.5681E+02  0.2755E+03
     -9.395  0.6004E+02  0.2822E+03
     -9.284  0.5672E+02  0.2886E+03
     -9.172  0.4808E+02  0.2940E+03
     -9.061  0.3864E+02  0.2983E+03
     -8.950  0.2755E+02  0.3014E+03
     -8.838  0.1458E+02  0.3030E+03
     -8.727  0.5896E+01  0.3037E+03
     -8.615  0.2384E+01  0.3040E+03
     -8.504  0.6561E+00  0.3040E+03
     -8.393 -0.1078E+00  0.3040E+03
     -8.281 -0.1336E+00  0.3040E+03
     -8.170 -0.3536E-01  0.3040E+03
     -8.058 -0.4180E-02  0.3040E+03
     -7.947 -0.2454E-03  0.3040E+03
     -7.836 -0.7396E-05  0.3040E+03
     -7.724 -0.1160E-06  0.3040E+03
     -7.613 -0.9526E-09  0.3040E+03
     -7.501 -0.4110E-11  0.3040E+03
     -7.390 -0.9342E-14  0.3040E+03
     -7.279  0.0000E+00  0.3040E+03
     -7.167  0.0000E+00  0.3040E+03
     -7.056  0.0000E+00  0.3040E+03
     -6.944  0.0000E+00  0.3040E+03
     -6.833  0.0000E+00  0.3040E+03
     -6.722  0.0000E+00  0.3040E+03
     -6.610  0.0000E+00  0.3040E+03
     -6.499  0.0000E+00  0.3040E+03
     -6.387  0.0000E+00  0.3040E+03
     -6.276  0.0000E+00  0.3040E+03
     -6.165  0.0000E+00  0.3040E+03
     -6.053  0.0000E+00  0.3040E+03
     -5.942  0.0000E+00  0.3040E+03
     -5.831  0.0000E+00  0.3040E+03
     -5.719  0.0000E+00  0.3040E+03
     -5.608  0.0000E+00  0.3040E+03
     -5.496  0.0000E+00  0.3040E+03
     -5.385  0.0000E+00  0.3040E+03
     -5.274  0.0000E+00  0.3040E+03
     -5.162 -0.1816E-29  0.3040E+03
     -5.051 -0.1376E-25  0.3040E+03
     -4.939 -0.5501E-22  0.3040E+03
     -4.828 -0.1175E-18  0.3040E+03
     -4.717 -0.1341E-15  0.3040E+03
     -4.605 -0.7921E-13  0.3040E+03
     -4.494 -0.2568E-10  0.3040E+03
     -4.382 -0.4451E-08  0.3040E+03
     -4.271 -0.4126E-06  0.3040E+03
     -4.160 -0.2046E-04  0.3040E+03
     -4.048 -0.5408E-03  0.3040E+03
     -3.937 -0.7538E-02  0.3040E+03
     -3.825 -0.5356E-01  0.3040E+03
     -3.714 -0.1728E+00  0.3040E+03
     -3.603 -0.9012E-01  0.3040E+03
     -3.491  0.1023E+01  0.3041E+03
     -3.380  0.3968E+01  0.3045E+03
     -3.268  0.9118E+01  0.3055E+03
     -3.157  0.1583E+02  0.3073E+03
     -3.046  0.2224E+02  0.3098E+03
     -2.934  0.2644E+02  0.3127E+03
     -2.823  0.2622E+02  0.3157E+03
     -2.711  0.1978E+02  0.3179E+03
     -2.600  0.1078E+02  0.3191E+03
     -2.489  0.4727E+01  0.3196E+03
     -2.377  0.2106E+01  0.3199E+03
     -2.266  0.9516E+00  0.3200E+03
     -2.154  0.1610E-01  0.3200E+03
     -2.043 -0.6184E+00  0.3199E+03
     -1.932  0.2030E+00  0.3199E+03
     -1.820  0.5029E+01  0.3205E+03
     -1.709  0.1603E+02  0.3223E+03
     -1.597  0.3230E+02  0.3259E+03
     -1.486  0.4845E+02  0.3313E+03
     -1.375  0.5902E+02  0.3379E+03
     -1.263  0.6434E+02  0.3451E+03
     -1.152  0.6461E+02  0.3523E+03
     -1.040  0.5708E+02  0.3587E+03
     -0.929  0.4231E+02  0.3635E+03
     -0.818  0.2792E+02  0.3666E+03
     -0.706  0.2433E+02  0.3693E+03
     -0.595  0.3342E+02  0.3730E+03
     -0.483  0.4745E+02  0.3783E+03
     -0.372  0.5749E+02  0.3848E+03
     -0.261  0.6114E+02  0.3916E+03
     -0.149  0.6464E+02  0.3988E+03
     -0.038  0.6967E+02  0.4066E+03
      0.074  0.7156E+02  0.4146E+03
      0.185  0.7094E+02  0.4226E+03