       N       E                     dE             d eps       ncg     rms          rms(c)
DAV:   1     0.479997296424E+04    0.48000E+04   -0.20267E+05   648   0.141E+03
DAV:   2     0.374095753024E+03   -0.44259E+04   -0.42585E+04   640   0.403E+02
DAV:   3    -0.284099068745E+03   -0.65819E+03   -0.64921E+03   708   0.168E+02
DAV:   4    -0.326294604898E+03   -0.42196E+02   -0.41969E+02   688   0.389E+01
DAV:   5    -0.328152878077E+03   -0.18583E+01   -0.18559E+01   856   0.850E+00    0.269E+01
RMM:   6    -0.309591864496E+03    0.18561E+02   -0.31900E+01   645   0.590E+00    0.180E+01
RMM:   7    -0.308640678758E+03    0.95119E+00   -0.40719E+01   626   0.557E+00    0.105E+01
RMM:   8    -0.308913517237E+03   -0.27284E+00   -0.96774E+00   611   0.402E+00    0.529E+00
RMM:   9    -0.308167229579E+03    0.74629E+00   -0.16063E+00   664   0.207E+00    0.874E-01
RMM:  10    -0.308301495591E+03   -0.13427E+00   -0.11241E+00   699   0.117E+00    0.238E+00
RMM:  11    -0.308226962224E+03    0.74533E-01   -0.15099E-01   642   0.621E-01    0.957E-01
RMM:  12    -0.308221621934E+03    0.53403E-02   -0.64799E-02   692   0.344E-01    0.180E-01
RMM:  13    -0.308222900809E+03   -0.12789E-02   -0.24710E-02   845   0.211E-01    0.212E-01
RMM:  14    -0.308223027017E+03   -0.12621E-03   -0.12038E-03   625   0.617E-02    0.264E-01
RMM:  15    -0.308222877708E+03    0.14931E-03   -0.26595E-04   647   0.305E-02    0.239E-01
RMM:  16    -0.308222799517E+03    0.78191E-04   -0.10728E-04   530   0.163E-02    0.195E-01
RMM:  17    -0.308222721723E+03    0.77794E-04   -0.87707E-04   690   0.329E-02    0.481E-02
RMM:  18    -0.308222783364E+03   -0.61641E-04   -0.28865E-04   661   0.187E-02    0.189E-01
RMM:  19    -0.308222793619E+03   -0.10255E-04   -0.34859E-05   482   0.103E-02    0.162E-01
RMM:  20    -0.308222796365E+03   -0.27460E-05   -0.52626E-06   352   0.464E-03
      1 T=   600. E= -.30209558E+03 F= -.30822280E+03 E0= -.30828723E+03  EK= 0.61272E+01 SP= 0.00E+00 SK= 0.00E+00
       N       E                     dE             d eps       ncg     rms          rms(c)
DAV:   1    -0.308065048917E+03    0.15774E+00   -0.49256E+01   688   0.121E+01    0.210E+00
RMM:   2    -0.308167928867E+03   -0.10288E+00   -0.11181E+00   790   0.243E+00    0.678E-01
RMM:   3    -0.308182297977E+03   -0.14369E-01   -0.18052E-01   648   0.109E+00    0.451E-01
RMM:   4    -0.308186304438E+03   -0.40065E-02   -0.63159E-02   846   0.561E-01    0.358E-01
RMM:   5    -0.308185663540E+03    0.64090E-03   -0.32836E-03   694   0.123E-01    0.269E-01
RMM:   6    -0.308185439356E+03    0.22418E-03   -0.26821E-03   673   0.877E-02    0.892E-02
RMM:   7    -0.308185526742E+03   -0.87386E-04   -0.88386E-04   801   0.549E-02    0.479E-02
RMM:   8    -0.308185485224E+03    0.41518E-04   -0.23059E-04   538   0.246E-02    0.292E-02
RMM:   9    -0.308185484711E+03    0.51396E-06   -0.35785E-05   488   0.174E-02
      2 T=   596. E= -.30209662E+03 F= -.30818548E+03 E0= -.30824927E+03  EK= 0.60889E+01 SP= 0.67E-05 SK= 0.59E-09
       N       E                     dE             d eps       ncg     rms          rms(c)
DAV:   1    -0.308065732002E+03    0.11975E+00   -0.31583E-01   880   0.249E+00    0.535E-01
RMM:   2    -0.308071334189E+03   -0.56022E-02   -0.56652E-02   604   0.499E-01    0.744E-02
RMM:   3    -0.308072515904E+03   -0.11817E-02   -0.11189E-02   792   0.235E-01    0.187E-01
RMM:   4    -0.308072704820E+03   -0.18892E-03   -0.20663E-03   737   0.101E-01    0.162E-01
RMM:   5    -0.308072736740E+03   -0.31920E-04   -0.35167E-04   833   0.398E-02    0.159E-01
RMM:   6    -0.308072738302E+03   -0.15624E-05   -0.20685E-05   369   0.103E-02
      3 T=   585. E= -.30209729E+03 F= -.30807274E+03 E0= -.30813531E+03  EK= 0.59764E+01 SP= -.92E-03 SK= 0.12E-04
       N       E                     dE             d eps       ncg     rms          rms(c)
DAV:   1    -0.307878826265E+03    0.19391E+00   -0.34515E-01   828   0.220E+00    0.653E-01
RMM:   2    -0.307886981869E+03   -0.81556E-02   -0.81606E-02   631   0.536E-01    0.281E-01
RMM:   3    -0.307888672408E+03   -0.16905E-02   -0.17325E-02   792   0.270E-01    0.411E-01
RMM:   4    -0.307888875259E+03   -0.20285E-03   -0.26349E-03   669   0.118E-01    0.161E-01
RMM:   5    -0.307889014630E+03   -0.13937E-03   -0.11977E-03   765   0.649E-02    0.167E-01
RMM:   6    -0.307888914884E+03    0.99746E-04   -0.28719E-04   590   0.307E-02    0.604E-02
RMM:   7    -0.307888919780E+03   -0.48965E-05   -0.16644E-04   666   0.192E-02    0.122E-02
RMM:   8    -0.307888919952E+03   -0.17190E-06   -0.23661E-05   399   0.947E-03
      4 T=   568. E= -.30209672E+03 F= -.30788892E+03 E0= -.30794996E+03  EK= 0.57976E+01 SP= -.56E-02 SK= 0.18E-03
       N       E                     dE             d eps       ncg     rms          rms(c)
DAV:   1    -0.307637224597E+03    0.25170E+00   -0.13364E-01   880   0.191E+00    0.791E-01
RMM:   2    -0.307641917509E+03   -0.46929E-02   -0.45151E-02   646   0.415E-01    0.272E-01
RMM:   3    -0.307642960660E+03   -0.10432E-02   -0.10200E-02   792   0.209E-01    0.151E-01
RMM:   4    -0.307643096951E+03   -0.13629E-03   -0.17351E-03   720   0.915E-02    0.802E-02
RMM:   5    -0.307643137257E+03   -0.40306E-04   -0.47034E-04   846   0.437E-02    0.403E-02
RMM:   6    -0.307643128374E+03    0.88827E-05   -0.77226E-05   540   0.161E-02
      5 T=   545. E= -.30209597E+03 F= -.30764313E+03 E0= -.30770236E+03  EK= 0.55644E+01 SP= -.18E-01 SK= 0.11E-02
       N       E                     dE             d eps       ncg     rms          rms(c)
DAV:   1    -0.307342555305E+03    0.30058E+00   -0.74999E-02   872   0.174E+00    0.295E-01
RMM:   2    -0.307347002913E+03   -0.44476E-02   -0.41232E-02   666   0.362E-01    0.158E-01
RMM:   3    -0.307347820660E+03   -0.81775E-03   -0.79951E-03   792   0.180E-01    0.204E-01
RMM:   4    -0.307347946180E+03   -0.12552E-03   -0.14504E-03   783   0.765E-02    0.143E-01
RMM:   5    -0.307347955224E+03   -0.90448E-05   -0.29571E-04   663   0.305E-02    0.334E-02
RMM:   6    -0.307347960716E+03   -0.54921E-05   -0.51249E-05   543   0.131E-02
      6 T=   518. E= -.30209505E+03 F= -.30734796E+03 E0= -.30740523E+03  EK= 0.52937E+01 SP= -.45E-01 SK= 0.41E-02
       N       E                     dE             d eps       ncg     rms          rms(c)
DAV:   1    -0.307015641644E+03    0.33231E+00   -0.45739E-02   880   0.161E+00    0.346E-01
RMM:   2    -0.307018835760E+03   -0.31941E-02   -0.30304E-02   677   0.300E-01    0.432E-02
RMM:   3    -0.307019438449E+03   -0.60269E-03   -0.57849E-03   792   0.149E-01    0.830E-02
RMM:   4    -0.307019557537E+03   -0.11909E-03   -0.11844E-03   816   0.640E-02    0.548E-02
RMM:   5    -0.307019566430E+03   -0.88926E-05   -0.10271E-04   542   0.185E-02    0.383E-02
RMM:   6    -0.307019566092E+03    0.33811E-06   -0.11150E-05   360   0.796E-03
      7 T=   490. E= -.30209401E+03 F= -.30701957E+03 E0= -.30707460E+03  EK= 0.50059E+01 SP= -.92E-01 SK= 0.12E-01
       N       E                     dE             d eps       ncg     rms          rms(c)
DAV:   1    -0.306672203016E+03    0.34736E+00   -0.34426E-02   888   0.153E+00    0.238E-01
RMM:   2    -0.306674908754E+03   -0.27057E-02   -0.24547E-02   684   0.275E-01    0.545E-02
RMM:   3    -0.306675398042E+03   -0.48929E-03   -0.47523E-03   792   0.135E-01    0.975E-02
RMM:   4    -0.306675500355E+03   -0.10231E-03   -0.10418E-03   818   0.587E-02    0.746E-02
RMM:   5    -0.306675504359E+03   -0.40038E-05   -0.78030E-05   504   0.153E-02
      8 T=   462. E= -.30209280E+03 F= -.30667550E+03 E0= -.30672825E+03  EK= 0.47223E+01 SP= -.17E+00 SK= 0.27E-01
       N       E                     dE             d eps       ncg     rms          rms(c)
DAV:   1    -0.306328935930E+03    0.34656E+00   -0.37206E-02   860   0.147E+00    0.145E-01
RMM:   2    -0.306331456914E+03   -0.25210E-02   -0.23021E-02   692   0.262E-01    0.100E-01
RMM:   3    -0.306331892543E+03   -0.43563E-03   -0.43529E-03   793   0.126E-01    0.143E-01
RMM:   4    -0.306331981587E+03   -0.89044E-04   -0.89040E-04   822   0.529E-02    0.130E-01
RMM:   5    -0.306331984633E+03   -0.30461E-05   -0.62393E-05   450   0.137E-02
      9 T=   437. E= -.30209182E+03 F= -.30633198E+03 E0= -.30638274E+03  EK= 0.44615E+01 SP= -.28E+00 SK= 0.54E-01
       N       E                     dE             d eps       ncg     rms          rms(c)
DAV:   1    -0.306000206491E+03    0.33178E+00   -0.26273E-02   908   0.142E+00    0.744E-02
RMM:   2    -0.306002296428E+03   -0.20899E-02   -0.19081E-02   699   0.231E-01    0.178E-01
RMM:   3    -0.306002665287E+03   -0.36886E-03   -0.34169E-03   792   0.109E-01    0.237E-01
RMM:   4    -0.306002703043E+03   -0.37756E-04   -0.65194E-04   799   0.466E-02    0.216E-01
RMM:   5    -0.306002722156E+03   -0.19112E-04   -0.18873E-04   646   0.288E-02    0.159E-01
RMM:   6    -0.306002702789E+03    0.19367E-04   -0.40358E-05   475   0.110E-02    0.140E-01
RMM:   7    -0.306002694651E+03    0.81374E-05   -0.76554E-06   358   0.650E-03
     10 T=   415. E= -.30209095E+03 F= -.30600269E+03 E0= -.30605223E+03  EK= 0.42395E+01 SP= -.43E+00 SK= 0.98E-01
       N       E                     dE             d eps       ncg     rms          rms(c)
DAV:   1    -0.305695834090E+03    0.30687E+00   -0.24669E-02   900   0.139E+00    0.255E-01
RMM:   2    -0.305697498148E+03   -0.16641E-02   -0.17378E-02   700   0.238E-01    0.710E-02
RMM:   3    -0.305697819087E+03   -0.32094E-03   -0.33024E-03   792   0.105E-01    0.807E-02
RMM:   4    -0.305697873608E+03   -0.54521E-04   -0.62176E-04   799   0.453E-02    0.645E-02
RMM:   5    -0.305697870950E+03    0.26586E-05   -0.75686E-05   565   0.167E-02
     11 T=   398. E= -.30209037E+03 F= -.30569787E+03 E0= -.30574657E+03  EK= 0.40683E+01 SP= -.62E+00 SK= 0.16E+00
       N       E                     dE             d eps       ncg     rms          rms(c)
DAV:   1    -0.305419594042E+03    0.27828E+00   -0.20007E-02   912   0.134E+00    0.376E-01
RMM:   2    -0.305421093493E+03   -0.14995E-02   -0.15366E-02   700   0.205E-01    0.119E-01
RMM:   3    -0.305421361958E+03   -0.26847E-03   -0.27495E-03   795   0.978E-02    0.308E-02
RMM:   4    -0.305421418475E+03   -0.56517E-04   -0.54782E-04   798   0.426E-02    0.191E-02
RMM:   5    -0.305421418101E+03    0.37395E-06   -0.47878E-05   452   0.127E-02
     12 T=   387. E= -.30208987E+03 F= -.30542142E+03 E0= -.30546948E+03  EK= 0.39538E+01 SP= -.87E+00 SK= 0.25E+00
       N       E                     dE             d eps       ncg     rms          rms(c)
DAV:   1    -0.305172160927E+03    0.24926E+00   -0.17549E-02   900   0.133E+00    0.799E-02
RMM:   2    -0.305173597476E+03   -0.14365E-02   -0.13210E-02   706   0.200E-01    0.912E-02
RMM:   3    -0.305173833324E+03   -0.23585E-03   -0.23188E-03   792   0.907E-02    0.113E-01
RMM:   4    -0.305173888120E+03   -0.54796E-04   -0.51354E-04   792   0.400E-02    0.121E-01
RMM:   5    -0.305173889972E+03   -0.18518E-05   -0.31261E-05   405   0.129E-02
     13 T=   382. E= -.30208920E+03 F= -.30517389E+03 E0= -.30522161E+03  EK= 0.38992E+01 SP= -.12E+01 SK= 0.36E+00
       N       E                     dE             d eps       ncg     rms          rms(c)
DAV:   1    -0.304951775147E+03    0.22211E+00   -0.18750E-02   888   0.133E+00    0.229E-01
RMM:   2    -0.304952809613E+03   -0.10345E-02   -0.11664E-02   707   0.189E-01    0.774E-02
RMM:   3    -0.304952979286E+03   -0.16967E-03   -0.21392E-03   795   0.896E-02    0.594E-02
RMM:   4    -0.304953003514E+03   -0.24228E-04   -0.45734E-04   751   0.389E-02    0.473E-02
RMM:   5    -0.304952996902E+03    0.66120E-05   -0.82991E-05   553   0.181E-02
     14 T=   382. E= -.30208874E+03 F= -.30495300E+03 E0= -.30500057E+03  EK= 0.39046E+01 SP= -.15E+01 SK= 0.48E+00
       N       E                     dE             d eps       ncg     rms          rms(c)
DAV:   1    -0.304751783550E+03    0.20122E+00   -0.19943E-02   940   0.139E+00    0.188E-01
RMM:   2    -0.304752775333E+03   -0.99178E-03   -0.13001E-02   683   0.206E-01    0.855E-02
RMM:   3    -0.304752982678E+03   -0.20735E-03   -0.25806E-03   792   0.945E-02    0.789E-02
RMM:   4    -0.304753010722E+03   -0.28044E-04   -0.50745E-04   771   0.407E-02    0.572E-02
RMM:   5    -0.304753001907E+03    0.88150E-05   -0.10453E-04   593   0.193E-02    0.118E-02
RMM:   6    -0.304753002713E+03   -0.80587E-06   -0.19319E-05   367   0.929E-03
     15 T=   389. E= -.30208809E+03 F= -.30475300E+03 E0= -.30480047E+03  EK= 0.39682E+01 SP= -.19E+01 SK= 0.63E+00
       N       E                     dE             d eps       ncg     rms          rms(c)
DAV:   1    -0.304567475796E+03    0.18553E+00   -0.18615E-02   892   0.134E+00    0.155E-01
RMM:   2    -0.304568800437E+03   -0.13246E-02   -0.12305E-02   684   0.191E-01    0.384E-02
RMM:   3    -0.304569018253E+03   -0.21782E-03   -0.23015E-03   795   0.930E-02    0.549E-02
RMM:   4    -0.304569054589E+03   -0.36336E-04   -0.40664E-04   761   0.384E-02    0.365E-02
RMM:   5    -0.304569053452E+03    0.11368E-05   -0.45596E-05   450   0.126E-02
     16 T=   400. E= -.30208730E+03 F= -.30456905E+03 E0= -.30461628E+03  EK= 0.40890E+01 SP= -.24E+01 SK= 0.79E+00
       N       E                     dE             d eps       ncg     rms          rms(c)
DAV:   1    -0.304394828572E+03    0.17423E+00   -0.16809E-02   920   0.137E+00    0.138E-01
RMM:   2    -0.304396169815E+03   -0.13412E-02   -0.12294E-02   704   0.191E-01    0.364E-02
RMM:   3    -0.304396375986E+03   -0.20617E-03   -0.21077E-03   793   0.877E-02    0.512E-02
RMM:   4    -0.304396418064E+03   -0.42079E-04   -0.45228E-04   778   0.385E-02    0.437E-02
RMM:   5    -0.304396418276E+03   -0.21199E-06   -0.26755E-05   393   0.107E-02
     17 T=   418. E= -.30208641E+03 F= -.30439642E+03 E0= -.30444297E+03  EK= 0.42666E+01 SP= -.29E+01 SK= 0.96E+00
       N       E                     dE             d eps       ncg     rms          rms(c)
DAV:   1    -0.304228929228E+03    0.16749E+00   -0.21376E-02   912   0.141E+00    0.983E-02
RMM:   2    -0.304230591188E+03   -0.16620E-02   -0.15333E-02   688   0.205E-01    0.646E-02
RMM:   3    -0.304230847897E+03   -0.25671E-03   -0.26494E-03   793   0.968E-02    0.890E-02
RMM:   4    -0.304230892392E+03   -0.44494E-04   -0.46705E-04   779   0.405E-02    0.810E-02
RMM:   5    -0.304230890210E+03    0.21813E-05   -0.40888E-05   435   0.121E-02
     18 T=   441. E= -.30208550E+03 F= -.30423089E+03 E0= -.30427603E+03  EK= 0.45013E+01 SP= -.35E+01 SK= 0.11E+01
       N       E                     dE             d eps       ncg     rms          rms(c)
DAV:   1    -0.304067081152E+03    0.16381E+00   -0.24270E-02   904   0.146E+00    0.104E-01
RMM:   2    -0.304068639968E+03   -0.15588E-02   -0.14348E-02   686   0.208E-01    0.738E-02
RMM:   3    -0.304068880112E+03   -0.24014E-03   -0.25765E-03   792   0.964E-02    0.971E-02
RMM:   4    -0.304068925363E+03   -0.45250E-04   -0.45706E-04   775   0.403E-02    0.882E-02
RMM:   5    -0.304068921894E+03    0.34688E-05   -0.54375E-05   468   0.127E-02
     19 T=   469. E= -.30208473E+03 F= -.30406892E+03 E0= -.30411166E+03  EK= 0.47937E+01 SP= -.41E+01 SK= 0.13E+01
       N       E                     dE             d eps       ncg     rms          rms(c)
DAV:   1    -0.303903841403E+03    0.16508E+00   -0.33420E-02   880   0.150E+00    0.260E-01
RMM:   2    -0.303905723485E+03   -0.18821E-02   -0.18326E-02   679   0.227E-01    0.454E-02
RMM:   3    -0.303906028140E+03   -0.30465E-03   -0.33081E-03   792   0.109E-01    0.613E-02
RMM:   4    -0.303906059797E+03   -0.31658E-04   -0.54606E-04   772   0.447E-02    0.467E-02
RMM:   5    -0.303906055346E+03    0.44518E-05   -0.86064E-05   610   0.153E-02
     20 T=   504. E= -.30208432E+03 F= -.30390606E+03 E0= -.30394548E+03  EK= 0.51428E+01 SP= -.47E+01 SK= 0.14E+01
       N       E                     dE             d eps       ncg     rms          rms(c)
DAV:   1    -0.303732922736E+03    0.17314E+00   -0.30893E-02   912   0.159E+00    0.197E-01
RMM:   2    -0.303735188517E+03   -0.22658E-02   -0.21794E-02   688   0.240E-01    0.467E-02
RMM:   3    -0.303735507807E+03   -0.31929E-03   -0.35113E-03   792   0.111E-01    0.811E-02
RMM:   4    -0.303735559219E+03   -0.51412E-04   -0.58802E-04   788   0.462E-02    0.709E-02
RMM:   5    -0.303735563248E+03   -0.40296E-05   -0.69621E-05   474   0.144E-02
     21 T=   543. E= -.30208350E+03 F= -.30373556E+03 E0= -.30377140E+03  EK= 0.55445E+01 SP= -.54E+01 SK= 0.15E+01
       N       E                     dE             d eps       ncg     rms          rms(c)
DAV:   1    -0.303549382779E+03    0.18618E+00   -0.44978E-02   888   0.164E+00    0.101E-01
RMM:   2    -0.303552037334E+03   -0.26546E-02   -0.26358E-02   692   0.260E-01    0.153E-01
RMM:   3    -0.303552407959E+03   -0.37063E-03   -0.42568E-03   792   0.121E-01    0.191E-01
RMM:   4    -0.303552471811E+03   -0.63851E-04   -0.63579E-04   789   0.487E-02    0.194E-01
RMM:   5    -0.303552483358E+03   -0.11548E-04   -0.90334E-05   523   0.163E-02    0.201E-01
RMM:   6    -0.303552472456E+03    0.10903E-04   -0.25028E-05   370   0.115E-02    0.185E-01
RMM:   7    -0.303552630965E+03   -0.15851E-03   -0.12114E-03   790   0.574E-02    0.215E-01
RMM:   8    -0.303552768210E+03   -0.13725E-03   -0.27601E-04   741   0.322E-02    0.324E-01
RMM:   9    -0.303552517657E+03    0.25055E-03   -0.20041E-04   589   0.225E-02    0.260E-01
RMM:  10    -0.303552414061E+03    0.10360E-03   -0.11279E-04   574   0.191E-02    0.193E-01
RMM:  11    -0.303552343542E+03    0.70519E-04   -0.13410E-04   670   0.227E-02    0.975E-02
RMM:  12    -0.303552330022E+03    0.13520E-04   -0.27977E-04   720   0.314E-02    0.462E-02
RMM:  13    -0.303552326750E+03    0.32722E-05   -0.11953E-05   355   0.798E-03
     22 T=   587. E= -.30208359E+03 F= -.30355233E+03 E0= -.30358545E+03  EK= 0.59916E+01 SP= -.60E+01 SK= 0.15E+01
       N       E                     dE             d eps       ncg     rms          rms(c)
DAV:   1    -0.303346233261E+03    0.20610E+00   -0.37979E-02   892   0.167E+00    0.435E-01
RMM:   2    -0.303348737477E+03   -0.25042E-02   -0.26158E-02   685   0.261E-01    0.999E-02
RMM:   3    -0.303349090662E+03   -0.35319E-03   -0.46202E-03   792   0.125E-01    0.438E-02
RMM:   4    -0.303349114501E+03   -0.23839E-04   -0.69978E-04   765   0.512E-02    0.256E-02
RMM:   5    -0.303349099472E+03    0.15029E-04   -0.13537E-04   682   0.198E-02    0.170E-02
RMM:   6    -0.303349089871E+03    0.96007E-05   -0.18069E-05   382   0.845E-03
     23 T=   634. E= -.30208389E+03 F= -.30334909E+03 E0= -.30337905E+03  EK= 0.64728E+01 SP= -.67E+01 SK= 0.15E+01
       N       E                     dE             d eps       ncg     rms          rms(c)
DAV:   1    -0.303116662635E+03    0.23244E+00   -0.23048E-02   904   0.183E+00    0.161E-01
RMM:   2    -0.303119170961E+03   -0.25083E-02   -0.24070E-02   686   0.257E-01    0.888E-02
RMM:   3    -0.303119520251E+03   -0.34929E-03   -0.41483E-03   792   0.121E-01    0.112E-01
RMM:   4    -0.303119566537E+03   -0.46287E-04   -0.69622E-04   777   0.510E-02    0.883E-02
RMM:   5    -0.303119539211E+03    0.27326E-04   -0.12655E-04   664   0.199E-02    0.484E-02
RMM:   6    -0.303119509893E+03    0.29319E-04   -0.62919E-05   551   0.109E-02    0.131E-02
RMM:   7    -0.303119503715E+03    0.61774E-05   -0.29558E-05   458   0.749E-03
     24 T=   683. E= -.30208466E+03 F= -.30311950E+03 E0= -.30314677E+03  EK= 0.69719E+01 SP= -.74E+01 SK= 0.14E+01
       N       E                     dE             d eps       ncg     rms          rms(c)
DAV:   1    -0.302854717807E+03    0.26479E+00   -0.29104E-02   912   0.184E+00    0.266E-01
RMM:   2    -0.302857296194E+03   -0.25784E-02   -0.23900E-02   676   0.262E-01    0.416E-02
RMM:   3    -0.302857689679E+03   -0.39348E-03   -0.44252E-03   794   0.125E-01    0.801E-02
RMM:   4    -0.302857737814E+03   -0.48135E-04   -0.68781E-04   774   0.509E-02    0.615E-02
RMM:   5    -0.302857731647E+03    0.61667E-05   -0.90105E-05   570   0.169E-02
     25 T=   731. E= -.30208583E+03 F= -.30285773E+03 E0= -.30288264E+03  EK= 0.74681E+01 SP= -.80E+01 SK= 0.13E+01
       N       E                     dE             d eps       ncg     rms          rms(c)
DAV:   1    -0.302558134575E+03    0.29960E+00   -0.36071E-02   912   0.185E+00    0.155E-01
RMM:   2    -0.302560873094E+03   -0.27385E-02   -0.23885E-02   676   0.273E-01    0.994E-02
RMM:   3    -0.302561344977E+03   -0.47188E-03   -0.47716E-03   794   0.131E-01    0.143E-01
RMM:   4    -0.302561421327E+03   -0.76350E-04   -0.80856E-04   807   0.537E-02    0.129E-01
RMM:   5    -0.302561421914E+03   -0.58687E-06   -0.72030E-05   499   0.150E-02
     26 T=   777. E= -.30208794E+03 F= -.30256142E+03 E0= -.30258402E+03  EK= 0.79382E+01 SP= -.86E+01 SK= 0.12E+01
       N       E                     dE             d eps       ncg     rms          rms(c)
DAV:   1    -0.302226439703E+03    0.33498E+00   -0.38734E-02   920   0.193E+00    0.169E-01
RMM:   2    -0.302229628015E+03   -0.31883E-02   -0.27969E-02   691   0.286E-01    0.115E-01
RMM:   3    -0.302230108512E+03   -0.48050E-03   -0.49181E-03   797   0.135E-01    0.138E-01
RMM:   4    -0.302230195199E+03   -0.86687E-04   -0.93411E-04   806   0.564E-02    0.114E-01
RMM:   5    -0.302230183351E+03    0.11848E-04   -0.88835E-05   606   0.163E-02    0.736E-02
RMM:   6    -0.302230166308E+03    0.17044E-04   -0.36372E-05   485   0.995E-03    0.200E-02
RMM:   7    -0.302230161939E+03    0.43685E-05   -0.26807E-05   454   0.717E-03
     27 T=   819. E= -.30208974E+03 F= -.30223016E+03 E0= -.30225083E+03  EK= 0.83586E+01 SP= -.92E+01 SK= 0.96E+00
       N       E                     dE             d eps       ncg     rms          rms(c)
DAV:   1    -0.301864409537E+03    0.36576E+00   -0.54800E-02   952   0.201E+00    0.479E-01
RMM:   2    -0.301868200182E+03   -0.37906E-02   -0.34576E-02   686   0.313E-01    0.991E-02
RMM:   3    -0.301868838854E+03   -0.63867E-03   -0.63378E-03   798   0.152E-01    0.431E-02
RMM:   4    -0.301868923582E+03   -0.84729E-04   -0.10187E-03   790   0.616E-02    0.298E-02
RMM:   5    -0.301868928195E+03   -0.46128E-05   -0.13705E-04   668   0.197E-02    0.202E-02
RMM:   6    -0.301868927223E+03    0.97176E-06   -0.12488E-05   363   0.758E-03
     28 T=   853. E= -.30209127E+03 F= -.30186893E+03 E0= -.30188776E+03  EK= 0.87080E+01 SP= -.97E+01 SK= 0.76E+00
       N       E                     dE             d eps       ncg     rms          rms(c)
DAV:   1    -0.301482411370E+03    0.38652E+00   -0.63616E-02   928   0.205E+00    0.216E-01
RMM:   2    -0.301486798593E+03   -0.43872E-02   -0.37043E-02   685   0.328E-01    0.117E-01
RMM:   3    -0.301487517389E+03   -0.71880E-03   -0.69472E-03   797   0.159E-01    0.156E-01
RMM:   4    -0.301487634292E+03   -0.11690E-03   -0.11927E-03   811   0.652E-02    0.123E-01
RMM:   5    -0.301487636961E+03   -0.26693E-05   -0.11581E-04   644   0.192E-02    0.790E-02
RMM:   6    -0.301487634459E+03    0.25018E-05   -0.30842E-05   465   0.910E-03
     29 T=   879. E= -.30209207E+03 F= -.30148763E+03 E0= -.30150486E+03  EK= 0.89712E+01 SP= -.10E+02 SK= 0.56E+00
       N       E                     dE             d eps       ncg     rms          rms(c)
DAV:   1    -0.301098232338E+03    0.38940E+00   -0.63627E-02   936   0.206E+00    0.407E-01
RMM:   2    -0.301102410557E+03   -0.41782E-02   -0.35293E-02   693   0.328E-01    0.532E-02
RMM:   3    -0.301103083194E+03   -0.67264E-03   -0.63421E-03   800   0.155E-01    0.695E-02
RMM:   4    -0.301103203119E+03   -0.11993E-03   -0.12034E-03   814   0.643E-02    0.470E-02
RMM:   5    -0.301103208982E+03   -0.58629E-05   -0.89182E-05   551   0.168E-02
     30 T=   895. E= -.30209276E+03 F= -.30110321E+03 E0= -.30111918E+03  EK= 0.91428E+01 SP= -.11E+02 SK= 0.38E+00
       N       E                     dE             d eps       ncg     rms          rms(c)
DAV:   1    -0.300725585625E+03    0.37762E+00   -0.74633E-02   932   0.209E+00    0.180E-01
RMM:   2    -0.300730061886E+03   -0.44763E-02   -0.35896E-02   686   0.340E-01    0.133E-01
RMM:   3    -0.300730809878E+03   -0.74799E-03   -0.71049E-03   796   0.166E-01    0.184E-01
RMM:   4    -0.300730942592E+03   -0.13271E-03   -0.13282E-03   819   0.676E-02    0.168E-01
RMM:   5    -0.300730950260E+03   -0.76677E-05   -0.92832E-05   553   0.173E-02
     31 T=   903. E= -.30209219E+03 F= -.30073095E+03 E0= -.30074605E+03  EK= 0.92231E+01 SP= -.11E+02 SK= 0.23E+00
       N       E                     dE             d eps       ncg     rms          rms(c)
DAV:   1    -0.300380882533E+03    0.35006E+00   -0.77155E-02   920   0.208E+00    0.118E-01
RMM:   2    -0.300385558056E+03   -0.46755E-02   -0.38244E-02   699   0.343E-01    0.264E-01
RMM:   3    -0.300386327995E+03   -0.76994E-03   -0.71769E-03   793   0.164E-01    0.342E-01
RMM:   4    -0.300386467051E+03   -0.13906E-03   -0.13718E-03   828   0.692E-02    0.335E-01
RMM:   5    -0.300386530623E+03   -0.63572E-04   -0.33784E-04   708   0.431E-02    0.299E-01
RMM:   6    -0.300386516091E+03    0.14532E-04   -0.50792E-05   482   0.135E-02    0.281E-01
RMM:   7    -0.300386491909E+03    0.24182E-04   -0.12365E-05   363   0.874E-03    0.261E-01
RMM:   8    -0.300386478820E+03    0.13088E-04   -0.63846E-06   353   0.587E-03    0.241E-01
RMM:   9    -0.300386469208E+03    0.96125E-05   -0.52938E-06   348   0.454E-03
     32 T=   903. E= -.30209207E+03 F= -.30038647E+03 E0= -.30040110E+03  EK= 0.92166E+01 SP= -.11E+02 SK= 0.11E+00
       N       E                     dE             d eps       ncg     rms          rms(c)
DAV:   1    -0.300075548876E+03    0.31093E+00   -0.69014E-02   912   0.210E+00    0.298E-01
RMM:   2    -0.300079897201E+03   -0.43483E-02   -0.38243E-02   692   0.360E-01    0.160E-01
RMM:   3    -0.300080668732E+03   -0.77153E-03   -0.74030E-03   795   0.164E-01    0.181E-01
RMM:   4    -0.300080782467E+03   -0.11373E-03   -0.12625E-03   771   0.705E-02    0.126E-01
RMM:   5    -0.300080804547E+03   -0.22081E-04   -0.28538E-04   635   0.310E-02    0.195E-02
RMM:   6    -0.300080807176E+03   -0.26287E-05   -0.47398E-05   488   0.147E-02
     33 T=   894. E= -.30209168E+03 F= -.30008081E+03 E0= -.30009521E+03  EK= 0.91325E+01 SP= -.11E+02 SK= 0.39E-01
       N       E                     dE             d eps       ncg     rms          rms(c)
DAV:   1    -0.299813285863E+03    0.26752E+00   -0.67942E-02   936   0.209E+00    0.717E-01
RMM:   2    -0.299817599995E+03   -0.43141E-02   -0.38835E-02   698   0.339E-01    0.210E-01
RMM:   3    -0.299818340058E+03   -0.74006E-03   -0.73329E-03   800   0.166E-01    0.486E-02
RMM:   4    -0.299818463307E+03   -0.12325E-03   -0.12774E-03   800   0.673E-02    0.242E-02
RMM:   5    -0.299818474336E+03   -0.11028E-04   -0.12199E-04   594   0.191E-02    0.180E-02
RMM:   6    -0.299818474685E+03   -0.34917E-06   -0.12402E-05   363   0.801E-03
     34 T=   879. E= -.30209099E+03 F= -.29981847E+03 E0= -.29983288E+03  EK= 0.89785E+01 SP= -.11E+02 SK= 0.43E-02
       N       E                     dE             d eps       ncg     rms          rms(c)
DAV:   1    -0.299593912193E+03    0.22456E+00   -0.70263E-02   920   0.210E+00    0.169E-01
RMM:   2    -0.299598312453E+03   -0.44003E-02   -0.36203E-02   688   0.341E-01    0.147E-01
RMM:   3    -0.299599061260E+03   -0.74881E-03   -0.70538E-03   795   0.160E-01    0.200E-01
RMM:   4    -0.299599200027E+03   -0.13877E-03   -0.13142E-03   818   0.650E-02    0.199E-01
RMM:   5    -0.299599207372E+03   -0.73455E-05   -0.10390E-04   524   0.182E-02    0.197E-01
RMM:   6    -0.299599208390E+03   -0.10174E-05   -0.19563E-05   374   0.997E-03
     35 T=   858. E= -.30209034E+03 F= -.29959921E+03 E0= -.29961383E+03  EK= 0.87626E+01 SP= -.11E+02 SK= 0.35E-02
       N       E                     dE             d eps       ncg     rms          rms(c)
DAV:   1    -0.299421055332E+03    0.17815E+00   -0.61208E-02   904   0.240E+00    0.153E+00
RMM:   2    -0.299419868185E+03    0.11871E-02   -0.41793E-02   688   0.424E-01    0.874E-01
RMM:   3    -0.299419663409E+03    0.20478E-03   -0.13433E-02   765   0.260E-01    0.197E-01
RMM:   4    -0.299419960431E+03   -0.29702E-03   -0.34251E-03   762   0.102E-01    0.576E-02
RMM:   5    -0.299419983812E+03   -0.23381E-04   -0.42366E-04   747   0.396E-02    0.320E-02
RMM:   6    -0.299419986786E+03   -0.29738E-05   -0.53278E-05   437   0.157E-02
     36 T=   832. E= -.30208937E+03 F= -.29941999E+03 E0= -.29943504E+03  EK= 0.84947E+01 SP= -.11E+02 SK= 0.30E-01
       N       E                     dE             d eps       ncg     rms          rms(c)
DAV:   1    -0.299274831815E+03    0.14515E+00   -0.76658E-02   928   0.235E+00    0.141E+00
RMM:   2    -0.299274890004E+03   -0.58190E-04   -0.44694E-02   702   0.417E-01    0.827E-01
RMM:   3    -0.299274350075E+03    0.53993E-03   -0.11164E-02   710   0.248E-01    0.178E-01
RMM:   4    -0.299274676505E+03   -0.32643E-03   -0.35725E-03   809   0.104E-01    0.594E-02
RMM:   5    -0.299274671589E+03    0.49162E-05   -0.40844E-04   655   0.414E-02    0.311E-02
RMM:   6    -0.299274675098E+03   -0.35090E-05   -0.10992E-04   636   0.194E-02    0.974E-03
RMM:   7    -0.299274675588E+03   -0.49028E-06   -0.13767E-05   362   0.910E-03
     37 T=   801. E= -.30208810E+03 F= -.29927468E+03 E0= -.29929033E+03  EK= 0.81837E+01 SP= -.11E+02 SK= 0.74E-01
       N       E                     dE             d eps       ncg     rms          rms(c)
DAV:   1    -0.299153614444E+03    0.12106E+00   -0.38824E-02   944   0.207E+00    0.556E-01
RMM:   2    -0.299156570561E+03   -0.29561E-02   -0.28864E-02   699   0.303E-01    0.292E-01
RMM:   3    -0.299157093492E+03   -0.52293E-03   -0.59937E-03   795   0.145E-01    0.146E-01
RMM:   4    -0.299157210123E+03   -0.11663E-03   -0.11375E-03   784   0.614E-02    0.199E-02
RMM:   5    -0.299157223366E+03   -0.13243E-04   -0.15097E-04   575   0.220E-02    0.141E-02
RMM:   6    -0.299157224333E+03   -0.96675E-06   -0.22728E-05   373   0.974E-03
     38 T=   768. E= -.30208717E+03 F= -.29915722E+03 E0= -.29917356E+03  EK= 0.78399E+01 SP= -.11E+02 SK= 0.13E+00
       N       E                     dE             d eps       ncg     rms          rms(c)
DAV:   1    -0.299058255815E+03    0.98968E-01   -0.37176E-02   936   0.197E+00    0.240E-01
RMM:   2    -0.299061615402E+03   -0.33596E-02   -0.28173E-02   694   0.292E-01    0.494E-02
RMM:   3    -0.299062194607E+03   -0.57920E-03   -0.54606E-03   796   0.142E-01    0.885E-02
RMM:   4    -0.299062314728E+03   -0.12012E-03   -0.12039E-03   817   0.598E-02    0.684E-02
RMM:   5    -0.299062319456E+03   -0.47285E-05   -0.86269E-05   504   0.157E-02
     39 T=   732. E= -.30208640E+03 F= -.29906232E+03 E0= -.29907927E+03  EK= 0.74753E+01 SP= -.11E+02 SK= 0.18E+00
       N       E                     dE             d eps       ncg     rms          rms(c)
DAV:   1    -0.298981666314E+03    0.80648E-01   -0.33116E-02   960   0.193E+00    0.116E-01
RMM:   2    -0.298984562627E+03   -0.28963E-02   -0.23699E-02   692   0.273E-01    0.975E-02
RMM:   3    -0.298985076627E+03   -0.51400E-03   -0.47807E-03   798   0.131E-01    0.132E-01
RMM:   4    -0.298985179021E+03   -0.10239E-03   -0.99331E-04   823   0.541E-02    0.121E-01
RMM:   5    -0.298985181056E+03   -0.20350E-05   -0.52997E-05   448   0.139E-02
     40 T=   695. E= -.30208577E+03 F= -.29898518E+03 E0= -.29900254E+03  EK= 0.71014E+01 SP= -.10E+02 SK= 0.23E+00
       N       E                     dE             d eps       ncg     rms          rms(c)
DAV:   1    -0.298917653132E+03    0.67526E-01   -0.26576E-02   944   0.189E+00    0.139E-01
RMM:   2    -0.298920254360E+03   -0.26012E-02   -0.21553E-02   691   0.258E-01    0.813E-02
RMM:   3    -0.298920715656E+03   -0.46130E-03   -0.44029E-03   796   0.126E-01    0.106E-01
RMM:   4    -0.298920807077E+03   -0.91422E-04   -0.87976E-04   808   0.521E-02    0.932E-02
RMM:   5    -0.298920805436E+03    0.16416E-05   -0.67523E-05   546   0.148E-02
     41 T=   659. E= -.30208520E+03 F= -.29892081E+03 E0= -.29893823E+03  EK= 0.67280E+01 SP= -.10E+02 SK= 0.27E+00
       N       E                     dE             d eps       ncg     rms          rms(c)
DAV:   1    -0.298862891698E+03    0.57915E-01   -0.21847E-02   952   0.187E+00    0.261E-01
RMM:   2    -0.298865324739E+03   -0.24330E-02   -0.21001E-02   700   0.253E-01    0.440E-02
RMM:   3    -0.298865750373E+03   -0.42563E-03   -0.39710E-03   800   0.121E-01    0.420E-02
RMM:   4    -0.298865831648E+03   -0.81275E-04   -0.80885E-04   781   0.512E-02    0.273E-02
RMM:   5    -0.298865838184E+03   -0.65363E-05   -0.80288E-05   498   0.173E-02
     42 T=   623. E= -.30208492E+03 F= -.29886584E+03 E0= -.29888289E+03  EK= 0.63641E+01 SP= -.99E+01 SK= 0.29E+00
       N       E                     dE             d eps       ncg     rms          rms(c)
DAV:   1    -0.298814580323E+03    0.51251E-01   -0.21322E-02   932   0.183E+00    0.192E-01
RMM:   2    -0.298817109382E+03   -0.25291E-02   -0.22093E-02   699   0.256E-01    0.482E-02
RMM:   3    -0.298817513662E+03   -0.40428E-03   -0.39856E-03   795   0.120E-01    0.738E-02
RMM:   4    -0.298817581710E+03   -0.68048E-04   -0.79941E-04   800   0.505E-02    0.670E-02
RMM:   5    -0.298817586286E+03   -0.45759E-05   -0.58364E-05   468   0.141E-02
     43 T=   589. E= -.30208447E+03 F= -.29881759E+03 E0= -.29883400E+03  EK= 0.60177E+01 SP= -.96E+01 SK= 0.29E+00
       N       E                     dE             d eps       ncg     rms          rms(c)
DAV:   1    -0.298773357906E+03    0.44224E-01   -0.25575E-02   936   0.177E+00    0.689E-02
RMM:   2    -0.298775844116E+03   -0.24862E-02   -0.22528E-02   703   0.256E-01    0.149E-01
RMM:   3    -0.298776240077E+03   -0.39596E-03   -0.38918E-03   793   0.119E-01    0.188E-01
RMM:   4    -0.298776317481E+03   -0.77405E-04   -0.75184E-04   805   0.491E-02    0.202E-01
RMM:   5    -0.298776321078E+03   -0.35966E-05   -0.57712E-05   454   0.144E-02
     44 T=   558. E= -.30208452E+03 F= -.29877632E+03 E0= -.29879218E+03  EK= 0.56964E+01 SP= -.93E+01 SK= 0.28E+00
       N       E                     dE             d eps       ncg     rms          rms(c)
DAV:   1    -0.298739965224E+03    0.36352E-01   -0.25766E-02   936   0.172E+00    0.124E-01
RMM:   2    -0.298742167042E+03   -0.22018E-02   -0.21064E-02   699   0.249E-01    0.157E-01
RMM:   3    -0.298742511046E+03   -0.34400E-03   -0.37103E-03   795   0.116E-01    0.180E-01
RMM:   4    -0.298742601128E+03   -0.90082E-04   -0.68572E-04   786   0.487E-02    0.167E-01
RMM:   5    -0.298742575643E+03    0.25486E-04   -0.88882E-05   597   0.172E-02    0.116E-01
RMM:   6    -0.298742535169E+03    0.40473E-04   -0.30038E-04   585   0.327E-02    0.201E-01
RMM:   7    -0.298742519464E+03    0.15705E-04   -0.55100E-05   610   0.124E-02    0.132E-01
RMM:   8    -0.298742522005E+03   -0.25406E-05   -0.73905E-06   352   0.591E-03
     45 T=   529. E= -.30208467E+03 F= -.29874252E+03 E0= -.29875833E+03  EK= 0.54064E+01 SP= -.90E+01 SK= 0.25E+00
       N       E                     dE             d eps       ncg     rms          rms(c)
DAV:   1    -0.298714033726E+03    0.28486E-01   -0.24979E-02   928   0.168E+00    0.811E-01
RMM:   2    -0.298715847127E+03   -0.18134E-02   -0.25154E-02   688   0.261E-01    0.337E-01
RMM:   3    -0.298716253518E+03   -0.40639E-03   -0.47361E-03   793   0.124E-01    0.772E-02
RMM:   4    -0.298716335116E+03   -0.81598E-04   -0.73419E-04   710   0.520E-02    0.509E-02
RMM:   5    -0.298716284485E+03    0.50632E-04   -0.15887E-04   660   0.237E-02    0.161E-02
RMM:   6    -0.298716286149E+03   -0.16646E-05   -0.39514E-05   451   0.117E-02
     46 T=   505. E= -.30208479E+03 F= -.29871629E+03 E0= -.29873230E+03  EK= 0.51518E+01 SP= -.87E+01 SK= 0.21E+00
       N       E                     dE             d eps       ncg     rms          rms(c)
DAV:   1    -0.298695101789E+03    0.21183E-01   -0.29786E-02   952   0.169E+00    0.235E-01
RMM:   2    -0.298697409281E+03   -0.23075E-02   -0.22790E-02   699   0.254E-01    0.273E-01
RMM:   3    -0.298697795479E+03   -0.38620E-03   -0.38708E-03   792   0.115E-01    0.333E-01
RMM:   4    -0.298697847711E+03   -0.52232E-04   -0.67728E-04   741   0.549E-02    0.294E-01
RMM:   5    -0.298697902616E+03   -0.54905E-04   -0.21285E-04   713   0.291E-02    0.267E-01
RMM:   6    -0.298697884035E+03    0.18581E-04   -0.34281E-05   412   0.138E-02    0.261E-01
RMM:   7    -0.298697874359E+03    0.96761E-05   -0.12304E-05   365   0.793E-03
     47 T=   483. E= -.30208457E+03 F= -.29869787E+03 E0= -.29871471E+03  EK= 0.49351E+01 SP= -.85E+01 SK= 0.17E+00
       N       E                     dE             d eps       ncg     rms          rms(c)
DAV:   1    -0.298686719182E+03    0.11165E-01   -0.19224E-02   928   0.166E+00    0.475E-01
RMM:   2    -0.298688511648E+03   -0.17925E-02   -0.22461E-02   706   0.256E-01    0.412E-01
RMM:   3    -0.298688681485E+03   -0.16984E-03   -0.37748E-03   792   0.111E-01    0.106E-01
RMM:   4    -0.298688659571E+03    0.21914E-04   -0.68736E-04   763   0.470E-02    0.307E-02
RMM:   5    -0.298688620783E+03    0.38788E-04   -0.12778E-04   672   0.186E-02    0.275E-02
RMM:   6    -0.298688558338E+03    0.62445E-04   -0.46272E-05   496   0.973E-03    0.237E-02
RMM:   7    -0.298688581483E+03   -0.23145E-04   -0.58258E-06   357   0.538E-03    0.246E-02
RMM:   8    -0.298688599810E+03   -0.18327E-04   -0.49787E-06   356   0.380E-03    0.229E-02
RMM:   9    -0.298688829805E+03   -0.23000E-03   -0.67746E-04   690   0.199E-02    0.264E-02
RMM:  10    -0.298689005863E+03   -0.17606E-03   -0.38094E-04   673   0.173E-02    0.340E-02
RMM:  11    -0.298688741561E+03    0.26430E-03   -0.57757E-04   693   0.198E-02    0.377E-02
RMM:  12    -0.298688944010E+03   -0.20245E-03   -0.30108E-04   657   0.145E-02    0.352E-02
RMM:  13    -0.298688693049E+03    0.25096E-03   -0.49348E-04   685   0.182E-02    0.352E-02
RMM:  14    -0.298690115410E+03   -0.14224E-02   -0.67351E-03   935   0.667E-02    0.579E-02
RMM:  15    -0.298688970589E+03    0.11448E-02   -0.27172E-03   833   0.443E-02    0.356E-02
RMM:  16    -0.298688832982E+03    0.13761E-03   -0.43995E-04   658   0.170E-02    0.231E-02
RMM:  17    -0.298688975862E+03   -0.14288E-03   -0.16192E-04   602   0.121E-02    0.213E-02
RMM:  18    -0.298689018575E+03   -0.42714E-04   -0.29078E-05   450   0.547E-03    0.203E-02
RMM:  19    -0.298688717272E+03    0.30130E-03   -0.77519E-04   713   0.227E-02    0.185E-02
RMM:  20    -0.298688652044E+03    0.65228E-04   -0.11437E-04   591   0.108E-02    0.197E-02
RMM:  21    -0.298688645526E+03    0.65179E-05   -0.45343E-06   352   0.417E-03
     48 T=   466. E= -.30208470E+03 F= -.29868865E+03 E0= -.29870976E+03  EK= 0.47581E+01 SP= -.83E+01 SK= 0.13E+00
       N       E                     dE             d eps       ncg     rms          rms(c)
DAV:   1    -0.298680974704E+03    0.76773E-02   -0.10553E-02   936   0.165E+00    0.929E-01
RMM:   2    -0.298678728287E+03    0.22464E-02   -0.25664E-02   687   0.236E-01    0.438E-01
RMM:   3    -0.298678826091E+03   -0.97804E-04   -0.63033E-03   766   0.127E-01    0.218E-01
RMM:   4    -0.298678548641E+03    0.27745E-03   -0.24537E-03   687   0.688E-02    0.178E-01
RMM:   5    -0.298677738721E+03    0.80992E-03   -0.52214E-04   680   0.387E-02    0.545E-02
RMM:   6    -0.298677684707E+03    0.54014E-04   -0.26561E-04   617   0.233E-02    0.258E-02
RMM:   7    -0.298677662270E+03    0.22437E-04   -0.67288E-05   609   0.132E-02    0.166E-02
RMM:   8    -0.298677658131E+03    0.41392E-05   -0.19445E-05   408   0.743E-03
     49 T=   452. E= -.30207485E+03 F= -.29867766E+03 E0= -.29871471E+03  EK= 0.46204E+01 SP= -.81E+01 SK= 0.85E-01
       N       E                     dE             d eps       ncg     rms          rms(c)
DAV:   1    -0.298774557993E+03   -0.96896E-01   -0.79841E-01   968   0.207E+00    0.722E-01
RMM:   2    -0.298704391579E+03    0.70166E-01   -0.80842E-02   645   0.331E-01    0.627E-01
RMM:   3    -0.298696483284E+03    0.79083E-02   -0.21050E-02   720   0.212E-01    0.432E-01
RMM:   4    -0.298690237619E+03    0.62457E-02   -0.15571E-02   750   0.132E-01    0.352E-01
RMM:   5    -0.298699117576E+03   -0.88800E-02   -0.14534E-02   670   0.107E-01    0.470E-01
RMM:   6    -0.298690768062E+03    0.83495E-02   -0.23079E-03   682   0.726E-02    0.243E-01
RMM:   7    -0.298686965939E+03    0.38021E-02   -0.20788E-03   660   0.533E-02    0.970E-02
RMM:   8    -0.298686855568E+03    0.11037E-03   -0.99200E-04   696   0.340E-02    0.592E-02
RMM:   9    -0.298686806901E+03    0.48667E-04   -0.21468E-04   549   0.206E-02    0.400E-02
RMM:  10    -0.298686779216E+03    0.27685E-04   -0.12594E-04   536   0.144E-02    0.185E-02
RMM:  11    -0.298686775343E+03    0.38735E-05   -0.42072E-05   542   0.862E-03
     50 T=   443. E= -.30207514E+03 F= -.29868678E+03 E0= -.29872378E+03  EK= 0.45237E+01 SP= -.80E+01 SK= 0.49E-01
       N       E                     dE             d eps       ncg     rms          rms(c)
DAV:   1    -0.298724533697E+03   -0.37754E-01   -0.13318E-01   936   0.172E+00    0.233E-01
RMM:   2    -0.298719586867E+03    0.49468E-02   -0.20277E-02   689   0.217E-01    0.239E-01
RMM:   3    -0.298717237430E+03    0.23494E-02   -0.41622E-03   792   0.105E-01    0.245E-01
RMM:   4    -0.298716653732E+03    0.58370E-03   -0.47582E-04   776   0.430E-02    0.252E-01
RMM:   5    -0.298714999537E+03    0.16542E-02   -0.28746E-04   581   0.226E-02    0.227E-01
RMM:   6    -0.298725267768E+03   -0.10268E-01   -0.54550E-03   793   0.648E-02    0.252E-01
RMM:   7    -0.298740968373E+03   -0.15701E-01   -0.29944E-02   912   0.142E-01    0.340E-01
RMM:   8    -0.298738727108E+03    0.22413E-02   -0.11362E-03   697   0.443E-02    0.316E-01
RMM:   9    -0.298727785992E+03    0.10941E-01   -0.11978E-02   881   0.889E-02    0.245E-01
RMM:  10    -0.298724100679E+03    0.36853E-02   -0.65480E-02  1029   0.211E-01    0.676E-01
RMM:  11    -0.298712112356E+03    0.11988E-01   -0.12935E-02   882   0.106E-01    0.253E-01
RMM:  12    -0.298709991310E+03    0.21210E-02   -0.40285E-04   632   0.299E-02    0.228E-01
RMM:  13    -0.298722999088E+03   -0.13008E-01   -0.10892E-02   912   0.842E-02    0.670E-01
RMM:  14    -0.298727668446E+03   -0.46694E-02   -0.13193E-03   761   0.367E-02    0.721E-01
RMM:  15    -0.298712892947E+03    0.14775E-01   -0.21388E-03   792   0.376E-02    0.410E-01
RMM:  16    -0.298707668211E+03    0.52247E-02   -0.37921E-03   858   0.509E-02    0.796E-02
RMM:  17    -0.298709446204E+03   -0.17780E-02   -0.12278E-03   742   0.316E-02    0.242E-01
RMM:  18    -0.298708923923E+03    0.52228E-03   -0.64022E-05   550   0.114E-02    0.208E-01
RMM:  19    -0.298708069302E+03    0.85462E-03   -0.21998E-04   606   0.125E-02    0.136E-01
RMM:  20    -0.298707402944E+03    0.66636E-03   -0.35222E-04   659   0.163E-02    0.130E-02
RMM:  21    -0.298707450435E+03   -0.47490E-04   -0.28942E-05   452   0.741E-03    0.384E-02
RMM:  22    -0.298707396210E+03    0.54225E-04   -0.23919E-05   438   0.601E-03    0.660E-03
RMM:  23    -0.298707396246E+03   -0.36627E-07   -0.55995E-06   337   0.409E-03
     51 T=   438. E= -.30207554E+03 F= -.29870740E+03 E0= -.29874412E+03  EK= 0.44689E+01 SP= -.79E+01 SK= 0.22E-01
       N       E                     dE             d eps       ncg     rms          rms(c)
DAV:   1    -0.298735054008E+03   -0.27658E-01   -0.25445E-02   944   0.153E+00    0.261E-01
RMM:   2    -0.298736763044E+03   -0.17090E-02   -0.16400E-02   706   0.220E-01    0.713E-02
RMM:   3    -0.298737141507E+03   -0.37846E-03   -0.26696E-03   788   0.960E-02    0.132E-01
RMM:   4    -0.298736916236E+03    0.22527E-03   -0.39592E-04   695   0.409E-02    0.861E-02
RMM:   5    -0.298736922511E+03   -0.62753E-05   -0.99996E-05   659   0.183E-02
     52 T=   436. E= -.30207586E+03 F= -.29873692E+03 E0= -.29877322E+03  EK= 0.44533E+01 SP= -.78E+01 SK= 0.55E-02
       N       E                     dE             d eps       ncg     rms          rms(c)
DAV:   1    -0.298770252260E+03   -0.33336E-01   -0.13204E-02   944   0.152E+00    0.762E-02
RMM:   2    -0.298771552485E+03   -0.13002E-02   -0.12184E-02   702   0.190E-01    0.128E-01
RMM:   3    -0.298771655570E+03   -0.10308E-03   -0.19234E-03   794   0.864E-02    0.148E-01
RMM:   4    -0.298771681496E+03   -0.25926E-04   -0.28073E-04   766   0.355E-02    0.149E-01
RMM:   5    -0.298771681732E+03   -0.23616E-06   -0.29086E-05   407   0.114E-02
     53 T=   438. E= -.30207609E+03 F= -.29877168E+03 E0= -.29880735E+03  EK= 0.44730E+01 SP= -.78E+01 SK= 0.10E-07
       N       E                     dE             d eps       ncg     rms          rms(c)
DAV:   1    -0.298806934665E+03   -0.35253E-01   -0.12233E-02   932   0.151E+00    0.147E-01
RMM:   2    -0.298808144401E+03   -0.12097E-02   -0.12188E-02   692   0.190E-01    0.145E-01
RMM:   3    -0.298808322113E+03   -0.17771E-03   -0.19602E-03   792   0.866E-02    0.150E-01
RMM:   4    -0.298808393720E+03   -0.71607E-04   -0.27402E-04   722   0.377E-02    0.118E-01
RMM:   5    -0.298808427824E+03   -0.34104E-04   -0.19252E-04   598   0.229E-02    0.628E-02
RMM:   6    -0.298808351085E+03    0.76739E-04   -0.53324E-05   579   0.150E-02    0.481E-02
RMM:   7    -0.298808347262E+03    0.38224E-05   -0.12769E-05   368   0.786E-03
     54 T=   443. E= -.30207629E+03 F= -.29880835E+03 E0= -.29884305E+03  EK= 0.45242E+01 SP= -.78E+01 SK= 0.53E-02
       N       E                     dE             d eps       ncg     rms          rms(c)
DAV:   1    -0.298842442811E+03   -0.34092E-01   -0.14924E-02   948   0.153E+00    0.492E-01
RMM:   2    -0.298843753141E+03   -0.13103E-02   -0.13985E-02   683   0.197E-01    0.173E-01
RMM:   3    -0.298844055265E+03   -0.30212E-03   -0.23351E-03   792   0.950E-02    0.787E-02
RMM:   4    -0.298844001992E+03    0.53273E-04   -0.40667E-04   696   0.409E-02    0.528E-02
RMM:   5    -0.298843962764E+03    0.39228E-04   -0.91291E-05   653   0.185E-02    0.163E-02
RMM:   6    -0.298843963697E+03   -0.93311E-06   -0.20597E-05   407   0.866E-03
     55 T=   451. E= -.30207629E+03 F= -.29884396E+03 E0= -.29887744E+03  EK= 0.46041E+01 SP= -.79E+01 SK= 0.20E-01
       N       E                     dE             d eps       ncg     rms          rms(c)
DAV:   1    -0.298875282407E+03   -0.31320E-01   -0.18979E-02   944   0.154E+00    0.110E-01
RMM:   2    -0.298876725269E+03   -0.14429E-02   -0.14310E-02   695   0.207E-01    0.123E-01
RMM:   3    -0.298876937425E+03   -0.21216E-03   -0.23142E-03   792   0.926E-02    0.150E-01
RMM:   4    -0.298876968336E+03   -0.30911E-04   -0.29775E-04   791   0.372E-02    0.153E-01
RMM:   5    -0.298876972143E+03   -0.38069E-05   -0.37671E-05   424   0.140E-02
     56 T=   461. E= -.30207635E+03 F= -.29887697E+03 E0= -.29890931E+03  EK= 0.47107E+01 SP= -.80E+01 SK= 0.44E-01
       N       E                     dE             d eps       ncg     rms          rms(c)
DAV:   1    -0.298907503507E+03   -0.30535E-01   -0.20660E-02   928   0.158E+00    0.198E-01
RMM:   2    -0.298910009933E+03   -0.25064E-02   -0.17090E-02   698   0.213E-01    0.301E-01
RMM:   3    -0.298909073823E+03    0.93611E-03   -0.30099E-03   781   0.103E-01    0.259E-01
RMM:   4    -0.298909151693E+03   -0.77869E-04   -0.49745E-04   771   0.443E-02    0.320E-01
RMM:   5    -0.298909022903E+03    0.12879E-03   -0.41601E-04   573   0.338E-02    0.574E-02
RMM:   6    -0.298909014215E+03    0.86878E-05   -0.19133E-04   669   0.192E-02    0.362E-02
RMM:   7    -0.298909018913E+03   -0.46979E-05   -0.16918E-05   372   0.847E-03
     57 T=   474. E= -.30207648E+03 F= -.29890902E+03 E0= -.29894082E+03  EK= 0.48452E+01 SP= -.81E+01 SK= 0.72E-01
       N       E                     dE             d eps       ncg     rms          rms(c)
DAV:   1    -0.298942195622E+03   -0.33181E-01   -0.25275E-02   928   0.161E+00    0.630E-01
RMM:   2    -0.298944248965E+03   -0.20533E-02   -0.19616E-02   687   0.226E-01    0.263E-01
RMM:   3    -0.298946896665E+03   -0.26477E-02   -0.66652E-03   757   0.123E-01    0.309E-01
RMM:   4    -0.298943773795E+03    0.31229E-02   -0.13978E-03   646   0.630E-02    0.539E-02
RMM:   5    -0.298943798942E+03   -0.25147E-04   -0.54887E-04   758   0.345E-02    0.281E-02
RMM:   6    -0.298943792997E+03    0.59449E-05   -0.49403E-05   490   0.135E-02
     58 T=   491. E= -.30207620E+03 F= -.29894379E+03 E0= -.29897532E+03  EK= 0.50112E+01 SP= -.82E+01 SK= 0.10E+00
       N       E                     dE             d eps       ncg     rms          rms(c)
DAV:   1    -0.298985359328E+03   -0.41560E-01   -0.26326E-02   908   0.165E+00    0.144E-01
RMM:   2    -0.298987092169E+03   -0.17328E-02   -0.17012E-02   678   0.230E-01    0.136E-01
RMM:   3    -0.298987325744E+03   -0.23357E-03   -0.31842E-03   797   0.110E-01    0.167E-01
RMM:   4    -0.298987346137E+03   -0.20393E-04   -0.40548E-04   778   0.425E-02    0.160E-01
RMM:   5    -0.298987339182E+03    0.69558E-05   -0.65112E-05   557   0.137E-02
     59 T=   511. E= -.30207606E+03 F= -.29898734E+03 E0= -.29901867E+03  EK= 0.52136E+01 SP= -.84E+01 SK= 0.14E+00
       N       E                     dE             d eps       ncg     rms          rms(c)
DAV:   1    -0.299042828716E+03   -0.55483E-01   -0.12733E-02   912   0.164E+00    0.484E-01
RMM:   2    -0.299044402915E+03   -0.15742E-02   -0.16762E-02   704   0.209E-01    0.152E-01
RMM:   3    -0.299044616702E+03   -0.21379E-03   -0.27911E-03   794   0.989E-02    0.434E-02
RMM:   4    -0.299044650606E+03   -0.33904E-04   -0.37854E-04   769   0.429E-02    0.122E-02
RMM:   5    -0.299044658524E+03   -0.79180E-05   -0.80178E-05   498   0.168E-02
     60 T=   534. E= -.30207584E+03 F= -.29904466E+03 E0= -.29907557E+03  EK= 0.54560E+01 SP= -.87E+01 SK= 0.16E+00
       N       E                     dE             d eps       ncg     rms          rms(c)
DAV:   1    -0.299116247647E+03   -0.71597E-01   -0.18164E-02   936   0.169E+00    0.169E-01
RMM:   2    -0.299118131277E+03   -0.18836E-02   -0.18690E-02   682   0.230E-01    0.201E-01
RMM:   3    -0.299118417630E+03   -0.28635E-03   -0.33805E-03   794   0.111E-01    0.235E-01
RMM:   4    -0.299118509977E+03   -0.92347E-04   -0.48377E-04   768   0.442E-02    0.277E-01
RMM:   5    -0.299118540027E+03   -0.30050E-04   -0.49506E-04   587   0.374E-02    0.126E-01
RMM:   6    -0.299118600462E+03   -0.60434E-04   -0.19072E-03   711   0.452E-02    0.264E-01
RMM:   7    -0.299118515388E+03    0.85074E-04   -0.10012E-04   614   0.254E-02    0.237E-01
RMM:   8    -0.299118348774E+03    0.16661E-03   -0.52749E-04   688   0.328E-02    0.656E-02
RMM:   9    -0.299118351256E+03   -0.24817E-05   -0.28677E-05   501   0.987E-03
     61 T=   562. E= -.30207566E+03 F= -.29911835E+03 E0= -.29914834E+03  EK= 0.57388E+01 SP= -.89E+01 SK= 0.18E+00
       N       E                     dE             d eps       ncg     rms          rms(c)
DAV:   1    -0.299206696991E+03   -0.88348E-01   -0.76885E-03   936   0.178E+00    0.296E-01
RMM:   2    -0.299208225172E+03   -0.15282E-02   -0.15243E-02   686   0.209E-01    0.614E-02
RMM:   3    -0.299208461872E+03   -0.23670E-03   -0.25929E-03   796   0.100E-01    0.475E-02
RMM:   4    -0.299208487289E+03   -0.25416E-04   -0.34095E-04   722   0.414E-02    0.270E-02
RMM:   5    -0.299208493108E+03   -0.58193E-05   -0.95988E-05   569   0.179E-02
     62 T=   593. E= -.30207578E+03 F= -.29920849E+03 E0= -.29923649E+03  EK= 0.60579E+01 SP= -.91E+01 SK= 0.19E+00
       N       E                     dE             d eps       ncg     rms          rms(c)
DAV:   1    -0.299308705209E+03   -0.10022E+00   -0.55768E-03   968   0.184E+00    0.160E-01
RMM:   2    -0.299310044471E+03   -0.13393E-02   -0.13448E-02   683   0.213E-01    0.510E-02
RMM:   3    -0.299310270899E+03   -0.22643E-03   -0.27698E-03   798   0.106E-01    0.803E-02
RMM:   4    -0.299310302581E+03   -0.31682E-04   -0.41423E-04   776   0.442E-02    0.698E-02
RMM:   5    -0.299310298344E+03    0.42366E-05   -0.59915E-05   458   0.143E-02
     63 T=   627. E= -.30207659E+03 F= -.29931030E+03 E0= -.29933656E+03  EK= 0.64024E+01 SP= -.94E+01 SK= 0.19E+00
       N       E                     dE             d eps       ncg     rms          rms(c)
DAV:   1    -0.299413004877E+03   -0.10270E+00   -0.89784E-03   976   0.182E+00    0.142E-01
RMM:   2    -0.299414344970E+03   -0.13401E-02   -0.13358E-02   677   0.217E-01    0.742E-02
RMM:   3    -0.299414535050E+03   -0.19008E-03   -0.25935E-03   795   0.105E-01    0.970E-02
RMM:   4    -0.299414559531E+03   -0.24481E-04   -0.40587E-04   765   0.440E-02    0.909E-02
RMM:   5    -0.299414540938E+03    0.18593E-04   -0.75153E-05   541   0.155E-02    0.665E-02
RMM:   6    -0.299414496217E+03    0.44721E-04   -0.11808E-04   502   0.137E-02    0.203E-02
RMM:   7    -0.299414490410E+03    0.58065E-05   -0.97613E-05   524   0.104E-02
     64 T=   662. E= -.30207756E+03 F= -.29941449E+03 E0= -.29944092E+03  EK= 0.67552E+01 SP= -.96E+01 SK= 0.17E+00
       N       E                     dE             d eps       ncg     rms          rms(c)
DAV:   1    -0.299511041856E+03   -0.96546E-01   -0.10061E-02   976   0.187E+00    0.321E-01
RMM:   2    -0.299512397973E+03   -0.13561E-02   -0.14864E-02   658   0.232E-01    0.750E-02
RMM:   3    -0.299512692901E+03   -0.29493E-03   -0.35242E-03   797   0.117E-01    0.567E-02
RMM:   4    -0.299512679297E+03    0.13603E-04   -0.50403E-04   705   0.486E-02    0.369E-02
RMM:   5    -0.299512663740E+03    0.15558E-04   -0.13082E-04   638   0.206E-02    0.160E-02
RMM:   6    -0.299512657984E+03    0.57553E-05   -0.32314E-05   452   0.993E-03
     65 T=   695. E= -.30207855E+03 F= -.29951266E+03 E0= -.29954016E+03  EK= 0.70974E+01 SP= -.98E+01 SK= 0.14E+00
       N       E                     dE             d eps       ncg     rms          rms(c)
DAV:   1    -0.299595998954E+03   -0.83335E-01   -0.77250E-03   968   0.192E+00    0.110E-01
RMM:   2    -0.299597570662E+03   -0.15717E-02   -0.14146E-02   673   0.224E-01    0.799E-02
RMM:   3    -0.299597862077E+03   -0.29142E-03   -0.30630E-03   805   0.113E-01    0.106E-01
RMM:   4    -0.299597902732E+03   -0.40655E-04   -0.45945E-04   764   0.466E-02    0.102E-01
RMM:   5    -0.299597906804E+03   -0.40714E-05   -0.69288E-05   449   0.155E-02
     66 T=   726. E= -.30207985E+03 F= -.29959791E+03 E0= -.29962702E+03  EK= 0.74093E+01 SP= -.10E+02 SK= 0.10E+00
       N       E                     dE             d eps       ncg     rms          rms(c)
DAV:   1    -0.299662197606E+03   -0.64295E-01   -0.10822E-02   968   0.198E+00    0.103E-01
RMM:   2    -0.299663737208E+03   -0.15396E-02   -0.14198E-02   671   0.226E-01    0.153E-01
RMM:   3    -0.299664034915E+03   -0.29771E-03   -0.30807E-03   796   0.113E-01    0.192E-01
RMM:   4    -0.299664079677E+03   -0.44762E-04   -0.48679E-04   791   0.462E-02    0.206E-01
RMM:   5    -0.299664104793E+03   -0.25116E-04   -0.99244E-05   629   0.216E-02    0.244E-01
RMM:   6    -0.299664487227E+03   -0.38243E-03   -0.90558E-04   741   0.592E-02    0.502E-01
RMM:   7    -0.299664048605E+03    0.43862E-03   -0.24237E-03   806   0.936E-02    0.578E-02
RMM:   8    -0.299664489901E+03   -0.44130E-03   -0.22426E-03   799   0.710E-02    0.447E-01
RMM:   9    -0.299664059405E+03    0.43050E-03   -0.84059E-04   683   0.555E-02    0.161E-01
RMM:  10    -0.299664030383E+03    0.29022E-04   -0.96830E-05   565   0.142E-02    0.118E-01
RMM:  11    -0.299664052052E+03   -0.21668E-04   -0.19388E-05   387   0.114E-02    0.152E-01
RMM:  12    -0.299664002143E+03    0.49909E-04   -0.18879E-04   678   0.241E-02    0.225E-02
RMM:  13    -0.299664002153E+03   -0.98735E-08   -0.18093E-05   398   0.723E-03
     67 T=   751. E= -.30208063E+03 F= -.29966400E+03 E0= -.29969449E+03  EK= 0.76722E+01 SP= -.10E+02 SK= 0.67E-01
       N       E                     dE             d eps       ncg     rms          rms(c)
DAV:   1    -0.299706282522E+03   -0.42280E-01   -0.10265E-02   960   0.196E+00    0.404E-01
RMM:   2    -0.299707861436E+03   -0.15789E-02   -0.15863E-02   662   0.235E-01    0.126E-01
RMM:   3    -0.299708200647E+03   -0.33921E-03   -0.35212E-03   795   0.118E-01    0.531E-02
RMM:   4    -0.299708216143E+03   -0.15495E-04   -0.45889E-04   666   0.508E-02    0.205E-02
RMM:   5    -0.299708230649E+03   -0.14507E-04   -0.18231E-04   693   0.261E-02    0.134E-02
RMM:   6    -0.299708230031E+03    0.61810E-06   -0.13499E-05   362   0.888E-03
     68 T=   771. E= -.30208118E+03 F= -.29970823E+03 E0= -.29974005E+03  EK= 0.78706E+01 SP= -.10E+02 SK= 0.34E-01
       N       E                     dE             d eps       ncg     rms          rms(c)
DAV:   1    -0.299727812505E+03   -0.19582E-01   -0.13160E-02   960   0.201E+00    0.176E-01
RMM:   2    -0.299729633714E+03   -0.18212E-02   -0.16011E-02   676   0.239E-01    0.744E-02
RMM:   3    -0.299729943049E+03   -0.30934E-03   -0.32027E-03   797   0.118E-01    0.103E-01
RMM:   4    -0.299729978285E+03   -0.35236E-04   -0.48006E-04   752   0.482E-02    0.792E-02
RMM:   5    -0.299729979463E+03   -0.11781E-05   -0.95997E-05   539   0.183E-02
     69 T=   783. E= -.30208149E+03 F= -.29972998E+03 E0= -.29976317E+03  EK= 0.79937E+01 SP= -.10E+02 SK= 0.10E-01
       N       E                     dE             d eps       ncg     rms          rms(c)
DAV:   1    -0.299727798441E+03    0.21798E-02   -0.12653E-02   960   0.200E+00    0.234E-01
RMM:   2    -0.299729683382E+03   -0.18849E-02   -0.16591E-02   679   0.245E-01    0.475E-02
RMM:   3    -0.299730016896E+03   -0.33351E-03   -0.33625E-03   800   0.119E-01    0.788E-02
RMM:   4    -0.299730063653E+03   -0.46757E-04   -0.52890E-04   765   0.495E-02    0.530E-02
RMM:   5    -0.299730068775E+03   -0.51221E-05   -0.83698E-05   494   0.173E-02
     70 T=   787. E= -.30208090E+03 F= -.29973007E+03 E0= -.29976484E+03  EK= 0.80363E+01 SP= -.10E+02 SK= 0.22E-03
       N       E                     dE             d eps       ncg     rms          rms(c)
DAV:   1    -0.299709447112E+03    0.20617E-01   -0.13517E-02   952   0.200E+00    0.171E-01
RMM:   2    -0.299711623612E+03   -0.21765E-02   -0.19651E-02   679   0.260E-01    0.882E-02
RMM:   3    -0.299711981765E+03   -0.35815E-03   -0.38893E-03   798   0.128E-01    0.119E-01
RMM:   4    -0.299712024118E+03   -0.42353E-04   -0.61365E-04   772   0.515E-02    0.996E-02
RMM:   5    -0.299712009961E+03    0.14157E-04   -0.75713E-05   551   0.159E-02    0.743E-02
RMM:   6    -0.299711990354E+03    0.19607E-04   -0.60071E-05   486   0.106E-02    0.246E-02
RMM:   7    -0.299711987214E+03    0.31404E-05   -0.52702E-05   527   0.859E-03
     71 T=   783. E= -.30208014E+03 F= -.29971199E+03 E0= -.29974925E+03  EK= 0.79985E+01 SP= -.10E+02 SK= 0.51E-02
       N       E                     dE             d eps       ncg     rms          rms(c)
DAV:   1    -0.299678757467E+03    0.33233E-01   -0.11083E-02   936   0.204E+00    0.310E-01
RMM:   2    -0.299680660888E+03   -0.19034E-02   -0.21180E-02   675   0.267E-01    0.550E-02
RMM:   3    -0.299681028885E+03   -0.36800E-03   -0.43792E-03   800   0.132E-01    0.668E-02
RMM:   4    -0.299681061476E+03   -0.32590E-04   -0.65489E-04   751   0.522E-02    0.512E-02
RMM:   5    -0.299681047165E+03    0.14311E-04   -0.97557E-05   620   0.177E-02    0.270E-02
RMM:   6    -0.299681037390E+03    0.97752E-05   -0.36955E-05   492   0.942E-03
     72 T=   772. E= -.30207874E+03 F= -.29968104E+03 E0= -.29971909E+03  EK= 0.78882E+01 SP= -.10E+02 SK= 0.24E-01
       N       E                     dE             d eps       ncg     rms          rms(c)
DAV:   1    -0.299643920986E+03    0.37126E-01   -0.37410E-02   936   0.201E+00    0.273E-01
RMM:   2    -0.299644597337E+03   -0.67635E-03   -0.25392E-02   680   0.279E-01    0.134E-01
RMM:   3    -0.299644568733E+03    0.28605E-04   -0.47963E-03   790   0.139E-01    0.115E-01
RMM:   4    -0.299644593429E+03   -0.24696E-04   -0.73756E-04   782   0.548E-02    0.947E-02
RMM:   5    -0.299644562227E+03    0.31202E-04   -0.10808E-04   609   0.178E-02    0.622E-02
RMM:   6    -0.299644526276E+03    0.35951E-04   -0.98644E-05   504   0.133E-02    0.176E-02
RMM:   7    -0.299644520351E+03    0.59252E-05   -0.45234E-05   528   0.911E-03
     73 T=   756. E= -.30207798E+03 F= -.29964452E+03 E0= -.29967868E+03  EK= 0.77172E+01 SP= -.10E+02 SK= 0.53E-01
       N       E                     dE             d eps       ncg     rms          rms(c)
DAV:   1    -0.299603709885E+03    0.40816E-01   -0.17997E-02   936   0.201E+00    0.259E-01
RMM:   2    -0.299604410133E+03   -0.70025E-03   -0.24562E-02   696   0.274E-01    0.103E-01
RMM:   3    -0.299604518809E+03   -0.10868E-03   -0.44998E-03   797   0.134E-01    0.101E-01
RMM:   4    -0.299604504622E+03    0.14187E-04   -0.70479E-04   776   0.537E-02    0.812E-02
RMM:   5    -0.299604380188E+03    0.12443E-03   -0.18415E-04   560   0.211E-02    0.290E-02
RMM:   6    -0.299604322407E+03    0.57781E-04   -0.14416E-04   576   0.155E-02    0.181E-02
RMM:   7    -0.299604316172E+03    0.62350E-05   -0.27829E-05   469   0.913E-03
     74 T=   734. E= -.30207701E+03 F= -.29960432E+03 E0= -.29963543E+03  EK= 0.74969E+01 SP= -.10E+02 SK= 0.89E-01
       N       E                     dE             d eps       ncg     rms          rms(c)
DAV:   1    -0.299557866667E+03    0.46456E-01   -0.22472E-02   952   0.198E+00    0.222E-01
RMM:   2    -0.299560132563E+03   -0.22659E-02   -0.21782E-02   697   0.274E-01    0.684E-02
RMM:   3    -0.299560457187E+03   -0.32462E-03   -0.38925E-03   797   0.129E-01    0.894E-02
RMM:   4    -0.299560506555E+03   -0.49368E-04   -0.64446E-04   788   0.522E-02    0.770E-02
RMM:   5    -0.299560494632E+03    0.11923E-04   -0.75970E-05   562   0.156E-02    0.536E-02
RMM:   6    -0.299560474415E+03    0.20217E-04   -0.44787E-05   485   0.101E-02    0.129E-02
RMM:   7    -0.299560470223E+03    0.41929E-05   -0.34495E-05   486   0.757E-03
     75 T=   709. E= -.30207624E+03 F= -.29956047E+03 E0= -.29958984E+03  EK= 0.72373E+01 SP= -.99E+01 SK= 0.13E+00
       N       E                     dE             d eps       ncg     rms          rms(c)
DAV:   1    -0.299509129089E+03    0.51345E-01   -0.16900E-02   960   0.192E+00    0.250E-01
RMM:   2    -0.299511138788E+03   -0.20097E-02   -0.19255E-02   699   0.253E-01    0.415E-02
RMM:   3    -0.299511452250E+03   -0.31346E-03   -0.34874E-03   801   0.121E-01    0.594E-02
RMM:   4    -0.299511494269E+03   -0.42018E-04   -0.54654E-04   783   0.486E-02    0.470E-02
RMM:   5    -0.299511486404E+03    0.78643E-05   -0.66322E-05   523   0.153E-02
     76 T=   680. E= -.30207556E+03 F= -.29951149E+03 E0= -.29953993E+03  EK= 0.69485E+01 SP= -.97E+01 SK= 0.16E+00
       N       E                     dE             d eps       ncg     rms          rms(c)
DAV:   1    -0.299453960605E+03    0.57534E-01   -0.17747E-02   948   0.188E+00    0.150E-01
RMM:   2    -0.299455882812E+03   -0.19222E-02   -0.17451E-02   701   0.248E-01    0.773E-02
RMM:   3    -0.299456177683E+03   -0.29487E-03   -0.31600E-03   798   0.117E-01    0.969E-02
RMM:   4    -0.299456225476E+03   -0.47794E-04   -0.56276E-04   803   0.490E-02    0.823E-02
RMM:   5    -0.299456219697E+03    0.57798E-05   -0.60647E-05   439   0.147E-02
     77 T=   650. E= -.30207472E+03 F= -.29945622E+03 E0= -.29948430E+03  EK= 0.66409E+01 SP= -.94E+01 SK= 0.18E+00
       N       E                     dE             d eps       ncg     rms          rms(c)
DAV:   1    -0.299392884191E+03    0.63341E-01   -0.13921E-02   968   0.182E+00    0.197E-01
RMM:   2    -0.299394533236E+03   -0.16490E-02   -0.14792E-02   697   0.231E-01    0.470E-02
RMM:   3    -0.299394796423E+03   -0.26319E-03   -0.26775E-03   795   0.107E-01    0.611E-02
RMM:   4    -0.299394843627E+03   -0.47204E-04   -0.49870E-04   774   0.460E-02    0.430E-02
RMM:   5    -0.299394846271E+03   -0.26438E-05   -0.60977E-05   447   0.159E-02
     78 T=   619. E= -.30207406E+03 F= -.29939485E+03 E0= -.29942274E+03  EK= 0.63249E+01 SP= -.92E+01 SK= 0.20E+00
       N       E                     dE             d eps       ncg     rms          rms(c)
DAV:   1    -0.299327034333E+03    0.67809E-01   -0.16956E-02   920   0.177E+00    0.179E-01
RMM:   2    -0.299328886084E+03   -0.18518E-02   -0.17320E-02   693   0.242E-01    0.512E-02
RMM:   3    -0.299329182998E+03   -0.29691E-03   -0.31872E-03   795   0.116E-01    0.801E-02
RMM:   4    -0.299329234797E+03   -0.51799E-04   -0.58907E-04   788   0.489E-02    0.720E-02
RMM:   5    -0.299329233907E+03    0.88999E-06   -0.43395E-05   440   0.126E-02
     79 T=   589. E= -.30207350E+03 F= -.29932923E+03 E0= -.29935675E+03  EK= 0.60119E+01 SP= -.90E+01 SK= 0.20E+00
       N       E                     dE             d eps       ncg     rms          rms(c)
DAV:   1    -0.299261289980E+03    0.67945E-01   -0.18997E-02   912   0.174E+00    0.859E-02
RMM:   2    -0.299263079827E+03   -0.17898E-02   -0.16397E-02   698   0.234E-01    0.108E-01
RMM:   3    -0.299263350370E+03   -0.27054E-03   -0.28312E-03   794   0.107E-01    0.132E-01
RMM:   4    -0.299263400192E+03   -0.49823E-04   -0.50414E-04   797   0.450E-02    0.132E-01
RMM:   5    -0.299263401689E+03   -0.14963E-05   -0.42303E-05   425   0.128E-02
     80 T=   560. E= -.30207282E+03 F= -.29926340E+03 E0= -.29929019E+03  EK= 0.57136E+01 SP= -.87E+01 SK= 0.19E+00
       N       E                     dE             d eps       ncg     rms          rms(c)
DAV:   1    -0.299201109429E+03    0.62291E-01   -0.21565E-02   904   0.167E+00    0.846E-02
RMM:   2    -0.299202891368E+03   -0.17819E-02   -0.16472E-02   703   0.235E-01    0.133E-01
RMM:   3    -0.299203156351E+03   -0.26498E-03   -0.28309E-03   794   0.109E-01    0.158E-01
RMM:   4    -0.299203209508E+03   -0.53157E-04   -0.52125E-04   781   0.455E-02    0.157E-01
RMM:   5    -0.299203205310E+03    0.41971E-05   -0.61175E-05   476   0.158E-02
     81 T=   533. E= -.30207246E+03 F= -.29920321E+03 E0= -.29922909E+03  EK= 0.54410E+01 SP= -.85E+01 SK= 0.17E+00
       N       E                     dE             d eps       ncg     rms          rms(c)
DAV:   1    -0.299153313086E+03    0.49896E-01   -0.18881E-02   896   0.165E+00    0.654E-01
RMM:   2    -0.299154606961E+03   -0.12939E-02   -0.16775E-02   712   0.241E-01    0.277E-01
RMM:   3    -0.299154874199E+03   -0.26724E-03   -0.34489E-03   771   0.114E-01    0.103E-01
RMM:   4    -0.299154794988E+03    0.79212E-04   -0.83437E-04   739   0.550E-02    0.438E-02
RMM:   5    -0.299154773236E+03    0.21751E-04   -0.13204E-04   647   0.225E-02    0.141E-02
RMM:   6    -0.299154771913E+03    0.13227E-05   -0.35609E-05   445   0.106E-02
     82 T=   510. E= -.30207216E+03 F= -.29915477E+03 E0= -.29918015E+03  EK= 0.52045E+01 SP= -.83E+01 SK= 0.14E+00
       N       E                     dE             d eps       ncg     rms          rms(c)
DAV:   1    -0.299122765313E+03    0.32008E-01   -0.20555E-02   944   0.164E+00    0.333E-01
RMM:   2    -0.299124462677E+03   -0.16974E-02   -0.17362E-02   693   0.238E-01    0.243E-01
RMM:   3    -0.299124605743E+03   -0.14307E-03   -0.30241E-03   772   0.114E-01    0.158E-01
RMM:   4    -0.299124701047E+03   -0.95305E-04   -0.91375E-04   704   0.549E-02    0.764E-02
RMM:   5    -0.299124591796E+03    0.10925E-03   -0.20297E-04   663   0.271E-02    0.140E-02
RMM:   6    -0.299124592634E+03   -0.83759E-06   -0.46693E-05   523   0.123E-02
     83 T=   491. E= -.30207174E+03 F= -.29912459E+03 E0= -.29914999E+03  EK= 0.50127E+01 SP= -.81E+01 SK= 0.11E+00
       N       E                     dE             d eps       ncg     rms          rms(c)
DAV:   1    -0.299115898019E+03    0.86938E-02   -0.11959E-02   940   0.161E+00    0.229E-01
RMM:   2    -0.299117298627E+03   -0.14006E-02   -0.13495E-02   704   0.215E-01    0.798E-02
RMM:   3    -0.299117513886E+03   -0.21526E-03   -0.23304E-03   794   0.989E-02    0.565E-02
RMM:   4    -0.299117556447E+03   -0.42560E-04   -0.46350E-04   749   0.457E-02    0.326E-02
RMM:   5    -0.299117554768E+03    0.16788E-05   -0.11489E-04   579   0.201E-02    0.123E-02
RMM:   6    -0.299117552449E+03    0.23184E-05   -0.15402E-05   372   0.977E-03
     84 T=   477. E= -.30207156E+03 F= -.29911755E+03 E0= -.29914419E+03  EK= 0.48710E+01 SP= -.79E+01 SK= 0.77E-01
       N       E                     dE             d eps       ncg     rms          rms(c)
DAV:   1    -0.299133712847E+03   -0.16158E-01   -0.89740E-03   928   0.159E+00    0.160E-01
RMM:   2    -0.299134482103E+03   -0.76926E-03   -0.14796E-02   704   0.212E-01    0.735E-02
RMM:   3    -0.299134127675E+03    0.35443E-03   -0.28422E-03   795   0.101E-01    0.851E-02
RMM:   4    -0.299133773473E+03    0.35420E-03   -0.61192E-04   768   0.476E-02    0.677E-02
RMM:   5    -0.299133252028E+03    0.52145E-03   -0.10274E-03   634   0.381E-02    0.574E-02
RMM:   6    -0.299133385618E+03   -0.13359E-03   -0.31600E-04   577   0.265E-02    0.418E-02
RMM:   7    -0.299133191033E+03    0.19458E-03   -0.13688E-04   629   0.178E-02    0.220E-02
RMM:   8    -0.299133147587E+03    0.43446E-04   -0.17308E-04   591   0.145E-02    0.273E-02
RMM:   9    -0.299133186120E+03   -0.38533E-04   -0.10626E-04   539   0.116E-02    0.259E-02
RMM:  10    -0.299133119384E+03    0.66737E-04   -0.47418E-05   521   0.936E-03    0.100E-02
RMM:  11    -0.299133114737E+03    0.46467E-05   -0.17627E-05   394   0.517E-03
     85 T=   468. E= -.30206950E+03 F= -.29913311E+03 E0= -.29916845E+03  EK= 0.47812E+01 SP= -.78E+01 SK= 0.48E-01
       N       E                     dE             d eps       ncg     rms          rms(c)
DAV:   1    -0.299255099313E+03   -0.12198E+00   -0.73364E-01   936   0.189E+00    0.781E-01
RMM:   2    -0.299183705884E+03    0.71393E-01   -0.76127E-02   648   0.337E-01    0.314E-01
RMM:   3    -0.299181015038E+03    0.26908E-02   -0.13595E-02   754   0.193E-01    0.211E-01
RMM:   4    -0.299179710499E+03    0.13045E-02   -0.42161E-03   762   0.890E-02    0.153E-01
RMM:   5    -0.299178909358E+03    0.80114E-03   -0.23416E-03   639   0.615E-02    0.706E-02
RMM:   6    -0.299178825750E+03    0.83608E-04   -0.45048E-04   741   0.366E-02    0.673E-02
RMM:   7    -0.299178910659E+03   -0.84908E-04   -0.19893E-04   527   0.197E-02    0.384E-02
RMM:   8    -0.299178765656E+03    0.14500E-03   -0.15433E-04   564   0.179E-02    0.162E-02
RMM:   9    -0.299178768184E+03   -0.25281E-05   -0.51956E-05   575   0.998E-03
     86 T=   465. E= -.30206954E+03 F= -.29917877E+03 E0= -.29921599E+03  EK= 0.47464E+01 SP= -.77E+01 SK= 0.25E-01
       N       E                     dE             d eps       ncg     rms          rms(c)
DAV:   1    -0.299266246789E+03   -0.87481E-01   -0.64628E-02   920   0.164E+00    0.267E-01
RMM:   2    -0.299260789639E+03    0.54572E-02   -0.20423E-02   699   0.240E-01    0.201E-01
RMM:   3    -0.299256983627E+03    0.38060E-02   -0.67443E-03   782   0.125E-01    0.159E-01
RMM:   4    -0.299256301444E+03    0.68218E-03   -0.11860E-03   690   0.627E-02    0.114E-01
RMM:   5    -0.299255922474E+03    0.37897E-03   -0.95013E-04   634   0.424E-02    0.735E-02
RMM:   6    -0.299255620324E+03    0.30215E-03   -0.58492E-04   664   0.316E-02    0.822E-02
RMM:   7    -0.299255635855E+03   -0.15531E-04   -0.13345E-04   545   0.183E-02    0.407E-02
RMM:   8    -0.299255587152E+03    0.48703E-04   -0.68163E-05   526   0.123E-02    0.242E-02
RMM:   9    -0.299255541408E+03    0.45744E-04   -0.48313E-05   501   0.951E-03    0.119E-02
RMM:  10    -0.299255541216E+03    0.19239E-06   -0.20943E-05   420   0.581E-03
     87 T=   467. E= -.30206944E+03 F= -.29925554E+03 E0= -.29929365E+03  EK= 0.47692E+01 SP= -.76E+01 SK= 0.92E-02
       N       E                     dE             d eps       ncg     rms          rms(c)
DAV:   1    -0.299361813636E+03   -0.10627E+00   -0.22088E-02   912   0.155E+00    0.186E-01
RMM:   2    -0.299363460637E+03   -0.16470E-02   -0.15760E-02   706   0.227E-01    0.531E-02
RMM:   3    -0.299363687289E+03   -0.22665E-03   -0.26034E-03   792   0.104E-01    0.753E-02
RMM:   4    -0.299363699966E+03   -0.12677E-04   -0.46182E-04   768   0.444E-02    0.634E-02
RMM:   5    -0.299363701581E+03   -0.16145E-05   -0.58440E-05   486   0.140E-02
     88 T=   475. E= -.30206950E+03 F= -.29936370E+03 E0= -.29940226E+03  EK= 0.48486E+01 SP= -.76E+01 SK= 0.13E-02
       N       E                     dE             d eps       ncg     rms          rms(c)
DAV:   1    -0.299500111327E+03   -0.13641E+00   -0.96901E-03   960   0.159E+00    0.734E-02
RMM:   2    -0.299501306690E+03   -0.11954E-02   -0.10965E-02   709   0.196E-01    0.740E-02
RMM:   3    -0.299501486678E+03   -0.17999E-03   -0.18795E-03   800   0.910E-02    0.834E-02
RMM:   4    -0.299501522711E+03   -0.36033E-04   -0.36507E-04   786   0.393E-02    0.802E-02
RMM:   5    -0.299501521313E+03    0.13986E-05   -0.26343E-05   387   0.108E-02
     89 T=   488. E= -.30206939E+03 F= -.29950152E+03 E0= -.29954052E+03  EK= 0.49824E+01 SP= -.76E+01 SK= 0.32E-03
       N       E                     dE             d eps       ncg     rms          rms(c)
DAV:   1    -0.299664691451E+03   -0.16317E+00   -0.10303E-02   948   0.162E+00    0.102E-01
RMM:   2    -0.299665815167E+03   -0.11237E-02   -0.10135E-02   703   0.193E-01    0.563E-02
RMM:   3    -0.299665993444E+03   -0.17828E-03   -0.18780E-03   801   0.898E-02    0.598E-02
RMM:   4    -0.299666025572E+03   -0.32128E-04   -0.34476E-04   762   0.383E-02    0.525E-02
RMM:   5    -0.299666023798E+03    0.17743E-05   -0.38259E-05   418   0.122E-02
     90 T=   506. E= -.30206938E+03 F= -.29966602E+03 E0= -.29970550E+03  EK= 0.51658E+01 SP= -.76E+01 SK= 0.42E-02
       N       E                     dE             d eps       ncg     rms          rms(c)
DAV:   1    -0.299850775435E+03   -0.18475E+00   -0.10205E-02   948   0.163E+00    0.180E-01
RMM:   2    -0.299851946555E+03   -0.11711E-02   -0.10522E-02   698   0.195E-01    0.431E-02
RMM:   3    -0.299852146856E+03   -0.20030E-03   -0.20828E-03   800   0.949E-02    0.439E-02
RMM:   4    -0.299852142757E+03    0.40997E-05   -0.42859E-04   744   0.412E-02    0.261E-02
RMM:   5    -0.299852144915E+03   -0.21581E-05   -0.45007E-05   479   0.128E-02
     91 T=   528. E= -.30206930E+03 F= -.29985214E+03 E0= -.29989207E+03  EK= 0.53918E+01 SP= -.76E+01 SK= 0.11E-01
       N       E                     dE             d eps       ncg     rms          rms(c)
DAV:   1    -0.300051532392E+03   -0.19939E+00   -0.15151E-02   952   0.166E+00    0.113E-01
RMM:   2    -0.300052942200E+03   -0.14098E-02   -0.12776E-02   695   0.213E-01    0.488E-02
RMM:   3    -0.300053164288E+03   -0.22209E-03   -0.23666E-03   801   0.993E-02    0.663E-02
RMM:   4    -0.300053205877E+03   -0.41589E-04   -0.43817E-04   782   0.413E-02    0.645E-02
RMM:   5    -0.300053208965E+03   -0.30874E-05   -0.29931E-05   400   0.113E-02
     92 T=   553. E= -.30206925E+03 F= -.30005321E+03 E0= -.30009330E+03  EK= 0.56507E+01 SP= -.77E+01 SK= 0.17E-01
       N       E                     dE             d eps       ncg     rms          rms(c)
DAV:   1    -0.300258997982E+03   -0.20579E+00   -0.16256E-02   968   0.169E+00    0.657E-02
RMM:   2    -0.300260439526E+03   -0.14415E-02   -0.12952E-02   695   0.212E-01    0.930E-02
RMM:   3    -0.300260665481E+03   -0.22595E-03   -0.23452E-03   796   0.995E-02    0.112E-01
RMM:   4    -0.300260709137E+03   -0.43656E-04   -0.43116E-04   784   0.418E-02    0.116E-01
RMM:   5    -0.300260711616E+03   -0.24795E-05   -0.29019E-05   399   0.109E-02
     93 T=   581. E= -.30206931E+03 F= -.30026071E+03 E0= -.30030054E+03  EK= 0.59297E+01 SP= -.78E+01 SK= 0.21E-01
       N       E                     dE             d eps       ncg     rms          rms(c)
DAV:   1    -0.300463130100E+03   -0.20242E+00   -0.16218E-02   944   0.174E+00    0.886E-02
RMM:   2    -0.300464894925E+03   -0.17648E-02   -0.16234E-02   690   0.231E-01    0.162E-01
RMM:   3    -0.300465212789E+03   -0.31786E-03   -0.29463E-03   794   0.109E-01    0.215E-01
RMM:   4    -0.300465205159E+03    0.76301E-05   -0.45158E-04   750   0.480E-02    0.185E-01
RMM:   5    -0.300465190097E+03    0.15061E-04   -0.16742E-04   635   0.295E-02    0.129E-01
RMM:   6    -0.300465177964E+03    0.12133E-04   -0.68678E-05   562   0.150E-02    0.111E-01
RMM:   7    -0.300465172025E+03    0.59399E-05   -0.80436E-06   353   0.701E-03
     94 T=   609. E= -.30206922E+03 F= -.30046517E+03 E0= -.30050404E+03  EK= 0.62139E+01 SP= -.78E+01 SK= 0.22E-01
       N       E                     dE             d eps       ncg     rms          rms(c)
DAV:   1    -0.300656174624E+03   -0.19100E+00   -0.15280E-02   924   0.184E+00    0.277E-01
RMM:   2    -0.300657927702E+03   -0.17531E-02   -0.18354E-02   687   0.260E-01    0.698E-02
RMM:   3    -0.300658214303E+03   -0.28660E-03   -0.32870E-03   792   0.114E-01    0.610E-02
RMM:   4    -0.300658250138E+03   -0.35835E-04   -0.58310E-04   741   0.501E-02    0.463E-02
RMM:   5    -0.300658238975E+03    0.11163E-04   -0.12599E-04   643   0.208E-02    0.158E-02
RMM:   6    -0.300658233059E+03    0.59160E-05   -0.30589E-05   436   0.109E-02
     95 T=   635. E= -.30206942E+03 F= -.30065823E+03 E0= -.30069546E+03  EK= 0.64877E+01 SP= -.79E+01 SK= 0.19E-01
       N       E                     dE             d eps       ncg     rms          rms(c)
DAV:   1    -0.300828784059E+03   -0.17055E+00   -0.22410E-02   952   0.189E+00    0.321E-01
RMM:   2    -0.300831186990E+03   -0.24029E-02   -0.23498E-02   690   0.259E-01    0.828E-02
RMM:   3    -0.300831513786E+03   -0.32680E-03   -0.37576E-03   795   0.124E-01    0.418E-02
RMM:   4    -0.300831568213E+03   -0.54427E-04   -0.72181E-04   790   0.539E-02    0.251E-02
RMM:   5    -0.300831565319E+03    0.28935E-05   -0.84074E-05   600   0.163E-02
     96 T=   660. E= -.30206957E+03 F= -.30083157E+03 E0= -.30086694E+03  EK= 0.67354E+01 SP= -.80E+01 SK= 0.13E-01
       N       E                     dE             d eps       ncg     rms          rms(c)
DAV:   1    -0.300976341139E+03   -0.14477E+00   -0.13225E-02   936   0.194E+00    0.117E-01
RMM:   2    -0.300978603907E+03   -0.22628E-02   -0.21448E-02   699   0.249E-01    0.848E-02
RMM:   3    -0.300978923150E+03   -0.31924E-03   -0.35265E-03   794   0.117E-01    0.102E-01
RMM:   4    -0.300978981364E+03   -0.58214E-04   -0.63132E-04   816   0.502E-02    0.101E-01
RMM:   5    -0.300978984273E+03   -0.29086E-05   -0.46962E-05   464   0.128E-02
     97 T=   680. E= -.30207012E+03 F= -.30097898E+03 E0= -.30101326E+03  EK= 0.69422E+01 SP= -.80E+01 SK= 0.66E-02
       N       E                     dE             d eps       ncg     rms          rms(c)
DAV:   1    -0.301093444145E+03   -0.11446E+00   -0.14156E-02   912   0.196E+00    0.131E-01
RMM:   2    -0.301095210334E+03   -0.17662E-02   -0.18599E-02   689   0.242E-01    0.188E-01
RMM:   3    -0.301095570058E+03   -0.35972E-03   -0.34376E-03   795   0.115E-01    0.237E-01
RMM:   4    -0.301095432386E+03    0.13767E-03   -0.63115E-04   719   0.541E-02    0.222E-01
RMM:   5    -0.301095285695E+03    0.14669E-03   -0.52107E-04   658   0.402E-02    0.197E-01
RMM:   6    -0.301095234535E+03    0.51161E-04   -0.15269E-04   712   0.232E-02    0.186E-01
RMM:   7    -0.301095201592E+03    0.32943E-04   -0.39216E-05   467   0.120E-02    0.176E-01
RMM:   8    -0.301095153246E+03    0.48346E-04   -0.62645E-05   498   0.109E-02    0.156E-01
RMM:   9    -0.301095120981E+03    0.32265E-04   -0.55202E-05   537   0.863E-03    0.141E-01
RMM:  10    -0.301095090223E+03    0.30758E-04   -0.43355E-05   530   0.774E-03    0.128E-01
RMM:  11    -0.301095090009E+03    0.21362E-06   -0.34894E-06   350   0.420E-03
     98 T=   695. E= -.30207097E+03 F= -.30109509E+03 E0= -.30112628E+03  EK= 0.70958E+01 SP= -.81E+01 SK= 0.16E-02
       N       E                     dE             d eps       ncg     rms          rms(c)
DAV:   1    -0.301172752664E+03   -0.77662E-01    0.15650E-02   968   0.198E+00    0.207E-01
RMM:   2    -0.301173622319E+03   -0.86966E-03   -0.18455E-02   686   0.251E-01    0.145E-01
[...]
RMM:   5    -0.301808856903E+03    0.57336E-05   -0.67264E-05   491   0.147E-02
   2182 T=   629. E= -.30123612E+03 F= -.30180886E+03 E0= -.30184551E+03  EK= 0.64232E+01 SP= -.59E+01 SK= 0.38E-04
       N       E                     dE             d eps       ncg     rms          rms(c)
DAV:   1    -0.301935716666E+03   -0.12685E+00   -0.14945E-02   916   0.181E+00    0.291E-01
RMM:   2    -0.301937517673E+03   -0.18010E-02   -0.16502E-02   699   0.243E-01    0.703E-02
RMM:   3    -0.301937850555E+03   -0.33288E-03   -0.31939E-03   797   0.116E-01    0.482E-02
RMM:   4    -0.301937865551E+03   -0.14996E-04   -0.63211E-04   760   0.518E-02    0.266E-02
RMM:   5    -0.301937870359E+03   -0.48079E-05   -0.83436E-05   550   0.167E-02
   2183 T=   642. E= -.30123626E+03 F= -.30193787E+03 E0= -.30197528E+03  EK= 0.65508E+01 SP= -.58E+01 SK= 0.11E-03
       N       E                     dE             d eps       ncg     rms          rms(c)
DAV:   1    -0.302063511622E+03   -0.12565E+00   -0.19344E-02   900   0.186E+00    0.138E-01
RMM:   2    -0.302065490529E+03   -0.19789E-02   -0.17659E-02   689   0.251E-01    0.660E-02
RMM:   3    -0.302065812469E+03   -0.32194E-03   -0.34222E-03   796   0.122E-01    0.943E-02
RMM:   4    -0.302065872866E+03   -0.60398E-04   -0.64705E-04   798   0.510E-02    0.916E-02
RMM:   5    -0.302065891882E+03   -0.19016E-04   -0.54473E-05   483   0.136E-02    0.116E-01
RMM:   6    -0.302065853249E+03    0.38633E-04   -0.14879E-04   552   0.196E-02    0.139E-02
RMM:   7    -0.302065860613E+03   -0.73637E-05   -0.75805E-05   565   0.103E-02
   2184 T=   653. E= -.30123687E+03 F= -.30206586E+03 E0= -.30210418E+03  EK= 0.66653E+01 SP= -.58E+01 SK= 0.11E-02
       N       E                     dE             d eps       ncg     rms          rms(c)
DAV:   1    -0.302180627229E+03   -0.11477E+00   -0.20913E-02   904   0.186E+00    0.265E-01
RMM:   2    -0.302182552808E+03   -0.19256E-02   -0.18426E-02   704   0.254E-01    0.515E-02
RMM:   3    -0.302182859608E+03   -0.30680E-03   -0.31705E-03   794   0.118E-01    0.477E-02
RMM:   4    -0.302182919342E+03   -0.59734E-04   -0.62256E-04   759   0.536E-02    0.279E-02
RMM:   5    -0.302182930668E+03   -0.11327E-04   -0.13542E-04   536   0.211E-02    0.116E-02
RMM:   6    -0.302182929753E+03    0.91527E-06   -0.84819E-06   352   0.750E-03
   2185 T=   661. E= -.30123728E+03 F= -.30218293E+03 E0= -.30222219E+03  EK= 0.67540E+01 SP= -.58E+01 SK= 0.36E-02
       N       E                     dE             d eps       ncg     rms          rms(c)
DAV:   1    -0.302277384018E+03   -0.94453E-01   -0.25265E-02   896   0.186E+00    0.144E-01
RMM:   2    -0.302279622778E+03   -0.22388E-02   -0.20210E-02   700   0.262E-01    0.800E-02
RMM:   3    -0.302279948956E+03   -0.32618E-03   -0.35191E-03   795   0.123E-01    0.102E-01
RMM:   4    -0.302280011546E+03   -0.62590E-04   -0.65926E-04   806   0.526E-02    0.930E-02
RMM:   5    -0.302280013020E+03   -0.14740E-05   -0.57296E-05   447   0.137E-02
   2186 T=   666. E= -.30123757E+03 F= -.30228001E+03 E0= -.30232012E+03  EK= 0.68051E+01 SP= -.58E+01 SK= 0.81E-02
       N       E                     dE             d eps       ncg     rms          rms(c)
DAV:   1    -0.302346522081E+03   -0.66511E-01   -0.21108E-02   896   0.188E+00    0.663E-02
RMM:   2    -0.302348632492E+03   -0.21104E-02   -0.18748E-02   695   0.252E-01    0.136E-01
RMM:   3    -0.302348970428E+03   -0.33794E-03   -0.35584E-03   794   0.121E-01    0.169E-01
RMM:   4    -0.302349030775E+03   -0.60347E-04   -0.62808E-04   810   0.500E-02    0.178E-01
RMM:   5    -0.302349033117E+03   -0.23415E-05   -0.41192E-05   427   0.131E-02
   2187 T=   667. E= -.30123723E+03 F= -.30234903E+03 E0= -.30239019E+03  EK= 0.68098E+01 SP= -.57E+01 SK= 0.15E-01
       N       E                     dE             d eps       ncg     rms          rms(c)
DAV:   1    -0.302384589652E+03   -0.35559E-01   -0.19968E-02   936   0.187E+00    0.337E-01
RMM:   2    -0.302386334277E+03   -0.17446E-02   -0.17805E-02   702   0.245E-01    0.112E-01
RMM:   3    -0.302386596894E+03   -0.26262E-03   -0.34452E-03   799   0.121E-01    0.755E-02
RMM:   4    -0.302386584974E+03    0.11920E-04   -0.64509E-04   729   0.513E-02    0.577E-02
RMM:   5    -0.302386547226E+03    0.37747E-04   -0.11283E-04   676   0.238E-02    0.185E-02
RMM:   6    -0.302386540750E+03    0.64766E-05   -0.48255E-05   494   0.121E-02
   2188 T=   662. E= -.30123654E+03 F= -.30238654E+03 E0= -.30242952E+03  EK= 0.67644E+01 SP= -.56E+01 SK= 0.23E-01
       N       E                     dE             d eps       ncg     rms          rms(c)
DAV:   1    -0.302392043771E+03   -0.54965E-02   -0.13610E-02   924   0.195E+00    0.302E-01
RMM:   2    -0.302393322533E+03   -0.12788E-02   -0.20023E-02   682   0.270E-01    0.136E-01
RMM:   3    -0.302393636827E+03   -0.31429E-03   -0.41250E-03   792   0.127E-01    0.114E-01
RMM:   4    -0.302393569088E+03    0.67740E-04   -0.67595E-04   698   0.528E-02    0.776E-02
RMM:   5    -0.302393554701E+03    0.14387E-04   -0.20178E-04   653   0.277E-02    0.255E-02
RMM:   6    -0.302393542593E+03    0.12108E-04   -0.64815E-05   644   0.142E-02    0.152E-02
RMM:   7    -0.302393538128E+03    0.44647E-05   -0.10183E-05   358   0.702E-03
   2189 T=   653. E= -.30123537E+03 F= -.30239354E+03 E0= -.30243720E+03  EK= 0.66725E+01 SP= -.55E+01 SK= 0.32E-01
       N       E                     dE             d eps       ncg     rms          rms(c)
DAV:   1    -0.302372883687E+03    0.20659E-01   -0.15956E-02   936   0.184E+00    0.173E-01
RMM:   2    -0.302374378887E+03   -0.14952E-02   -0.16203E-02   698   0.237E-01    0.781E-02
RMM:   3    -0.302374612884E+03   -0.23400E-03   -0.30033E-03   796   0.114E-01    0.820E-02
RMM:   4    -0.302374655340E+03   -0.42456E-04   -0.58758E-04   772   0.489E-02    0.705E-02
RMM:   5    -0.302374634736E+03    0.20604E-04   -0.73045E-05   571   0.162E-02    0.379E-02
RMM:   6    -0.302374623857E+03    0.10879E-04   -0.63642E-05   510   0.133E-02    0.148E-02
RMM:   7    -0.302374622632E+03    0.12256E-05   -0.18979E-05   405   0.779E-03
   2190 T=   641. E= -.30123449E+03 F= -.30237462E+03 E0= -.30241618E+03  EK= 0.65412E+01 SP= -.54E+01 SK= 0.41E-01
       N       E                     dE             d eps       ncg     rms          rms(c)
DAV:   1    -0.302333155451E+03    0.41468E-01   -0.18610E-02   920   0.181E+00    0.215E-01
RMM:   2    -0.302334882281E+03   -0.17268E-02   -0.18979E-02   696   0.250E-01    0.484E-02
RMM:   3    -0.302335193595E+03   -0.31131E-03   -0.34991E-03   795   0.120E-01    0.699E-02
RMM:   4    -0.302335239224E+03   -0.45630E-04   -0.62285E-04   782   0.508E-02    0.576E-02
RMM:   5    -0.302335232384E+03    0.68405E-05   -0.75036E-05   553   0.152E-02
   2191 T=   625. E= -.30123377E+03 F= -.30233523E+03 E0= -.30237293E+03  EK= 0.63807E+01 SP= -.53E+01 SK= 0.47E-01
       N       E                     dE             d eps       ncg     rms          rms(c)
DAV:   1    -0.302279376523E+03    0.55863E-01   -0.12439E-02   944   0.180E+00    0.142E-01
RMM:   2    -0.302280732207E+03   -0.13557E-02   -0.14685E-02   706   0.224E-01    0.697E-02
RMM:   3    -0.302280936273E+03   -0.20407E-03   -0.29776E-03   800   0.110E-01    0.765E-02
RMM:   4    -0.302280958264E+03   -0.21990E-04   -0.53082E-04   789   0.467E-02    0.690E-02
RMM:   5    -0.302280925039E+03    0.33224E-04   -0.56513E-05   551   0.138E-02    0.430E-02
RMM:   6    -0.302280872487E+03    0.52552E-04   -0.79564E-05   505   0.122E-02    0.161E-02
RMM:   7    -0.302280857273E+03    0.15214E-04   -0.50233E-05   528   0.861E-03    0.182E-02
RMM:   8    -0.302280852138E+03    0.51350E-05   -0.11013E-05   364   0.570E-03
   2192 T=   607. E= -.30123301E+03 F= -.30228085E+03 E0= -.30231445E+03  EK= 0.62019E+01 SP= -.52E+01 SK= 0.51E-01
       N       E                     dE             d eps       ncg     rms          rms(c)
DAV:   1    -0.302213695036E+03    0.67162E-01   -0.13234E-02   928   0.176E+00    0.163E-01
RMM:   2    -0.302215304761E+03   -0.16097E-02   -0.15047E-02   699   0.222E-01    0.498E-02
RMM:   3    -0.302215554908E+03   -0.25015E-03   -0.28600E-03   796   0.108E-01    0.628E-02
RMM:   4    -0.302215571409E+03   -0.16501E-04   -0.49782E-04   774   0.455E-02    0.542E-02
RMM:   5    -0.302215568692E+03    0.27167E-05   -0.53253E-05   467   0.135E-02
   2193 T=   589. E= -.30123204E+03 F= -.30221557E+03 E0= -.30224503E+03  EK= 0.60141E+01 SP= -.51E+01 SK= 0.51E-01
       N       E                     dE             d eps       ncg     rms          rms(c)
DAV:   1    -0.302141760095E+03    0.73811E-01   -0.10815E-02   940   0.176E+00    0.135E-01
RMM:   2    -0.302142998768E+03   -0.12387E-02   -0.12746E-02   693   0.211E-01    0.535E-02
RMM:   3    -0.302143194902E+03   -0.19613E-03   -0.26102E-03   800   0.104E-01    0.692E-02
RMM:   4    -0.302143217956E+03   -0.23054E-04   -0.41925E-04   787   0.432E-02    0.575E-02
RMM:   5    -0.302143191100E+03    0.26856E-04   -0.56597E-05   515   0.134E-02    0.343E-02
RMM:   6    -0.302143152784E+03    0.38315E-04   -0.41122E-05   505   0.999E-03    0.124E-02
RMM:   7    -0.302143130873E+03    0.21911E-04   -0.53232E-05   506   0.862E-03    0.211E-02
RMM:   8    -0.302143128467E+03    0.24065E-05   -0.13085E-05   375   0.567E-03
   2194 T=   570. E= -.30123175E+03 F= -.30214313E+03 E0= -.30217043E+03  EK= 0.58247E+01 SP= -.50E+01 SK= 0.47E-01
       N       E                     dE             d eps       ncg     rms          rms(c)
DAV:   1    -0.302064195690E+03    0.78935E-01   -0.94238E-03   960   0.170E+00    0.170E-01
RMM:   2    -0.302065494704E+03   -0.12990E-02   -0.12570E-02   696   0.208E-01    0.303E-02
RMM:   3    -0.302065703011E+03   -0.20831E-03   -0.23026E-03   795   0.100E-01    0.469E-02
RMM:   4    -0.302065737793E+03   -0.34783E-04   -0.43885E-04   760   0.431E-02    0.387E-02
RMM:   5    -0.302065735381E+03    0.24121E-05   -0.58766E-05   443   0.139E-02
   2195 T=   552. E= -.30123133E+03 F= -.30206574E+03 E0= -.30209213E+03  EK= 0.56409E+01 SP= -.48E+01 SK= 0.39E-01
       N       E                     dE             d eps       ncg     rms          rms(c)
DAV:   1    -0.301984973436E+03    0.80764E-01   -0.10136E-02   960   0.166E+00    0.110E-01
RMM:   2    -0.301986241673E+03   -0.12682E-02   -0.11664E-02   698   0.203E-01    0.527E-02
RMM:   3    -0.301986453187E+03   -0.21151E-03   -0.22268E-03   803   0.983E-02    0.690E-02
RMM:   4    -0.301986490658E+03   -0.37470E-04   -0.40375E-04   785   0.413E-02    0.630E-02
RMM:   5    -0.301986489261E+03    0.13966E-05   -0.32605E-05   396   0.112E-02
   2196 T=   536. E= -.30123054E+03 F= -.30198649E+03 E0= -.30201251E+03  EK= 0.54697E+01 SP= -.47E+01 SK= 0.30E-01
       N       E                     dE             d eps       ncg     rms          rms(c)
DAV:   1    -0.301907469348E+03    0.79021E-01   -0.12536E-02   912   0.165E+00    0.119E-01
RMM:   2    -0.301908928984E+03   -0.14596E-02   -0.13558E-02   698   0.211E-01    0.623E-02
RMM:   3    -0.301909131873E+03   -0.20289E-03   -0.23940E-03   795   0.101E-01    0.735E-02
RMM:   4    -0.301909153877E+03   -0.22004E-04   -0.44404E-04   754   0.434E-02    0.644E-02
RMM:   5    -0.301909153099E+03    0.77868E-06   -0.56498E-05   479   0.135E-02
   2197 T=   521. E= -.30123035E+03 F= -.30190915E+03 E0= -.30193510E+03  EK= 0.53167E+01 SP= -.47E+01 SK= 0.20E-01
       N       E                     dE             d eps       ncg     rms          rms(c)
DAV:   1    -0.301833745128E+03    0.75409E-01   -0.11724E-02   912   0.162E+00    0.142E-01
RMM:   2    -0.301835211032E+03   -0.14659E-02   -0.13775E-02   701   0.210E-01    0.404E-02
RMM:   3    -0.301835454871E+03   -0.24384E-03   -0.25130E-03   799   0.103E-01    0.594E-02
RMM:   4    -0.301835479558E+03   -0.24687E-04   -0.44088E-04   760   0.432E-02    0.494E-02
RMM:   5    -0.301835482026E+03   -0.24683E-05   -0.58647E-05   462   0.139E-02
   2198 T=   508. E= -.30122987E+03 F= -.30183548E+03 E0= -.30186148E+03  EK= 0.51865E+01 SP= -.46E+01 SK= 0.10E-01
       N       E                     dE             d eps       ncg     rms          rms(c)
DAV:   1    -0.301768221149E+03    0.67258E-01   -0.17402E-02   912   0.161E+00    0.144E-01
RMM:   2    -0.301769801901E+03   -0.15808E-02   -0.15088E-02   694   0.218E-01    0.359E-02
RMM:   3    -0.301770052763E+03   -0.25086E-03   -0.26297E-03   793   0.104E-01    0.629E-02
RMM:   4    -0.301770089844E+03   -0.37082E-04   -0.42558E-04   769   0.439E-02    0.553E-02
RMM:   5    -0.301770092358E+03   -0.25136E-05   -0.63057E-05   447   0.144E-02
   2199 T=   498. E= -.30122978E+03 F= -.30177009E+03 E0= -.30179629E+03  EK= 0.50848E+01 SP= -.45E+01 SK= 0.32E-02
       N       E                     dE             d eps       ncg     rms          rms(c)
DAV:   1    -0.301714457647E+03    0.55632E-01   -0.14599E-02   932   0.158E+00    0.770E-02
RMM:   2    -0.301715703848E+03   -0.12462E-02   -0.11605E-02   692   0.202E-01    0.639E-02
RMM:   3    -0.301715907022E+03   -0.20317E-03   -0.21423E-03   794   0.954E-02    0.850E-02
RMM:   4    -0.301715939623E+03   -0.32601E-04   -0.34864E-04   778   0.400E-02    0.827E-02
RMM:   5    -0.301715941331E+03   -0.17076E-05   -0.37379E-05   404   0.119E-02
   2200 T=   491. E= -.30122924E+03 F= -.30171594E+03 E0= -.30174245E+03  EK= 0.50163E+01 SP= -.45E+01 SK= 0.73E-04
       N       E                     dE             d eps       ncg     rms          rms(c)
DAV:   1    -0.301675742804E+03    0.40197E-01   -0.12932E-02   920   0.155E+00    0.735E-02
RMM:   2    -0.301677015141E+03   -0.12723E-02   -0.11987E-02   703   0.197E-01    0.732E-02
RMM:   3    -0.301677213823E+03   -0.19868E-03   -0.20609E-03   793   0.922E-02    0.860E-02
RMM:   4    -0.301677247494E+03   -0.33672E-04   -0.33330E-04   766   0.393E-02    0.807E-02
RMM:   5    -0.301677248554E+03   -0.10597E-05   -0.49104E-05   441   0.134E-02
   2201 T=   488. E= -.30122914E+03 F= -.30167725E+03 E0= -.30170413E+03  EK= 0.49853E+01 SP= -.45E+01 SK= 0.18E-02
       N       E                     dE             d eps       ncg     rms          rms(c)
DAV:   1    -0.301654338160E+03    0.22909E-01   -0.12740E-02   928   0.154E+00    0.206E-01
RMM:   2    -0.301655840361E+03   -0.15022E-02   -0.14608E-02   702   0.204E-01    0.520E-02
RMM:   3    -0.301656115530E+03   -0.27517E-03   -0.24277E-03   794   0.996E-02    0.606E-02
RMM:   4    -0.301656078894E+03    0.36637E-04   -0.48604E-04   748   0.445E-02    0.268E-02
RMM:   5    -0.301656081456E+03   -0.25624E-05   -0.73965E-05   562   0.148E-02
   2202 T=   489. E= -.30122868E+03 F= -.30165608E+03 E0= -.30168304E+03  EK= 0.49948E+01 SP= -.46E+01 SK= 0.87E-02
       N       E                     dE             d eps       ncg     rms          rms(c)
DAV:   1    -0.301652781425E+03    0.32975E-02   -0.20983E-02   912   0.157E+00    0.148E-01
RMM:   2    -0.301654440621E+03   -0.16592E-02   -0.16182E-02   696   0.221E-01    0.338E-02
RMM:   3    -0.301654701591E+03   -0.26097E-03   -0.27589E-03   795   0.104E-01    0.602E-02
RMM:   4    -0.301654741928E+03   -0.40337E-04   -0.44708E-04   771   0.437E-02    0.549E-02
RMM:   5    -0.301654748444E+03   -0.65159E-05   -0.72931E-05   450   0.138E-02
   2203 T=   494. E= -.30122828E+03 F= -.30165475E+03 E0= -.30168145E+03  EK= 0.50470E+01 SP= -.46E+01 SK= 0.20E-01
       N       E                     dE             d eps       ncg     rms          rms(c)
DAV:   1    -0.301672167271E+03   -0.17425E-01   -0.29834E-02   884   0.158E+00    0.678E-02
RMM:   2    -0.301673795159E+03   -0.16279E-02   -0.15992E-02   687   0.224E-01    0.107E-01
RMM:   3    -0.301674068372E+03   -0.27321E-03   -0.29668E-03   794   0.107E-01    0.140E-01
RMM:   4    -0.301674113430E+03   -0.45058E-04   -0.44557E-04   766   0.428E-02    0.154E-01
RMM:   5    -0.301674122759E+03   -0.93283E-05   -0.80805E-05   462   0.160E-02
   2204 T=   504. E= -.30122797E+03 F= -.30167412E+03 E0= -.30170002E+03  EK= 0.51425E+01 SP= -.47E+01 SK= 0.36E-01
       N       E                     dE             d eps       ncg     rms          rms(c)
DAV:   1    -0.301711754461E+03   -0.37641E-01   -0.22844E-02   896   0.164E+00    0.535E-01
RMM:   2    -0.301712421458E+03   -0.66700E-03   -0.15645E-02   692   0.225E-01    0.219E-01
RMM:   3    -0.301712025037E+03    0.39642E-03   -0.40427E-03   789   0.122E-01    0.676E-02
RMM:   4    -0.301711774535E+03    0.25050E-03   -0.81569E-04   752   0.540E-02    0.558E-02
RMM:   5    -0.301711434416E+03    0.34012E-03   -0.38178E-04   666   0.306E-02    0.301E-02
RMM:   6    -0.301711159017E+03    0.27540E-03   -0.55773E-04   622   0.280E-02    0.189E-02
RMM:   7    -0.301711118886E+03    0.40131E-04   -0.17795E-04   687   0.193E-02    0.129E-02
RMM:   8    -0.301711105336E+03    0.13550E-04   -0.48746E-05   543   0.119E-02    0.789E-03
RMM:   9    -0.301711105085E+03    0.25029E-06   -0.12223E-05   356   0.782E-03
   2205 T=   517. E= -.30122575E+03 F= -.30171111E+03 E0= -.30173036E+03  EK= 0.52797E+01 SP= -.48E+01 SK= 0.53E-01
       N       E                     dE             d eps       ncg     rms          rms(c)
DAV:   1    -0.301785900902E+03   -0.74796E-01   -0.14731E-02   936   0.222E+00    0.385E-01
RMM:   2    -0.301775818981E+03    0.10082E-01   -0.29496E-02   668   0.280E-01    0.250E-01
RMM:   3    -0.301771027908E+03    0.47911E-02   -0.15696E-02   757   0.164E-01    0.165E-01
RMM:   4    -0.301769673223E+03    0.13547E-02   -0.23135E-03   720   0.852E-02    0.722E-02
RMM:   5    -0.301769049032E+03    0.62419E-03   -0.13383E-03   670   0.579E-02    0.545E-02
RMM:   6    -0.301769028442E+03    0.20589E-04   -0.38614E-04   815   0.341E-02    0.462E-02
RMM:   7    -0.301768965800E+03    0.62642E-04   -0.12797E-04   550   0.188E-02    0.150E-02
RMM:   8    -0.301768941732E+03    0.24068E-04   -0.11204E-04   530   0.136E-02    0.107E-02
RMM:   9    -0.301768942774E+03   -0.10423E-05   -0.28071E-05   448   0.797E-03
   2206 T=   534. E= -.30122581E+03 F= -.30176894E+03 E0= -.30178789E+03  EK= 0.54566E+01 SP= -.50E+01 SK= 0.70E-01
       N       E                     dE             d eps       ncg     rms          rms(c)
DAV:   1    -0.301844642104E+03   -0.75700E-01   -0.17699E-02   912   0.177E+00    0.250E-01
RMM:   2    -0.301845019997E+03   -0.37789E-03   -0.16136E-02   696   0.226E-01    0.842E-02
RMM:   3    -0.301844612455E+03    0.40754E-03   -0.31738E-03   793   0.107E-01    0.684E-02
RMM:   4    -0.301844249946E+03    0.36251E-03   -0.62694E-04   753   0.487E-02    0.494E-02
RMM:   5    -0.301843693606E+03    0.55634E-03   -0.67046E-04   644   0.342E-02    0.328E-02
RMM:   6    -0.301843517663E+03    0.17594E-03   -0.36574E-04   668   0.235E-02    0.296E-02
RMM:   7    -0.301843276588E+03    0.24107E-03   -0.37311E-04   652   0.228E-02    0.174E-02
RMM:   8    -0.301843217483E+03    0.59105E-04   -0.30949E-04   661   0.195E-02    0.147E-02
RMM:   9    -0.301843231345E+03   -0.13862E-04   -0.50384E-05   468   0.111E-02    0.980E-03
RMM:  10    -0.301843218248E+03    0.13096E-04   -0.24964E-05   427   0.842E-03    0.512E-03
RMM:  11    -0.301843216372E+03    0.18767E-05   -0.10629E-05   361   0.550E-03
   2207 T=   555. E= -.30122583E+03 F= -.30184322E+03 E0= -.30186207E+03  EK= 0.56691E+01 SP= -.51E+01 SK= 0.84E-01
       N       E                     dE             d eps       ncg     rms          rms(c)
DAV:   1    -0.301928323608E+03   -0.85105E-01   -0.17442E-02   936   0.169E+00    0.185E-01
RMM:   2    -0.301930062252E+03   -0.17386E-02   -0.17221E-02   699   0.237E-01    0.386E-02
RMM:   3    -0.301930306449E+03   -0.24420E-03   -0.27064E-03   793   0.106E-01    0.654E-02
RMM:   4    -0.301930340149E+03   -0.33700E-04   -0.41856E-04   776   0.453E-02    0.540E-02
RMM:   5    -0.301930340501E+03   -0.35205E-06   -0.69168E-05   503   0.167E-02
   2208 T=   579. E= -.30122588E+03 F= -.30193034E+03 E0= -.30194875E+03  EK= 0.59105E+01 SP= -.53E+01 SK= 0.93E-01
