  55  55   0   0
  0.2301251E+02  0.1218282E-08  0.7661564E-09  0.1373046E-08  0.0000000E+00
   1.0000000000000000E-004
  CAR 
 NEB_refined                             
      9.30616767    -23.65968713  301      1.29199039      1.00000000
    -23.660  0.0000E+00  0.0000E+00
    -23.550  0.0000E+00  0.0000E+00
    -23.440  0.0000E+00  0.0000E+00
    -23.330 -0.4373E-31 -0.4806E-32
    -23.220 -0.2932E-27 -0.3222E-28
    -23.110 -0.1068E-23 -0.1174E-24
    -23.000 -0.2118E-20 -0.2329E-21
    -22.890 -0.2286E-17 -0.2514E-18
    -22.781 -0.1302E-14 -0.1433E-15
    -22.671 -0.4130E-12 -0.4553E-13
    -22.561 -0.7133E-10 -0.7884E-11
    -22.451 -0.6712E-08 -0.7454E-09
    -22.341 -0.3450E-06 -0.3866E-07
    -22.231 -0.9725E-05 -0.1107E-05
    -22.121 -0.1505E-03 -0.1764E-04
    -22.011 -0.1264E-02 -0.1566E-03
    -21.902 -0.5434E-02 -0.7536E-03
    -21.792 -0.8682E-02 -0.1708E-02
    -21.682  0.1755E-01  0.2209E-03
    -21.572  0.1201E+00  0.1342E-01
    -21.462  0.3206E+00  0.4865E-01
    -21.352  0.5489E+00  0.1090E+00
    -21.242  0.6398E+00  0.1793E+00
    -21.132  0.5232E+00  0.2368E+00
    -21.022  0.2887E+00  0.2685E+00
    -20.913  0.8565E-01  0.2779E+00
    -20.803 -0.1792E-02  0.2777E+00
    -20.693 -0.1104E-01  0.2765E+00
    -20.583 -0.3818E-02  0.2761E+00
    -20.473 -0.6120E-03  0.2760E+00
    -20.363 -0.5146E-04  0.2760E+00
    -20.253 -0.2331E-05  0.2760E+00
    -20.143 -0.5722E-07  0.2760E+00
    -20.033 -0.7630E-09  0.2760E+00
    -19.924 -0.5530E-11  0.2760E+00
    -19.814 -0.2179E-13  0.2760E+00
    -19.704 -0.4850E-16  0.2760E+00
    -19.594  0.0000E+00  0.2760E+00
    -19.484  0.0000E+00  0.2760E+00
    -19.374  0.0000E+00  0.2760E+00
    -19.264  0.0000E+00  0.2760E+00
    -19.154  0.0000E+00  0.2760E+00
    -19.044  0.0000E+00  0.2760E+00
    -18.935  0.0000E+00  0.2760E+00
    -18.825  0.0000E+00  0.2760E+00
    -18.715  0.0000E+00  0.2760E+00
    -18.605  0.0000E+00  0.2760E+00
    -18.495  0.0000E+00  0.2760E+00
    -18.385  0.0000E+00  0.2760E+00
    -18.275  0.0000E+00  0.2760E+00
    -18.165  0.0000E+00  0.2760E+00
    -18.055  0.0000E+00  0.2760E+00
    -17.946  0.0000E+00  0.2760E+00
    -17.836  0.0000E+00  0.2760E+00
    -17.726  0.0000E+00  0.2760E+00
    -17.616  0.0000E+00  0.2760E+00
    -17.506  0.0000E+00  0.2760E+00
    -17.396  0.0000E+00  0.2760E+00
    -17.286  0.0000E+00  0.2760E+00
    -17.176  0.0000E+00  0.2760E+00
    -17.067  0.0000E+00  0.2760E+00
    -16.957  0.0000E+00  0.2760E+00
    -16.847  0.0000E+00  0.2760E+00
    -16.737  0.0000E+00  0.2760E+00
    -16.627  0.0000E+00  0.2760E+00
    -16.517  0.0000E+00  0.2760E+00
    -16.407  0.0000E+00  0.2760E+00
    -16.297  0.0000E+00  0.2760E+00
    -16.187  0.0000E+00  0.2760E+00
    -16.078  0.0000E+00  0.2760E+00
    -15.968  0.0000E+00  0.2760E+00
    -15.858  0.0000E+00  0.2760E+00
    -15.748  0.0000E+00  0.2760E+00
    -15.638  0.0000E+00  0.2760E+00
    -15.528  0.0000E+00  0.2760E+00
    -15.418  0.0000E+00  0.2760E+00
    -15.308  0.0000E+00  0.2760E+00
    -15.198  0.0000E+00  0.2760E+00
    -15.089  0.0000E+00  0.2760E+00
    -14.979  0.0000E+00  0.2760E+00
    -14.869  0.0000E+00  0.2760E+00
    -14.759  0.0000E+00  0.2760E+00
    -14.649  0.0000E+00  0.2760E+00
    -14.539  0.0000E+00  0.2760E+00
    -14.429  0.0000E+00  0.2760E+00
    -14.319  0.0000E+00  0.2760E+00
    -14.209  0.0000E+00  0.2760E+00
    -14.100  0.0000E+00  0.2760E+00
    -13.990  0.0000E+00  0.2760E+00
    -13.880  0.0000E+00  0.2760E+00
    -13.770  0.0000E+00  0.2760E+00
    -13.660  0.0000E+00  0.2760E+00
    -13.550  0.0000E+00  0.2760E+00
    -13.440  0.0000E+00  0.2760E+00
    -13.330  0.0000E+00  0.2760E+00
    -13.220  0.0000E+00  0.2760E+00
    -13.111  0.0000E+00  0.2760E+00
    -13.001  0.0000E+00  0.2760E+00
    -12.891  0.0000E+00  0.2760E+00
    -12.781  0.0000E+00  0.2760E+00
    -12.671  0.0000E+00  0.2760E+00
    -12.561 -0.5419E-31  0.2760E+00
    -12.451 -0.3579E-27  0.2760E+00
    -12.341 -0.1285E-23  0.2760E+00
    -12.232 -0.2508E-20  0.2760E+00
    -12.122 -0.2663E-17  0.2760E+00
    -12.012 -0.1487E-14  0.2760E+00
    -11.902 -0.4623E-12  0.2760E+00
    -11.792 -0.7774E-10  0.2760E+00
    -11.682 -0.7052E-08  0.2760E+00
    -11.572 -0.3436E-06  0.2760E+00
    -11.462 -0.8922E-05  0.2760E+00
    -11.352 -0.1211E-03  0.2760E+00
    -11.243 -0.8145E-03  0.2759E+00
    -11.133 -0.2181E-02  0.2757E+00
    -11.023  0.1942E-02  0.2759E+00
    -10.913  0.2397E-01  0.2785E+00
    -10.803  0.5291E-01  0.2843E+00
    -10.693  0.5128E-01  0.2900E+00
    -10.583  0.2103E-01  0.2923E+00
    -10.473  0.4453E-03  0.2923E+00
    -10.363 -0.2945E-02  0.2920E+00
    -10.254 -0.2765E-02  0.2917E+00
    -10.144  0.6294E-03  0.2918E+00
    -10.034  0.1835E-01  0.2938E+00
     -9.924  0.4925E-01  0.2992E+00
     -9.814  0.7543E-01  0.3075E+00
     -9.704  0.8513E-01  0.3168E+00
     -9.594  0.8653E-01  0.3263E+00
     -9.484  0.1049E+00  0.3379E+00
     -9.374  0.1314E+00  0.3523E+00
     -9.265  0.1182E+00  0.3653E+00
     -9.155  0.5948E-01  0.3718E+00
     -9.045  0.8987E-02  0.3728E+00
     -8.935 -0.4677E-02  0.3723E+00
     -8.825 -0.2306E-02  0.3720E+00
     -8.715 -0.3984E-03  0.3720E+00
     -8.605 -0.3299E-04  0.3720E+00
     -8.495 -0.1406E-05  0.3720E+00
     -8.386 -0.3169E-07  0.3720E+00
     -8.276 -0.3823E-09  0.3720E+00
     -8.166 -0.2486E-11  0.3720E+00
     -8.056 -0.8754E-14  0.3720E+00
     -7.946 -0.1617E-16  0.3720E+00
     -7.836  0.0000E+00  0.3720E+00
     -7.726  0.0000E+00  0.3720E+00
     -7.616  0.0000E+00  0.3720E+00
     -7.506  0.0000E+00  0.3720E+00
     -7.397  0.0000E+00  0.3720E+00
     -7.287  0.0000E+00  0.3720E+00
     -7.177  0.0000E+00  0.3720E+00
     -7.067  0.0000E+00  0.3720E+00
     -6.957  0.0000E+00  0.3720E+00
     -6.847  0.0000E+00  0.3720E+00
     -6.737  0.0000E+00  0.3720E+00
     -6.627  0.0000E+00  0.3720E+00
     -6.517  0.0000E+00  0.3720E+00
     -6.408  0.0000E+00  0.3720E+00
     -6.298  0.0000E+00  0.3720E+00
     -6.188  0.0000E+00  0.3720E+00
     -6.078  0.0000E+00  0.3720E+00
     -5.968  0.0000E+00  0.3720E+00
     -5.858  0.0000E+00  0.3720E+00
     -5.748  0.0000E+00  0.3720E+00
     -5.638  0.0000E+00  0.3720E+00
     -5.528  0.0000E+00  0.3720E+00
     -5.419  0.0000E+00  0.3720E+00
     -5.309  0.0000E+00  0.3720E+00
     -5.199  0.0000E+00  0.3720E+00
     -5.089  0.0000E+00  0.3720E+00
     -4.979  0.0000E+00  0.3720E+00
     -4.869 -0.1078E-31  0.3720E+00
     -4.759 -0.8127E-28  0.3720E+00
     -4.649 -0.3269E-24  0.3720E+00
     -4.539 -0.7163E-21  0.3720E+00
     -4.430 -0.8548E-18  0.3720E+00
     -4.320 -0.5371E-15  0.3720E+00
     -4.210 -0.1889E-12  0.3720E+00
     -4.100 -0.3593E-10  0.3720E+00
     -3.990 -0.3690E-08  0.3720E+00
     -3.880 -0.2036E-06  0.3720E+00
     -3.770 -0.5974E-05  0.3720E+00
     -3.660 -0.9138E-04  0.3720E+00
     -3.551 -0.6952E-03  0.3719E+00
     -3.441 -0.2254E-02  0.3717E+00
     -3.331 -0.2039E-03  0.3716E+00
     -3.221  0.1769E-01  0.3736E+00
     -3.111  0.5315E-01  0.3794E+00
     -3.001  0.8573E-01  0.3888E+00
     -2.891  0.8570E-01  0.3983E+00
     -2.781  0.4745E-01  0.4035E+00
     -2.671  0.9669E-02  0.4045E+00
     -2.562 -0.2669E-02  0.4042E+00
     -2.452 -0.1839E-02  0.4040E+00
     -2.342 -0.4151E-03  0.4040E+00
     -2.232 -0.3046E-03  0.4040E+00
     -2.122 -0.1330E-02  0.4038E+00
     -2.012 -0.2117E-02  0.4036E+00
     -1.902  0.6346E-02  0.4043E+00
     -1.792  0.3276E-01  0.4079E+00
     -1.682  0.6065E-01  0.4146E+00
     -1.573  0.6905E-01  0.4221E+00
     -1.463  0.6958E-01  0.4298E+00
     -1.353  0.7170E-01  0.4377E+00
     -1.243  0.6231E-01  0.4445E+00
     -1.133  0.4480E-01  0.4494E+00
     -1.023  0.4067E-01  0.4539E+00
     -0.913  0.5184E-01  0.4596E+00
     -0.803  0.5598E-01  0.4657E+00
     -0.693  0.4234E-01  0.4704E+00
     -0.584  0.3918E-01  0.4747E+00
     -0.474  0.7445E-01  0.4829E+00
     -0.364  0.1238E+00  0.4965E+00
     -0.254  0.1378E+00  0.5116E+00
     -0.144  0.1087E+00  0.5236E+00
     -0.034  0.7474E-01  0.5318E+00
      0.076  0.6914E-01  0.5394E+00
      0.186  0.8540E-01  0.5488E+00
      0.296  0.8578E-01  0.5582E+00
      0.405  0.6850E-01  0.5657E+00
      0.515  0.7185E-01  0.5736E+00
      0.625  0.1089E+00  0.5856E+00
      0.735  0.1462E+00  0.6017E+00
      0.845  0.1499E+00  0.6181E+00
      0.955  0.1270E+00  0.6321E+00
      1.065  0.9710E-01  0.6428E+00
      1.175  0.7729E-01  0.6512E+00
      1.284  0.5863E-01  0.6577E+00
      1.394  0.2442E-01  0.6604E+00
      1.504  0.4708E-03  0.6604E+00
      1.614 -0.2863E-02  0.6601E+00
      1.724 -0.8710E-03  0.6600E+00
      1.834 -0.1093E-03  0.6600E+00
      1.944 -0.6785E-05  0.6600E+00
      2.054 -0.2197E-06  0.6600E+00
      2.164 -0.3796E-08  0.6600E+00
      2.273 -0.3534E-10  0.6600E+00
      2.383 -0.1783E-12  0.6600E+00
      2.493 -0.4930E-15  0.6600E+00
      2.603 -0.1717E-29  0.6600E+00
      2.713 -0.8951E-26  0.6600E+00
      2.823 -0.2538E-22  0.6600E+00
      2.933 -0.3909E-19  0.6600E+00
      3.043 -0.3267E-16  0.6600E+00
      3.153 -0.1429E-13  0.6600E+00
      3.262 -0.3471E-11  0.6600E+00
      3.372 -0.4525E-09  0.6600E+00
      3.482 -0.3145E-07  0.6600E+00
      3.592 -0.1150E-05  0.6600E+00
      3.702 -0.2161E-04  0.6600E+00
      3.812 -0.1973E-03  0.6600E+00
      3.922 -0.7302E-03  0.6599E+00
      4.032  0.9606E-04  0.6599E+00
      4.142  0.6951E-02  0.6607E+00
      4.251  0.1559E-01  0.6624E+00
      4.361  0.1276E-01  0.6638E+00
      4.471  0.3237E-02  0.6641E+00
      4.581 -0.7106E-03  0.6641E+00
      4.691 -0.4864E-03  0.6640E+00
      4.801 -0.1033E-03  0.6640E+00
      4.911 -0.2073E-03  0.6640E+00
      5.021 -0.1129E-02  0.6639E+00
      5.130 -0.2127E-02  0.6636E+00
      5.240  0.4854E-02  0.6642E+00
      5.350  0.2883E-01  0.6673E+00
      5.460  0.5511E-01  0.6734E+00
      5.570  0.5740E-01  0.6797E+00
      5.680  0.4301E-01  0.6844E+00
      5.790  0.4304E-01  0.6891E+00
      5.900  0.4886E-01  0.6945E+00
      6.010  0.4258E-01  0.6992E+00
      6.119  0.4841E-01  0.7045E+00
      6.229  0.6761E-01  0.7119E+00
      6.339  0.6867E-01  0.7195E+00
      6.449  0.5699E-01  0.7257E+00
      6.559  0.5866E-01  0.7322E+00
      6.669  0.6901E-01  0.7398E+00
      6.779  0.6854E-01  0.7473E+00
      6.889  0.7016E-01  0.7550E+00
      6.999  0.9302E-01  0.7652E+00
      7.108  0.1068E+00  0.7770E+00
      7.218  0.8146E-01  0.7859E+00
      7.328  0.4260E-01  0.7906E+00
      7.438  0.1460E-01  0.7922E+00
      7.548  0.6685E-03  0.7923E+00
      7.658 -0.1806E-02  0.7921E+00
      7.768 -0.6834E-03  0.7920E+00
      7.878 -0.1048E-03  0.7920E+00
      7.988 -0.7871E-05  0.7920E+00
      8.097 -0.3053E-06  0.7920E+00
      8.207 -0.6256E-08  0.7920E+00
      8.317 -0.6851E-10  0.7920E+00
      8.427 -0.4036E-12  0.7920E+00
      8.537 -0.1293E-14  0.7920E+00
      8.647  0.0000E+00  0.7920E+00
      8.757  0.0000E+00  0.7920E+00
      8.867  0.0000E+00  0.7920E+00
      8.977  0.0000E+00  0.7920E+00
      9.086  0.0000E+00  0.7920E+00
      9.196  0.0000E+00  0.7920E+00
      9.306  0.0000E+00  0.7920E+00
