 vasp.6.3.2 27Jun22 (build Mar 25 2024 10:42:18) complex                         
 executed on             LinuxGNU date 2024.03.31  16:55:08
 running on   32 total cores
 distrk:  each k-point on   32 cores,    1 groups
 distr:  one band on NCORE=   1 cores,   32 groups


--------------------------------------------------------------------------------------------------------


 INCAR:
   ISTART = 0
   ICHARG = 2
   PREC = Accurate
   IBRION = -1
   EDIFF = 0.000000001
   EDIFFG = -0.0005
   NSW = 0
   NELM = 100
   ENCUT = 520
   ISMEAR = -5
   SIGMA = 0.05
   ISPIN = 2
   ISYM = 0
   LWAVE = False
   LCHARG = False
   LASPH = True
   LORBIT = 11
   ADDGRID = TRUE

 POTCAR:    PAW_PBE S 06Sep2000                   
 -----------------------------------------------------------------------------
|                                                                             |
|           W    W    AA    RRRRR   N    N  II  N    N   GGGG   !!!           |
|           W    W   A  A   R    R  NN   N  II  NN   N  G    G  !!!           |
|           W    W  A    A  R    R  N N  N  II  N N  N  G       !!!           |
|           W WW W  AAAAAA  RRRRR   N  N N  II  N  N N  G  GGG   !            |
|           WW  WW  A    A  R   R   N   NN  II  N   NN  G    G                |
|           W    W  A    A  R    R  N    N  II  N    N   GGGG   !!!           |
|                                                                             |
|     You use a magnetic or noncollinear calculation, but did not specify     |
|     the initial magnetic moment with the MAGMOM tag. Note that a            |
|     default of 1 will be used for all atoms. This ferromagnetic setup       |
|     may break the symmetry of the crystal, in particular it may rule        |
|     out finding an antiferromagnetic solution. Thence, we recommend         |
|     setting the initial magnetic moment manually or verifying carefully     |
|     that this magnetic setup is desired.                                    |
|                                                                             |
 -----------------------------------------------------------------------------

 -----------------------------------------------------------------------------
|                                                                             |
|           W    W    AA    RRRRR   N    N  II  N    N   GGGG   !!!           |
|           W    W   A  A   R    R  NN   N  II  NN   N  G    G  !!!           |
|           W    W  A    A  R    R  N N  N  II  N N  N  G       !!!           |
|           W WW W  AAAAAA  RRRRR   N  N N  II  N  N N  G  GGG   !            |
|           WW  WW  A    A  R   R   N   NN  II  N   NN  G    G                |
|           W    W  A    A  R    R  N    N  II  N    N   GGGG   !!!           |
|                                                                             |
|     For optimal performance we recommend to set                             |
|       NCORE = 2 up to number-of-cores-per-socket                            |
|     NCORE specifies how many cores store one orbital (NPAR=cpu/NCORE).      |
|     This setting can greatly improve the performance of VASP for DFT.       |
|     The default, NCORE=1 might be grossly inefficient on modern             |
|     multi-core architectures or massively parallel machines. Do your        |
|     own testing! More info at https://www.vasp.at/wiki/index.php/NCORE      |
|     Unfortunately you need to use the default for GW and RPA                |
|     calculations (for HF NCORE is supported but not extensively tested      |
|     yet).                                                                   |
|                                                                             |
 -----------------------------------------------------------------------------

 POTCAR:    PAW_PBE S 06Sep2000                   
   SHA256 =  0fc7481fb0695f01bdc6462160264c5c84044ae9ec85a907d398b887a2bc3132 S/POTCAR              
   COPYR  = (c) Copyright 06Sep2000 Georg Kresse                                                    
   COPYR  = This file is part of the software VASP. Any use, copying, and all other rights are regul
   COPYR  = If you do not have a valid VASP license, you may not use, copy or distribute this file. 
   VRHFIN =S : s2p4                                                                                 
   LEXCH  = PE                                                                                      
   EATOM  =   276.8230 eV,   20.3459 Ry                                                             
                                                                                                    
   TITEL  = PAW_PBE S 06Sep2000                                                                     
   LULTRA =        F    use ultrasoft PP ?                                                          
   IUNSCR =        1    unscreen: 0-lin 1-nonlin 2-no                                               
   RPACOR =    1.500    partial core radius                                                         
   POMASS =   32.066; ZVAL   =    6.000    mass and valenz                                          
   RCORE  =    1.900    outmost cutoff radius                                                       
   RWIGS  =    2.200; RWIGS  =    1.164    wigner-seitz radius (au A)                               
   ENMAX  =  258.689; ENMIN  =  194.016 eV                                                          
   ICORE  =        2    local potential                                                             
   LCOR   =        T    correct aug charges                                                         
   LPAW   =        T    paw PP                                                                      
   EAUG   =  335.092                                                                                
   DEXC   =    0.000                                                                                
   RMAX   =    1.942    core radius for proj-oper                                                   
   RAUG   =    1.300    factor for augmentation sphere                                              
   RDEP   =    1.954    radius for radial grids                                                     
   RDEPT  =    1.744    core radius for aug-charge                                                  
                                                                                                    
   Atomic configuration                                                                             
    6 entries                                                                                       
     n  l   j            E        occ.                                                              
     1  0  0.50     -2405.8406   2.0000                                                             
     2  0  0.50      -211.7007   2.0000                                                             
     2  1  1.50      -156.4958   6.0000                                                             
     3  0  0.50       -17.2562   2.0000                                                             
     3  1  0.50        -7.0085   4.0000                                                             
     3  2  1.50        -6.8029   0.0000                                                             
   Description                                                                                      
     l       E           TYP  RCUT    TYP  RCUT                                                     
     0    -17.2561641     23  1.900                                                                 
     0    -15.8743224     23  1.900                                                                 
     1     -7.0085400     23  1.900                                                                 
     1     -2.7779785     23  1.900                                                                 
     2     -6.8029130     23  1.900                                                                 
  local pseudopotential read in
  partial core-charges read in
  partial kinetic energy density read in
  atomic valenz-charges read in
  non local Contribution for L=           0  read in
    real space projection operators read in
  non local Contribution for L=           0  read in
    real space projection operators read in
  non local Contribution for L=           1  read in
    real space projection operators read in
  non local Contribution for L=           1  read in
    real space projection operators read in
    PAW grid and wavefunctions read in

   number of l-projection  operators is LMAX  =           4
   number of lm-projection operators is LMMAX =           8

 -----------------------------------------------------------------------------
|                                                                             |
|               ----> ADVICE to this user running VASP <----                  |
|                                                                             |
|     You have a (more or less) 'large supercell' and for larger cells it     |
|     might be more efficient to use real-space projection operators.         |
|     Therefore, try LREAL= Auto in the INCAR file.                           |
|     Mind: For very accurate calculation, you might also keep the            |
|     reciprocal projection scheme (i.e. LREAL=.FALSE.).                      |
|                                                                             |
 -----------------------------------------------------------------------------

  PAW_PBE S 06Sep2000                   :
 energy of atom  1       EATOM= -276.8230
 kinetic energy error for atom=    0.0016 (will be added to EATOM!!)


 POSCAR: generated by phonopy
  positions in direct lattice
  No initial velocities read in
 exchange correlation table for  LEXCH =        8
   RHO(1)=    0.500       N(1)  =     2000
   RHO(2)=  100.500       N(2)  =     4000



--------------------------------------------------------------------------------------------------------


 ion  position               nearest neighbor table
   1  0.886  0.467  0.678-  45 1.98  24 2.13
   2  0.886  0.967  0.678-  46 1.98  23 2.13
   3  0.330  0.189  0.551-  41 2.05  19 2.13
   4  0.330  0.689  0.551-  42 2.05  20 2.13
   5  0.913  0.105  0.912-  51 1.98  11 2.13
   6  0.913  0.605  0.912-  52 1.98  12 2.13
   7  0.240  0.301  0.777-  19 1.98  37 2.23
   8  0.240  0.801  0.777-  20 1.98  38 2.23
   9  0.144  0.306  0.224-  31 2.05  39 2.13
  10  0.144  0.806  0.224-  32 2.05  40 2.13
  11  0.856  0.194  0.776-  47 2.05   5 2.13
  12  0.856  0.694  0.776-  48 2.05   6 2.13
  13  0.760  0.199  0.223-  27 1.98  33 2.23
  14  0.760  0.699  0.223-  28 1.98  34 2.23
  15  0.170  0.439  0.449-  31 2.06  30 2.13
  16  0.170  0.939  0.449-  32 2.05  29 2.13
  17  0.413  0.145  0.912-  37 1.98  43 2.13
  18  0.413  0.645  0.912-  38 1.98  44 2.13
  19  0.386  0.283  0.678-   7 1.98   3 2.13
  20  0.386  0.783  0.678-   8 1.98   4 2.13
  21  0.644  0.444  0.224-  53 2.05  35 2.13
  22  0.644  0.944  0.224-  54 2.05  36 2.13
  23  0.830  0.061  0.551-  47 2.05   2 2.13
  24  0.830  0.561  0.551-  48 2.05   1 2.13
  25  0.260  0.051  0.223-  29 1.98  50 2.23
  26  0.260  0.551  0.223-  30 1.98  49 2.23
  27  0.614  0.217  0.322-  13 1.98  55 2.13
  28  0.614  0.717  0.322-  14 1.98  56 2.13
  29  0.114  0.033  0.322-  25 1.98  16 2.13
  30  0.114  0.533  0.322-  26 1.98  15 2.13
  31  0.060  0.344  0.374-   9 2.05  15 2.06
  32  0.060  0.845  0.374-  10 2.05  16 2.05
  33  0.743  0.289  0.071-  35 1.98  13 2.23
  34  0.743  0.789  0.071-  36 1.98  14 2.23
  35  0.587  0.355  0.088-  33 1.98  21 2.13
  36  0.587  0.855  0.088-  34 1.98  22 2.13
  37  0.257  0.211  0.929-  17 1.98   7 2.23
  38  0.257  0.711  0.929-  18 1.98   8 2.23
  39  0.087  0.395  0.088-  49 1.98   9 2.13
  40  0.087  0.895  0.088-  50 1.98  10 2.13
  41  0.440  0.095  0.626-  43 2.05   3 2.05
  42  0.440  0.595  0.626-  44 2.05   4 2.05
  43  0.356  0.056  0.776-  41 2.05  17 2.13
  44  0.356  0.556  0.776-  42 2.05  18 2.13
  45  0.740  0.449  0.777-   1 1.98  52 2.23
  46  0.740  0.949  0.777-   2 1.98  51 2.23
  47  0.940  0.155  0.626-  11 2.05  23 2.05
  48  0.940  0.655  0.626-  12 2.05  24 2.05
  49  0.243  0.461  0.071-  39 1.98  26 2.23
  50  0.243  0.961  0.071-  40 1.98  25 2.23
  51  0.757  0.039  0.929-   5 1.98  46 2.23
  52  0.757  0.539  0.929-   6 1.98  45 2.23
  53  0.560  0.405  0.374-  21 2.05  55 2.05
  54  0.560  0.905  0.374-  22 2.05  56 2.05
  55  0.670  0.311  0.449-  53 2.05  27 2.13
  56  0.670  0.811  0.449-  54 2.05  28 2.13


IMPORTANT INFORMATION: All symmetrisations will be switched off!
NOSYMM: (Re-)initialisation of all symmetry stuff for point group C_1.


----------------------------------------------------------------------------------------

                                     Primitive cell                                     

  volume of cell :    1863.6770

  direct lattice vectors                    reciprocal lattice vectors
     0.000000000 10.307367086 -0.372855731     0.000000000  0.096453423 -0.015606996
    16.788494411  0.000000000  0.000000000     0.059564603  0.000000000  0.000000000
     0.000000000 -1.732519801-10.707215182     0.000000000 -0.003358783 -0.092851486

  length of vectors
    10.314108670 16.788494411 10.846477853     0.097707938  0.059564603  0.092912216

  position of ions in fractional coordinates (direct lattice)
     0.886423141  0.467004751  0.678126386
     0.886423141  0.967004751  0.678126386
     0.329563264  0.188743823  0.550707721
     0.329563264  0.688743823  0.550707721
     0.912671285  0.105241885  0.911960471
     0.912671285  0.605241885  0.911960471
     0.239736405  0.300831047  0.776574189
     0.239736405  0.800831047  0.776574189
     0.144417516  0.305688762  0.224396680
     0.144417516  0.805688762  0.224396680
     0.855582484  0.194311238  0.775603320
     0.855582484  0.694311238  0.775603320
     0.760263595  0.199168953  0.223425811
     0.760263595  0.699168953  0.223425811
     0.170436736  0.438743823  0.449292279
     0.170436736  0.938743823  0.449292279
     0.412671285  0.144758115  0.911960471
     0.412671285  0.644758115  0.911960471
     0.386423141  0.282995249  0.678126386
     0.386423141  0.782995249  0.678126386
     0.644417516  0.444311238  0.224396680
     0.644417516  0.944311238  0.224396680
     0.829563264  0.061256177  0.550707721
     0.829563264  0.561256177  0.550707721
     0.260263595  0.050831047  0.223425811
     0.260263595  0.550831047  0.223425811
     0.613576859  0.217004751  0.321873614
     0.613576859  0.717004751  0.321873614
     0.113576859  0.032995249  0.321873614
     0.113576859  0.532995249  0.321873614
     0.059895700  0.344492088  0.374484367
     0.059895700  0.845087734  0.374484367
     0.743425210  0.289344343  0.071165234
     0.743425210  0.789344343  0.071165234
     0.587328715  0.355241885  0.088039529
     0.587328715  0.855241885  0.088039529
     0.256574790  0.210655657  0.928834766
     0.256574790  0.710655657  0.928834766
     0.087328715  0.394758115  0.088039529
     0.087328715  0.894758115  0.088039529
     0.440104300  0.095087734  0.625515633
     0.440104300  0.595087734  0.625515633
     0.355582484  0.055688762  0.775603320
     0.355582484  0.555688762  0.775603320
     0.739736405  0.449168953  0.776574189
     0.739736405  0.949168953  0.776574189
     0.940104300  0.154912266  0.625515633
     0.940104300  0.654912266  0.625515633
     0.243425210  0.460655657  0.071165234
     0.243425210  0.960655657  0.071165234
     0.756574790  0.039344343  0.928834766
     0.756574790  0.539344343  0.928834766
     0.559895700  0.404912266  0.374484367
     0.559895700  0.904912266  0.374484367
     0.670436736  0.311256177  0.449292279
     0.670436736  0.811256177  0.449292279

  ion indices of the primitive-cell ions
   primitive index   ion index
                 1           1
                 2           2
                 3           3
                 4           4
                 5           5
                 6           6
                 7           7
                 8           8
                 9           9
                10          10
                11          11
                12          12
                13          13
                14          14
                15          15
                16          16
                17          17
                18          18
                19          19
                20          20
                21          21
                22          22
                23          23
                24          24
                25          25
                26          26
                27          27
                28          28
                29          29
                30          30
                31          31
                32          32
                33          33
                34          34
                35          35
                36          36
                37          37
                38          38
                39          39
                40          40
                41          41
                42          42
                43          43
                44          44
                45          45
                46          46
                47          47
                48          48
                49          49
                50          50
                51          51
                52          52
                53          53
                54          54
                55          55
                56          56

----------------------------------------------------------------------------------------



 KPOINTS: pymatgen with grid density = 595 / numbe

Automatic generation of k-mesh.
 Grid dimensions read from file:
 generate k-points for:    2    2    2

 Generating k-lattice:

  Cartesian coordinates                     Fractional coordinates (reciprocal lattice)
     0.000000000  0.048226712 -0.007803498     0.500000000  0.000000000 -0.000000000
     0.029782301  0.000000000  0.000000000     0.000000000  0.500000000  0.000000000
     0.000000000 -0.001679391 -0.046425743    -0.000000000  0.000000000  0.500000000

  Length of vectors
     0.048853969  0.029782301  0.046456108

  Shift w.r.t. Gamma in fractional coordinates (k-lattice)
     0.000000000  0.000000000  0.000000000

 TETIRR: Found     24 inequivalent tetrahedra from       48
 
 Subroutine IBZKPT returns following result:
 ===========================================
 
 Found      8 irreducible k-points:
 
 Following reciprocal coordinates:
            Coordinates               Weight
  0.000000  0.000000  0.000000      1.000000
  0.500000  0.000000  0.000000      1.000000
  0.000000  0.500000  0.000000      1.000000
  0.500000  0.500000  0.000000      1.000000
  0.000000  0.000000  0.500000      1.000000
  0.500000  0.000000  0.500000      1.000000
  0.000000  0.500000  0.500000      1.000000
  0.500000  0.500000  0.500000      1.000000
 
 Following cartesian coordinates:
            Coordinates               Weight
  0.000000  0.000000 -0.000000      1.000000
  0.000000  0.048227 -0.007803      1.000000
  0.029782  0.000000 -0.000000      1.000000
  0.029782  0.048227 -0.007803      1.000000
  0.000000 -0.001679 -0.046426      1.000000
  0.000000  0.046547 -0.054229      1.000000
  0.029782 -0.001679 -0.046426      1.000000
  0.029782  0.046547 -0.054229      1.000000
 


--------------------------------------------------------------------------------------------------------




 Dimension of arrays:
   k-points           NKPTS =      8   k-points in BZ     NKDIM =      8   number of bands    NBANDS=    256
   number of dos      NEDOS =    301   number of ions     NIONS =     56
   non local maximal  LDIM  =      4   non local SUM 2l+1 LMDIM =      8
   total plane-waves  NPLWV = 846720
   max r-space proj   IRMAX =      1   max aug-charges    IRDMAX= 114695
   dimension x,y,z NGX =    80 NGY =  126 NGZ =   84
   dimension x,y,z NGXF=   160 NGYF=  252 NGZF=  168
   support grid    NGXF=   320 NGYF=  504 NGZF=  336
   ions per type =              56
   NGX,Y,Z   is equivalent  to a cutoff of  12.89, 12.48, 12.87 a.u.
   NGXF,Y,Z  is equivalent  to a cutoff of  25.79, 24.95, 25.75 a.u.

 SYSTEM =  unknown system                          
 POSCAR =  generated by phonopy                    

 Startparameter for this run:
   NWRITE =      2    write-flag & timer
   PREC   = accura    normal or accurate (medium, high low for compatibility)
   ISTART =      0    job   : 0-new  1-cont  2-samecut
   ICHARG =      2    charge: 1-file 2-atom 10-const
   ISPIN  =      2    spin polarized calculation?
   LNONCOLLINEAR =      F non collinear calculations
   LSORBIT =      F    spin-orbit coupling
   INIWAV =      1    electr: 0-lowe 1-rand  2-diag
   LASPH  =      T    aspherical Exc in radial PAW
 Electronic Relaxation 1
   ENCUT  =  520.0 eV  38.22 Ry    6.18 a.u.  19.18 31.22 20.17*2*pi/ulx,y,z
   ENINI  =  520.0     initial cutoff
   ENAUG  =  335.1 eV  augmentation charge cutoff
   NELM   =    100;   NELMIN=  2; NELMDL= -5     # of ELM steps 
   EDIFF  = 0.1E-08   stopping-criterion for ELM
   LREAL  =      F    real-space projection
   NLSPLINE    = F    spline interpolate recip. space projectors
   LCOMPAT=      F    compatible to vasp.4.4
   GGA_COMPAT  = T    GGA compatible to vasp.4.4-vasp.4.6
   LMAXPAW     = -100 max onsite density
   LMAXMIX     =    2 max onsite mixed and CHGCAR
   VOSKOWN=      0    Vosko Wilk Nusair interpolation
   ROPT   =    0.00000
 Ionic relaxation
   EDIFFG = -.5E-03   stopping-criterion for IOM
   NSW    =      0    number of steps for IOM
   NBLOCK =      1;   KBLOCK =      1    inner block; outer block 
   IBRION =     -1    ionic relax: 0-MD 1-quasi-New 2-CG
   NFREE  =      0    steps in history (QN), initial steepest desc. (CG)
   ISIF   =      2    stress and relaxation
   IWAVPR =     10    prediction:  0-non 1-charg 2-wave 3-comb
   ISYM   =      0    0-nonsym 1-usesym 2-fastsym
   LCORR  =      T    Harris-Foulkes like correction to forces

   POTIM  = 0.5000    time-step for ionic-motion
   TEIN   =    0.0    initial temperature
   TEBEG  =    0.0;   TEEND  =   0.0 temperature during run
   SMASS  =  -3.00    Nose mass-parameter (am)
   estimated Nose-frequenzy (Omega)   =  0.10E-29 period in steps = 0.13E+47 mass=  -0.243E-26a.u.
   SCALEE = 1.0000    scale energy and forces
   NPACO  =    256;   APACO  = 10.0  distance and # of slots for P.C.
   PSTRESS=    0.0 pullay stress

  Mass of Ions in am
   POMASS =  32.07
  Ionic Valenz
   ZVAL   =   6.00
  Atomic Wigner-Seitz radii
   RWIGS  =  -1.00
  virtual crystal weights 
   VCA    =   1.00
   NELECT =     336.0000    total number of electrons
   NUPDOWN=      -1.0000    fix difference up-down

 DOS related values:
   EMIN   =  10.00;   EMAX   =-10.00  energy-range for DOS
   EFERMI =   0.00
   ISMEAR =    -5;   SIGMA  =   0.05  broadening in eV -4-tet -1-fermi 0-gaus

 Electronic relaxation 2 (details)
   IALGO  =     38    algorithm
   LDIAG  =      T    sub-space diagonalisation (order eigenvalues)
   LSUBROT=      F    optimize rotation matrix (better conditioning)
   TURBO    =      0    0=normal 1=particle mesh
   IRESTART =      0    0=no restart 2=restart with 2 vectors
   NREBOOT  =      0    no. of reboots
   NMIN     =      0    reboot dimension
   EREF     =   0.00    reference energy to select bands
   IMIX   =      4    mixing-type and parameters
     AMIX     =   0.40;   BMIX     =  1.00
     AMIX_MAG =   1.60;   BMIX_MAG =  1.00
     AMIN     =   0.10
     WC   =   100.;   INIMIX=   1;  MIXPRE=   1;  MAXMIX= -45

 Intra band minimization:
   WEIMIN = 0.0000     energy-eigenvalue tresh-hold
   EBREAK =  0.98E-12  absolut break condition
   DEPER  =   0.30     relativ break condition  

   TIME   =   0.40     timestep for ELM

  volume/ion in A,a.u.               =      33.28       224.58
  Fermi-wavevector in a.u.,A,eV,Ry     =   0.924835  1.747685 11.637339  0.855320
  Thomas-Fermi vector in A             =   2.050624

 Write flags
   LWAVE        =      F    write WAVECAR
   LDOWNSAMPLE  =      F    k-point downsampling of WAVECAR
   LCHARG       =      F    write CHGCAR
   LVTOT        =      F    write LOCPOT, total local potential
   LVHAR        =      F    write LOCPOT, Hartree potential only
   LELF         =      F    write electronic localiz. function (ELF)
   LORBIT       =     11    0 simple, 1 ext, 2 COOP (PROOUT), +10 PAW based schemes


 Dipole corrections
   LMONO  =      F    monopole corrections only (constant potential shift)
   LDIPOL =      F    correct potential (dipole corrections)
   IDIPOL =      0    1-x, 2-y, 3-z, 4-all directions 
   EPSILON=  1.0000000 bulk dielectric constant

 Exchange correlation treatment:
   GGA     =    --    GGA type
   LEXCH   =     8    internal setting for exchange type
   LIBXC   =     F    Libxc                    
   VOSKOWN =     0    Vosko Wilk Nusair interpolation
   LHFCALC =     F    Hartree Fock is set to
   LHFONE  =     F    Hartree Fock one center treatment
   AEXX    =    0.0000 exact exchange contribution

 Linear response parameters
   LEPSILON=     F    determine dielectric tensor
   LRPA    =     F    only Hartree local field effects (RPA)
   LNABLA  =     F    use nabla operator in PAW spheres
   LVEL    =     F    velocity operator in full k-point grid
   CSHIFT  =0.1000    complex shift for real part using Kramers Kronig
   OMEGAMAX=  -1.0    maximum frequency
   DEG_THRESHOLD= 0.2000000E-02 threshold for treating states as degnerate
   RTIME   =   -0.100 relaxation time in fs
  (WPLASMAI=    0.000 imaginary part of plasma frequency in eV, 0.658/RTIME)
   DFIELD  = 0.0000000 0.0000000 0.0000000 field for delta impulse in time

  Optional k-point grid parameters
   LKPOINTS_OPT  =     F    use optional k-point grid
   KPOINTS_OPT_MODE=     1    mode for optional k-point grid

 Orbital magnetization related:
   ORBITALMAG=     F  switch on orbital magnetization
   LCHIMAG   =     F  perturbation theory with respect to B field
   DQ        =  0.001000  dq finite difference perturbation B field
   LLRAUG    =     F  two centre corrections for induced B field



--------------------------------------------------------------------------------------------------------


 Static calculation
 charge density and potential will be updated during run
 spin polarized calculation
 Variant of blocked Davidson
 Davidson routine will perform the subspace rotation
 perform sub-space diagonalisation
    after iterative eigenvector-optimisation
 modified Broyden-mixing scheme, WC =      100.0
 initial mixing is a Kerker type mixing with AMIX =  0.4000 and BMIX =      1.0000
 Hartree-type preconditioning will be used
 using additional bands           88
 reciprocal scheme for non local part
 use partial core corrections
 calculate Harris-corrections to forces   (improved forces if not selfconsistent)
 use gradient corrections 
 use of overlap-Matrix (Vanderbilt PP)
 Fermi weights with tetrahedron method with Bloechl corrections


--------------------------------------------------------------------------------------------------------


  energy-cutoff  :      520.00
  volume of cell :     1863.68
      direct lattice vectors                 reciprocal lattice vectors
     0.000000000 10.307367086 -0.372855731     0.000000000  0.096453423 -0.015606996
    16.788494411  0.000000000  0.000000000     0.059564603  0.000000000  0.000000000
     0.000000000 -1.732519801-10.707215182     0.000000000 -0.003358783 -0.092851486

  length of vectors
    10.314108670 16.788494411 10.846477853     0.097707938  0.059564603  0.092912216



 k-points in units of 2pi/SCALE and weight: pymatgen with grid density = 595 / numbe
   0.00000000  0.00000000 -0.00000000       0.125
   0.00000000  0.04822671 -0.00780350       0.125
   0.02978230  0.00000000 -0.00000000       0.125
   0.02978230  0.04822671 -0.00780350       0.125
   0.00000000 -0.00167939 -0.04642574       0.125
   0.00000000  0.04654732 -0.05422924       0.125
   0.02978230 -0.00167939 -0.04642574       0.125
   0.02978230  0.04654732 -0.05422924       0.125

 k-points in reciprocal lattice and weights: pymatgen with grid density = 595 / numbe
   0.00000000  0.00000000  0.00000000       0.125
   0.50000000  0.00000000  0.00000000       0.125
   0.00000000  0.50000000  0.00000000       0.125
   0.50000000  0.50000000  0.00000000       0.125
   0.00000000  0.00000000  0.50000000       0.125
   0.50000000  0.00000000  0.50000000       0.125
   0.00000000  0.50000000  0.50000000       0.125
   0.50000000  0.50000000  0.50000000       0.125

 position of ions in fractional coordinates (direct lattice) 
   0.88642314  0.46700475  0.67812639
   0.88642314  0.96700475  0.67812639
   0.32956326  0.18874382  0.55070772
   0.32956326  0.68874382  0.55070772
   0.91267129  0.10524188  0.91196047
   0.91267129  0.60524188  0.91196047
   0.23973640  0.30083105  0.77657419
   0.23973640  0.80083105  0.77657419
   0.14441752  0.30568876  0.22439668
   0.14441752  0.80568876  0.22439668
   0.85558248  0.19431124  0.77560332
   0.85558248  0.69431124  0.77560332
   0.76026360  0.19916895  0.22342581
   0.76026360  0.69916895  0.22342581
   0.17043674  0.43874382  0.44929228
   0.17043674  0.93874382  0.44929228
   0.41267129  0.14475812  0.91196047
   0.41267129  0.64475812  0.91196047
   0.38642314  0.28299525  0.67812639
   0.38642314  0.78299525  0.67812639
   0.64441752  0.44431124  0.22439668
   0.64441752  0.94431124  0.22439668
   0.82956326  0.06125618  0.55070772
   0.82956326  0.56125618  0.55070772
   0.26026360  0.05083105  0.22342581
   0.26026360  0.55083105  0.22342581
   0.61357686  0.21700475  0.32187361
   0.61357686  0.71700475  0.32187361
   0.11357686  0.03299525  0.32187361
   0.11357686  0.53299525  0.32187361
   0.05989570  0.34449209  0.37448437
   0.05989570  0.84508773  0.37448437
   0.74342521  0.28934434  0.07116523
   0.74342521  0.78934434  0.07116523
   0.58732871  0.35524188  0.08803953
   0.58732871  0.85524188  0.08803953
   0.25657479  0.21065566  0.92883477
   0.25657479  0.71065566  0.92883477
   0.08732871  0.39475812  0.08803953
   0.08732871  0.89475812  0.08803953
   0.44010430  0.09508773  0.62551563
   0.44010430  0.59508773  0.62551563
   0.35558248  0.05568876  0.77560332
   0.35558248  0.55568876  0.77560332
   0.73973640  0.44916895  0.77657419
   0.73973640  0.94916895  0.77657419
   0.94010430  0.15491227  0.62551563
   0.94010430  0.65491227  0.62551563
   0.24342521  0.46065566  0.07116523
   0.24342521  0.96065566  0.07116523
   0.75657479  0.03934434  0.92883477
   0.75657479  0.53934434  0.92883477
   0.55989570  0.40491227  0.37448437
   0.55989570  0.90491227  0.37448437
   0.67043674  0.31125618  0.44929228
   0.67043674  0.81125618  0.44929228

 position of ions in cartesian coordinates  (Angst):
   7.84030666  7.96182132 -7.59135308
  16.23455387  7.96182132 -7.59135308
   3.16872461  2.44281751 -6.01942562
  11.56297182  2.44281751 -6.01942562
   1.76685280  7.82724839-10.10485172
  10.16110000  7.82724839-10.10485172
   5.05050035  1.12562097 -8.40433404
  13.44474755  1.12562097 -8.40433404
   5.13205407  1.09979266 -2.45651044
  13.52630128  1.09979266 -2.45651044
   3.26219313  7.47505463 -8.62356047
  11.65644034  7.47505463 -8.62356047
   3.34374686  7.44922632 -2.67573688
  11.73799406  7.44922632 -2.67573688
   7.36584822  0.97834624 -4.87421742
  15.76009542  0.97834624 -4.87421742
   2.43027081  2.67356485 -9.91842386
  10.82451801  2.67356485 -9.91842386
   4.75106415  2.80813777 -7.40492521
  13.14531135  2.80813777 -7.40492521
   7.45931673  6.25347620 -2.64293831
  15.85356394  6.25347620 -2.64293831
   1.02839899  7.59650105 -6.20585349
   9.42264619  7.59650105 -6.20585349
   0.85337674  2.29554277 -2.48930901
   9.24762395  2.29554277 -2.48930901
   3.64318306  5.76670951 -3.67514570
  12.03743026  5.76670951 -3.67514570
   0.55394055  0.61302597 -3.48871783
   8.94818775  0.61302597 -3.48871783
   5.78350349 -0.03143461 -4.03201715
  14.18775070 -0.03143461 -4.03201715
   4.85765589  7.53946136 -1.03917182
  13.25190310  7.53946136 -1.03917182
   5.96397640  5.90128244 -1.16164705
  14.35822361  5.90128244 -1.16164705
   3.53659131  1.03538593-10.04089909
  11.93083852  1.03538593-10.04089909
   6.62739441  0.74759889 -0.97521919
  15.02164161  0.74759889 -0.97521919
   1.59637989  3.45259836 -6.86162589
   9.99062710  3.45259836 -6.86162589
   0.93493047  2.32137108 -8.43713261
   9.32917768  2.32137108 -8.43713261
   7.54087046  6.27930451 -8.59076190
  15.93511767  6.27930451 -8.59076190
   2.60074371  8.60628190 -7.04805376
  10.99499092  8.60628190 -7.04805376
   7.73371492  2.38577782 -0.85274396
  16.12796212  2.38577782 -0.85274396
   0.66053229  6.18906947-10.22732695
   9.05477950  6.18906947-10.22732695
   6.79786731  5.12224893 -4.21844502
  15.19211452  5.12224893 -4.21844502
   5.22552259  6.13202978 -5.06064529
  13.61976980  6.13202978 -5.06064529



--------------------------------------------------------------------------------------------------------


 k-point   1 :   0.0000 0.0000 0.0000  plane waves:   50179
 k-point   2 :   0.5000 0.0000 0.0000  plane waves:   50160
 k-point   3 :   0.0000 0.5000 0.0000  plane waves:   50162
 k-point   4 :   0.5000 0.5000 0.0000  plane waves:   50192
 k-point   5 :   0.0000 0.0000 0.5000  plane waves:   50190
 k-point   6 :   0.5000 0.0000 0.5000  plane waves:   50190
 k-point   7 :   0.0000 0.5000 0.5000  plane waves:   50172
 k-point   8 :   0.5000 0.5000 0.5000  plane waves:   50200

 maximum and minimum number of plane-waves per node :     50200    50160

 maximum number of plane-waves:     50200
 maximum index in each direction: 
   IXMAX=   19   IYMAX=   31   IZMAX=   20
   IXMIN=  -19   IYMIN=  -31   IZMIN=  -20


 serial   3D FFT for wavefunctions
 parallel 3D FFT for charge:
    minimum data exchange during FFTs selected (reduces bandwidth)


 total amount of memory used by VASP MPI-rank0   322725. kBytes
=======================================================================

   base      :      30000. kBytes
   nonl-proj :      70692. kBytes
   fftplans  :      34504. kBytes
   grid      :      83442. kBytes
   one-center:        344. kBytes
   wavefun   :     103743. kBytes

     INWAV:  cpu time      0.0000: real time      0.0002
 Broyden mixing: mesh for mixing (old mesh)
   NGX = 39   NGY = 63   NGZ = 41
  (NGX  =160   NGY  =252   NGZ  =168)
  gives a total of 100737 points

 initial charge density was supplied:
 charge density of overlapping atoms calculated
 number of electron     336.0000000 magnetization      56.0000000
 keeping initial charge density in first step


--------------------------------------------------------------------------------------------------------


 Maximum index for augmentation-charges         3947 (set IRDMAX)


--------------------------------------------------------------------------------------------------------


 First call to EWALD:  gamma=   0.144
 Maximum number of real-space cells 3x 2x 3
 Maximum number of reciprocal cells 2x 4x 2

    FEWALD:  cpu time      0.0021: real time      0.0021


--------------------------------------- Iteration      1(   1)  ---------------------------------------


    POTLOK:  cpu time      0.5344: real time      0.5714
    SETDIJ:  cpu time     24.6624: real time     25.5945
     EDDAV:  cpu time     48.8450: real time     50.5633
 BZINTS: Fermi energy:   10.166429;  336.000000 electrons
         Band energy: 0.225157E+03;  BLOECHL correction:   -0.008764
       DOS:  cpu time      0.0518: real time      0.0519
    --------------------------------------------
      LOOP:  cpu time     74.0935: real time     76.7811

 eigenvalue-minimisations  :  8192
 total energy-change (2. order) : 0.2106087E+04  (-0.1333790E+05)
 number of electron     336.0000000 magnetization      56.0000000
 augmentation part      336.0000000 magnetization      56.0000000

 Free energy of the ion-electron system (eV)
  ---------------------------------------------------
  alpha Z        PSCENC =       253.99581917
  Ewald energy   TEWEN  =     -9971.68754656
  -Hartree energ DENC   =     -4765.12787791
  -exchange      EXHF   =         0.00000000
  -V(xc)+E(xc)   XCENC  =       682.50202896
  PAW double counting   =     12174.71095765   -11995.46358648
  entropy T*S    EENTRO =         0.00000000
  eigenvalues    EBANDS =       225.15744763
  atomic energy  EATOM  =     15501.99929693
  Solvation  Ediel_sol  =         0.00000000
  ---------------------------------------------------
  free energy    TOTEN  =      2106.08653940 eV

  energy without entropy =     2106.08653940  energy(sigma->0) =     2106.08653940


--------------------------------------------------------------------------------------------------------




--------------------------------------- Iteration      1(   2)  ---------------------------------------


     EDDAV:  cpu time     55.5136: real time     57.4297
 BZINTS: Fermi energy:    1.452094;  336.000000 electrons
         Band energy:-0.187467E+04;  BLOECHL correction:    0.000000
       DOS:  cpu time      0.0281: real time      0.0283
    --------------------------------------------
      LOOP:  cpu time     55.5417: real time     57.4580

 eigenvalue-minimisations  : 10272
 total energy-change (2. order) :-0.2099830E+04  (-0.2021648E+04)
 number of electron     336.0000000 magnetization      56.0000000
 augmentation part      336.0000000 magnetization      56.0000000

 Free energy of the ion-electron system (eV)
  ---------------------------------------------------
  alpha Z        PSCENC =       253.99581917
  Ewald energy   TEWEN  =     -9971.68754656
  -Hartree energ DENC   =     -4765.12787791
  -exchange      EXHF   =         0.00000000
  -V(xc)+E(xc)   XCENC  =       682.50202896
  PAW double counting   =     12174.71095765   -11995.46358648
  entropy T*S    EENTRO =         0.00000000
  eigenvalues    EBANDS =     -1874.67243629
  atomic energy  EATOM  =     15501.99929693
  Solvation  Ediel_sol  =         0.00000000
  ---------------------------------------------------
  free energy    TOTEN  =         6.25665548 eV

  energy without entropy =        6.25665548  energy(sigma->0) =        6.25665548


--------------------------------------------------------------------------------------------------------




--------------------------------------- Iteration      1(   3)  ---------------------------------------


     EDDAV:  cpu time     61.3257: real time     63.4195
 BZINTS: Fermi energy:    0.220124;  336.000000 electrons
         Band energy:-0.209451E+04;  BLOECHL correction:   -0.000000
       DOS:  cpu time      0.0316: real time      0.0316
    --------------------------------------------
      LOOP:  cpu time     61.3573: real time     63.4512

 eigenvalue-minimisations  : 10240
 total energy-change (2. order) :-0.2198360E+03  (-0.2171496E+03)
 number of electron     336.0000000 magnetization      56.0000000
 augmentation part      336.0000000 magnetization      56.0000000

 Free energy of the ion-electron system (eV)
  ---------------------------------------------------
  alpha Z        PSCENC =       253.99581917
  Ewald energy   TEWEN  =     -9971.68754656
  -Hartree energ DENC   =     -4765.12787791
  -exchange      EXHF   =         0.00000000
  -V(xc)+E(xc)   XCENC  =       682.50202896
  PAW double counting   =     12174.71095765   -11995.46358648
  entropy T*S    EENTRO =         0.00000000
  eigenvalues    EBANDS =     -2094.50841890
  atomic energy  EATOM  =     15501.99929693
  Solvation  Ediel_sol  =         0.00000000
  ---------------------------------------------------
  free energy    TOTEN  =      -213.57932714 eV

  energy without entropy =     -213.57932714  energy(sigma->0) =     -213.57932714


--------------------------------------------------------------------------------------------------------




--------------------------------------- Iteration      1(   4)  ---------------------------------------


     EDDAV:  cpu time     67.6248: real time     69.8790
 BZINTS: Fermi energy:    0.192129;  336.000000 electrons
         Band energy:-0.209941E+04;  BLOECHL correction:    0.000000
       DOS:  cpu time      0.0287: real time      0.0287
    --------------------------------------------
      LOOP:  cpu time     67.6535: real time     69.9078

 eigenvalue-minimisations  : 10368
 total energy-change (2. order) :-0.4900333E+01  (-0.4881996E+01)
 number of electron     336.0000000 magnetization      56.0000000
 augmentation part      336.0000000 magnetization      56.0000000

 Free energy of the ion-electron system (eV)
  ---------------------------------------------------
  alpha Z        PSCENC =       253.99581917
  Ewald energy   TEWEN  =     -9971.68754656
  -Hartree energ DENC   =     -4765.12787791
  -exchange      EXHF   =         0.00000000
  -V(xc)+E(xc)   XCENC  =       682.50202896
  PAW double counting   =     12174.71095765   -11995.46358648
  entropy T*S    EENTRO =         0.00000000
  eigenvalues    EBANDS =     -2099.40875150
  atomic energy  EATOM  =     15501.99929693
  Solvation  Ediel_sol  =         0.00000000
  ---------------------------------------------------
  free energy    TOTEN  =      -218.47965973 eV

  energy without entropy =     -218.47965973  energy(sigma->0) =     -218.47965973


--------------------------------------------------------------------------------------------------------




--------------------------------------- Iteration      1(   5)  ---------------------------------------


     EDDAV:  cpu time     59.6431: real time     60.9814
 BZINTS: Fermi energy:    0.191913;  336.000000 electrons
         Band energy:-0.209954E+04;  BLOECHL correction:   -0.000000
       DOS:  cpu time      0.0274: real time      0.0275
    CHARGE:  cpu time     20.2776: real time     24.7808
    MIXING:  cpu time      0.0547: real time      0.0548
    --------------------------------------------
      LOOP:  cpu time     80.0028: real time     85.8446

 eigenvalue-minimisations  : 10080
 total energy-change (2. order) :-0.1329261E+00  (-0.1328599E+00)
 number of electron     335.9999997 magnetization      44.9918631
 augmentation part      -47.3227811 magnetization      44.8837104

 Broyden mixing:
  rms(total) = 0.82828E+01    rms(broyden)= 0.82828E+01
  rms(prec ) = 0.83027E+01
  weight for this iteration     100.00

 Free energy of the ion-electron system (eV)
  ---------------------------------------------------
  alpha Z        PSCENC =       253.99581917
  Ewald energy   TEWEN  =     -9971.68754656
  -Hartree energ DENC   =     -4765.12787791
  -exchange      EXHF   =         0.00000000
  -V(xc)+E(xc)   XCENC  =       682.50202896
  PAW double counting   =     12174.71095765   -11995.46358648
  entropy T*S    EENTRO =         0.00000000
  eigenvalues    EBANDS =     -2099.54167757
  atomic energy  EATOM  =     15501.99929693
  Solvation  Ediel_sol  =         0.00000000
  ---------------------------------------------------
  free energy    TOTEN  =      -218.61258580 eV

  energy without entropy =     -218.61258580  energy(sigma->0) =     -218.61258580


--------------------------------------------------------------------------------------------------------




--------------------------------------- Iteration      1(   6)  ---------------------------------------


    POTLOK:  cpu time      2.6186: real time      3.1830
    SETDIJ:  cpu time     29.7421: real time     30.1158
     EDDAV:  cpu time     58.4497: real time     59.3994
 BZINTS: Fermi energy:    0.409552;  336.000000 electrons
         Band energy:-0.201407E+04;  BLOECHL correction:   -0.000000
       DOS:  cpu time      0.0276: real time      0.0276
    CHARGE:  cpu time     28.5313: real time     28.5546
    MIXING:  cpu time      0.0107: real time      0.0107
    --------------------------------------------
      LOOP:  cpu time    119.3798: real time    121.2910

 eigenvalue-minimisations  :  9632
 total energy-change (2. order) : 0.1022864E+03  (-0.2668208E+02)
 number of electron     335.9999997 magnetization      26.4841218
 augmentation part      -47.6489795 magnetization      27.5427115

 Broyden mixing:
  rms(total) = 0.49351E+01    rms(broyden)= 0.49351E+01
  rms(prec ) = 0.49574E+01
  weight for this iteration     100.00

 eigenvalues of (default mixing * dielectric matrix)
  average eigenvalue GAMMA=   1.6661
  1.6661

 Free energy of the ion-electron system (eV)
  ---------------------------------------------------
  alpha Z        PSCENC =       253.99581917
  Ewald energy   TEWEN  =     -9971.68754656
  -Hartree energ DENC   =     -4809.42608264
  -exchange      EXHF   =         0.00000000
  -V(xc)+E(xc)   XCENC  =       746.08224557
  PAW double counting   =     20724.15189314   -20547.37147396
  entropy T*S    EENTRO =         0.00000000
  eigenvalues    EBANDS =     -2014.07035097
  atomic energy  EATOM  =     15501.99929693
  Solvation  Ediel_sol  =         0.00000000
  ---------------------------------------------------
  free energy    TOTEN  =      -116.32619930 eV

  energy without entropy =     -116.32619930  energy(sigma->0) =     -116.32619930


--------------------------------------------------------------------------------------------------------




--------------------------------------- Iteration      1(   7)  ---------------------------------------


    POTLOK:  cpu time      0.5185: real time      0.5246
    SETDIJ:  cpu time     26.9333: real time     26.9651
     EDDAV:  cpu time     59.4894: real time     59.5544
 BZINTS: Fermi energy:    0.738331;  336.000000 electrons
         Band energy:-0.186765E+04;  BLOECHL correction:    0.000000
       DOS:  cpu time      0.0283: real time      0.0284
    CHARGE:  cpu time     27.6664: real time     27.8096
    MIXING:  cpu time      0.3007: real time      0.3044
    --------------------------------------------
      LOOP:  cpu time    114.9366: real time    115.1866

 eigenvalue-minimisations  : 10112
 total energy-change (2. order) :-0.1114560E+02  (-0.2696810E+01)
 number of electron     335.9999997 magnetization      19.7143049
 augmentation part      -47.3163096 magnetization      20.9199039

 Broyden mixing:
  rms(total) = 0.14003E+01    rms(broyden)= 0.14003E+01
  rms(prec ) = 0.14039E+01
  weight for this iteration     100.00

 eigenvalues of (default mixing * dielectric matrix)
  average eigenvalue GAMMA=   1.4853
  0.7898  2.1807

 Free energy of the ion-electron system (eV)
  ---------------------------------------------------
  alpha Z        PSCENC =       253.99581917
  Ewald energy   TEWEN  =     -9971.68754656
  -Hartree energ DENC   =     -4968.91846191
  -exchange      EXHF   =         0.00000000
  -V(xc)+E(xc)   XCENC  =       751.42142787
  PAW double counting   =     37026.78775310   -36853.41912106
  entropy T*S    EENTRO =         0.00000000
  eigenvalues    EBANDS =     -1867.65096814
  atomic energy  EATOM  =     15501.99929693
  Solvation  Ediel_sol  =         0.00000000
  ---------------------------------------------------
  free energy    TOTEN  =      -127.47180060 eV

  energy without entropy =     -127.47180060  energy(sigma->0) =     -127.47180060


--------------------------------------------------------------------------------------------------------




--------------------------------------- Iteration      1(   8)  ---------------------------------------


    POTLOK:  cpu time      0.4878: real time      0.4896
    SETDIJ:  cpu time     27.0383: real time     27.0822
     EDDAV:  cpu time     60.1000: real time     60.3820
 BZINTS: Fermi energy:    0.706077;  336.000000 electrons
         Band energy:-0.185517E+04;  BLOECHL correction:    0.000000
       DOS:  cpu time      0.0275: real time      0.0275
    CHARGE:  cpu time     32.6319: real time     32.6762
    MIXING:  cpu time      0.0068: real time      0.0068
    --------------------------------------------
      LOOP:  cpu time    120.2922: real time    120.6643

 eigenvalue-minimisations  :  9312
 total energy-change (2. order) :-0.4275203E+02  (-0.1978955E+01)
 number of electron     335.9999997 magnetization      16.0520051
 augmentation part      -47.0116222 magnetization      17.0964154

 Broyden mixing:
  rms(total) = 0.78326E+00    rms(broyden)= 0.78326E+00
  rms(prec ) = 0.78841E+00
  weight for this iteration     100.00

 eigenvalues of (default mixing * dielectric matrix)
  average eigenvalue GAMMA=   1.3391
  2.4917  0.9425  0.5832

 Free energy of the ion-electron system (eV)
  ---------------------------------------------------
  alpha Z        PSCENC =       253.99581917
  Ewald energy   TEWEN  =     -9971.68754656
  -Hartree energ DENC   =     -4998.48961141
  -exchange      EXHF   =         0.00000000
  -V(xc)+E(xc)   XCENC  =       726.52451597
  PAW double counting   =     40171.31273182   -39998.71084036
  entropy T*S    EENTRO =         0.00000000
  eigenvalues    EBANDS =     -1855.16819209
  atomic energy  EATOM  =     15501.99929693
  Solvation  Ediel_sol  =         0.00000000
  ---------------------------------------------------
  free energy    TOTEN  =      -170.22382653 eV

  energy without entropy =     -170.22382653  energy(sigma->0) =     -170.22382653


--------------------------------------------------------------------------------------------------------




--------------------------------------- Iteration      1(   9)  ---------------------------------------


    POTLOK:  cpu time      0.4810: real time      0.4822
    SETDIJ:  cpu time     26.6546: real time     26.6811
     EDDAV:  cpu time     59.2634: real time     59.3197
 BZINTS: Fermi energy:    0.628496;  336.000000 electrons
         Band energy:-0.186643E+04;  BLOECHL correction:    0.000000
       DOS:  cpu time      0.0275: real time      0.0276
    CHARGE:  cpu time     29.8066: real time     29.8207
    MIXING:  cpu time      0.0077: real time      0.0076
    --------------------------------------------
      LOOP:  cpu time    116.2407: real time    116.3388

 eigenvalue-minimisations  : 10240
 total energy-change (2. order) :-0.1676598E+02  (-0.6431480E+00)
 number of electron     335.9999997 magnetization      11.5246474
 augmentation part      -46.9150900 magnetization      12.3620629

 Broyden mixing:
  rms(total) = 0.43628E+00    rms(broyden)= 0.43627E+00
  rms(prec ) = 0.44837E+00
  weight for this iteration     100.00

 eigenvalues of (default mixing * dielectric matrix)
  average eigenvalue GAMMA=   1.3248
  2.5763  1.3007  0.7112  0.7112

 Free energy of the ion-electron system (eV)
  ---------------------------------------------------
  alpha Z        PSCENC =       253.99581917
  Ewald energy   TEWEN  =     -9971.68754656
  -Hartree energ DENC   =     -4994.68039668
  -exchange      EXHF   =         0.00000000
  -V(xc)+E(xc)   XCENC  =       717.19588169
  PAW double counting   =     40952.84962090   -40780.22890865
  entropy T*S    EENTRO =         0.00000000
  eigenvalues    EBANDS =     -1866.43357422
  atomic energy  EATOM  =     15501.99929693
  Solvation  Ediel_sol  =         0.00000000
  ---------------------------------------------------
  free energy    TOTEN  =      -186.98980740 eV

  energy without entropy =     -186.98980740  energy(sigma->0) =     -186.98980740


--------------------------------------------------------------------------------------------------------




--------------------------------------- Iteration      1(  10)  ---------------------------------------


    POTLOK:  cpu time      2.1259: real time      2.1276
    SETDIJ:  cpu time     28.9459: real time     28.9628
     EDDAV:  cpu time     57.2812: real time     57.5154
 BZINTS: Fermi energy:    0.475025;  336.000000 electrons
         Band energy:-0.190097E+04;  BLOECHL correction:    0.000000
       DOS:  cpu time      0.0302: real time      0.0303
    CHARGE:  cpu time     30.1427: real time     30.1709
    MIXING:  cpu time      0.0081: real time      0.0081
    --------------------------------------------
      LOOP:  cpu time    118.5339: real time    118.8151

 eigenvalue-minimisations  :  9984
 total energy-change (2. order) :-0.2005837E+02  (-0.1302607E+01)
 number of electron     335.9999997 magnetization       5.3099093
 augmentation part      -46.8734096 magnetization       5.8441917

 Broyden mixing:
  rms(total) = 0.32412E+00    rms(broyden)= 0.32412E+00
  rms(prec ) = 0.33711E+00
  weight for this iteration     100.00

 eigenvalues of (default mixing * dielectric matrix)
  average eigenvalue GAMMA=   1.4489
  2.4862  2.4862  0.9417  0.7284  0.6020

 Free energy of the ion-electron system (eV)
  ---------------------------------------------------
  alpha Z        PSCENC =       253.99581917
  Ewald energy   TEWEN  =     -9971.68754656
  -Hartree energ DENC   =     -4969.27834145
  -exchange      EXHF   =         0.00000000
  -V(xc)+E(xc)   XCENC  =       705.61938398
  PAW double counting   =     40962.99385917   -40789.71822179
  entropy T*S    EENTRO =         0.00000000
  eigenvalues    EBANDS =     -1900.97242286
  atomic energy  EATOM  =     15501.99929693
  Solvation  Ediel_sol  =         0.00000000
  ---------------------------------------------------
  free energy    TOTEN  =      -207.04817341 eV

  energy without entropy =     -207.04817341  energy(sigma->0) =     -207.04817341


--------------------------------------------------------------------------------------------------------




--------------------------------------- Iteration      1(  11)  ---------------------------------------


    POTLOK:  cpu time      0.4891: real time      0.4900
    SETDIJ:  cpu time     33.0180: real time     33.0621
     EDDAV:  cpu time     64.8999: real time     64.9418
 BZINTS: Fermi energy:    0.257378;  336.000000 electrons
         Band energy:-0.195833E+04;  BLOECHL correction:    0.000000
       DOS:  cpu time      0.0285: real time      0.0285
    CHARGE:  cpu time     32.4491: real time     32.4806
    MIXING:  cpu time      0.0110: real time      0.0110
    --------------------------------------------
      LOOP:  cpu time    130.8955: real time    131.0140

 eigenvalue-minimisations  :  9952
 total energy-change (2. order) :-0.1782383E+02  (-0.2161288E+01)
 number of electron     335.9999997 magnetization       3.5760381
 augmentation part      -46.9052536 magnetization       3.7594033

 Broyden mixing:
  rms(total) = 0.18662E+00    rms(broyden)= 0.18662E+00
  rms(prec ) = 0.20031E+00
  weight for this iteration     100.00

 eigenvalues of (default mixing * dielectric matrix)
  average eigenvalue GAMMA=   1.4665
  2.7968  2.7968  1.0271  0.8893  0.6992  0.5900

 Free energy of the ion-electron system (eV)
  ---------------------------------------------------
  alpha Z        PSCENC =       253.99581917
  Ewald energy   TEWEN  =     -9971.68754656
  -Hartree energ DENC   =     -4919.70617749
  -exchange      EXHF   =         0.00000000
  -V(xc)+E(xc)   XCENC  =       694.52168893
  PAW double counting   =     40390.73534651   -40216.40083301
  entropy T*S    EENTRO =         0.00000000
  eigenvalues    EBANDS =     -1958.32960066
  atomic energy  EATOM  =     15501.99929693
  Solvation  Ediel_sol  =         0.00000000
  ---------------------------------------------------
  free energy    TOTEN  =      -224.87200618 eV

  energy without entropy =     -224.87200618  energy(sigma->0) =     -224.87200618


--------------------------------------------------------------------------------------------------------




--------------------------------------- Iteration      1(  12)  ---------------------------------------


    POTLOK:  cpu time      0.5363: real time      0.5372
    SETDIJ:  cpu time     22.9799: real time     23.0048
     EDDAV:  cpu time     63.0886: real time     63.2220
 BZINTS: Fermi energy:    0.184123;  336.000000 electrons
         Band energy:-0.197899E+04;  BLOECHL correction:    0.000000
       DOS:  cpu time      0.0286: real time      0.0286
    CHARGE:  cpu time     30.5383: real time     30.5924
    MIXING:  cpu time      2.1566: real time      2.1577
    --------------------------------------------
      LOOP:  cpu time    119.3283: real time    119.5428

 eigenvalue-minimisations  : 10080
 total energy-change (2. order) :-0.3388764E+01  (-0.3877877E+00)
 number of electron     335.9999997 magnetization       2.3937443
 augmentation part      -46.9154100 magnetization       2.4769372

 Broyden mixing:
  rms(total) = 0.15963E+00    rms(broyden)= 0.15963E+00
  rms(prec ) = 0.17217E+00
  weight for this iteration     100.00

 eigenvalues of (default mixing * dielectric matrix)
  average eigenvalue GAMMA=   1.4917
  3.1006  3.1006  1.0555  1.0555  0.7808  0.7808  0.5680

 Free energy of the ion-electron system (eV)
  ---------------------------------------------------
  alpha Z        PSCENC =       253.99581917
  Ewald energy   TEWEN  =     -9971.68754656
  -Hartree energ DENC   =     -4900.21595997
  -exchange      EXHF   =         0.00000000
  -V(xc)+E(xc)   XCENC  =       692.06703932
  PAW double counting   =     39957.25727729   -39782.68581479
  entropy T*S    EENTRO =         0.00000000
  eigenvalues    EBANDS =     -1978.99088144
  atomic energy  EATOM  =     15501.99929693
  Solvation  Ediel_sol  =         0.00000000
  ---------------------------------------------------
  free energy    TOTEN  =      -228.26077005 eV

  energy without entropy =     -228.26077005  energy(sigma->0) =     -228.26077005


--------------------------------------------------------------------------------------------------------




--------------------------------------- Iteration      1(  13)  ---------------------------------------


    POTLOK:  cpu time      0.5078: real time      0.5092
    SETDIJ:  cpu time     34.1169: real time     34.1805
     EDDAV:  cpu time     54.1958: real time     54.2926
 BZINTS: Fermi energy:    0.116089;  336.000000 electrons
         Band energy:-0.200144E+04;  BLOECHL correction:    0.000000
       DOS:  cpu time      0.0294: real time      0.0294
    CHARGE:  cpu time     30.1035: real time     30.1636
    MIXING:  cpu time      0.0102: real time      0.0102
    --------------------------------------------
      LOOP:  cpu time    118.9635: real time    119.1854

 eigenvalue-minimisations  :  9504
 total energy-change (2. order) :-0.1054352E+01  (-0.1337737E+00)
 number of electron     335.9999997 magnetization       0.8893812
 augmentation part      -46.9737009 magnetization       0.9155072

 Broyden mixing:
  rms(total) = 0.93093E-01    rms(broyden)= 0.93093E-01
  rms(prec ) = 0.99891E-01
  weight for this iteration     100.00

 eigenvalues of (default mixing * dielectric matrix)
  average eigenvalue GAMMA=   1.5515
  3.3217  3.3217  1.5860  1.2832  0.9275  0.6996  0.6996  0.5723

 Free energy of the ion-electron system (eV)
  ---------------------------------------------------
  alpha Z        PSCENC =       253.99581917
  Ewald energy   TEWEN  =     -9971.68754656
  -Hartree energ DENC   =     -4877.07968241
  -exchange      EXHF   =         0.00000000
  -V(xc)+E(xc)   XCENC  =       690.08356064
  PAW double counting   =     39136.89382492   -38962.08298350
  entropy T*S    EENTRO =         0.00000000
  eigenvalues    EBANDS =     -2001.43741080
  atomic energy  EATOM  =     15501.99929693
  Solvation  Ediel_sol  =         0.00000000
  ---------------------------------------------------
  free energy    TOTEN  =      -229.31512160 eV

  energy without entropy =     -229.31512160  energy(sigma->0) =     -229.31512160


--------------------------------------------------------------------------------------------------------




--------------------------------------- Iteration      1(  14)  ---------------------------------------


    POTLOK:  cpu time      0.4647: real time      0.4662
    SETDIJ:  cpu time     31.5924: real time     31.6211
     EDDAV:  cpu time     52.5215: real time     52.6572
 BZINTS: Fermi energy:    0.080626;  336.000000 electrons
         Band energy:-0.201188E+04;  BLOECHL correction:    0.000000
       DOS:  cpu time      0.0284: real time      0.0285
    CHARGE:  cpu time     23.9324: real time     23.9631
    MIXING:  cpu time      1.8591: real time      1.8599
    --------------------------------------------
      LOOP:  cpu time    110.3984: real time    110.5959

 eigenvalue-minimisations  :  8992
 total energy-change (2. order) :-0.6478412E-01  (-0.1624118E-01)
 number of electron     335.9999997 magnetization       0.4175597
 augmentation part      -47.0006006 magnetization       0.4246199

 Broyden mixing:
  rms(total) = 0.43596E-01    rms(broyden)= 0.43596E-01
  rms(prec ) = 0.46300E-01
  weight for this iteration     100.00

 eigenvalues of (default mixing * dielectric matrix)
  average eigenvalue GAMMA=   1.5784
  4.1306  2.5565  2.5565  1.0966  1.0966  0.7711  0.7711  0.5748  0.6520

 Free energy of the ion-electron system (eV)
  ---------------------------------------------------
  alpha Z        PSCENC =       253.99581917
  Ewald energy   TEWEN  =     -9971.68754656
  -Hartree energ DENC   =     -4865.74272088
  -exchange      EXHF   =         0.00000000
  -V(xc)+E(xc)   XCENC  =       689.17254254
  PAW double counting   =     39076.53032732   -38901.76511526
  entropy T*S    EENTRO =         0.00000000
  eigenvalues    EBANDS =     -2011.88250899
  atomic energy  EATOM  =     15501.99929693
  Solvation  Ediel_sol  =         0.00000000
  ---------------------------------------------------
  free energy    TOTEN  =      -229.37990572 eV

  energy without entropy =     -229.37990572  energy(sigma->0) =     -229.37990572


--------------------------------------------------------------------------------------------------------




--------------------------------------- Iteration      1(  15)  ---------------------------------------


    POTLOK:  cpu time      0.5100: real time      0.5112
    SETDIJ:  cpu time     32.4944: real time     32.6029
     EDDAV:  cpu time     55.9189: real time     56.1291
 BZINTS: Fermi energy:    0.078818;  336.000000 electrons
         Band energy:-0.201160E+04;  BLOECHL correction:    0.000000
       DOS:  cpu time      0.0287: real time      0.0287
    CHARGE:  cpu time     27.9420: real time     27.9955
    MIXING:  cpu time      1.9114: real time      1.9151
    --------------------------------------------
      LOOP:  cpu time    118.8054: real time    119.1825

 eigenvalue-minimisations  :  9600
 total energy-change (2. order) : 0.1249747E-02  (-0.2079651E-02)
 number of electron     335.9999997 magnetization       0.1728017
 augmentation part      -46.9945304 magnetization       0.1771035

 Broyden mixing:
  rms(total) = 0.20193E-01    rms(broyden)= 0.20193E-01
  rms(prec ) = 0.21770E-01
  weight for this iteration     100.00

 eigenvalues of (default mixing * dielectric matrix)
  average eigenvalue GAMMA=   1.5647
  4.5526  2.5282  2.5282  1.3326  0.9977  0.9977  0.7581  0.7581  0.6239  0.5693

 Free energy of the ion-electron system (eV)
  ---------------------------------------------------
  alpha Z        PSCENC =       253.99581917
  Ewald energy   TEWEN  =     -9971.68754656
  -Hartree energ DENC   =     -4865.89980515
  -exchange      EXHF   =         0.00000000
  -V(xc)+E(xc)   XCENC  =       689.13342757
  PAW double counting   =     39161.67872020   -38987.00027828
  entropy T*S    EENTRO =         0.00000000
  eigenvalues    EBANDS =     -2011.59828986
  atomic energy  EATOM  =     15501.99929693
  Solvation  Ediel_sol  =         0.00000000
  ---------------------------------------------------
  free energy    TOTEN  =      -229.37865597 eV

  energy without entropy =     -229.37865597  energy(sigma->0) =     -229.37865597


--------------------------------------------------------------------------------------------------------




--------------------------------------- Iteration      1(  16)  ---------------------------------------


    POTLOK:  cpu time      0.4788: real time      0.4801
    SETDIJ:  cpu time     28.1757: real time     28.3619
     EDDAV:  cpu time     58.7132: real time     58.8458
 BZINTS: Fermi energy:    0.076860;  336.000000 electrons
         Band energy:-0.201206E+04;  BLOECHL correction:   -0.000000
       DOS:  cpu time      0.0285: real time      0.0285
    CHARGE:  cpu time     32.1742: real time     32.2419
    MIXING:  cpu time      0.0091: real time      0.0091
    --------------------------------------------
      LOOP:  cpu time    119.5794: real time    119.9674

 eigenvalue-minimisations  :  9120
 total energy-change (2. order) : 0.3120842E-02  (-0.5511492E-03)
 number of electron     335.9999997 magnetization       0.0696834
 augmentation part      -46.9933702 magnetization       0.0705041

 Broyden mixing:
  rms(total) = 0.12282E-01    rms(broyden)= 0.12282E-01
  rms(prec ) = 0.13295E-01
  weight for this iteration     100.00

 eigenvalues of (default mixing * dielectric matrix)
  average eigenvalue GAMMA=   1.5468
  4.7573  2.4275  2.4275  1.8425  0.9964  0.9964  0.9229  0.7281  0.7281  0.5806
  0.6070

 Free energy of the ion-electron system (eV)
  ---------------------------------------------------
  alpha Z        PSCENC =       253.99581917
  Ewald energy   TEWEN  =     -9971.68754656
  -Hartree energ DENC   =     -4865.34543358
  -exchange      EXHF   =         0.00000000
  -V(xc)+E(xc)   XCENC  =       689.06572225
  PAW double counting   =     39132.06757462   -38957.41296807
  entropy T*S    EENTRO =         0.00000000
  eigenvalues    EBANDS =     -2012.05799990
  atomic energy  EATOM  =     15501.99929693
  Solvation  Ediel_sol  =         0.00000000
  ---------------------------------------------------
  free energy    TOTEN  =      -229.37553513 eV

  energy without entropy =     -229.37553513  energy(sigma->0) =     -229.37553513


--------------------------------------------------------------------------------------------------------




--------------------------------------- Iteration      1(  17)  ---------------------------------------


    POTLOK:  cpu time      0.4795: real time      0.4805
    SETDIJ:  cpu time     29.8285: real time     29.9955
     EDDAV:  cpu time     59.6043: real time     59.6948
 BZINTS: Fermi energy:    0.079006;  336.000000 electrons
         Band energy:-0.201114E+04;  BLOECHL correction:    0.000000
       DOS:  cpu time      0.0275: real time      0.0276
    CHARGE:  cpu time     30.2907: real time     30.3495
    MIXING:  cpu time      0.0182: real time      0.0182
    --------------------------------------------
      LOOP:  cpu time    120.2488: real time    120.5659

 eigenvalue-minimisations  :  9504
 total energy-change (2. order) :-0.5069109E-03  (-0.1194450E-03)
 number of electron     335.9999997 magnetization       0.0178643
 augmentation part      -46.9883243 magnetization       0.0182638

 Broyden mixing:
  rms(total) = 0.49337E-02    rms(broyden)= 0.49337E-02
  rms(prec ) = 0.55324E-02
  weight for this iteration     100.00

 eigenvalues of (default mixing * dielectric matrix)
  average eigenvalue GAMMA=   1.5761
  4.9475  2.6018  2.6018  2.2034  1.1776  0.9962  0.9962  0.7618  0.7618  0.6807
  0.5873  0.5977

 Free energy of the ion-electron system (eV)
  ---------------------------------------------------
  alpha Z        PSCENC =       253.99581917
  Ewald energy   TEWEN  =     -9971.68754656
  -Hartree energ DENC   =     -4866.30121127
  -exchange      EXHF   =         0.00000000
  -V(xc)+E(xc)   XCENC  =       689.12525115
  PAW double counting   =     39172.86577995   -38998.23531410
  entropy T*S    EENTRO =         0.00000000
  eigenvalues    EBANDS =     -2011.13811731
  atomic energy  EATOM  =     15501.99929693
  Solvation  Ediel_sol  =         0.00000000
  ---------------------------------------------------
  free energy    TOTEN  =      -229.37604204 eV

  energy without entropy =     -229.37604204  energy(sigma->0) =     -229.37604204


--------------------------------------------------------------------------------------------------------




--------------------------------------- Iteration      1(  18)  ---------------------------------------


    POTLOK:  cpu time      2.1286: real time      2.1511
    SETDIJ:  cpu time     33.0639: real time     33.0935
     EDDAV:  cpu time     64.7254: real time     64.8190
 BZINTS: Fermi energy:    0.079866;  336.000000 electrons
         Band energy:-0.201062E+04;  BLOECHL correction:    0.000000
       DOS:  cpu time      0.0277: real time      0.0277
    CHARGE:  cpu time     26.2037: real time     26.2303
    MIXING:  cpu time      0.0081: real time      0.0081
    --------------------------------------------
      LOOP:  cpu time    126.1573: real time    126.3296

 eigenvalue-minimisations  :  9440
 total energy-change (2. order) :-0.1130112E-03  (-0.3954135E-04)
 number of electron     335.9999997 magnetization       0.0051993
 augmentation part      -46.9849994 magnetization       0.0057398

 Broyden mixing:
  rms(total) = 0.44651E-02    rms(broyden)= 0.44651E-02
  rms(prec ) = 0.47166E-02
  weight for this iteration     100.00

 eigenvalues of (default mixing * dielectric matrix)
  average eigenvalue GAMMA=   1.5447
  5.0017  2.6459  2.6459  2.2662  1.1303  1.1303  0.9909  0.9909  0.7249  0.7249
  0.5784  0.6445  0.6064

 Free energy of the ion-electron system (eV)
  ---------------------------------------------------
  alpha Z        PSCENC =       253.99581917
  Ewald energy   TEWEN  =     -9971.68754656
  -Hartree energ DENC   =     -4866.84423465
  -exchange      EXHF   =         0.00000000
  -V(xc)+E(xc)   XCENC  =       689.16054323
  PAW double counting   =     39201.61969860   -39027.00400695
  entropy T*S    EENTRO =         0.00000000
  eigenvalues    EBANDS =     -2010.61572483
  atomic energy  EATOM  =     15501.99929693
  Solvation  Ediel_sol  =         0.00000000
  ---------------------------------------------------
  free energy    TOTEN  =      -229.37615505 eV

  energy without entropy =     -229.37615505  energy(sigma->0) =     -229.37615505


--------------------------------------------------------------------------------------------------------




--------------------------------------- Iteration      1(  19)  ---------------------------------------


    POTLOK:  cpu time      0.4510: real time      0.4525
    SETDIJ:  cpu time     31.7635: real time     31.9609
     EDDAV:  cpu time     65.5053: real time     65.5875
 BZINTS: Fermi energy:    0.079427;  336.000000 electrons
         Band energy:-0.201087E+04;  BLOECHL correction:    0.000000
       DOS:  cpu time      0.0275: real time      0.0275
    CHARGE:  cpu time     28.5690: real time     28.6667
    MIXING:  cpu time      1.1171: real time      1.1227
    --------------------------------------------
      LOOP:  cpu time    127.4334: real time    127.8178

 eigenvalue-minimisations  :  9760
 total energy-change (2. order) :-0.6167294E-05  (-0.6183663E-05)
 number of electron     335.9999997 magnetization      -0.0005132
 augmentation part      -46.9858253 magnetization      -0.0002692

 Broyden mixing:
  rms(total) = 0.20283E-02    rms(broyden)= 0.20282E-02
  rms(prec ) = 0.22024E-02
  weight for this iteration     100.00

 eigenvalues of (default mixing * dielectric matrix)
  average eigenvalue GAMMA=   1.5458
  5.0450  2.7073  2.7073  2.1111  1.4091  1.4091  1.0331  1.0331  0.8580  0.7538
  0.7538  0.5799  0.6091  0.6310

 Free energy of the ion-electron system (eV)
  ---------------------------------------------------
  alpha Z        PSCENC =       253.99581917
  Ewald energy   TEWEN  =     -9971.68754656
  -Hartree energ DENC   =     -4866.57143030
  -exchange      EXHF   =         0.00000000
  -V(xc)+E(xc)   XCENC  =       689.14372368
  PAW double counting   =     39200.23835527   -39025.61954948
  entropy T*S    EENTRO =         0.00000000
  eigenvalues    EBANDS =     -2010.87482994
  atomic energy  EATOM  =     15501.99929693
  Solvation  Ediel_sol  =         0.00000000
  ---------------------------------------------------
  free energy    TOTEN  =      -229.37616122 eV

  energy without entropy =     -229.37616122  energy(sigma->0) =     -229.37616122


--------------------------------------------------------------------------------------------------------




--------------------------------------- Iteration      1(  20)  ---------------------------------------


    POTLOK:  cpu time      2.4225: real time      2.4480
    SETDIJ:  cpu time     28.4175: real time     28.4979
     EDDAV:  cpu time     62.6813: real time     62.7680
 BZINTS: Fermi energy:    0.078714;  336.000000 electrons
         Band energy:-0.201101E+04;  BLOECHL correction:    0.000000
       DOS:  cpu time      0.0311: real time      0.0311
    CHARGE:  cpu time     27.8631: real time     27.9000
    MIXING:  cpu time      1.3808: real time      1.3810
    --------------------------------------------
      LOOP:  cpu time    122.7963: real time    123.0260

 eigenvalue-minimisations  :  9152
 total energy-change (2. order) :-0.1028778E-04  (-0.3450329E-05)
 number of electron     335.9999997 magnetization      -0.0016214
 augmentation part      -46.9863578 magnetization      -0.0015424

 Broyden mixing:
  rms(total) = 0.95062E-03    rms(broyden)= 0.95050E-03
  rms(prec ) = 0.10096E-02
  weight for this iteration     100.00

 eigenvalues of (default mixing * dielectric matrix)
  average eigenvalue GAMMA=   1.5471
  5.0950  2.7084  2.7084  2.0985  2.0985  1.2315  1.2315  0.9901  0.9901  0.7798
  0.7329  0.7329  0.5778  0.6158  0.6158

 Free energy of the ion-electron system (eV)
  ---------------------------------------------------
  alpha Z        PSCENC =       253.99581917
  Ewald energy   TEWEN  =     -9971.68754656
  -Hartree energ DENC   =     -4866.42779199
  -exchange      EXHF   =         0.00000000
  -V(xc)+E(xc)   XCENC  =       689.13665736
  PAW double counting   =     39205.33795944   -39030.71722270
  entropy T*S    EENTRO =         0.00000000
  eigenvalues    EBANDS =     -2011.01334317
  atomic energy  EATOM  =     15501.99929693
  Solvation  Ediel_sol  =         0.00000000
  ---------------------------------------------------
  free energy    TOTEN  =      -229.37617151 eV

  energy without entropy =     -229.37617151  energy(sigma->0) =     -229.37617151


--------------------------------------------------------------------------------------------------------




--------------------------------------- Iteration      1(  21)  ---------------------------------------


    POTLOK:  cpu time      0.5587: real time      0.5597
    SETDIJ:  cpu time     31.1798: real time     31.2179
     EDDAV:  cpu time     53.3386: real time     53.4093
 BZINTS: Fermi energy:    0.078707;  336.000000 electrons
         Band energy:-0.201107E+04;  BLOECHL correction:    0.000000
       DOS:  cpu time      0.0285: real time      0.0285
    CHARGE:  cpu time     23.6387: real time     23.6522
    MIXING:  cpu time      1.4343: real time      1.4346
    --------------------------------------------
      LOOP:  cpu time    110.1786: real time    110.3022

 eigenvalue-minimisations  :  9280
 total energy-change (2. order) : 0.1149103E-05  (-0.8819597E-06)
 number of electron     335.9999997 magnetization      -0.0013395
 augmentation part      -46.9865547 magnetization      -0.0013434

 Broyden mixing:
  rms(total) = 0.42538E-03    rms(broyden)= 0.42510E-03
  rms(prec ) = 0.44751E-03
  weight for this iteration     100.00

 eigenvalues of (default mixing * dielectric matrix)
  average eigenvalue GAMMA=   1.5119
  5.0967  2.6683  2.6683  2.5702  1.6155  1.3988  1.1543  1.1543  0.9292  0.9292
  0.7392  0.7392  0.7250  0.5775  0.6125  0.6125

 Free energy of the ion-electron system (eV)
  ---------------------------------------------------
  alpha Z        PSCENC =       253.99581917
  Ewald energy   TEWEN  =     -9971.68754656
  -Hartree energ DENC   =     -4866.36856175
  -exchange      EXHF   =         0.00000000
  -V(xc)+E(xc)   XCENC  =       689.13303682
  PAW double counting   =     39204.76897774   -39030.14741434
  entropy T*S    EENTRO =         0.00000000
  eigenvalues    EBANDS =     -2011.06977837
  atomic energy  EATOM  =     15501.99929693
  Solvation  Ediel_sol  =         0.00000000
  ---------------------------------------------------
  free energy    TOTEN  =      -229.37617036 eV

  energy without entropy =     -229.37617036  energy(sigma->0) =     -229.37617036


--------------------------------------------------------------------------------------------------------




--------------------------------------- Iteration      1(  22)  ---------------------------------------


    POTLOK:  cpu time      0.5448: real time      0.5526
    SETDIJ:  cpu time     28.4659: real time     28.5809
     EDDAV:  cpu time     60.9279: real time     61.0125
 BZINTS: Fermi energy:    0.078544;  336.000000 electrons
         Band energy:-0.201109E+04;  BLOECHL correction:    0.000000
       DOS:  cpu time      0.0285: real time      0.0285
    CHARGE:  cpu time     31.1310: real time     31.1476
    MIXING:  cpu time      0.0100: real time      0.0100
    --------------------------------------------
      LOOP:  cpu time    121.1080: real time    121.3322

 eigenvalue-minimisations  :  9824
 total energy-change (2. order) : 0.4483954E-06  (-0.1410618E-06)
 number of electron     335.9999997 magnetization      -0.0004680
 augmentation part      -46.9866237 magnetization      -0.0004895

 Broyden mixing:
  rms(total) = 0.23081E-03    rms(broyden)= 0.23031E-03
  rms(prec ) = 0.24509E-03
  weight for this iteration     100.00

 eigenvalues of (default mixing * dielectric matrix)
  average eigenvalue GAMMA=   1.5005
  5.0911  2.6570  2.6570  2.6226  1.6721  1.4384  1.4384  1.0844  1.0844  0.9007
  0.9007  0.7424  0.7424  0.6735  0.5787  0.6125  0.6125

 Free energy of the ion-electron system (eV)
  ---------------------------------------------------
  alpha Z        PSCENC =       253.99581917
  Ewald energy   TEWEN  =     -9971.68754656
  -Hartree energ DENC   =     -4866.34691816
  -exchange      EXHF   =         0.00000000
  -V(xc)+E(xc)   XCENC  =       689.13145700
  PAW double counting   =     39203.35617496   -39028.73430468
  entropy T*S    EENTRO =         0.00000000
  eigenvalues    EBANDS =     -2011.09014858
  atomic energy  EATOM  =     15501.99929693
  Solvation  Ediel_sol  =         0.00000000
  ---------------------------------------------------
  free energy    TOTEN  =      -229.37616991 eV

  energy without entropy =     -229.37616991  energy(sigma->0) =     -229.37616991


--------------------------------------------------------------------------------------------------------




--------------------------------------- Iteration      1(  23)  ---------------------------------------


    POTLOK:  cpu time      0.4463: real time      0.4476
    SETDIJ:  cpu time     27.5758: real time     27.6147
     EDDAV:  cpu time     59.0804: real time     59.1113
 BZINTS: Fermi energy:    0.078596;  336.000000 electrons
         Band energy:-0.201108E+04;  BLOECHL correction:    0.000000
       DOS:  cpu time      0.0285: real time      0.0285
    CHARGE:  cpu time     29.4314: real time     29.4701
    MIXING:  cpu time      0.0141: real time      0.0141
    --------------------------------------------
      LOOP:  cpu time    116.5765: real time    116.6864

 eigenvalue-minimisations  :  9216
 total energy-change (2. order) :-0.2313172E-06  (-0.5772394E-07)
 number of electron     335.9999997 magnetization      -0.0002582
 augmentation part      -46.9865964 magnetization      -0.0002544

 Broyden mixing:
[...]

  length of vectors
    10.314108670 16.788494411 10.846477853     0.097707938  0.059564603  0.092912216


 FORCES acting on ions
    electron-ion (+dipol)            ewald-force                    non-local-force                 convergence-correction
 -----------------------------------------------------------------------------------------------
   0.986E+02 -.105E+03 -.126E+02   -.104E+03 0.113E+03 0.113E+02   0.495E+01 -.888E+01 0.132E+01   0.165E-05 -.175E-06 0.852E-06
   0.987E+02 -.105E+03 -.125E+02   -.104E+03 0.113E+03 0.112E+02   0.495E+01 -.888E+01 0.132E+01   0.162E-05 -.223E-06 0.845E-06
   -.123E+02 0.419E+02 -.127E+03   0.126E+02 -.471E+02 0.134E+03   -.245E+00 0.519E+01 -.705E+01   0.157E-06 -.318E-07 -.101E-05
   -.123E+02 0.420E+02 -.127E+03   0.126E+02 -.472E+02 0.134E+03   -.245E+00 0.519E+01 -.705E+01   0.777E-07 0.977E-09 -.110E-05
   -.211E+02 -.902E+02 0.981E+02   0.198E+02 0.989E+02 -.103E+03   0.134E+01 -.874E+01 0.530E+01   -.405E-07 -.179E-07 0.167E-05
   -.211E+02 -.902E+02 0.981E+02   0.198E+02 0.989E+02 -.103E+03   0.134E+01 -.874E+01 0.530E+01   -.791E-07 0.292E-07 0.170E-05
   -.109E+03 0.950E+02 0.627E+01   0.114E+03 -.101E+03 -.416E+01   -.534E+01 0.592E+01 -.212E+01   -.157E-05 -.435E-07 0.663E-06
   -.108E+03 0.950E+02 0.625E+01   0.114E+03 -.101E+03 -.413E+01   -.534E+01 0.592E+01 -.212E+01   -.170E-05 0.297E-07 0.660E-06
   0.136E+03 -.542E+02 -.191E+02   -.143E+03 0.598E+02 0.197E+02   0.679E+01 -.557E+01 -.563E+00   0.162E-05 -.113E-07 -.106E-05
   0.136E+03 -.540E+02 -.187E+02   -.143E+03 0.595E+02 0.193E+02   0.680E+01 -.552E+01 -.558E+00   0.151E-05 0.403E-07 -.105E-05
   -.136E+03 0.540E+02 0.187E+02   0.143E+03 -.595E+02 -.193E+02   -.680E+01 0.552E+01 0.558E+00   -.153E-05 0.290E-07 0.993E-06
   -.136E+03 0.539E+02 0.187E+02   0.143E+03 -.595E+02 -.193E+02   -.680E+01 0.552E+01 0.558E+00   -.157E-05 0.798E-08 0.997E-06
   0.108E+03 -.949E+02 -.631E+01   -.114E+03 0.101E+03 0.419E+01   0.534E+01 -.592E+01 0.212E+01   0.171E-05 0.108E-06 -.728E-06
   0.108E+03 -.950E+02 -.624E+01   -.114E+03 0.101E+03 0.413E+01   0.534E+01 -.592E+01 0.212E+01   0.165E-05 0.424E-07 -.693E-06
   -.119E+02 -.413E+02 0.126E+03   0.121E+02 0.465E+02 -.133E+03   -.303E+00 -.525E+01 0.708E+01   0.950E-07 0.310E-07 0.134E-05
   -.123E+02 -.420E+02 0.127E+03   0.126E+02 0.472E+02 -.134E+03   -.246E+00 -.519E+01 0.705E+01   0.594E-07 0.507E-07 0.127E-05
   0.211E+02 -.902E+02 0.981E+02   -.198E+02 0.989E+02 -.103E+03   -.134E+01 -.874E+01 0.530E+01   0.765E-07 -.813E-07 0.170E-05
   0.211E+02 -.902E+02 0.981E+02   -.198E+02 0.989E+02 -.103E+03   -.134E+01 -.874E+01 0.530E+01   0.523E-07 -.995E-07 0.175E-05
   -.987E+02 -.105E+03 -.125E+02   0.104E+03 0.113E+03 0.112E+02   -.495E+01 -.888E+01 0.132E+01   -.159E-05 -.291E-06 0.885E-06
   -.986E+02 -.105E+03 -.125E+02   0.104E+03 0.113E+03 0.112E+02   -.495E+01 -.888E+01 0.132E+01   -.169E-05 -.260E-06 0.812E-06
   -.136E+03 -.540E+02 -.187E+02   0.143E+03 0.595E+02 0.192E+02   -.680E+01 -.552E+01 -.558E+00   -.157E-05 -.536E-07 -.104E-05
   -.136E+03 -.539E+02 -.187E+02   0.143E+03 0.595E+02 0.193E+02   -.680E+01 -.552E+01 -.558E+00   -.157E-05 -.383E-07 -.103E-05
   0.124E+02 0.420E+02 -.127E+03   -.126E+02 -.472E+02 0.134E+03   0.246E+00 0.519E+01 -.705E+01   -.991E-07 0.177E-07 -.104E-05
   0.124E+02 0.419E+02 -.127E+03   -.126E+02 -.471E+02 0.134E+03   0.245E+00 0.519E+01 -.705E+01   -.131E-06 0.231E-07 -.106E-05
   -.108E+03 -.950E+02 -.627E+01   0.114E+03 0.101E+03 0.415E+01   -.534E+01 -.592E+01 0.212E+01   -.163E-05 0.451E-07 -.714E-06
   -.108E+03 -.949E+02 -.622E+01   0.114E+03 0.101E+03 0.409E+01   -.533E+01 -.592E+01 0.213E+01   -.169E-05 0.634E-07 -.707E-06
   0.986E+02 0.105E+03 0.125E+02   -.104E+03 -.113E+03 -.112E+02   0.495E+01 0.888E+01 -.132E+01   0.170E-05 0.218E-06 -.723E-06
   0.987E+02 0.105E+03 0.125E+02   -.104E+03 -.113E+03 -.112E+02   0.495E+01 0.888E+01 -.132E+01   0.163E-05 0.148E-06 -.733E-06
   -.986E+02 0.105E+03 0.125E+02   0.104E+03 -.113E+03 -.112E+02   -.495E+01 0.888E+01 -.132E+01   -.162E-05 0.263E-06 -.732E-06
   -.984E+02 0.105E+03 0.126E+02   0.103E+03 -.114E+03 -.113E+02   -.501E+01 0.889E+01 -.133E+01   -.171E-05 0.312E-06 -.743E-06
   0.720E+02 0.957E+02 0.640E+02   -.748E+02 -.105E+03 -.661E+02   0.285E+01 0.968E+01 0.205E+01   0.890E-06 0.467E-06 0.633E-06
   0.728E+02 0.961E+02 0.633E+02   -.756E+02 -.106E+03 -.653E+02   0.274E+01 0.971E+01 0.207E+01   0.824E-06 0.468E-06 0.579E-06
   0.217E+02 -.938E+02 -.889E+02   -.204E+02 0.100E+03 0.940E+02   -.133E+01 -.628E+01 -.509E+01   0.318E-06 0.134E-06 -.162E-05
   0.218E+02 -.938E+02 -.889E+02   -.205E+02 0.100E+03 0.940E+02   -.133E+01 -.628E+01 -.509E+01   0.272E-06 0.629E-07 -.154E-05
   -.212E+02 0.902E+02 -.981E+02   0.198E+02 -.989E+02 0.103E+03   0.134E+01 0.874E+01 -.530E+01   -.330E-07 -.256E-07 -.194E-05
   -.211E+02 0.902E+02 -.981E+02   0.198E+02 -.989E+02 0.103E+03   0.134E+01 0.874E+01 -.530E+01   -.110E-06 -.209E-07 -.187E-05
   -.218E+02 0.938E+02 0.889E+02   0.205E+02 -.100E+03 -.940E+02   0.133E+01 0.628E+01 0.509E+01   -.203E-06 -.115E-06 0.129E-05
   -.218E+02 0.938E+02 0.889E+02   0.205E+02 -.100E+03 -.940E+02   0.133E+01 0.628E+01 0.509E+01   -.302E-06 -.535E-07 0.136E-05
   0.210E+02 0.902E+02 -.980E+02   -.197E+02 -.990E+02 0.103E+03   -.132E+01 0.873E+01 -.530E+01   0.693E-07 0.942E-07 -.199E-05
   0.212E+02 0.902E+02 -.981E+02   -.198E+02 -.989E+02 0.103E+03   -.134E+01 0.874E+01 -.530E+01   0.299E-07 0.921E-07 -.192E-05
   0.728E+02 -.962E+02 -.632E+02   -.755E+02 0.106E+03 0.653E+02   0.274E+01 -.971E+01 -.207E+01   0.829E-06 -.461E-06 -.408E-06
   0.728E+02 -.961E+02 -.633E+02   -.755E+02 0.106E+03 0.653E+02   0.274E+01 -.971E+01 -.207E+01   0.859E-06 -.495E-06 -.434E-06
   0.136E+03 0.539E+02 0.187E+02   -.143E+03 -.595E+02 -.193E+02   0.680E+01 0.552E+01 0.558E+00   0.151E-05 0.374E-08 0.101E-05
   0.136E+03 0.540E+02 0.187E+02   -.143E+03 -.595E+02 -.192E+02   0.680E+01 0.552E+01 0.559E+00   0.159E-05 -.251E-07 0.999E-06
   0.108E+03 0.950E+02 0.625E+01   -.114E+03 -.101E+03 -.413E+01   0.534E+01 0.592E+01 -.212E+01   0.168E-05 -.653E-07 0.664E-06
   0.108E+03 0.950E+02 0.625E+01   -.114E+03 -.101E+03 -.414E+01   0.534E+01 0.592E+01 -.212E+01   0.161E-05 -.963E-07 0.682E-06
   -.727E+02 -.961E+02 -.632E+02   0.755E+02 0.106E+03 0.653E+02   -.274E+01 -.971E+01 -.207E+01   -.807E-06 -.369E-06 -.380E-06
   -.727E+02 -.962E+02 -.633E+02   0.755E+02 0.106E+03 0.653E+02   -.274E+01 -.971E+01 -.207E+01   -.860E-06 -.334E-06 -.451E-06
   -.218E+02 -.937E+02 -.888E+02   0.205E+02 0.100E+03 0.939E+02   0.133E+01 -.628E+01 -.509E+01   -.275E-06 0.998E-07 -.158E-05
   -.218E+02 -.938E+02 -.889E+02   0.205E+02 0.100E+03 0.940E+02   0.133E+01 -.628E+01 -.509E+01   -.321E-06 0.121E-06 -.155E-05
   0.218E+02 0.938E+02 0.889E+02   -.205E+02 -.100E+03 -.940E+02   -.133E+01 0.628E+01 0.509E+01   0.258E-06 -.123E-06 0.133E-05
   0.218E+02 0.938E+02 0.889E+02   -.205E+02 -.100E+03 -.940E+02   -.133E+01 0.628E+01 0.509E+01   0.264E-06 -.132E-06 0.134E-05
   -.728E+02 0.961E+02 0.633E+02   0.756E+02 -.106E+03 -.653E+02   -.274E+01 0.971E+01 0.207E+01   -.834E-06 0.324E-06 0.627E-06
   -.727E+02 0.961E+02 0.633E+02   0.755E+02 -.106E+03 -.653E+02   -.274E+01 0.971E+01 0.207E+01   -.883E-06 0.350E-06 0.581E-06
   0.123E+02 -.420E+02 0.127E+03   -.125E+02 0.472E+02 -.134E+03   0.245E+00 -.519E+01 0.705E+01   -.637E-07 0.414E-08 0.135E-05
   0.124E+02 -.420E+02 0.127E+03   -.126E+02 0.472E+02 -.134E+03   0.246E+00 -.519E+01 0.705E+01   -.120E-06 -.599E-07 0.128E-05
 -----------------------------------------------------------------------------------------------
   -.143E-01 0.117E+00 -.327E-02   0.107E-12 -.711E-14 0.000E+00   0.143E-01 -.117E+00 0.327E-02   0.114E-07 -.206E-07 0.265E-07


 POSITION                                       TOTAL-FORCE (eV/Angst)
 -----------------------------------------------------------------------------------
      7.84031      7.96182     -7.59135         0.002397     -0.000735      0.001295
     16.23455      7.96182     -7.59135         0.002483     -0.001269      0.000916
      3.16872      2.44282     -6.01943         0.002096     -0.001025     -0.002607
     11.56297      2.44282     -6.01943         0.001991     -0.000797     -0.002621
      1.76685      7.82725    -10.10485        -0.000076      0.000054     -0.000436
     10.16110      7.82725    -10.10485        -0.000046     -0.000003     -0.000471
      5.05050      1.12562     -8.40433         0.001610     -0.000600     -0.000528
     13.44475      1.12562     -8.40433         0.001607     -0.000624     -0.000706
      5.13205      1.09979     -2.45651        -0.021741      0.019288      0.010328
     13.52630      1.09979     -2.45651        -0.000080      0.000470     -0.000302
      3.26219      7.47505     -8.62356         0.000193     -0.000521      0.000226
     11.65644      7.47505     -8.62356         0.000163     -0.000438      0.000214
      3.34375      7.44923     -2.67574        -0.001750      0.000802      0.000958
     11.73799      7.44923     -2.67574        -0.001582      0.000594      0.000701
      7.36585      0.97835     -4.87422        -0.042797     -0.035976      0.027350
     15.76010      0.97835     -4.87422         0.002126      0.000877      0.002490
      2.43027      2.67356     -9.91842        -0.000018      0.000047     -0.000463
     10.82452      2.67356     -9.91842        -0.000166      0.000257     -0.000486
      4.75106      2.80814     -7.40493        -0.002499     -0.001216      0.000973
     13.14531      2.80814     -7.40493        -0.002454     -0.001316      0.000936
      7.45932      6.25348     -2.64294         0.000072      0.000616     -0.000205
     15.85356      6.25348     -2.64294         0.000107      0.000440     -0.000280
      1.02840      7.59650     -6.20585        -0.002202     -0.000957     -0.002413
      9.42265      7.59650     -6.20585        -0.001980     -0.000970     -0.002648
      0.85338      2.29554     -2.48931         0.001578      0.000637      0.000699
      9.24762      2.29554     -2.48931         0.000604      0.003412      0.000569
      3.64318      5.76671     -3.67515         0.002718      0.001178     -0.001359
     12.03743      5.76671     -3.67515         0.002486      0.001306     -0.000971
      0.55394      0.61303     -3.48872        -0.002526      0.001283     -0.000917
      8.94819      0.61303     -3.48872        -0.027752     -0.004015     -0.010005
      5.78350     -0.03143     -4.03202         0.087284      0.033217     -0.027840
     14.18775     -0.03143     -4.03202        -0.001189      0.001766      0.000207
      4.85766      7.53946     -1.03917        -0.004005      0.002133     -0.000121
     13.25190      7.53946     -1.03917        -0.003934      0.002046     -0.000249
      5.96398      5.90128     -1.16165         0.000038      0.000084      0.000255
     14.35822      5.90128     -1.16165        -0.000080      0.000023      0.000468
      3.53659      1.03539    -10.04090         0.003894     -0.002079      0.000303
     11.93084      1.03539    -10.04090         0.004062     -0.002270      0.000305
      6.62739      0.74760     -0.97522         0.007390     -0.009504      0.004631
     15.02164      0.74760     -0.97522         0.000098      0.000010      0.000504
      1.59638      3.45260     -6.86163        -0.001203     -0.001573     -0.000268
      9.99063      3.45260     -6.86163        -0.001202     -0.001886     -0.000277
      0.93493      2.32137     -8.43713        -0.000080     -0.000480      0.000217
      9.32918      2.32137     -8.43713        -0.000008     -0.000516      0.000511
      7.54087      6.27930     -8.59076        -0.001439     -0.000752     -0.000697
     15.93512      6.27930     -8.59076        -0.001540     -0.000587     -0.000673
      2.60074      8.60628     -7.04805         0.001097     -0.001710     -0.000381
     10.99499      8.60628     -7.04805         0.000949     -0.001905     -0.000143
      7.73371      2.38578     -0.85274         0.001386      0.000403     -0.002851
     16.12796      2.38578     -0.85274         0.003923      0.002008     -0.000277
      0.66053      6.18907    -10.22733        -0.003938     -0.002062      0.000287
      9.05478      6.18907    -10.22733        -0.003948     -0.002159      0.000223
      6.79787      5.12225     -4.21845         0.001089      0.001594      0.000278
     15.19211      5.12225     -4.21845         0.001210      0.001784      0.000207
      5.22552      6.13203     -5.06065        -0.002257      0.000744      0.002615
     13.61977      6.13203     -5.06065        -0.002159      0.000871      0.002527
 -----------------------------------------------------------------------------------
    total drift:                               -0.000002     -0.000002      0.000000


--------------------------------------------------------------------------------------------------------



  FREE ENERGIE OF THE ION-ELECTRON SYSTEM (eV)
  ---------------------------------------------------
  free  energy   TOTEN  =      -229.37616994 eV

  energy  without entropy=     -229.37616994  energy(sigma->0) =     -229.37616994



--------------------------------------------------------------------------------------------------------


    POTLOK:  cpu time     33.8486: real time     33.9206


--------------------------------------------------------------------------------------------------------


     LOOP+:  cpu time   4284.4000: real time   4310.3119
    4ORBIT:  cpu time      0.0000: real time      0.0000



 total charge

# of ion       s       p       d       tot
------------------------------------------
    1        1.376   2.247   0.000   3.623
    2        1.376   2.247   0.000   3.623
    3        1.376   2.258   0.000   3.635
    4        1.376   2.258   0.000   3.635
    5        1.376   2.247   0.000   3.623
    6        1.376   2.247   0.000   3.623
    7        1.375   2.262   0.000   3.638
    8        1.375   2.262   0.000   3.638
    9        1.377   2.258   0.000   3.635
   10        1.377   2.257   0.000   3.634
   11        1.377   2.257   0.000   3.634
   12        1.377   2.257   0.000   3.634
   13        1.375   2.262   0.000   3.638
   14        1.375   2.262   0.000   3.638
   15        1.377   2.256   0.000   3.633
   16        1.376   2.258   0.000   3.635
   17        1.376   2.247   0.000   3.623
   18        1.376   2.247   0.000   3.623
   19        1.376   2.247   0.000   3.623
   20        1.376   2.247   0.000   3.623
   21        1.377   2.257   0.000   3.634
   22        1.377   2.257   0.000   3.634
   23        1.376   2.258   0.000   3.635
   24        1.376   2.258   0.000   3.635
   25        1.375   2.262   0.000   3.638
   26        1.375   2.262   0.000   3.638
   27        1.376   2.247   0.000   3.623
   28        1.376   2.247   0.000   3.623
   29        1.376   2.247   0.000   3.623
   30        1.376   2.246   0.000   3.622
   31        1.376   2.253   0.000   3.629
   32        1.376   2.254   0.000   3.630
   33        1.375   2.263   0.000   3.638
   34        1.375   2.263   0.000   3.638
   35        1.376   2.247   0.000   3.623
   36        1.376   2.247   0.000   3.623
   37        1.375   2.263   0.000   3.638
   38        1.375   2.263   0.000   3.638
   39        1.376   2.247   0.000   3.623
   40        1.376   2.247   0.000   3.623
   41        1.376   2.254   0.000   3.630
   42        1.376   2.254   0.000   3.630
   43        1.377   2.257   0.000   3.634
   44        1.377   2.257   0.000   3.634
   45        1.375   2.262   0.000   3.638
   46        1.375   2.262   0.000   3.638
   47        1.376   2.254   0.000   3.630
   48        1.376   2.254   0.000   3.630
   49        1.375   2.263   0.000   3.638
   50        1.375   2.263   0.000   3.638
   51        1.375   2.263   0.000   3.638
   52        1.375   2.263   0.000   3.638
   53        1.376   2.254   0.000   3.630
   54        1.376   2.254   0.000   3.630
   55        1.376   2.258   0.000   3.635
   56        1.376   2.258   0.000   3.635
--------------------------------------------------
tot         77.049 126.309   0.000 203.358



 magnetization (x)

# of ion       s       p       d       tot
------------------------------------------
    1        0.000   0.000   0.000   0.000
    2        0.000   0.000   0.000   0.000
    3        0.000   0.000   0.000   0.000
    4        0.000   0.000   0.000   0.000
    5        0.000   0.000   0.000   0.000
    6        0.000   0.000   0.000   0.000
    7        0.000   0.000   0.000   0.000
    8        0.000   0.000   0.000   0.000
    9        0.000   0.000   0.000   0.000
   10        0.000   0.000   0.000   0.000
   11        0.000   0.000   0.000   0.000
   12        0.000   0.000   0.000   0.000
   13        0.000   0.000   0.000   0.000
   14        0.000   0.000   0.000   0.000
   15        0.000   0.000   0.000   0.000
   16        0.000   0.000   0.000   0.000
   17        0.000   0.000   0.000   0.000
   18        0.000   0.000   0.000   0.000
   19        0.000   0.000   0.000   0.000
   20        0.000   0.000   0.000   0.000
   21        0.000   0.000   0.000   0.000
   22        0.000   0.000   0.000   0.000
   23        0.000   0.000   0.000   0.000
   24        0.000   0.000   0.000   0.000
   25        0.000   0.000   0.000   0.000
   26        0.000   0.000   0.000   0.000
   27        0.000   0.000   0.000   0.000
   28        0.000   0.000   0.000   0.000
   29        0.000   0.000   0.000   0.000
   30        0.000   0.000   0.000   0.000
   31        0.000   0.000   0.000   0.000
   32        0.000   0.000   0.000   0.000
   33        0.000   0.000   0.000   0.000
   34        0.000   0.000   0.000   0.000
   35        0.000   0.000   0.000   0.000
   36        0.000   0.000   0.000   0.000
   37        0.000   0.000   0.000   0.000
   38        0.000   0.000   0.000   0.000
   39        0.000   0.000   0.000   0.000
   40        0.000   0.000   0.000   0.000
   41        0.000   0.000   0.000   0.000
   42        0.000   0.000   0.000   0.000
   43        0.000   0.000   0.000   0.000
   44        0.000   0.000   0.000   0.000
   45        0.000   0.000   0.000   0.000
   46        0.000   0.000   0.000   0.000
   47        0.000   0.000   0.000   0.000
   48        0.000   0.000   0.000   0.000
   49        0.000   0.000   0.000   0.000
   50        0.000   0.000   0.000   0.000
   51        0.000   0.000   0.000   0.000
   52        0.000   0.000   0.000   0.000
   53        0.000   0.000   0.000   0.000
   54        0.000   0.000   0.000   0.000
   55        0.000   0.000   0.000   0.000
   56        0.000   0.000   0.000   0.000
--------------------------------------------------
tot          0.000   0.000   0.000   0.000

 BZINTS: Fermi energy:    0.078618;  336.000000 electrons
         Band energy:-0.201110E+04;  BLOECHL correction:    0.000000

 total amount of memory used by VASP MPI-rank0   322725. kBytes
=======================================================================

   base      :      30000. kBytes
   nonl-proj :      70692. kBytes
   fftplans  :      34504. kBytes
   grid      :      83442. kBytes
   one-center:        344. kBytes
   wavefun   :     103743. kBytes

  
  
 General timing and accounting informations for this job:
 ========================================================
  
                  Total CPU time used (sec):     4342.138
                            User time (sec):     4339.416
                          System time (sec):        2.722
                         Elapsed time (sec):     4370.536
  
                   Maximum memory used (kb):      604344.
                   Average memory used (kb):          N/A
  
                          Minor page faults:      1232325
                          Major page faults:           54
                 Voluntary context switches:         2640
