  16  16   1   0
  0.2335789E+02  0.7160000E-09  0.7160000E-09  0.7290000E-09  0.5000000E-15
   1.0000000000000000E-004
  CAR 
 relax                                   
     15.59573832    -49.33130556  301      4.80161728      1.00000000
    -49.331  0.0000E+00  0.0000E+00  0.0000E+00  0.0000E+00
    -49.115  0.0000E+00  0.0000E+00  0.0000E+00  0.0000E+00
    -48.898  0.0000E+00  0.0000E+00  0.0000E+00  0.0000E+00
    -48.682  0.0000E+00  0.0000E+00  0.0000E+00  0.0000E+00
    -48.466  0.0000E+00  0.0000E+00  0.0000E+00  0.0000E+00
    -48.249  0.0000E+00  0.0000E+00  0.0000E+00  0.0000E+00
    -48.033  0.0000E+00  0.0000E+00  0.0000E+00  0.0000E+00
    -47.816  0.0000E+00  0.0000E+00  0.0000E+00  0.0000E+00
    -47.600  0.0000E+00  0.0000E+00  0.0000E+00  0.0000E+00
    -47.383  0.0000E+00  0.0000E+00  0.0000E+00  0.0000E+00
    -47.167  0.0000E+00  0.0000E+00  0.0000E+00  0.0000E+00
    -46.951  0.0000E+00  0.0000E+00  0.0000E+00  0.0000E+00
    -46.734  0.0000E+00  0.0000E+00  0.0000E+00  0.0000E+00
    -46.518  0.2253E-05  0.2253E-05  0.4877E-06  0.4877E-06
    -46.301  0.1032E+00  0.1032E+00  0.2234E-01  0.2234E-01
    -46.085  0.3541E-01  0.3541E-01  0.3000E-01  0.3000E-01
    -45.869  0.0000E+00  0.0000E+00  0.3000E-01  0.3000E-01
    -45.652  0.0000E+00  0.0000E+00  0.3000E-01  0.3000E-01
    -45.436  0.0000E+00  0.0000E+00  0.3000E-01  0.3000E-01
    -45.219  0.0000E+00  0.0000E+00  0.3000E-01  0.3000E-01
    -45.003  0.0000E+00  0.0000E+00  0.3000E-01  0.3000E-01
    -44.786  0.0000E+00  0.0000E+00  0.3000E-01  0.3000E-01
    -44.570  0.0000E+00  0.0000E+00  0.3000E-01  0.3000E-01
    -44.354  0.0000E+00  0.0000E+00  0.3000E-01  0.3000E-01
    -44.137  0.0000E+00  0.0000E+00  0.3000E-01  0.3000E-01
    -43.921  0.0000E+00  0.0000E+00  0.3000E-01  0.3000E-01
    -43.704  0.0000E+00  0.0000E+00  0.3000E-01  0.3000E-01
    -43.488  0.0000E+00  0.0000E+00  0.3000E-01  0.3000E-01
    -43.271  0.0000E+00  0.0000E+00  0.3000E-01  0.3000E-01
    -43.055  0.0000E+00  0.0000E+00  0.3000E-01  0.3000E-01
    -42.839  0.0000E+00  0.0000E+00  0.3000E-01  0.3000E-01
    -42.622  0.0000E+00  0.0000E+00  0.3000E-01  0.3000E-01
    -42.406  0.0000E+00  0.0000E+00  0.3000E-01  0.3000E-01
    -42.189  0.0000E+00  0.0000E+00  0.3000E-01  0.3000E-01
    -41.973  0.0000E+00  0.0000E+00  0.3000E-01  0.3000E-01
    -41.756  0.0000E+00  0.0000E+00  0.3000E-01  0.3000E-01
    -41.540  0.0000E+00  0.0000E+00  0.3000E-01  0.3000E-01
    -41.324  0.0000E+00  0.0000E+00  0.3000E-01  0.3000E-01
    -41.107  0.0000E+00  0.0000E+00  0.3000E-01  0.3000E-01
    -40.891  0.0000E+00  0.0000E+00  0.3000E-01  0.3000E-01
    -40.674  0.0000E+00  0.0000E+00  0.3000E-01  0.3000E-01
    -40.458  0.0000E+00  0.0000E+00  0.3000E-01  0.3000E-01
    -40.242  0.0000E+00  0.0000E+00  0.3000E-01  0.3000E-01
    -40.025  0.0000E+00  0.0000E+00  0.3000E-01  0.3000E-01
    -39.809  0.0000E+00  0.0000E+00  0.3000E-01  0.3000E-01
    -39.592  0.0000E+00  0.0000E+00  0.3000E-01  0.3000E-01
    -39.376  0.0000E+00  0.0000E+00  0.3000E-01  0.3000E-01
    -39.159  0.0000E+00  0.0000E+00  0.3000E-01  0.3000E-01
    -38.943  0.0000E+00  0.0000E+00  0.3000E-01  0.3000E-01
    -38.727  0.0000E+00  0.0000E+00  0.3000E-01  0.3000E-01
    -38.510  0.0000E+00  0.0000E+00  0.3000E-01  0.3000E-01
    -38.294  0.0000E+00  0.0000E+00  0.3000E-01  0.3000E-01
    -38.077  0.0000E+00  0.0000E+00  0.3000E-01  0.3000E-01
    -37.861  0.0000E+00  0.0000E+00  0.3000E-01  0.3000E-01
    -37.644  0.0000E+00  0.0000E+00  0.3000E-01  0.3000E-01
    -37.428  0.0000E+00  0.0000E+00  0.3000E-01  0.3000E-01
    -37.212  0.0000E+00  0.0000E+00  0.3000E-01  0.3000E-01
    -36.995  0.0000E+00  0.0000E+00  0.3000E-01  0.3000E-01
    -36.779  0.0000E+00  0.0000E+00  0.3000E-01  0.3000E-01
    -36.562  0.0000E+00  0.0000E+00  0.3000E-01  0.3000E-01
    -36.346  0.0000E+00  0.0000E+00  0.3000E-01  0.3000E-01
    -36.129  0.0000E+00  0.0000E+00  0.3000E-01  0.3000E-01
    -35.913  0.0000E+00  0.0000E+00  0.3000E-01  0.3000E-01
    -35.697  0.0000E+00  0.0000E+00  0.3000E-01  0.3000E-01
    -35.480  0.0000E+00  0.0000E+00  0.3000E-01  0.3000E-01
    -35.264  0.0000E+00  0.0000E+00  0.3000E-01  0.3000E-01
    -35.047  0.0000E+00  0.0000E+00  0.3000E-01  0.3000E-01
    -34.831  0.0000E+00  0.0000E+00  0.3000E-01  0.3000E-01
    -34.615  0.0000E+00  0.0000E+00  0.3000E-01  0.3000E-01
    -34.398  0.0000E+00  0.0000E+00  0.3000E-01  0.3000E-01
    -34.182  0.0000E+00  0.0000E+00  0.3000E-01  0.3000E-01
    -33.965  0.0000E+00  0.0000E+00  0.3000E-01  0.3000E-01
    -33.749  0.0000E+00  0.0000E+00  0.3000E-01  0.3000E-01
    -33.532  0.0000E+00  0.0000E+00  0.3000E-01  0.3000E-01
    -33.316  0.0000E+00  0.0000E+00  0.3000E-01  0.3000E-01
    -33.100  0.0000E+00  0.0000E+00  0.3000E-01  0.3000E-01
    -32.883  0.0000E+00  0.0000E+00  0.3000E-01  0.3000E-01
    -32.667  0.0000E+00  0.0000E+00  0.3000E-01  0.3000E-01
    -32.450  0.0000E+00  0.0000E+00  0.3000E-01  0.3000E-01
    -32.234  0.0000E+00  0.0000E+00  0.3000E-01  0.3000E-01
    -32.017  0.0000E+00  0.0000E+00  0.3000E-01  0.3000E-01
    -31.801  0.0000E+00  0.0000E+00  0.3000E-01  0.3000E-01
    -31.585  0.0000E+00  0.0000E+00  0.3000E-01  0.3000E-01
    -31.368  0.0000E+00  0.0000E+00  0.3000E-01  0.3000E-01
    -31.152  0.0000E+00  0.0000E+00  0.3000E-01  0.3000E-01
    -30.935  0.0000E+00  0.0000E+00  0.3000E-01  0.3000E-01
    -30.719  0.0000E+00  0.0000E+00  0.3000E-01  0.3000E-01
    -30.502  0.0000E+00  0.0000E+00  0.3000E-01  0.3000E-01
    -30.286  0.0000E+00  0.0000E+00  0.3000E-01  0.3000E-01
    -30.070  0.0000E+00  0.0000E+00  0.3000E-01  0.3000E-01
    -29.853  0.0000E+00  0.0000E+00  0.3000E-01  0.3000E-01
    -29.637  0.0000E+00  0.0000E+00  0.3000E-01  0.3000E-01
    -29.420  0.0000E+00  0.0000E+00  0.3000E-01  0.3000E-01
    -29.204  0.0000E+00  0.0000E+00  0.3000E-01  0.3000E-01
    -28.987  0.0000E+00  0.0000E+00  0.3000E-01  0.3000E-01
    -28.771  0.0000E+00  0.0000E+00  0.3000E-01  0.3000E-01
    -28.555  0.0000E+00  0.0000E+00  0.3000E-01  0.3000E-01
    -28.338  0.0000E+00  0.0000E+00  0.3000E-01  0.3000E-01
    -28.122  0.0000E+00  0.0000E+00  0.3000E-01  0.3000E-01
    -27.905  0.0000E+00  0.0000E+00  0.3000E-01  0.3000E-01
    -27.689  0.0000E+00  0.0000E+00  0.3000E-01  0.3000E-01
    -27.473  0.0000E+00  0.0000E+00  0.3000E-01  0.3000E-01
    -27.256  0.0000E+00  0.0000E+00  0.3000E-01  0.3000E-01
    -27.040  0.0000E+00  0.0000E+00  0.3000E-01  0.3000E-01
    -26.823  0.0000E+00  0.0000E+00  0.3000E-01  0.3000E-01
    -26.607  0.0000E+00  0.0000E+00  0.3000E-01  0.3000E-01
    -26.390  0.0000E+00  0.0000E+00  0.3000E-01  0.3000E-01
    -26.174  0.0000E+00  0.0000E+00  0.3000E-01  0.3000E-01
    -25.958  0.0000E+00  0.0000E+00  0.3000E-01  0.3000E-01
    -25.741  0.0000E+00  0.0000E+00  0.3000E-01  0.3000E-01
    -25.525  0.0000E+00  0.0000E+00  0.3000E-01  0.3000E-01
    -25.308  0.0000E+00  0.0000E+00  0.3000E-01  0.3000E-01
    -25.092  0.0000E+00  0.0000E+00  0.3000E-01  0.3000E-01
    -24.875  0.0000E+00  0.0000E+00  0.3000E-01  0.3000E-01
    -24.659  0.0000E+00  0.0000E+00  0.3000E-01  0.3000E-01
    -24.443  0.0000E+00  0.0000E+00  0.3000E-01  0.3000E-01
    -24.226  0.0000E+00  0.0000E+00  0.3000E-01  0.3000E-01
    -24.010  0.0000E+00  0.0000E+00  0.3000E-01  0.3000E-01
    -23.793  0.0000E+00  0.0000E+00  0.3000E-01  0.3000E-01
    -23.577  0.0000E+00  0.0000E+00  0.3000E-01  0.3000E-01
    -23.360  0.0000E+00  0.0000E+00  0.3000E-01  0.3000E-01
    -23.144  0.0000E+00  0.0000E+00  0.3000E-01  0.3000E-01
    -22.928  0.0000E+00  0.0000E+00  0.3000E-01  0.3000E-01
    -22.711  0.0000E+00  0.0000E+00  0.3000E-01  0.3000E-01
    -22.495  0.0000E+00  0.0000E+00  0.3000E-01  0.3000E-01
    -22.278  0.0000E+00  0.0000E+00  0.3000E-01  0.3000E-01
    -22.062  0.0000E+00  0.0000E+00  0.3000E-01  0.3000E-01
    -21.846  0.0000E+00  0.0000E+00  0.3000E-01  0.3000E-01
    -21.629  0.0000E+00  0.0000E+00  0.3000E-01  0.3000E-01
    -21.413  0.0000E+00  0.0000E+00  0.3000E-01  0.3000E-01
    -21.196  0.0000E+00  0.0000E+00  0.3000E-01  0.3000E-01
    -20.980  0.0000E+00  0.0000E+00  0.3000E-01  0.3000E-01
    -20.763  0.0000E+00  0.0000E+00  0.3000E-01  0.3000E-01
    -20.547  0.0000E+00  0.0000E+00  0.3000E-01  0.3000E-01
    -20.331  0.0000E+00  0.0000E+00  0.3000E-01  0.3000E-01
    -20.114  0.0000E+00  0.0000E+00  0.3000E-01  0.3000E-01
    -19.898  0.0000E+00  0.0000E+00  0.3000E-01  0.3000E-01
    -19.681  0.0000E+00  0.0000E+00  0.3000E-01  0.3000E-01
    -19.465  0.0000E+00  0.0000E+00  0.3000E-01  0.3000E-01
    -19.248  0.0000E+00  0.0000E+00  0.3000E-01  0.3000E-01
    -19.032  0.0000E+00  0.0000E+00  0.3000E-01  0.3000E-01
    -18.816  0.0000E+00  0.0000E+00  0.3000E-01  0.3000E-01
    -18.599  0.0000E+00  0.0000E+00  0.3000E-01  0.3000E-01
    -18.383  0.2838E-03  0.2838E-03  0.3006E-01  0.3006E-01
    -18.166  0.3810E+00  0.3810E+00  0.1125E+00  0.1125E+00
    -17.950  0.3459E-01  0.3459E-01  0.1200E+00  0.1200E+00
    -17.733  0.0000E+00  0.0000E+00  0.1200E+00  0.1200E+00
    -17.517  0.0000E+00  0.0000E+00  0.1200E+00  0.1200E+00
    -17.301  0.0000E+00  0.0000E+00  0.1200E+00  0.1200E+00
    -17.084  0.0000E+00  0.0000E+00  0.1200E+00  0.1200E+00
    -16.868  0.0000E+00  0.0000E+00  0.1200E+00  0.1200E+00
    -16.651  0.0000E+00  0.0000E+00  0.1200E+00  0.1200E+00
    -16.435  0.0000E+00  0.0000E+00  0.1200E+00  0.1200E+00
    -16.219  0.0000E+00  0.0000E+00  0.1200E+00  0.1200E+00
    -16.002  0.0000E+00  0.0000E+00  0.1200E+00  0.1200E+00
    -15.786  0.0000E+00  0.0000E+00  0.1200E+00  0.1200E+00
    -15.569  0.0000E+00  0.0000E+00  0.1200E+00  0.1200E+00
    -15.353  0.0000E+00  0.0000E+00  0.1200E+00  0.1200E+00
    -15.136  0.0000E+00  0.0000E+00  0.1200E+00  0.1200E+00
    -14.920  0.0000E+00  0.0000E+00  0.1200E+00  0.1200E+00
    -14.704  0.0000E+00  0.0000E+00  0.1200E+00  0.1200E+00
    -14.487  0.0000E+00  0.0000E+00  0.1200E+00  0.1200E+00
    -14.271  0.0000E+00  0.0000E+00  0.1200E+00  0.1200E+00
    -14.054  0.0000E+00  0.0000E+00  0.1200E+00  0.1200E+00
    -13.838  0.0000E+00  0.0000E+00  0.1200E+00  0.1200E+00
    -13.621  0.0000E+00  0.0000E+00  0.1200E+00  0.1200E+00
    -13.405  0.0000E+00  0.0000E+00  0.1200E+00  0.1200E+00
    -13.189  0.0000E+00  0.0000E+00  0.1200E+00  0.1200E+00
    -12.972  0.0000E+00  0.0000E+00  0.1200E+00  0.1200E+00
    -12.756  0.0000E+00  0.0000E+00  0.1200E+00  0.1200E+00
    -12.539  0.0000E+00  0.0000E+00  0.1200E+00  0.1200E+00
    -12.323  0.0000E+00  0.0000E+00  0.1200E+00  0.1200E+00
    -12.106  0.0000E+00  0.0000E+00  0.1200E+00  0.1200E+00
    -11.890  0.0000E+00  0.0000E+00  0.1200E+00  0.1200E+00
    -11.674  0.0000E+00  0.0000E+00  0.1200E+00  0.1200E+00
    -11.457  0.0000E+00  0.0000E+00  0.1200E+00  0.1200E+00
    -11.241  0.0000E+00  0.0000E+00  0.1200E+00  0.1200E+00
    -11.024  0.0000E+00  0.0000E+00  0.1200E+00  0.1200E+00
    -10.808  0.0000E+00  0.0000E+00  0.1200E+00  0.1200E+00
    -10.592  0.0000E+00  0.0000E+00  0.1200E+00  0.1200E+00
    -10.375  0.0000E+00  0.0000E+00  0.1200E+00  0.1200E+00
    -10.159  0.0000E+00  0.0000E+00  0.1200E+00  0.1200E+00
     -9.942  0.4170E-13  0.4170E-13  0.1200E+00  0.1200E+00
     -9.726  0.1510E-03  0.1510E-03  0.1200E+00  0.1200E+00
     -9.509  0.5292E-02  0.5292E-02  0.1212E+00  0.1212E+00
     -9.293  0.1328E-01  0.1328E-01  0.1241E+00  0.1241E+00
     -9.077  0.2225E-01  0.2225E-01  0.1289E+00  0.1289E+00
     -8.860  0.4905E-02  0.4905E-02  0.1299E+00  0.1299E+00
     -8.644  0.3329E-03  0.3329E-03  0.1300E+00  0.1300E+00
     -8.427  0.4543E-09  0.4543E-09  0.1300E+00  0.1300E+00
     -8.211  0.0000E+00  0.0000E+00  0.1300E+00  0.1300E+00
     -7.994  0.1140E-12  0.1140E-12  0.1300E+00  0.1300E+00
     -7.778  0.9966E-03  0.9966E-03  0.1302E+00  0.1302E+00
     -7.562  0.3881E-01  0.3881E-01  0.1386E+00  0.1386E+00
     -7.345  0.4317E-01  0.4317E-01  0.1480E+00  0.1480E+00
     -7.129  0.4983E-01  0.4983E-01  0.1587E+00  0.1587E+00
     -6.912  0.5818E-02  0.5818E-02  0.1600E+00  0.1600E+00
     -6.696  0.4693E-10  0.4693E-10  0.1600E+00  0.1600E+00
     -6.479  0.0000E+00  0.0000E+00  0.1600E+00  0.1600E+00
     -6.263  0.0000E+00  0.0000E+00  0.1600E+00  0.1600E+00
     -6.047  0.0000E+00  0.0000E+00  0.1600E+00  0.1600E+00
     -5.830  0.0000E+00  0.0000E+00  0.1600E+00  0.1600E+00
     -5.614  0.0000E+00  0.0000E+00  0.1600E+00  0.1600E+00
     -5.397  0.0000E+00  0.0000E+00  0.1600E+00  0.1600E+00
     -5.181  0.0000E+00  0.0000E+00  0.1600E+00  0.1600E+00
     -4.964  0.0000E+00  0.0000E+00  0.1600E+00  0.1600E+00
     -4.748  0.0000E+00  0.0000E+00  0.1600E+00  0.1600E+00
     -4.532  0.0000E+00  0.0000E+00  0.1600E+00  0.1600E+00
     -4.315  0.0000E+00  0.0000E+00  0.1600E+00  0.1600E+00
     -4.099  0.0000E+00  0.0000E+00  0.1600E+00  0.1600E+00
     -3.882  0.0000E+00  0.0000E+00  0.1600E+00  0.1600E+00
     -3.666  0.2636E-10  0.2636E-10  0.1600E+00  0.1600E+00
     -3.450  0.6978E-02  0.6978E-02  0.1615E+00  0.1615E+00
     -3.233  0.3781E-01  0.3781E-01  0.1697E+00  0.1697E+00
     -3.017  0.1414E-02  0.1414E-02  0.1700E+00  0.1700E+00
     -2.800  0.7999E-08  0.7999E-08  0.1700E+00  0.1700E+00
     -2.584  0.0000E+00  0.0000E+00  0.1700E+00  0.1700E+00
     -2.367  0.0000E+00  0.0000E+00  0.1700E+00  0.1700E+00
     -2.151  0.0000E+00  0.0000E+00  0.1700E+00  0.1700E+00
     -1.935  0.0000E+00  0.0000E+00  0.1700E+00  0.1700E+00
     -1.718  0.0000E+00  0.0000E+00  0.1700E+00  0.1700E+00
     -1.502  0.0000E+00  0.0000E+00  0.1700E+00  0.1700E+00
     -1.285  0.0000E+00  0.0000E+00  0.1700E+00  0.1700E+00
     -1.069  0.0000E+00  0.0000E+00  0.1700E+00  0.1700E+00
     -0.852  0.1017E-05  0.1017E-05  0.1700E+00  0.1700E+00
     -0.636  0.7015E-02  0.7015E-02  0.1715E+00  0.1715E+00
     -0.420  0.2332E-01  0.2332E-01  0.1766E+00  0.1766E+00
     -0.203  0.1501E-01  0.1501E-01  0.1798E+00  0.1798E+00
      0.013  0.2478E-02  0.2478E-02  0.1803E+00  0.1803E+00
      0.230  0.2286E-01  0.2286E-01  0.1853E+00  0.1853E+00
      0.446  0.1709E-01  0.1709E-01  0.1890E+00  0.1890E+00
      0.663  0.3682E-02  0.3682E-02  0.1898E+00  0.1898E+00
      0.879  0.2068E-01  0.2068E-01  0.1943E+00  0.1943E+00
      1.095  0.1495E-01  0.1495E-01  0.1975E+00  0.1975E+00
      1.312  0.1969E-01  0.1969E-01  0.2018E+00  0.2018E+00
      1.528  0.1836E-01  0.1836E-01  0.2057E+00  0.2057E+00
      1.745  0.1789E-01  0.1789E-01  0.2096E+00  0.2096E+00
      1.961  0.2957E-01  0.2957E-01  0.2160E+00  0.2160E+00
      2.177  0.1741E-01  0.1741E-01  0.2198E+00  0.2198E+00
      2.394  0.1793E-01  0.1793E-01  0.2237E+00  0.2237E+00
      2.610  0.3751E-01  0.3751E-01  0.2318E+00  0.2318E+00
      2.827  0.3644E-01  0.3644E-01  0.2397E+00  0.2397E+00
      3.043  0.2881E-01  0.2881E-01  0.2459E+00  0.2459E+00
      3.260  0.2038E-01  0.2038E-01  0.2503E+00  0.2503E+00
      3.476  0.2048E-01  0.2048E-01  0.2547E+00  0.2547E+00
      3.692  0.3483E-01  0.3483E-01  0.2623E+00  0.2623E+00
      3.909  0.3705E-01  0.3705E-01  0.2703E+00  0.2703E+00
      4.125  0.3480E-01  0.3480E-01  0.2778E+00  0.2778E+00
      4.342  0.7208E-02  0.7208E-02  0.2794E+00  0.2794E+00
      4.558  0.2810E-02  0.2810E-02  0.2800E+00  0.2800E+00
      4.775  0.4397E-07  0.4397E-07  0.2800E+00  0.2800E+00
      4.991  0.0000E+00  0.0000E+00  0.2800E+00  0.2800E+00
      5.207  0.0000E+00  0.0000E+00  0.2800E+00  0.2800E+00
      5.424  0.0000E+00  0.0000E+00  0.2800E+00  0.2800E+00
      5.640  0.0000E+00  0.0000E+00  0.2800E+00  0.2800E+00
      5.857  0.0000E+00  0.0000E+00  0.2800E+00  0.2800E+00
      6.073  0.1177E-06  0.1177E-06  0.2800E+00  0.2800E+00
      6.290  0.3350E-02  0.3350E-02  0.2807E+00  0.2807E+00
      6.506  0.3881E-01  0.3881E-01  0.2891E+00  0.2891E+00
      6.722  0.4046E-02  0.4046E-02  0.2900E+00  0.2900E+00
      6.939  0.0000E+00  0.0000E+00  0.2900E+00  0.2900E+00
      7.155  0.4008E-19  0.4008E-19  0.2900E+00  0.2900E+00
      7.372  0.1355E-04  0.1355E-04  0.2900E+00  0.2900E+00
      7.588  0.6471E-02  0.6471E-02  0.2914E+00  0.2914E+00
      7.804  0.1362E-01  0.1362E-01  0.2944E+00  0.2944E+00
      8.021  0.2271E-01  0.2271E-01  0.2993E+00  0.2993E+00
      8.237  0.8071E-02  0.8071E-02  0.3010E+00  0.3010E+00
      8.454  0.1269E-01  0.1269E-01  0.3038E+00  0.3038E+00
      8.670  0.2179E-01  0.2179E-01  0.3085E+00  0.3085E+00
      8.887  0.5698E-02  0.5698E-02  0.3097E+00  0.3097E+00
      9.103  0.1101E-01  0.1101E-01  0.3121E+00  0.3121E+00
      9.319  0.1456E-01  0.1456E-01  0.3152E+00  0.3152E+00
      9.536  0.2507E-01  0.2507E-01  0.3207E+00  0.3207E+00
      9.752  0.4079E-02  0.4079E-02  0.3216E+00  0.3216E+00
      9.969  0.1971E-01  0.1971E-01  0.3258E+00  0.3258E+00
     10.185  0.1267E-01  0.1267E-01  0.3286E+00  0.3286E+00
     10.402  0.1012E-01  0.1012E-01  0.3307E+00  0.3307E+00
     10.618  0.1175E-01  0.1175E-01  0.3333E+00  0.3333E+00
     10.834  0.2618E-01  0.2618E-01  0.3390E+00  0.3390E+00
     11.051  0.3072E-01  0.3072E-01  0.3456E+00  0.3456E+00
     11.267  0.2295E-01  0.2295E-01  0.3506E+00  0.3506E+00
     11.484  0.2092E-01  0.2092E-01  0.3551E+00  0.3551E+00
     11.700  0.2588E-01  0.2588E-01  0.3607E+00  0.3607E+00
     11.917  0.2794E-01  0.2794E-01  0.3667E+00  0.3667E+00
     12.133  0.1345E-01  0.1345E-01  0.3697E+00  0.3697E+00
     12.349  0.8744E-02  0.8744E-02  0.3715E+00  0.3715E+00
     12.566  0.1319E-01  0.1319E-01  0.3744E+00  0.3744E+00
     12.782  0.2753E-02  0.2753E-02  0.3750E+00  0.3750E+00
     12.999  0.1769E-07  0.1769E-07  0.3750E+00  0.3750E+00
     13.215  0.0000E+00  0.0000E+00  0.3750E+00  0.3750E+00
     13.432  0.0000E+00  0.0000E+00  0.3750E+00  0.3750E+00
     13.648  0.0000E+00  0.0000E+00  0.3750E+00  0.3750E+00
     13.864  0.0000E+00  0.0000E+00  0.3750E+00  0.3750E+00
     14.081  0.0000E+00  0.0000E+00  0.3750E+00  0.3750E+00
     14.297  0.0000E+00  0.0000E+00  0.3750E+00  0.3750E+00
     14.514  0.0000E+00  0.0000E+00  0.3750E+00  0.3750E+00
     14.730  0.0000E+00  0.0000E+00  0.3750E+00  0.3750E+00
     14.946  0.0000E+00  0.0000E+00  0.3750E+00  0.3750E+00
     15.163  0.0000E+00  0.0000E+00  0.3750E+00  0.3750E+00
     15.379  0.0000E+00  0.0000E+00  0.3750E+00  0.3750E+00
     15.596  0.0000E+00  0.0000E+00  0.3750E+00  0.3750E+00
     15.59573832    -49.33130556  301      4.80161728      1.00000000
    -49.331  0.0000E+00  0.0000E+00  0.0000E+00  0.0000E+00  0.0000E+00  0.0000E+00  0.0000E+00  0.0000E+00  0.0000E+00  0.0000E+00  0.0000E+00  0.0000E+00  0.0000E+00  0.0000E+00  0.0000E+00  0.0000E+00  0.0000E+00  0.0000E+00
    -49.115  0.0000E+00  0.0000E+00  0.0000E+00  0.0000E+00  0.0000E+00  0.0000E+00  0.0000E+00  0.0000E+00  0.0000E+00  0.0000E+00  0.0000E+00  0.0000E+00  0.0000E+00  0.0000E+00  0.0000E+00  0.0000E+00  0.0000E+00  0.0000E+00
    -48.898  0.0000E+00  0.0000E+00  0.0000E+00  0.0000E+00  0.0000E+00  0.0000E+00  0.0000E+00  0.0000E+00  0.0000E+00  0.0000E+00  0.0000E+00  0.0000E+00  0.0000E+00  0.0000E+00  0.0000E+00  0.0000E+00  0.0000E+00  0.0000E+00
    -48.682  0.0000E+00  0.0000E+00  0.0000E+00  0.0000E+00  0.0000E+00  0.0000E+00  0.0000E+00  0.0000E+00  0.0000E+00  0.0000E+00  0.0000E+00  0.0000E+00  0.0000E+00  0.0000E+00  0.0000E+00  0.0000E+00  0.0000E+00  0.0000E+00
    -48.466  0.0000E+00  0.0000E+00  0.0000E+00  0.0000E+00  0.0000E+00  0.0000E+00  0.0000E+00  0.0000E+00  0.0000E+00  0.0000E+00  0.0000E+00  0.0000E+00  0.0000E+00  0.0000E+00  0.0000E+00  0.0000E+00  0.0000E+00  0.0000E+00
    -48.249  0.0000E+00  0.0000E+00  0.0000E+00  0.0000E+00  0.0000E+00  0.0000E+00  0.0000E+00  0.0000E+00  0.0000E+00  0.0000E+00  0.0000E+00  0.0000E+00  0.0000E+00  0.0000E+00  0.0000E+00  0.0000E+00  0.0000E+00  0.0000E+00
    -48.033  0.0000E+00  0.0000E+00  0.0000E+00  0.0000E+00  0.0000E+00  0.0000E+00  0.0000E+00  0.0000E+00  0.0000E+00  0.0000E+00  0.0000E+00  0.0000E+00  0.0000E+00  0.0000E+00  0.0000E+00  0.0000E+00  0.0000E+00  0.0000E+00
    -47.816  0.0000E+00  0.0000E+00  0.0000E+00  0.0000E+00  0.0000E+00  0.0000E+00  0.0000E+00  0.0000E+00  0.0000E+00  0.0000E+00  0.0000E+00  0.0000E+00  0.0000E+00  0.0000E+00  0.0000E+00  0.0000E+00  0.0000E+00  0.0000E+00
    -47.600  0.0000E+00  0.0000E+00  0.0000E+00  0.0000E+00  0.0000E+00  0.0000E+00  0.0000E+00  0.0000E+00  0.0000E+00  0.0000E+00  0.0000E+00  0.0000E+00  0.0000E+00  0.0000E+00  0.0000E+00  0.0000E+00  0.0000E+00  0.0000E+00
    -47.383  0.0000E+00  0.0000E+00  0.0000E+00  0.0000E+00  0.0000E+00  0.0000E+00  0.0000E+00  0.0000E+00  0.0000E+00  0.0000E+00  0.0000E+00  0.0000E+00  0.0000E+00  0.0000E+00  0.0000E+00  0.0000E+00  0.0000E+00  0.0000E+00
    -47.167  0.0000E+00  0.0000E+00  0.0000E+00  0.0000E+00  0.0000E+00  0.0000E+00  0.0000E+00  0.0000E+00  0.0000E+00  0.0000E+00  0.0000E+00  0.0000E+00  0.0000E+00  0.0000E+00  0.0000E+00  0.0000E+00  0.0000E+00  0.0000E+00
    -46.951  0.0000E+00  0.0000E+00  0.0000E+00  0.0000E+00  0.0000E+00  0.0000E+00  0.0000E+00  0.0000E+00  0.0000E+00  0.0000E+00  0.0000E+00  0.0000E+00  0.0000E+00  0.0000E+00  0.0000E+00  0.0000E+00  0.0000E+00  0.0000E+00
    -46.734  0.0000E+00  0.0000E+00  0.0000E+00  0.0000E+00  0.0000E+00  0.0000E+00  0.0000E+00  0.0000E+00  0.0000E+00  0.0000E+00  0.0000E+00  0.0000E+00  0.0000E+00  0.0000E+00  0.0000E+00  0.0000E+00  0.0000E+00  0.0000E+00
    -46.518  0.2167E-03  0.2167E-03  0.2990E-14  0.2990E-14  0.2957E-14  0.2957E-14  0.2990E-14  0.2990E-14  0.0000E+00  0.0000E+00  0.0000E+00  0.0000E+00  0.0000E+00  0.0000E+00  0.0000E+00  0.0000E+00  0.0000E+00  0.0000E+00
    -46.301  0.4388E+01  0.4388E+01  0.7618E-08  0.7618E-08  0.2370E-09  0.2370E-09  0.7618E-08  0.7618E-08  0.0000E+00  0.0000E+00  0.0000E+00  0.0000E+00  0.0000E+00  0.0000E+00  0.0000E+00  0.0000E+00  0.0000E+00  0.0000E+00
    -46.085  0.5882E-01  0.5882E-01  0.4563E-08  0.4563E-08  0.1095E-09  0.1095E-09  0.4563E-08  0.4563E-08  0.0000E+00  0.0000E+00  0.0000E+00  0.0000E+00  0.0000E+00  0.0000E+00  0.0000E+00  0.0000E+00  0.0000E+00  0.0000E+00
    -45.869  0.0000E+00  0.0000E+00  0.0000E+00  0.0000E+00  0.0000E+00  0.0000E+00  0.0000E+00  0.0000E+00  0.0000E+00  0.0000E+00  0.0000E+00  0.0000E+00  0.0000E+00  0.0000E+00  0.0000E+00  0.0000E+00  0.0000E+00  0.0000E+00
    -45.652  0.0000E+00  0.0000E+00  0.0000E+00  0.0000E+00  0.0000E+00  0.0000E+00  0.0000E+00  0.0000E+00  0.0000E+00  0.0000E+00  0.0000E+00  0.0000E+00  0.0000E+00  0.0000E+00  0.0000E+00  0.0000E+00  0.0000E+00  0.0000E+00
    -45.436  0.0000E+00  0.0000E+00  0.0000E+00  0.0000E+00  0.0000E+00  0.0000E+00  0.0000E+00  0.0000E+00  0.0000E+00  0.0000E+00  0.0000E+00  0.0000E+00  0.0000E+00  0.0000E+00  0.0000E+00  0.0000E+00  0.0000E+00  0.0000E+00
    -45.219  0.0000E+00  0.0000E+00  0.0000E+00  0.0000E+00  0.0000E+00  0.0000E+00  0.0000E+00  0.0000E+00  0.0000E+00  0.0000E+00  0.0000E+00  0.0000E+00  0.0000E+00  0.0000E+00  0.0000E+00  0.0000E+00  0.0000E+00  0.0000E+00
    -45.003  0.0000E+00  0.0000E+00  0.0000E+00  0.0000E+00  0.0000E+00  0.0000E+00  0.0000E+00  0.0000E+00  0.0000E+00  0.0000E+00  0.0000E+00  0.0000E+00  0.0000E+00  0.0000E+00  0.0000E+00  0.0000E+00  0.0000E+00  0.0000E+00
    -44.786  0.0000E+00  0.0000E+00  0.0000E+00  0.0000E+00  0.0000E+00  0.0000E+00  0.0000E+00  0.0000E+00  0.0000E+00  0.0000E+00  0.0000E+00  0.0000E+00  0.0000E+00  0.0000E+00  0.0000E+00  0.0000E+00  0.0000E+00  0.0000E+00
    -44.570  0.0000E+00  0.0000E+00  0.0000E+00  0.0000E+00  0.0000E+00  0.0000E+00  0.0000E+00  0.0000E+00  0.0000E+00  0.0000E+00  0.0000E+00  0.0000E+00  0.0000E+00  0.0000E+00  0.0000E+00  0.0000E+00  0.0000E+00  0.0000E+00
    -44.354  0.0000E+00  0.0000E+00  0.0000E+00  0.0000E+00  0.0000E+00  0.0000E+00  0.0000E+00  0.0000E+00  0.0000E+00  0.0000E+00  0.0000E+00  0.0000E+00  0.0000E+00  0.0000E+00  0.0000E+00  0.0000E+00  0.0000E+00  0.0000E+00
    -44.137  0.0000E+00  0.0000E+00  0.0000E+00  0.0000E+00  0.0000E+00  0.0000E+00  0.0000E+00  0.0000E+00  0.0000E+00  0.0000E+00  0.0000E+00  0.0000E+00  0.0000E+00  0.0000E+00  0.0000E+00  0.0000E+00  0.0000E+00  0.0000E+00
    -43.921  0.0000E+00  0.0000E+00  0.0000E+00  0.0000E+00  0.0000E+00  0.0000E+00  0.0000E+00  0.0000E+00  0.0000E+00  0.0000E+00  0.0000E+00  0.0000E+00  0.0000E+00  0.0000E+00  0.0000E+00  0.0000E+00  0.0000E+00  0.0000E+00
    -43.704  0.0000E+00  0.0000E+00  0.0000E+00  0.0000E+00  0.0000E+00  0.0000E+00  0.0000E+00  0.0000E+00  0.0000E+00  0.0000E+00  0.0000E+00  0.0000E+00  0.0000E+00  0.0000E+00  0.0000E+00  0.0000E+00  0.0000E+00  0.0000E+00
    -43.488  0.0000E+00  0.0000E+00  0.0000E+00  0.0000E+00  0.0000E+00  0.0000E+00  0.0000E+00  0.0000E+00  0.0000E+00  0.0000E+00  0.0000E+00  0.0000E+00  0.0000E+00  0.0000E+00  0.0000E+00  0.0000E+00  0.0000E+00  0.0000E+00
    -43.271  0.0000E+00  0.0000E+00  0.0000E+00  0.0000E+00  0.0000E+00  0.0000E+00  0.0000E+00  0.0000E+00  0.0000E+00  0.0000E+00  0.0000E+00  0.0000E+00  0.0000E+00  0.0000E+00  0.0000E+00  0.0000E+00  0.0000E+00  0.0000E+00
    -43.055  0.0000E+00  0.0000E+00  0.0000E+00  0.0000E+00  0.0000E+00  0.0000E+00  0.0000E+00  0.0000E+00  0.0000E+00  0.0000E+00  0.0000E+00  0.0000E+00  0.0000E+00  0.0000E+00  0.0000E+00  0.0000E+00  0.0000E+00  0.0000E+00
    -42.839  0.0000E+00  0.0000E+00  0.0000E+00  0.0000E+00  0.0000E+00  0.0000E+00  0.0000E+00  0.0000E+00  0.0000E+00  0.0000E+00  0.0000E+00  0.0000E+00  0.0000E+00  0.0000E+00  0.0000E+00  0.0000E+00  0.0000E+00  0.0000E+00
    -42.622  0.0000E+00  0.0000E+00  0.0000E+00  0.0000E+00  0.0000E+00  0.0000E+00  0.0000E+00  0.0000E+00  0.0000E+00  0.0000E+00  0.0000E+00  0.0000E+00  0.0000E+00  0.0000E+00  0.0000E+00  0.0000E+00  0.0000E+00  0.0000E+00
    -42.406  0.0000E+00  0.0000E+00  0.0000E+00  0.0000E+00  0.0000E+00  0.0000E+00  0.0000E+00  0.0000E+00  0.0000E+00  0.0000E+00  0.0000E+00  0.0000E+00  0.0000E+00  0.0000E+00  0.0000E+00  0.0000E+00  0.0000E+00  0.0000E+00
    -42.189  0.0000E+00  0.0000E+00  0.0000E+00  0.0000E+00  0.0000E+00  0.0000E+00  0.0000E+00  0.0000E+00  0.0000E+00  0.0000E+00  0.0000E+00  0.0000E+00  0.0000E+00  0.0000E+00  0.0000E+00  0.0000E+00  0.0000E+00  0.0000E+00
    -41.973  0.0000E+00  0.0000E+00  0.0000E+00  0.0000E+00  0.0000E+00  0.0000E+00  0.0000E+00  0.0000E+00  0.0000E+00  0.0000E+00  0.0000E+00  0.0000E+00  0.0000E+00  0.0000E+00  0.0000E+00  0.0000E+00  0.0000E+00  0.0000E+00
    -41.756  0.0000E+00  0.0000E+00  0.0000E+00  0.0000E+00  0.0000E+00  0.0000E+00  0.0000E+00  0.0000E+00  0.0000E+00  0.0000E+00  0.0000E+00  0.0000E+00  0.0000E+00  0.0000E+00  0.0000E+00  0.0000E+00  0.0000E+00  0.0000E+00
    -41.540  0.0000E+00  0.0000E+00  0.0000E+00  0.0000E+00  0.0000E+00  0.0000E+00  0.0000E+00  0.0000E+00  0.0000E+00  0.0000E+00  0.0000E+00  0.0000E+00  0.0000E+00  0.0000E+00  0.0000E+00  0.0000E+00  0.0000E+00  0.0000E+00
    -41.324  0.0000E+00  0.0000E+00  0.0000E+00  0.0000E+00  0.0000E+00  0.0000E+00  0.0000E+00  0.0000E+00  0.0000E+00  0.0000E+00  0.0000E+00  0.0000E+00  0.0000E+00  0.0000E+00  0.0000E+00  0.0000E+00  0.0000E+00  0.0000E+00
    -41.107  0.0000E+00  0.0000E+00  0.0000E+00  0.0000E+00  0.0000E+00  0.0000E+00  0.0000E+00  0.0000E+00  0.0000E+00  0.0000E+00  0.0000E+00  0.0000E+00  0.0000E+00  0.0000E+00  0.0000E+00  0.0000E+00  0.0000E+00  0.0000E+00
    -40.891  0.0000E+00  0.0000E+00  0.0000E+00  0.0000E+00  0.0000E+00  0.0000E+00  0.0000E+00  0.0000E+00  0.0000E+00  0.0000E+00  0.0000E+00  0.0000E+00  0.0000E+00  0.0000E+00  0.0000E+00  0.0000E+00  0.0000E+00  0.0000E+00
    -40.674  0.0000E+00  0.0000E+00  0.0000E+00  0.0000E+00  0.0000E+00  0.0000E+00  0.0000E+00  0.0000E+00  0.0000E+00  0.0000E+00  0.0000E+00  0.0000E+00  0.0000E+00  0.0000E+00  0.0000E+00  0.0000E+00  0.0000E+00  0.0000E+00
    -40.458  0.0000E+00  0.0000E+00  0.0000E+00  0.0000E+00  0.0000E+00  0.0000E+00  0.0000E+00  0.0000E+00  0.0000E+00  0.0000E+00  0.0000E+00  0.0000E+00  0.0000E+00  0.0000E+00  0.0000E+00  0.0000E+00  0.0000E+00  0.0000E+00
    -40.242  0.0000E+00  0.0000E+00  0.0000E+00  0.0000E+00  0.0000E+00  0.0000E+00  0.0000E+00  0.0000E+00  0.0000E+00  0.0000E+00  0.0000E+00  0.0000E+00  0.0000E+00  0.0000E+00  0.0000E+00  0.0000E+00  0.0000E+00  0.0000E+00
    -40.025  0.0000E+00  0.0000E+00  0.0000E+00  0.0000E+00  0.0000E+00  0.0000E+00  0.0000E+00  0.0000E+00  0.0000E+00  0.0000E+00  0.0000E+00  0.0000E+00  0.0000E+00  0.0000E+00  0.0000E+00  0.0000E+00  0.0000E+00  0.0000E+00
    -39.809  0.0000E+00  0.0000E+00  0.0000E+00  0.0000E+00  0.0000E+00  0.0000E+00  0.0000E+00  0.0000E+00  0.0000E+00  0.0000E+00  0.0000E+00  0.0000E+00  0.0000E+00  0.0000E+00  0.0000E+00  0.0000E+00  0.0000E+00  0.0000E+00
    -39.592  0.0000E+00  0.0000E+00  0.0000E+00  0.0000E+00  0.0000E+00  0.0000E+00  0.0000E+00  0.0000E+00  0.0000E+00  0.0000E+00  0.0000E+00  0.0000E+00  0.0000E+00  0.0000E+00  0.0000E+00  0.0000E+00  0.0000E+00  0.0000E+00
    -39.376  0.0000E+00  0.0000E+00  0.0000E+00  0.0000E+00  0.0000E+00  0.0000E+00  0.0000E+00  0.0000E+00  0.0000E+00  0.0000E+00  0.0000E+00  0.0000E+00  0.0000E+00  0.0000E+00  0.0000E+00  0.0000E+00  0.0000E+00  0.0000E+00
    -39.159  0.0000E+00  0.0000E+00  0.0000E+00  0.0000E+00  0.0000E+00  0.0000E+00  0.0000E+00  0.0000E+00  0.0000E+00  0.0000E+00  0.0000E+00  0.0000E+00  0.0000E+00  0.0000E+00  0.0000E+00  0.0000E+00  0.0000E+00  0.0000E+00
    -38.943  0.0000E+00  0.0000E+00  0.0000E+00  0.0000E+00  0.0000E+00  0.0000E+00  0.0000E+00  0.0000E+00  0.0000E+00  0.0000E+00  0.0000E+00  0.0000E+00  0.0000E+00  0.0000E+00  0.0000E+00  0.0000E+00  0.0000E+00  0.0000E+00
    -38.727  0.0000E+00  0.0000E+00  0.0000E+00  0.0000E+00  0.0000E+00  0.0000E+00  0.0000E+00  0.0000E+00  0.0000E+00  0.0000E+00  0.0000E+00  0.0000E+00  0.0000E+00  0.0000E+00  0.0000E+00  0.0000E+00  0.0000E+00  0.0000E+00
    -38.510  0.0000E+00  0.0000E+00  0.0000E+00  0.0000E+00  0.0000E+00  0.0000E+00  0.0000E+00  0.0000E+00  0.0000E+00  0.0000E+00  0.0000E+00  0.0000E+00  0.0000E+00  0.0000E+00  0.0000E+00  0.0000E+00  0.0000E+00  0.0000E+00