       N       E                     dE             d eps       ncg     rms          rms(c)
DAV:   1     0.130864439807E+04    0.13086E+04   -0.51862E+04  5688   0.134E+03
DAV:   2     0.978380020465E+02   -0.12108E+04   -0.11701E+04  7625   0.356E+02
DAV:   3    -0.551319222505E+02   -0.15297E+03   -0.15182E+03  7104   0.143E+02
DAV:   4    -0.594350622000E+02   -0.43031E+01   -0.42893E+01  7008   0.297E+01
DAV:   5    -0.596739290217E+02   -0.23887E+00   -0.23882E+00  8640   0.575E+00    0.294E+01
DAV:   6    -0.594246506109E+02    0.24928E+00   -0.99661E+00  5927   0.115E+01    0.156E+01
DAV:   7    -0.606125178182E+02   -0.11879E+01   -0.21176E+00  6144   0.577E+00    0.815E+00
DAV:   8    -0.607683750883E+02   -0.15586E+00   -0.62525E-01  6192   0.246E+00    0.280E+00
DAV:   9    -0.607950725194E+02   -0.26697E-01   -0.73265E-02  6392   0.102E+00    0.127E+00
DAV:  10    -0.608031601432E+02   -0.80876E-02   -0.83010E-03  7115   0.398E-01    0.327E-01
DAV:  11    -0.608053340273E+02   -0.21739E-02   -0.28763E-03  6032   0.213E-01    0.171E-01
DAV:  12    -0.608058189017E+02   -0.48487E-03   -0.91726E-04  5798   0.136E-01    0.835E-02
DAV:  13    -0.608060097884E+02   -0.19089E-03   -0.18297E-04  5968   0.671E-02    0.326E-02
DAV:  14    -0.608060621542E+02   -0.52366E-04   -0.52120E-05  6269   0.305E-02    0.189E-02
DAV:  15    -0.608060761367E+02   -0.13982E-04   -0.18590E-05  6144   0.173E-02    0.647E-03
DAV:  16    -0.608060771294E+02   -0.99276E-06   -0.19137E-06  4773   0.687E-03
   1 F= -.65247805E+02 E0= -.65247805E+02  d E =-.652478E+02  mag=    -0.0002
       N       E                     dE             d eps       ncg     rms          rms(c)
DAV:   1    -0.224323353188E+03   -0.16352E+03   -0.48504E+03  6086   0.391E+02    0.130E+02
DAV:   2    -0.665869518919E+02    0.15774E+03   -0.42833E+02  6596   0.172E+02    0.408E+01
DAV:   3    -0.517983225359E+02    0.14789E+02   -0.10166E+02  6519   0.404E+01    0.111E+01
DAV:   4    -0.507807223002E+02    0.10176E+01   -0.49509E+00  7639   0.101E+01    0.886E+00
DAV:   5    -0.506588959444E+02    0.12183E+00   -0.64961E-01  7509   0.421E+00    0.607E+00
DAV:   6    -0.506924056221E+02   -0.33510E-01   -0.14703E-01  8794   0.143E+00    0.295E+00
DAV:   7    -0.506989758558E+02   -0.65702E-02   -0.16157E-02  7292   0.533E-01    0.586E-01
DAV:   8    -0.506988111913E+02    0.16466E-03   -0.26276E-03  6671   0.233E-01    0.380E-01
DAV:   9    -0.506988875382E+02   -0.76347E-04   -0.23006E-04  8778   0.689E-02    0.158E-01
DAV:  10    -0.506988879173E+02   -0.37908E-06   -0.22502E-05  7637   0.195E-02    0.966E-02
DAV:  11    -0.506988861989E+02    0.17184E-05   -0.30807E-06  5272   0.842E-03    0.339E-02
DAV:  12    -0.506988849428E+02    0.12560E-05   -0.52828E-07  3784   0.318E-03    0.204E-02
DAV:  13    -0.506988845820E+02    0.36084E-06   -0.18493E-07  3640   0.227E-03
   2 F= -.57703630E+02 E0= -.57703630E+02  d E =0.754417E+01  mag=    -0.0000
       N       E                     dE             d eps       ncg     rms          rms(c)
DAV:   1    -0.120151100311E+03   -0.69452E+02   -0.21690E+03  6072   0.328E+02    0.602E+01
DAV:   2    -0.753471400367E+02    0.44804E+02   -0.12172E+02  6446   0.667E+01    0.276E+01
DAV:   3    -0.641178922200E+02    0.11229E+02   -0.43991E+01  6204   0.352E+01    0.420E+00
DAV:   4    -0.637401812427E+02    0.37771E+00   -0.22776E+00  6768   0.730E+00    0.240E+00
DAV:   5    -0.636372233127E+02    0.10296E+00   -0.12283E-01  7768   0.175E+00    0.126E+00
DAV:   6    -0.636057679713E+02    0.31455E-01   -0.39304E-02  7530   0.109E+00    0.512E-01
DAV:   7    -0.636011475035E+02    0.46205E-02   -0.72333E-03  7856   0.472E-01    0.246E-01
DAV:   8    -0.636008410468E+02    0.30646E-03   -0.76708E-04  7519   0.145E-01    0.112E-01
DAV:   9    -0.636008111997E+02    0.29847E-04   -0.16759E-04  8032   0.718E-02    0.353E-02
DAV:  10    -0.636008136458E+02   -0.24461E-05   -0.16670E-05  7107   0.189E-02    0.159E-02
DAV:  11    -0.636008129266E+02    0.71925E-06   -0.41310E-06  5845   0.101E-02
   3 F= -.68776014E+02 E0= -.68776014E+02  d E =-.352821E+01  mag=     0.0000
       N       E                     dE             d eps       ncg     rms          rms(c)
DAV:   1    -0.636313062507E+02   -0.30493E-01   -0.21341E+00  5884   0.912E+00    0.226E+00
DAV:   2    -0.635741129690E+02    0.57193E-01   -0.13886E-01  6307   0.220E+00    0.909E-01
DAV:   3    -0.635660463306E+02    0.80666E-02   -0.55494E-02  6329   0.104E+00    0.189E-01
DAV:   4    -0.635658049973E+02    0.24133E-03   -0.19915E-03  6536   0.258E-01    0.134E-01
DAV:   5    -0.635657919164E+02    0.13081E-04   -0.19204E-04  7162   0.443E-02    0.904E-02
DAV:   6    -0.635658002456E+02   -0.83291E-05   -0.11869E-04  7050   0.633E-02    0.182E-02
DAV:   7    -0.635658072770E+02   -0.70314E-05   -0.11181E-05  6756   0.166E-02    0.105E-02
DAV:   8    -0.635658072243E+02    0.52707E-07   -0.46692E-07  3395   0.296E-03
   4 F= -.68789436E+02 E0= -.68789436E+02  d E =-.354163E+01  mag=    -0.0000
       N       E                     dE             d eps       ncg     rms          rms(c)
DAV:   1    -0.643992677071E+02   -0.83346E+00   -0.57184E+01  5400   0.343E+01    0.827E+00
DAV:   2    -0.641974024261E+02    0.20187E+00   -0.41719E+00  6570   0.957E+00    0.271E+00
DAV:   3    -0.641147397108E+02    0.82663E-01   -0.26761E-01  6740   0.250E+00    0.179E+00
DAV:   4    -0.641082961139E+02    0.64436E-02   -0.37903E-02  7888   0.597E-01    0.113E+00
DAV:   5    -0.641078125409E+02    0.48357E-03   -0.10275E-02  7404   0.315E-01    0.312E-01
DAV:   6    -0.641075570638E+02    0.25548E-03   -0.13926E-03  7530   0.127E-01    0.845E-02
DAV:   7    -0.641075750685E+02   -0.18005E-04   -0.66198E-05  6818   0.317E-02    0.416E-02
DAV:   8    -0.641075726626E+02    0.24059E-05   -0.68280E-06  6461   0.100E-02    0.165E-02
DAV:   9    -0.641075726060E+02    0.56589E-07   -0.82637E-07  3978   0.375E-03
   5 F= -.69462927E+02 E0= -.69462927E+02  d E =-.673490E+00  mag=    -0.0000
       N       E                     dE             d eps       ncg     rms          rms(c)
DAV:   1    -0.642981467509E+02   -0.19057E+00   -0.32067E+01  5400   0.259E+01    0.568E+00
DAV:   2    -0.641814855570E+02    0.11666E+00   -0.22412E+00  6586   0.714E+00    0.197E+00
DAV:   3    -0.641336610588E+02    0.47824E-01   -0.16166E-01  6668   0.197E+00    0.970E-01
DAV:   4    -0.641310905137E+02    0.25705E-02   -0.19754E-02  7370   0.435E-01    0.699E-01
DAV:   5    -0.641308823747E+02    0.20814E-03   -0.32020E-03  7622   0.173E-01    0.105E-01
DAV:   6    -0.641308870081E+02   -0.46334E-05   -0.26378E-04  6706   0.798E-02    0.363E-02
DAV:   7    -0.641308958321E+02   -0.88240E-05   -0.24284E-05  7052   0.225E-02    0.248E-02
DAV:   8    -0.641308945873E+02    0.12448E-05   -0.46020E-06  5450   0.790E-03    0.544E-03
DAV:   9    -0.641308952473E+02   -0.66002E-06   -0.36321E-07  3698   0.298E-03
   6 F= -.69586925E+02 E0= -.69586925E+02  d E =-.797489E+00  mag=     0.0000
       N       E                     dE             d eps       ncg     rms          rms(c)
DAV:   1    -0.641402195710E+02   -0.93250E-02   -0.17651E-01  5430   0.193E+00    0.413E-01
DAV:   2    -0.641396144274E+02    0.60514E-03   -0.11639E-02  6554   0.521E-01    0.159E-01
DAV:   3    -0.641393563292E+02    0.25810E-03   -0.80398E-04  6708   0.141E-01    0.572E-02
DAV:   4    -0.641393286718E+02    0.27657E-04   -0.12360E-04  7380   0.385E-02    0.301E-02
DAV:   5    -0.641393261833E+02    0.24885E-05   -0.12153E-05  7006   0.108E-02    0.127E-02
DAV:   6    -0.641393255376E+02    0.64572E-06   -0.79324E-07  3992   0.540E-03
   7 F= -.69587812E+02 E0= -.69587812E+02  d E =-.798375E+00  mag=    -0.0000
       N       E                     dE             d eps       ncg     rms          rms(c)
DAV:   1    -0.643320313591E+02   -0.19271E+00   -0.17111E+01  5602   0.235E+01    0.479E+00
DAV:   2    -0.640841849973E+02    0.24785E+00   -0.80522E-01  6287   0.516E+00    0.201E+00
DAV:   3    -0.640426763175E+02    0.41509E-01   -0.21242E-01  6430   0.221E+00    0.365E-01
DAV:   4    -0.640414931723E+02    0.11831E-02   -0.93142E-03  6940   0.573E-01    0.281E-01
DAV:   5    -0.640412612158E+02    0.23196E-03   -0.15743E-03  7706   0.116E-01    0.165E-01
DAV:   6    -0.640413153324E+02   -0.54117E-04   -0.25619E-04  7048   0.911E-02    0.368E-02
DAV:   7    -0.640413326639E+02   -0.17331E-04   -0.44022E-05  6938   0.205E-02    0.157E-02
DAV:   8    -0.640413338300E+02   -0.11662E-05   -0.29798E-06  5157   0.796E-03    0.861E-03
DAV:   9    -0.640413334163E+02    0.41371E-06   -0.63016E-07  3276   0.358E-03
   8 F= -.69600693E+02 E0= -.69600693E+02  d E =-.128813E-01  mag=    -0.0000
       N       E                     dE             d eps       ncg     rms          rms(c)
DAV:   1    -0.641195014854E+02   -0.78168E-01   -0.20866E+00  5568   0.826E+00    0.163E+00
DAV:   2    -0.640904274678E+02    0.29074E-01   -0.96017E-02  6335   0.179E+00    0.692E-01
DAV:   3    -0.640852600791E+02    0.51674E-02   -0.24625E-02  6384   0.765E-01    0.118E-01
DAV:   4    -0.640850926573E+02    0.16742E-03   -0.10958E-03  6844   0.195E-01    0.886E-02
DAV:   5    -0.640850420926E+02    0.50565E-04   -0.18723E-04  7534   0.401E-02    0.530E-02
DAV:   6    -0.640850357413E+02    0.63514E-05   -0.28785E-05  7064   0.304E-02    0.125E-02
DAV:   7    -0.640850331254E+02    0.26158E-05   -0.52754E-06  6078   0.715E-03    0.549E-03
DAV:   8    -0.640850326013E+02    0.52416E-06   -0.32134E-07  3154   0.270E-03
   9 F= -.69605654E+02 E0= -.69605654E+02  d E =-.178425E-01  mag=    -0.0000
       N       E                     dE             d eps       ncg     rms          rms(c)
DAV:   1    -0.640925978345E+02   -0.75647E-02   -0.11538E+01  5688   0.133E+01    0.640E-01
DAV:   2    -0.641064280586E+02   -0.13830E-01   -0.14806E-01  6608   0.178E+00    0.280E-01
DAV:   3    -0.641062549926E+02    0.17307E-03   -0.23841E-03  7624   0.224E-01    0.213E-01
DAV:   4    -0.641060332520E+02    0.22174E-03   -0.10368E-03  6528   0.146E-01    0.752E-02
DAV:   5    -0.641060482667E+02   -0.15015E-04   -0.18563E-04  6610   0.489E-02    0.215E-02
DAV:   6    -0.641060474756E+02    0.79115E-06   -0.98880E-06  6930   0.147E-02
  10 F= -.69625208E+02 E0= -.69625208E+02  d E =-.195536E-01  mag=     0.0000
       N       E                     dE             d eps       ncg     rms          rms(c)
DAV:   1    -0.640117597091E+02    0.94289E-01   -0.10494E+02  5912   0.404E+01    0.205E+00
DAV:   2    -0.641495604178E+02   -0.13780E+00   -0.14672E+00  6592   0.573E+00    0.910E-01
DAV:   3    -0.641478468519E+02    0.17136E-02   -0.21296E-02  7512   0.686E-01    0.699E-01
DAV:   4    -0.641457265417E+02    0.21203E-02   -0.94128E-03  6200   0.436E-01    0.229E-01
DAV:   5    -0.641458720654E+02   -0.14552E-03   -0.17657E-03  7400   0.156E-01    0.713E-02
DAV:   6    -0.641458744943E+02   -0.24289E-05   -0.91611E-05  7370   0.422E-02    0.439E-02
DAV:   7    -0.641458654313E+02    0.90630E-05   -0.25919E-05  6274   0.230E-02    0.276E-02
DAV:   8    -0.641458652301E+02    0.20118E-06   -0.65424E-06  5280   0.806E-03
  11 F= -.69660769E+02 E0= -.69660769E+02  d E =-.551143E-01  mag=    -0.0000
       N       E                     dE             d eps       ncg     rms          rms(c)
DAV:   1    -0.634880605754E+02    0.65780E+00   -0.43428E+02  5912   0.834E+01    0.498E+00
DAV:   2    -0.641398229866E+02   -0.65176E+00   -0.68822E+00  6612   0.120E+01    0.214E+00
DAV:   3    -0.641383920873E+02    0.14309E-02   -0.12370E-01  7654   0.147E+00    0.171E+00
DAV:   4    -0.641298933026E+02    0.84988E-02   -0.27782E-02  6280   0.793E-01    0.704E-01
DAV:   5    -0.641302417240E+02   -0.34842E-03   -0.55819E-03  7176   0.245E-01    0.200E-01
DAV:   6    -0.641302155076E+02    0.26216E-04   -0.21335E-04  7634   0.743E-02    0.952E-02
DAV:   7    -0.641301658087E+02    0.49699E-04   -0.16372E-04  6451   0.659E-02    0.433E-02
DAV:   8    -0.641301659969E+02   -0.18820E-06   -0.35342E-05  6872   0.181E-02    0.673E-03
DAV:   9    -0.641301658479E+02    0.14903E-06   -0.13725E-06  3818   0.651E-03
  12 F= -.69637123E+02 E0= -.69637123E+02  d E =-.314684E-01  mag=     0.0000
       N       E                     dE             d eps       ncg     rms          rms(c)
DAV:   1    -0.639033760762E+02    0.22679E+00   -0.19501E+02  5912   0.549E+01    0.307E+00
DAV:   2    -0.641586528355E+02   -0.25528E+00   -0.27874E+00  6620   0.790E+00    0.116E+00
DAV:   3    -0.641568769392E+02    0.17759E-02   -0.41238E-02  7414   0.889E-01    0.876E-01
DAV:   4    -0.641539134961E+02    0.29634E-02   -0.13913E-02  6344   0.490E-01    0.320E-01
DAV:   5    -0.641542060193E+02   -0.29252E-03   -0.28014E-03  7220   0.169E-01    0.833E-02
DAV:   6    -0.641541938375E+02    0.12182E-04   -0.88573E-05  7482   0.426E-02    0.558E-02
DAV:   7    -0.641541804510E+02    0.13386E-04   -0.78774E-05  6722   0.378E-02    0.209E-02
DAV:   8    -0.641541814241E+02   -0.97312E-06   -0.15578E-05  6098   0.156E-02    0.242E-03
DAV:   9    -0.641541815691E+02   -0.14491E-06   -0.40676E-07  3575   0.355E-03
  13 F= -.69666462E+02 E0= -.69666462E+02  d E =-.608082E-01  mag=    -0.0000
       N       E                     dE             d eps       ncg     rms          rms(c)
DAV:   1    -0.641371072790E+02    0.17074E-01   -0.17409E+01  5688   0.167E+01    0.103E+00
DAV:   2    -0.641449414564E+02   -0.78342E-02   -0.17263E-01  6498   0.217E+00    0.517E-01
DAV:   3    -0.641431018355E+02    0.18396E-02   -0.85647E-03  7472   0.442E-01    0.210E-01
DAV:   4    -0.641428139025E+02    0.28793E-03   -0.65478E-04  7435   0.944E-02    0.814E-02
DAV:   5    -0.641427829397E+02    0.30963E-04   -0.96780E-05  7616   0.388E-02    0.272E-02
DAV:   6    -0.641427863903E+02   -0.34506E-05   -0.76938E-06  6702   0.141E-02    0.133E-02
DAV:   7    -0.641427886459E+02   -0.22555E-05   -0.12851E-06  3722   0.642E-03    0.283E-03
DAV:   8    -0.641427891219E+02   -0.47602E-06   -0.38065E-07  3304   0.305E-03
  14 F= -.69671817E+02 E0= -.69671817E+02  d E =-.535488E-02  mag=     0.0000
       N       E                     dE             d eps       ncg     rms          rms(c)
DAV:   1    -0.641421898571E+02    0.59879E-03   -0.22167E-02  5718   0.598E-01    0.347E-02
DAV:   2    -0.641422008701E+02   -0.11013E-04   -0.21289E-04  6568   0.759E-02    0.187E-02
DAV:   3    -0.641421983183E+02    0.25518E-05   -0.71497E-06  6541   0.147E-02    0.855E-03
DAV:   4    -0.641421980896E+02    0.22874E-06   -0.17694E-06  3918   0.579E-03
  15 F= -.69671826E+02 E0= -.69671826E+02  d E =-.536342E-02  mag=     0.0000
       N       E                     dE             d eps       ncg     rms          rms(c)
DAV:   1    -0.641544528349E+02   -0.12255E-01   -0.45628E+00  5700   0.851E+00    0.429E-01
DAV:   2    -0.641567539371E+02   -0.23011E-02   -0.45710E-02  6384   0.110E+00    0.249E-01
DAV:   3    -0.641562036050E+02    0.55033E-03   -0.17550E-03  7008   0.224E-01    0.103E-01
DAV:   4    -0.641561309318E+02    0.72673E-04   -0.24610E-04  7316   0.668E-02    0.377E-02
DAV:   5    -0.641561252774E+02    0.56544E-05   -0.19031E-05  7887   0.172E-02    0.141E-02
DAV:   6    -0.641561234418E+02    0.18355E-05   -0.30057E-06  4985   0.626E-03    0.716E-03
DAV:   7    -0.641561224441E+02    0.99770E-06   -0.66450E-07  3259   0.518E-03
  16 F= -.69675438E+02 E0= -.69675438E+02  d E =-.361183E-02  mag=    -0.0000
       N       E                     dE             d eps       ncg     rms          rms(c)
DAV:   1    -0.641685551350E+02   -0.12432E-01   -0.41428E+01  5528   0.258E+01    0.121E+00
DAV:   2    -0.641959624941E+02   -0.27407E-01   -0.46165E-01  6368   0.335E+00    0.742E-01
DAV:   3    -0.641919743609E+02    0.39881E-02   -0.20207E-02  7344   0.687E-01    0.377E-01
DAV:   4    -0.641908613185E+02    0.11130E-02   -0.34486E-03  7194   0.288E-01    0.109E-01
DAV:   5    -0.641908369509E+02    0.24368E-04   -0.24765E-04  7400   0.744E-02    0.453E-02
DAV:   6    -0.641908280095E+02    0.89414E-05   -0.48137E-05  6726   0.235E-02    0.243E-02
DAV:   7    -0.641908258149E+02    0.21946E-05   -0.99840E-06  6538   0.183E-02    0.531E-03
DAV:   8    -0.641908246622E+02    0.11527E-05   -0.18019E-06  4008   0.801E-03    0.186E-03
DAV:   9    -0.641908248503E+02   -0.18808E-06   -0.20066E-07  3112   0.220E-03
  17 F= -.69679382E+02 E0= -.69679382E+02  d E =-.755656E-02  mag=     0.0000
       N       E                     dE             d eps       ncg     rms          rms(c)
DAV:   1    -0.641895590156E+02    0.12656E-02   -0.51545E+00  5576   0.861E+00    0.264E-01
DAV:   2    -0.641932444558E+02   -0.36854E-02   -0.39595E-02  6297   0.922E-01    0.110E-01
DAV:   3    -0.641932634536E+02   -0.18998E-04   -0.72800E-04  8162   0.117E-01    0.813E-02
DAV:   4    -0.641932415405E+02    0.21913E-04   -0.10043E-04  6372   0.463E-02    0.336E-02
DAV:   5    -0.641932448207E+02   -0.32802E-05   -0.22022E-05  6538   0.172E-02    0.110E-02
DAV:   6    -0.641932443122E+02    0.50849E-06   -0.24978E-06  4676   0.777E-03
  18 F= -.69682545E+02 E0= -.69682545E+02  d E =-.316271E-02  mag=    -0.0000
       N       E                     dE             d eps       ncg     rms          rms(c)
DAV:   1    -0.641619121356E+02    0.31333E-01   -0.46561E+01  5560   0.260E+01    0.865E-01
DAV:   2    -0.641992366377E+02   -0.37325E-01   -0.40998E-01  6285   0.308E+00    0.330E-01
DAV:   3    -0.641995501004E+02   -0.31346E-03   -0.86219E-03  7586   0.375E-01    0.259E-01
DAV:   4    -0.641992737091E+02    0.27639E-03   -0.13930E-03  6551   0.190E-01    0.995E-02
DAV:   5    -0.641993070457E+02   -0.33337E-04   -0.22341E-04  7271   0.585E-02    0.407E-02
DAV:   6    -0.641992933841E+02    0.13662E-04   -0.32759E-05  7112   0.305E-02    0.206E-02
DAV:   7    -0.641992916908E+02    0.16933E-05   -0.20062E-05  7208   0.205E-02    0.387E-03
DAV:   8    -0.641992917484E+02   -0.57631E-07   -0.16282E-06  3668   0.652E-03
  19 F= -.69690845E+02 E0= -.69690845E+02  d E =-.114627E-01  mag=     0.0000
       N       E                     dE             d eps       ncg     rms          rms(c)
DAV:   1    -0.640169275182E+02    0.18236E+00   -0.18900E+02  5505   0.530E+01    0.187E+00
DAV:   2    -0.642009371995E+02   -0.18401E+00   -0.20202E+00  6285   0.662E+00    0.651E-01
DAV:   3    -0.642064472776E+02   -0.55101E-02   -0.68590E-02  7911   0.861E-01    0.564E-01
DAV:   4    -0.642054169582E+02    0.10303E-02   -0.39896E-03  6960   0.327E-01    0.302E-01
DAV:   5    -0.642053365068E+02    0.80451E-04   -0.20140E-03  6898   0.236E-01    0.948E-02
DAV:   6    -0.642053156687E+02    0.20838E-04   -0.40947E-04  7800   0.909E-02    0.600E-02
DAV:   7    -0.642053060805E+02    0.95882E-05   -0.31659E-05  7393   0.304E-02    0.371E-02
DAV:   8    -0.642053036772E+02    0.24033E-05   -0.93903E-06  6149   0.128E-02    0.126E-02
DAV:   9    -0.642053038323E+02   -0.15513E-06   -0.11090E-06  3764   0.636E-03
  20 F= -.69701467E+02 E0= -.69701467E+02  d E =-.220846E-01  mag=    -0.0000
       N       E                     dE             d eps       ncg     rms          rms(c)
DAV:   1    -0.631056734236E+02    0.10996E+01   -0.80612E+02  5400   0.115E+02    0.405E+00
DAV:   2    -0.641608427216E+02   -0.10552E+01   -0.11223E+01  6226   0.140E+01    0.134E+00
DAV:   3    -0.641982399901E+02   -0.37397E-01   -0.39229E-01  8144   0.203E+00    0.115E+00
DAV:   4    -0.641952576282E+02    0.29824E-02   -0.13673E-02  6742   0.675E-01    0.720E-01
DAV:   5    -0.641946497615E+02    0.60787E-03   -0.91508E-03  6668   0.533E-01    0.221E-01
DAV:   6    -0.641946840849E+02   -0.34323E-04   -0.15676E-03  7528   0.166E-01    0.133E-01
DAV:   7    -0.641945691373E+02    0.11495E-03   -0.54882E-04  7033   0.145E-01    0.497E-02
DAV:   8    -0.641945713522E+02   -0.22149E-05   -0.53310E-05  6666   0.307E-02    0.172E-02
DAV:   9    -0.641945706828E+02    0.66941E-06   -0.33739E-06  5185   0.125E-02
  21 F= -.69700391E+02 E0= -.69700391E+02  d E =-.210081E-01  mag=     0.0000
       N       E                     dE             d eps       ncg     rms          rms(c)
DAV:   1    -0.639247558797E+02    0.26982E+00   -0.22531E+02  5406   0.635E+01    0.186E+00
DAV:   2    -0.641950688585E+02   -0.27031E+00   -0.28438E+00  6316   0.835E+00    0.883E-01
DAV:   3    -0.642074518764E+02   -0.12383E-01   -0.14659E-01  7920   0.116E+00    0.815E-01
DAV:   4    -0.642052402750E+02    0.22116E-02   -0.45001E-03  6882   0.417E-01    0.556E-01
DAV:   5    -0.642043456053E+02    0.89467E-03   -0.10651E-02  6512   0.837E-01    0.216E-01
DAV:   6    -0.642042218760E+02    0.12373E-03   -0.14971E-03  6618   0.248E-01    0.961E-02
DAV:   7    -0.642041945008E+02    0.27375E-04   -0.23500E-04  7642   0.794E-02    0.408E-02
DAV:   8    -0.642041957290E+02   -0.12282E-05   -0.66389E-06  5918   0.124E-02    0.271E-02
DAV:   9    -0.642041943684E+02    0.13606E-05   -0.60005E-06  5548   0.137E-02    0.921E-03
DAV:  10    -0.642041943752E+02   -0.68067E-08   -0.89619E-07  3272   0.406E-03
  22 F= -.69704687E+02 E0= -.69704687E+02  d E =-.253048E-01  mag=     0.0000
       N       E                     dE             d eps       ncg     rms          rms(c)
DAV:   1    -0.642009832744E+02    0.32111E-02   -0.57187E+00  5400   0.102E+01    0.841E-01
DAV:   2    -0.642038598619E+02   -0.28766E-02   -0.81061E-02  6666   0.137E+00    0.414E-01
DAV:   3    -0.642022816291E+02    0.15782E-02   -0.22480E-03  7152   0.268E-01    0.224E-01
DAV:   4    -0.642018278756E+02    0.45375E-03   -0.10838E-03  7182   0.138E-01    0.718E-02
DAV:   5    -0.642018184516E+02    0.94240E-05   -0.13451E-04  6458   0.587E-02    0.362E-02
DAV:   6    -0.642018186351E+02   -0.18350E-06   -0.11117E-05  7092   0.159E-02    0.169E-02
DAV:   7    -0.642018190231E+02   -0.38798E-06   -0.10358E-06  3650   0.539E-03
  23 F= -.69711233E+02 E0= -.69711233E+02  d E =-.654548E-02  mag=     0.0000
       N       E                     dE             d eps       ncg     rms          rms(c)
DAV:   1    -0.641968162183E+02    0.50024E-02   -0.23165E+00  5400   0.650E+00    0.534E-01
DAV:   2    -0.641979975744E+02   -0.11814E-02   -0.32905E-02  6666   0.880E-01    0.264E-01
DAV:   3    -0.641973472734E+02    0.65030E-03   -0.87994E-04  6960   0.166E-01    0.144E-01
DAV:   4    -0.641971572255E+02    0.19005E-03   -0.47834E-04  6886   0.963E-02    0.444E-02
DAV:   5    -0.641971546247E+02    0.26008E-05   -0.65349E-05  6244   0.418E-02    0.236E-02
DAV:   6    -0.641971544327E+02    0.19203E-06   -0.49751E-06  6302   0.113E-02
  24 F= -.69712279E+02 E0= -.69712279E+02  d E =-.759225E-02  mag=    -0.0000
       N       E                     dE             d eps       ncg     rms          rms(c)
DAV:   1    -0.641872412409E+02    0.99134E-02   -0.12076E+00  5452   0.610E+00    0.116E+00
DAV:   2    -0.641732402195E+02    0.14001E-01   -0.56176E-02  6252   0.133E+00    0.509E-01
DAV:   3    -0.641705958689E+02    0.26444E-02   -0.10704E-02  6628   0.508E-01    0.974E-02
DAV:   4    -0.641705153775E+02    0.80491E-04   -0.43654E-04  7326   0.112E-01    0.679E-02
DAV:   5    -0.641705054775E+02    0.99001E-05   -0.91116E-05  7389   0.254E-02    0.395E-02
DAV:   6    -0.641705144587E+02   -0.89812E-05   -0.16455E-05  7402   0.235E-02    0.957E-03
DAV:   7    -0.641705173776E+02   -0.29189E-05   -0.17184E-06  4270   0.465E-03    0.331E-03
DAV:   8    -0.641705177148E+02   -0.33719E-06   -0.31428E-07  3080   0.260E-03
  25 F= -.69712881E+02 E0= -.69712881E+02  d E =-.601984E-03  mag=     0.0000
       N       E                     dE             d eps       ncg     rms          rms(c)
DAV:   1    -0.641831383013E+02   -0.12621E-01   -0.16418E-01  5470   0.225E+00    0.424E-01
DAV:   2    -0.641812555482E+02    0.18828E-02   -0.76166E-03  6262   0.488E-01    0.188E-01
DAV:   3    -0.641808927897E+02    0.36276E-03   -0.14282E-03  6614   0.186E-01    0.362E-02
DAV:   4    -0.641808769220E+02    0.15868E-04   -0.58120E-05  7188   0.406E-02    0.242E-02
DAV:   5    -0.641808712070E+02    0.57150E-05   -0.12578E-05  6949   0.967E-03    0.138E-02
DAV:   6    -0.641808688513E+02    0.23557E-05   -0.14786E-06  3772   0.799E-03    0.298E-03
DAV:   7    -0.641808681142E+02    0.73713E-06   -0.50627E-07  2967   0.353E-03
  26 F= -.69713188E+02 E0= -.69713188E+02  d E =-.908844E-03  mag=    -0.0000
       N       E                     dE             d eps       ncg     rms          rms(c)
DAV:   1    -0.641826785748E+02   -0.18097E-02   -0.28899E-01  5400   0.238E+00    0.329E-01
DAV:   2    -0.641831112055E+02   -0.43263E-03   -0.10245E-02  6762   0.435E-01    0.166E-01
DAV:   3    -0.641829122074E+02    0.19900E-03   -0.22158E-04  7028   0.715E-02    0.105E-01
DAV:   4    -0.641828078953E+02    0.10431E-03   -0.19700E-04  6336   0.603E-02    0.164E-02
DAV:   5    -0.641828082106E+02   -0.31531E-06   -0.28888E-05  5524   0.195E-02    0.140E-02
DAV:   6    -0.641828076058E+02    0.60483E-06   -0.21701E-06  4444   0.580E-03
  27 F= -.69714260E+02 E0= -.69714260E+02  d E =-.107125E-02  mag=    -0.0000
       N       E                     dE             d eps       ncg     rms          rms(c)
DAV:   1    -0.641837139787E+02   -0.90577E-03   -0.19930E-01  5400   0.198E+00    0.275E-01
DAV:   2    -0.641840152684E+02   -0.30129E-03   -0.70953E-03  6762   0.361E-01    0.138E-01
DAV:   3    -0.641838781168E+02    0.13715E-03   -0.15360E-04  7028   0.596E-02    0.870E-02
DAV:   4    -0.641838062760E+02    0.71841E-04   -0.13590E-04  6336   0.501E-02    0.136E-02
DAV:   5    -0.641838064817E+02   -0.20578E-06   -0.19971E-05  5476   0.162E-02    0.116E-02
DAV:   6    -0.641838060331E+02    0.44864E-06   -0.13729E-06  3884   0.490E-03
  28 F= -.69714547E+02 E0= -.69714547E+02  d E =-.135890E-02  mag=    -0.0000
       N       E                     dE             d eps       ncg     rms          rms(c)
DAV:   1    -0.641855230846E+02   -0.17166E-02   -0.23269E-01  5512   0.194E+00    0.203E-01
DAV:   2    -0.641862608786E+02   -0.73779E-03   -0.87976E-03  6752   0.382E-01    0.863E-02
DAV:   3    -0.641862241163E+02    0.36762E-04   -0.15876E-04  7006   0.596E-02    0.620E-02
DAV:   4    -0.641862019712E+02    0.22145E-04   -0.75885E-05  6778   0.360E-02    0.250E-02
DAV:   5    -0.641862029834E+02   -0.10122E-05   -0.12878E-05  5494   0.133E-02    0.604E-03
DAV:   6    -0.641862028973E+02    0.86065E-07   -0.11038E-06  3526   0.562E-03
  29 F= -.69715306E+02 E0= -.69715306E+02  d E =-.758921E-03  mag=     0.0000
