 vasp.6.3.2 27Jun22 (build Jun 14 2024 17:29:11) complex                         
 POSCAR found type information on POSCAR NaAlS 
 04/POSCAR found :  3 types and      79 ions
 -----------------------------------------------------------------------------
|                                                                             |
|           W    W    AA    RRRRR   N    N  II  N    N   GGGG   !!!           |
|           W    W   A  A   R    R  NN   N  II  NN   N  G    G  !!!           |
|           W    W  A    A  R    R  N N  N  II  N N  N  G       !!!           |
|           W WW W  AAAAAA  RRRRR   N  N N  II  N  N N  G  GGG   !            |
|           WW  WW  A    A  R   R   N   NN  II  N   NN  G    G                |
|           W    W  A    A  R    R  N    N  II  N    N   GGGG   !!!           |
|                                                                             |
|     The value NPAR = 5 specified in the INCAR file was overwritten,         |
|     because it was not compatible with the 6 processes available:           |
|     NPAR = 6                                                                |
|     was used instead, please check that this makes sense for your           |
|     machine.                                                                |
|                                                                             |
 -----------------------------------------------------------------------------

 -----------------------------------------------------------------------------
|                                                                             |
|           W    W    AA    RRRRR   N    N  II  N    N   GGGG   !!!           |
|           W    W   A  A   R    R  NN   N  II  NN   N  G    G  !!!           |
|           W    W  A    A  R    R  N N  N  II  N N  N  G       !!!           |
|           W WW W  AAAAAA  RRRRR   N  N N  II  N  N N  G  GGG   !            |
|           WW  WW  A    A  R   R   N   NN  II  N   NN  G    G                |
|           W    W  A    A  R    R  N    N  II  N    N   GGGG   !!!           |
|                                                                             |
|     For optimal performance we recommend to set                             |
|       NCORE = 2 up to number-of-cores-per-socket                            |
|     NCORE specifies how many cores store one orbital (NPAR=cpu/NCORE).      |
|     This setting can greatly improve the performance of VASP for DFT.       |
|     The default, NCORE=1 might be grossly inefficient on modern             |
|     multi-core architectures or massively parallel machines. Do your        |
|     own testing! More info at https://www.vasp.at/wiki/index.php/NCORE      |
|     Unfortunately you need to use the default for GW and RPA                |
|     calculations (for HF NCORE is supported but not extensively tested      |
|     yet).                                                                   |
|                                                                             |
 -----------------------------------------------------------------------------

 LDA part: xc-table for Pade appr. of Perdew
 POSCAR found type information on POSCAR NaAlS 
 00/POSCAR found :  3 types and      79 ions
 POSCAR found type information on POSCAR NaAlS 
 06/POSCAR found :  3 types and      79 ions
 POSCAR, INCAR and KPOINTS ok, starting setup
 FFT: planning ... GRIDC
 FFT: planning ... GRID_SOFT
 FFT: planning ... GRID
 WAVECAR not read
 entering main loop
       N       E                     dE             d eps       ncg     rms          rms(c)
DAV:   1     0.464587892542E+04    0.46459E+04   -0.20037E+05   636   0.140E+03
DAV:   2     0.335025938203E+03   -0.43109E+04   -0.41616E+04   636   0.401E+02
DAV:   3    -0.285116382114E+03   -0.62014E+03   -0.61342E+03   702   0.165E+02
DAV:   4    -0.321240600473E+03   -0.36124E+02   -0.35811E+02   672   0.370E+01
DAV:   5    -0.322827323952E+03   -0.15867E+01   -0.15846E+01   840   0.805E+00    0.268E+01
RMM:   6    -0.305009418803E+03    0.17818E+02   -0.31143E+01   639   0.589E+00    0.178E+01
RMM:   7    -0.304197616568E+03    0.81180E+00   -0.37148E+01   627   0.543E+00    0.112E+01
RMM:   8    -0.303718371119E+03    0.47925E+00   -0.26885E+00   729   0.285E+00    0.650E+00
RMM:   9    -0.303837988974E+03   -0.11962E+00   -0.26507E+00   642   0.188E+00    0.309E+00
RMM:  10    -0.303578479811E+03    0.25951E+00   -0.28676E-01   689   0.105E+00    0.221E+00
RMM:  11    -0.303514043054E+03    0.64437E-01   -0.11586E-01   758   0.485E-01    0.141E+00
RMM:  12    -0.303501851414E+03    0.12192E-01   -0.62364E-02   767   0.281E-01    0.805E-01
RMM:  13    -0.303502594670E+03   -0.74326E-03   -0.19146E-02   690   0.165E-01    0.608E-01
RMM:  14    -0.303507371002E+03   -0.47763E-02   -0.12905E-02   621   0.176E-01    0.216E-01
RMM:  15    -0.303508058697E+03   -0.68770E-03   -0.55994E-03   664   0.103E-01    0.363E-01
RMM:  16    -0.303507545276E+03    0.51342E-03   -0.18543E-03   679   0.673E-02    0.228E-01
RMM:  17    -0.303507345482E+03    0.19979E-03   -0.14905E-03   632   0.498E-02    0.796E-02
RMM:  18    -0.303507369092E+03   -0.23610E-04   -0.33728E-04   621   0.302E-02    0.496E-02
RMM:  19    -0.303507336576E+03    0.32516E-04   -0.91043E-05   559   0.158E-02    0.279E-02
RMM:  20    -0.303507331101E+03    0.54756E-05   -0.35850E-05   490   0.996E-03
   1 F= -.30350733E+03 E0= -.30354928E+03  d E =-.303507E+03
quench:  g(F)=  0.000E+00 g(S)=  0.000E+00 dE (1.order)= 0.000E+00
 bond charge predicted
       N       E                     dE             d eps       ncg     rms          rms(c)
DAV:   1    -0.303507320638E+03    0.15938E-04   -0.17207E-05   360   0.108E-02    0.100E-02
RMM:   2    -0.303507329702E+03   -0.90636E-05   -0.16726E-05   401   0.586E-03
   2 F= -.30350733E+03 E0= -.30354932E+03  d E =0.139861E-05
quench:  g(F)=  0.000E+00 g(S)=  0.000E+00 dE (1.order)= 0.000E+00
 bond charge predicted
       N       E                     dE             d eps       ncg     rms          rms(c)
DAV:   1    -0.303507319589E+03    0.10490E-05   -0.59331E-05   396   0.113E-02    0.535E-03
RMM:   2    -0.303507320218E+03   -0.62850E-06   -0.28871E-06   328   0.312E-03
   3 F= -.30350732E+03 E0= -.30354933E+03  d E =0.948409E-05
quench:  g(F)=  0.000E+00 g(S)=  0.000E+00 dE (1.order)= 0.000E+00
 bond charge predicted
       N       E                     dE             d eps       ncg     rms          rms(c)
DAV:   1    -0.303507319924E+03   -0.33477E-06   -0.56463E-06   432   0.424E-03    0.381E-03
RMM:   2    -0.303507321044E+03   -0.11198E-05   -0.31751E-07   170   0.149E-03
   4 F= -.30350732E+03 E0= -.30354932E+03  d E =-.826039E-06
quench:  g(F)=  0.000E+00 g(S)=  0.000E+00 dE (1.order)= 0.000E+00
 bond charge predicted
       N       E                     dE             d eps       ncg     rms          rms(c)
DAV:   1    -0.303507319839E+03    0.85493E-07   -0.71116E-06   384   0.386E-03    0.185E-03
RMM:   2    -0.303507319914E+03   -0.75153E-07   -0.19381E-07   116   0.124E-03
   5 F= -.30350732E+03 E0= -.30354932E+03  d E =0.113010E-05
quench:  g(F)=  0.000E+00 g(S)=  0.000E+00 dE (1.order)= 0.000E+00
 bond charge predicted
       N       E                     dE             d eps       ncg     rms          rms(c)
DAV:   1    -0.303507319912E+03   -0.73247E-07   -0.85742E-07   384   0.155E-03    0.147E-03
RMM:   2    -0.303507320054E+03   -0.14235E-06   -0.43217E-08    76   0.891E-04
   6 F= -.30350732E+03 E0= -.30354932E+03  d E =-.140441E-06
quench:  g(F)=  0.000E+00 g(S)=  0.000E+00 dE (1.order)= 0.000E+00
 bond charge predicted
       N       E                     dE             d eps       ncg     rms          rms(c)
DAV:   1    -0.303507319902E+03    0.10201E-07   -0.93132E-07   360   0.147E-03    0.711E-04
RMM:   2    -0.303507319906E+03   -0.46130E-08    0.57664-254    41   0.696E-04
   7 F= -.30350732E+03 E0= -.30354932E+03  d E =0.147935E-06
quench:  g(F)=  0.000E+00 g(S)=  0.000E+00 dE (1.order)= 0.000E+00
 bond charge predicted
       N       E                     dE             d eps       ncg     rms          rms(c)
DAV:   1    -0.303507319911E+03   -0.93642E-08   -0.17672E-07   348   0.727E-04    0.739E-04
RMM:   2    -0.303507319929E+03   -0.17913E-07    0.23839-221    41   0.453E-04
   8 F= -.30350732E+03 E0= -.30354932E+03  d E =-.226646E-07
quench:  g(F)=  0.000E+00 g(S)=  0.000E+00 dE (1.order)= 0.000E+00
 bond charge predicted
       N       E                     dE             d eps       ncg     rms          rms(c)
DAV:   1    -0.303507319907E+03    0.40673E-08   -0.16279E-07   348   0.705E-04    0.375E-04
RMM:   2    -0.303507319908E+03   -0.58935E-09    0.82219-317    28   0.316E-04
   9 F= -.30350732E+03 E0= -.30354932E+03  d E =0.213913E-07
quench:  g(F)=  0.000E+00 g(S)=  0.000E+00 dE (1.order)= 0.000E+00
 bond charge predicted
       N       E                     dE             d eps       ncg     rms          rms(c)
DAV:   1    -0.303507319905E+03    0.15571E-08   -0.44794E-08   348   0.348E-04    0.296E-04
RMM:   2    -0.303507319903E+03    0.22628E-08    0.63585-317    28   0.232E-04
  10 F= -.30350732E+03 E0= -.30354932E+03  d E =0.440923E-08
quench:  g(F)=  0.000E+00 g(S)=  0.000E+00 dE (1.order)= 0.000E+00
 bond charge predicted
       N       E                     dE             d eps       ncg     rms          rms(c)
DAV:   1    -0.303507319901E+03    0.45038E-08   -0.23155E-08   348   0.273E-04    0.192E-04
RMM:   2    -0.303507319899E+03    0.22264E-08    0.49407-323    21   0.155E-04
  11 F= -.30350732E+03 E0= -.30354932E+03  d E =0.446744E-08
quench:  g(F)=  0.000E+00 g(S)=  0.000E+00 dE (1.order)= 0.000E+00
 bond charge predicted
       N       E                     dE             d eps       ncg     rms          rms(c)
DAV:   1    -0.303507319898E+03    0.31359E-08   -0.12746E-08   348   0.187E-04    0.160E-04
RMM:   2    -0.303507319896E+03    0.19136E-08    0.49407-323    20   0.132E-04
  12 F= -.30350732E+03 E0= -.30354932E+03  d E =0.282307E-08
quench:  g(F)=  0.000E+00 g(S)=  0.000E+00 dE (1.order)= 0.000E+00
 bond charge predicted
       N       E                     dE             d eps       ncg     rms          rms(c)
DAV:   1    -0.303507319895E+03    0.29540E-08   -0.61796E-09   348   0.140E-04    0.136E-04
RMM:   2    -0.303507319895E+03    0.72760E-10    0.00000E+00    18   0.859E-05
  13 F= -.30350732E+03 E0= -.30354932E+03  d E =0.111322E-08
quench:  g(F)=  0.000E+00 g(S)=  0.000E+00 dE (1.order)= 0.000E+00
 bond charge predicted
       N       E                     dE             d eps       ncg     rms          rms(c)
DAV:   1    -0.303507319894E+03    0.11933E-08   -0.55462E-09   348   0.127E-04    0.723E-05
RMM:   2    -0.303507319893E+03    0.21828E-09    0.00000E+00    15   0.672E-05
  14 F= -.30350732E+03 E0= -.30354932E+03  d E =0.133878E-08
quench:  g(F)=  0.000E+00 g(S)=  0.000E+00 dE (1.order)= 0.000E+00
 bond charge predicted
       N       E                     dE             d eps       ncg     rms          rms(c)
DAV:   1    -0.303507319893E+03    0.40745E-09   -0.21986E-09   312   0.715E-05    0.103E-04
RMM:   2    -0.303507319892E+03    0.75670E-09    0.00000E+00    14   0.469E-05
  15 F= -.30350732E+03 E0= -.30354932E+03  d E =0.945874E-09
quench:  g(F)=  0.000E+00 g(S)=  0.000E+00 dE (1.order)= 0.000E+00
 bond charge predicted
       N       E                     dE             d eps       ncg     rms          rms(c)
DAV:   1    -0.303507319892E+03    0.10332E-08   -0.18660E-09   312   0.679E-05    0.651E-05
RMM:   2    -0.303507319893E+03   -0.42201E-09    0.00000E+00    14   0.342E-05
  16 F= -.30350732E+03 E0= -.30354932E+03  d E =-.145519E-09
quench:  g(F)=  0.000E+00 g(S)=  0.000E+00 dE (1.order)= 0.000E+00
 bond charge predicted
       N       E                     dE             d eps       ncg     rms          rms(c)
DAV:   1    -0.303507319891E+03    0.10332E-08   -0.33329E-09   312   0.736E-05    0.356E-05
RMM:   2    -0.303507319892E+03   -0.47294E-09    0.00000E+00    13   0.305E-05
  17 F= -.30350732E+03 E0= -.30354932E+03  d E =0.982254E-09
quench:  g(F)=  0.000E+00 g(S)=  0.000E+00 dE (1.order)= 0.000E+00
 bond charge predicted
       N       E                     dE             d eps       ncg     rms          rms(c)
DAV:   1    -0.303507319892E+03   -0.56025E-09   -0.13976E-10   312   0.335E-05    0.304E-05
RMM:   2    -0.303507319892E+03    0.50932E-10    0.00000E+00    13   0.208E-05
  18 F= -.30350732E+03 E0= -.30354932E+03  d E =-.363798E-10
quench:  g(F)=  0.000E+00 g(S)=  0.000E+00 dE (1.order)= 0.000E+00
 bond charge predicted
       N       E                     dE             d eps       ncg     rms          rms(c)
DAV:   1    -0.303507319890E+03    0.14843E-08   -0.80146E-10   312   0.381E-05    0.127E-05
RMM:   2    -0.303507319891E+03   -0.11933E-08    0.00000E+00    13   0.182E-05
  19 F= -.30350732E+03 E0= -.30354932E+03  d E =0.240107E-09
quench:  g(F)=  0.000E+00 g(S)=  0.000E+00 dE (1.order)= 0.000E+00
 bond charge predicted
       N       E                     dE             d eps       ncg     rms          rms(c)
DAV:   1    -0.303507319892E+03   -0.21028E-08   -0.23167E-10   312   0.180E-05    0.184E-05
RMM:   2    -0.303507319891E+03    0.93860E-09    0.00000E+00    13   0.117E-05
  20 F= -.30350732E+03 E0= -.30354932E+03  d E =0.291038E-10
quench:  g(F)=  0.000E+00 g(S)=  0.000E+00 dE (1.order)= 0.000E+00
 bond charge predicted
       N       E                     dE             d eps       ncg     rms          rms(c)
DAV:   1    -0.303507319890E+03    0.20591E-08   -0.38869E-10   312   0.212E-05    0.884E-06
RMM:   2    -0.303507319891E+03   -0.11059E-08    0.00000E+00    13   0.898E-06
  21 F= -.30350732E+03 E0= -.30354932E+03  d E =0.145519E-10
quench:  g(F)=  0.000E+00 g(S)=  0.000E+00 dE (1.order)= 0.000E+00
 bond charge predicted
       N       E                     dE             d eps       ncg     rms          rms(c)
DAV:   1    -0.303507319892E+03   -0.15280E-08   -0.32493E-10   312   0.930E-06    0.124E-05
RMM:   2    -0.303507319891E+03    0.33469E-09    0.00000E+00    12   0.672E-06
  22 F= -.30350732E+03 E0= -.30354932E+03  d E =-.873115E-10
quench:  g(F)=  0.000E+00 g(S)=  0.000E+00 dE (1.order)= 0.000E+00
 bond charge predicted
       N       E                     dE             d eps       ncg     rms          rms(c)
DAV:   1    -0.303507319892E+03   -0.43656E-10   -0.16848E-10   312   0.966E-06    0.668E-06
RMM:   2    -0.303507319891E+03    0.34197E-09    0.00000E+00    10   0.495E-06
  23 F= -.30350732E+03 E0= -.30354932E+03  d E =-.363798E-10
quench:  g(F)=  0.000E+00 g(S)=  0.000E+00 dE (1.order)= 0.000E+00
 bond charge predicted
       N       E                     dE             d eps       ncg     rms          rms(c)
DAV:   1    -0.303507319891E+03    0.73487E-09   -0.12612E-10   312   0.681E-06    0.340E-06
RMM:   2    -0.303507319891E+03   -0.10914E-09    0.00000E+00     9   0.455E-06
  24 F= -.30350732E+03 E0= -.30354932E+03  d E =0.283762E-09
quench:  g(F)=  0.000E+00 g(S)=  0.000E+00 dE (1.order)= 0.000E+00
 bond charge predicted
       N       E                     dE             d eps       ncg     rms          rms(c)
DAV:   1    -0.303507319890E+03    0.65484E-09   -0.61630E-11   312   0.437E-06    0.929E-06
RMM:   2    -0.303507319891E+03   -0.96043E-09    0.00000E+00     9   0.285E-06
  25 F= -.30350732E+03 E0= -.30354932E+03  d E =-.196451E-09
quench:  g(F)=  0.000E+00 g(S)=  0.000E+00 dE (1.order)= 0.000E+00
 bond charge predicted
       N       E                     dE             d eps       ncg     rms          rms(c)
DAV:   1    -0.303507319892E+03   -0.15571E-08    0.15492E-10   312   0.621E-06    0.554E-06
RMM:   2    -0.303507319891E+03    0.55297E-09    0.00000E+00     9   0.242E-06
  26 F= -.30350732E+03 E0= -.30354932E+03  d E =-.436557E-10
quench:  g(F)=  0.000E+00 g(S)=  0.000E+00 dE (1.order)= 0.000E+00
 bond charge predicted
       N       E                     dE             d eps       ncg     rms          rms(c)
DAV:   1    -0.303507319891E+03    0.10550E-08   -0.13864E-10   312   0.689E-06    0.185E-06
RMM:   2    -0.303507319891E+03   -0.50204E-09    0.00000E+00     9   0.188E-06
  27 F= -.30350732E+03 E0= -.30354932E+03  d E =0.000000E+00
quench:  g(F)=  0.000E+00 g(S)=  0.000E+00 dE (1.order)= 0.000E+00
 bond charge predicted
       N       E                     dE             d eps       ncg     rms          rms(c)
DAV:   1    -0.303507319892E+03   -0.64756E-09    0.18523E-10   312   0.209E-06    0.175E-06
RMM:   2    -0.303507319891E+03    0.14552E-09    0.00000E+00     8   0.133E-06
  28 F= -.30350732E+03 E0= -.30354932E+03  d E =0.000000E+00
quench:  g(F)=  0.000E+00 g(S)=  0.000E+00 dE (1.order)= 0.000E+00
 bond charge predicted
       N       E                     dE             d eps       ncg     rms          rms(c)
DAV:   1    -0.303507319892E+03   -0.77125E-09    0.39317E-11   312   0.215E-06    0.773E-07
RMM:   2    -0.303507319891E+03    0.87311E-09    0.00000E+00     6   0.117E-06
  29 F= -.30350732E+03 E0= -.30354932E+03  d E =-.436557E-10
quench:  g(F)=  0.000E+00 g(S)=  0.000E+00 dE (1.order)= 0.000E+00
 bond charge predicted
       N       E                     dE             d eps       ncg     rms          rms(c)
DAV:   1    -0.303507319891E+03    0.16880E-08   -0.23818E-11   312   0.114E-06    0.155E-06
RMM:   2    -0.303507319891E+03   -0.80763E-09    0.00000E+00     6   0.741E-07
  30 F= -.30350732E+03 E0= -.30354932E+03  d E =0.727596E-11
quench:  g(F)=  0.000E+00 g(S)=  0.000E+00 dE (1.order)= 0.000E+00
 bond charge predicted
       N       E                     dE             d eps       ncg     rms          rms(c)
DAV:   1    -0.303507319892E+03   -0.17244E-08   -0.26859E-11   312   0.133E-06    0.826E-07
RMM:   2    -0.303507319891E+03    0.10332E-08    0.00000E+00     5   0.581E-07
  31 F= -.30350732E+03 E0= -.30354932E+03  d E =0.116415E-09
quench:  g(F)=  0.000E+00 g(S)=  0.000E+00 dE (1.order)= 0.000E+00
 bond charge predicted
       N       E                     dE             d eps       ncg     rms          rms(c)
DAV:   1    -0.303507319890E+03    0.20736E-08   -0.15940E-10   312   0.822E-07    0.423E-07
RMM:   2    -0.303507319891E+03   -0.10768E-08    0.00000E+00     5   0.538E-07
  32 F= -.30350732E+03 E0= -.30354932E+03  d E =-.363798E-10
quench:  g(F)=  0.000E+00 g(S)=  0.000E+00 dE (1.order)= 0.000E+00
 bond charge predicted
       N       E                     dE             d eps       ncg     rms          rms(c)
DAV:   1    -0.303507319890E+03   -0.43656E-10   -0.96114E-11   312   0.528E-07    0.986E-07
RMM:   2    -0.303507319891E+03   -0.98225E-09    0.00000E+00     5   0.352E-07
  33 F= -.30350732E+03 E0= -.30354932E+03  d E =0.509317E-10
quench:  g(F)=  0.000E+00 g(S)=  0.000E+00 dE (1.order)= 0.000E+00
 bond charge predicted
       N       E                     dE             d eps       ncg     rms          rms(c)
DAV:   1    -0.303507319892E+03   -0.13897E-08   -0.15537E-11   312   0.698E-07    0.647E-07
RMM:   2    -0.303507319891E+03    0.40745E-09    0.00000E+00     5   0.312E-07
  34 F= -.30350732E+03 E0= -.30354932E+03  d E =0.000000E+00
quench:  g(F)=  0.000E+00 g(S)=  0.000E+00 dE (1.order)= 0.000E+00
 bond charge predicted
       N       E                     dE             d eps       ncg     rms          rms(c)
DAV:   1    -0.303507319892E+03   -0.63301E-09   -0.10660E-11   312   0.823E-07    0.220E-07
RMM:   2    -0.303507319891E+03    0.97498E-09    0.00000E+00     5   0.265E-07
  35 F= -.30350732E+03 E0= -.30354932E+03  d E =-.654836E-10
quench:  g(F)=  0.000E+00 g(S)=  0.000E+00 dE (1.order)= 0.000E+00
 bond charge predicted
       N       E                     dE             d eps       ncg     rms          rms(c)
DAV:   1    -0.303507319891E+03    0.90949E-09    0.21406E-11   312   0.278E-07    0.208E-07
RMM:   2    -0.303507319891E+03    0.87311E-10    0.00000E+00     5   0.167E-07
  36 F= -.30350732E+03 E0= -.30354932E+03  d E =0.218279E-10
quench:  g(F)=  0.000E+00 g(S)=  0.000E+00 dE (1.order)= 0.000E+00
 bond charge predicted
       N       E                     dE             d eps       ncg     rms          rms(c)
DAV:   1    -0.303507319893E+03   -0.14988E-08    0.14124E-10   312   0.246E-07    0.937E-08
RMM:   2    -0.303507319891E+03    0.15061E-08    0.00000E+00     4   0.140E-07
  37 F= -.30350732E+03 E0= -.30354932E+03  d E =-.800355E-10
quench:  g(F)=  0.000E+00 g(S)=  0.000E+00 dE (1.order)= 0.000E+00
 bond charge predicted
       N       E                     dE             d eps       ncg     rms          rms(c)
DAV:   1    -0.303507319892E+03    0.73487E-09    0.79152E-11   312   0.136E-07    0.209E-07
RMM:   2    -0.303507319892E+03    0.71304E-09    0.00000E+00     4   0.993E-08
  38 F= -.30350732E+03 E0= -.30354932E+03  d E =-.582077E-10
quench:  g(F)=  0.000E+00 g(S)=  0.000E+00 dE (1.order)= 0.000E+00
 bond charge predicted
       N       E                     dE             d eps       ncg     rms          rms(c)
DAV:   1    -0.303507319891E+03    0.77853E-09   -0.69765E-11   312   0.165E-07    0.114E-07
RMM:   2    -0.303507319892E+03   -0.10914E-09    0.00000E+00     4   0.727E-08
  39 F= -.30350732E+03 E0= -.30354932E+03  d E =-.436557E-10
quench:  g(F)=  0.000E+00 g(S)=  0.000E+00 dE (1.order)= 0.000E+00
 bond charge predicted
       N       E                     dE             d eps       ncg     rms          rms(c)
DAV:   1    -0.303507319892E+03   -0.27649E-09   -0.28283E-11   312   0.120E-07    0.512E-08
RMM:   2    -0.303507319891E+03    0.42201E-09    0.00000E+00     4   0.692E-08
  40 F= -.30350732E+03 E0= -.30354932E+03  d E =0.254659E-09
quench:  g(F)=  0.000E+00 g(S)=  0.000E+00 dE (1.order)= 0.000E+00
 bond charge predicted
       N       E                     dE             d eps       ncg     rms          rms(c)
DAV:   1    -0.303507319891E+03    0.99681E-09   -0.48127E-11   312   0.682E-08    0.806E-08
RMM:   2    -0.303507319891E+03   -0.69122E-09    0.00000E+00     3   0.513E-08
  41 F= -.30350732E+03 E0= -.30354932E+03  d E =-.116415E-09
quench:  g(F)=  0.000E+00 g(S)=  0.000E+00 dE (1.order)= 0.000E+00
 bond charge predicted
       N       E                     dE             d eps       ncg     rms          rms(c)
DAV:   1    -0.303507319892E+03   -0.14552E-08   -0.24985E-11   312   0.755E-08    0.454E-08
RMM:   2    -0.303507319891E+03    0.83674E-09    0.00000E+00     3   0.327E-08
  42 F= -.30350732E+03 E0= -.30354932E+03  d E =0.727596E-10
quench:  g(F)=  0.000E+00 g(S)=  0.000E+00 dE (1.order)= 0.000E+00
 bond charge predicted
       N       E                     dE             d eps       ncg     rms          rms(c)
DAV:   1    -0.303507319891E+03    0.97498E-09   -0.32619E-11   312   0.490E-08    0.214E-08
RMM:   2    -0.303507319891E+03   -0.12369E-09    0.00000E+00     3   0.321E-08
  43 F= -.30350732E+03 E0= -.30354932E+03  d E =0.145519E-10
quench:  g(F)=  0.000E+00 g(S)=  0.000E+00 dE (1.order)= 0.000E+00
 bond charge predicted
       N       E                     dE             d eps       ncg     rms          rms(c)
DAV:   1    -0.303507319892E+03   -0.94587E-09   -0.11379E-10   312   0.312E-08    0.699E-08
RMM:   2    -0.303507319891E+03    0.89494E-09    0.00000E+00     3   0.214E-08
  44 F= -.30350732E+03 E0= -.30354932E+03  d E =0.727596E-10
quench:  g(F)=  0.000E+00 g(S)=  0.000E+00 dE (1.order)= 0.000E+00
 bond charge predicted
       N       E                     dE             d eps       ncg     rms          rms(c)
DAV:   1    -0.303507319890E+03    0.17753E-08    0.66827E-11   312   0.484E-08    0.485E-08
RMM:   2    -0.303507319891E+03   -0.10186E-08    0.00000E+00     3   0.196E-08
  45 F= -.30350732E+03 E0= -.30354932E+03  d E =-.138243E-09
quench:  g(F)=  0.000E+00 g(S)=  0.000E+00 dE (1.order)= 0.000E+00
 bond charge predicted
       N       E                     dE             d eps       ncg     rms          rms(c)
DAV:   1    -0.303507319892E+03   -0.17390E-08   -0.23226E-11   312   0.662E-08    0.109E-08
RMM:   2    -0.303507319891E+03    0.82218E-09    0.00000E+00     3   0.136E-08
  46 F= -.30350732E+03 E0= -.30354932E+03  d E =0.101863E-09
quench:  g(F)=  0.000E+00 g(S)=  0.000E+00 dE (1.order)= 0.000E+00
 bond charge predicted
       N       E                     dE             d eps       ncg     rms          rms(c)
DAV:   1    -0.303507319893E+03   -0.45111E-09    0.14948E-10   312   0.148E-08    0.955E-09
RMM:   2    -0.303507319891E+03    0.13169E-08    0.00000E+00     3   0.940E-09
  47 F= -.30350732E+03 E0= -.30354932E+03  d E =0.436557E-10
quench:  g(F)=  0.000E+00 g(S)=  0.000E+00 dE (1.order)= 0.000E+00
 bond charge predicted
       N       E                     dE             d eps       ncg     rms          rms(c)
DAV:   1    -0.303507319892E+03    0.60390E-09    0.16200E-11   312   0.137E-08    0.335E-09
RMM:   2    -0.303507319891E+03    0.58208E-09    0.00000E+00     3   0.744E-09
  48 F= -.30350732E+03 E0= -.30354932E+03  d E =-.130967E-09
quench:  g(F)=  0.000E+00 g(S)=  0.000E+00 dE (1.order)= 0.000E+00
 bond charge predicted
       N       E                     dE             d eps       ncg     rms          rms(c)
DAV:   1    -0.303507319892E+03    0.87311E-10    0.57632E-11   312   0.741E-09    0.928E-09
RMM:   2    -0.303507319891E+03    0.56025E-09    0.00000E+00     3   0.544E-09
  49 F= -.30350732E+03 E0= -.30354932E+03  d E =0.654836E-10
quench:  g(F)=  0.000E+00 g(S)=  0.000E+00 dE (1.order)= 0.000E+00
 bond charge predicted
       N       E                     dE             d eps       ncg     rms          rms(c)
DAV:   1    -0.303507319893E+03   -0.82218E-09   -0.16131E-10   312   0.798E-09    0.513E-09
RMM:   2    -0.303507319891E+03    0.13606E-08    0.00000E+00     3   0.369E-09
  50 F= -.30350732E+03 E0= -.30354932E+03  d E =-.218279E-10
quench:  g(F)=  0.000E+00 g(S)=  0.000E+00 dE (1.order)= 0.000E+00
 bond charge predicted
       N       E                     dE             d eps       ncg     rms          rms(c)
DAV:   1    -0.303507319892E+03    0.11642E-08    0.39579E-11   312   0.646E-09    0.247E-09
RMM:   2    -0.303507319891E+03    0.10914E-09    0.00000E+00     2   0.358E-09
  51 F= -.30350732E+03 E0= -.30354932E+03  d E =-.873115E-10
quench:  g(F)=  0.000E+00 g(S)=  0.000E+00 dE (1.order)= 0.000E+00
 bond charge predicted
       N       E                     dE             d eps       ncg     rms          rms(c)
DAV:   1    -0.303507319893E+03   -0.10332E-08    0.14055E-10   312   0.364E-09    0.307E-09
RMM:   2    -0.303507319891E+03    0.12151E-08    0.00000E+00     2   0.246E-09
  52 F= -.30350732E+03 E0= -.30354932E+03  d E =0.727596E-10
quench:  g(F)=  0.000E+00 g(S)=  0.000E+00 dE (1.order)= 0.000E+00
 bond charge predicted
       N       E                     dE             d eps       ncg     rms          rms(c)
DAV:   1    -0.303507319891E+03    0.16807E-08    0.10674E-10   312   0.390E-09    0.127E-09
RMM:   2    -0.303507319891E+03   -0.49477E-09    0.00000E+00     2   0.188E-09
  53 F= -.30350732E+03 E0= -.30354932E+03  d E =-.291038E-10
quench:  g(F)=  0.000E+00 g(S)=  0.000E+00 dE (1.order)= 0.000E+00
 bond charge predicted
       N       E                     dE             d eps       ncg     rms          rms(c)
DAV:   1    -0.303507319890E+03    0.75670E-09    0.78126E-11   312   0.192E-09    0.244E-09
RMM:   2    -0.303507319891E+03   -0.12733E-08    0.00000E+00     2   0.140E-09
  54 F= -.30350732E+03 E0= -.30354932E+03  d E =-.218279E-10
quench:  g(F)=  0.000E+00 g(S)=  0.000E+00 dE (1.order)= 0.000E+00
 bond charge predicted
       N       E                     dE             d eps       ncg     rms          rms(c)
DAV:   1    -0.303507319891E+03   -0.85129E-09    0.54293E-11   312   0.212E-09    0.145E-09
RMM:   2    -0.303507319891E+03   -0.42928E-09    0.00000E+00     2   0.957E-10
  55 F= -.30350732E+03 E0= -.30354932E+03  d E =-.727596E-11
quench:  g(F)=  0.000E+00 g(S)=  0.000E+00 dE (1.order)= 0.000E+00
 bond charge predicted
       N       E                     dE             d eps       ncg     rms          rms(c)
DAV:   1    -0.303507319892E+03   -0.82218E-09    0.21509E-10   312   0.180E-09    0.784E-10
RMM:   2    -0.303507319891E+03    0.40745E-09    0.00000E+00     2   0.902E-10
  56 F= -.30350732E+03 E0= -.30354932E+03  d E =0.145519E-10
quench:  g(F)=  0.000E+00 g(S)=  0.000E+00 dE (1.order)= 0.000E+00
 bond charge predicted
       N       E                     dE             d eps       ncg     rms          rms(c)
DAV:   1    -0.303507319891E+03    0.78580E-09    0.52561E-11   312   0.101E-09    0.116E-09
RMM:   2    -0.303507319891E+03   -0.41473E-09    0.00000E+00     2   0.677E-10
  57 F= -.30350732E+03 E0= -.30354932E+03  d E =-.363798E-10
quench:  g(F)=  0.000E+00 g(S)=  0.000E+00 dE (1.order)= 0.000E+00
 bond charge predicted
       N       E                     dE             d eps       ncg     rms          rms(c)
DAV:   1    -0.303507319894E+03   -0.28376E-08    0.13768E-13   312   0.996E-10    0.634E-10
RMM:   2    -0.303507319891E+03    0.25393E-08    0.00000E+00     2   0.475E-10
  58 F= -.30350732E+03 E0= -.30354932E+03  d E =0.116415E-09
quench:  g(F)=  0.000E+00 g(S)=  0.000E+00 dE (1.order)= 0.000E+00
 bond charge predicted
       N       E                     dE             d eps       ncg     rms          rms(c)
DAV:   1    -0.303507319892E+03    0.18481E-08    0.16107E-10   312   0.794E-10    0.341E-10
RMM:   2    -0.303507319891E+03    0.61118E-09    0.00000E+00     2   0.456E-10
  59 F= -.30350732E+03 E0= -.30354932E+03  d E =-.800355E-10
quench:  g(F)=  0.000E+00 g(S)=  0.000E+00 dE (1.order)= 0.000E+00
 bond charge predicted
       N       E                     dE             d eps       ncg     rms          rms(c)
DAV:   1    -0.303507319892E+03    0.38563E-09    0.93017E-11   312   0.491E-10    0.586E-10
RMM:   2    -0.303507319891E+03    0.16735E-09    0.00000E+00     2   0.344E-10
  60 F= -.30350732E+03 E0= -.30354932E+03  d E =-.582077E-10
quench:  g(F)=  0.000E+00 g(S)=  0.000E+00 dE (1.order)= 0.000E+00
 bond charge predicted
       N       E                     dE             d eps       ncg     rms          rms(c)
DAV:   1    -0.303507319891E+03    0.87311E-09    0.29985E-12   312   0.553E-10    0.359E-10
RMM:   2    -0.303507319891E+03   -0.53842E-09    0.00000E+00     2   0.264E-10
  61 F= -.30350732E+03 E0= -.30354932E+03  d E =0.167347E-09
quench:  g(F)=  0.000E+00 g(S)=  0.000E+00 dE (1.order)= 0.000E+00
 bond charge predicted
       N       E                     dE             d eps       ncg     rms          rms(c)
DAV:   1    -0.303507319891E+03   -0.36380E-09    0.86288E-11   312   0.373E-10    0.347E-10
RMM:   2    -0.303507319891E+03   -0.26193E-09    0.00000E+00     2   0.251E-10
  62 F= -.30350732E+03 E0= -.30354932E+03  d E =-.873115E-10
quench:  g(F)=  0.000E+00 g(S)=  0.000E+00 dE (1.order)= 0.000E+00
 bond charge predicted
       N       E                     dE             d eps       ncg     rms          rms(c)
DAV:   1    -0.303507319892E+03   -0.59663E-09   -0.48031E-11   312   0.371E-10    0.531E-10
RMM:   2    -0.303507319891E+03    0.29831E-09    0.00000E+00     2   0.176E-10
  63 F= -.30350732E+03 E0= -.30354932E+03  d E =-.363798E-10
quench:  g(F)=  0.000E+00 g(S)=  0.000E+00 dE (1.order)= 0.000E+00
 bond charge predicted
       N       E                     dE             d eps       ncg     rms          rms(c)
DAV:   1    -0.303507319892E+03   -0.65484E-10   -0.13535E-10   312   0.432E-10    0.450E-10
RMM:   2    -0.303507319891E+03    0.38563E-09    0.00000E+00     2   0.166E-10
  64 F= -.30350732E+03 E0= -.30354932E+03  d E =0.218279E-10
quench:  g(F)=  0.000E+00 g(S)=  0.000E+00 dE (1.order)= 0.000E+00
 bond charge predicted
       N       E                     dE             d eps       ncg     rms          rms(c)
DAV:   1    -0.303507319890E+03    0.12951E-08    0.76636E-11   312   0.346E-10    0.382E-10
RMM:   2    -0.303507319891E+03   -0.91677E-09    0.00000E+00     2   0.150E-10
  65 F= -.30350732E+03 E0= -.30354932E+03  d E =-.727596E-11
quench:  g(F)=  0.000E+00 g(S)=  0.000E+00 dE (1.order)= 0.000E+00
 bond charge predicted
       N       E                     dE             d eps       ncg     rms          rms(c)
DAV:   1    -0.303507319891E+03   -0.36380E-09    0.85937E-11   312   0.392E-10    0.212E-10
RMM:   2    -0.303507319891E+03   -0.61118E-09    0.00000E+00     2   0.137E-10
  66 F= -.30350732E+03 E0= -.30354932E+03  d E =-.582077E-10
quench:  g(F)=  0.000E+00 g(S)=  0.000E+00 dE (1.order)= 0.000E+00
 bond charge predicted
       N       E                     dE             d eps       ncg     rms          rms(c)
DAV:   1    -0.303507319890E+03    0.48021E-09    0.11683E-11   312   0.210E-10    0.256E-10
RMM:   2    -0.303507319891E+03   -0.10477E-08    0.00000E+00     2   0.114E-10
  67 F= -.30350732E+03 E0= -.30354932E+03  d E =0.436557E-10
quench:  g(F)=  0.000E+00 g(S)=  0.000E+00 dE (1.order)= 0.000E+00
 bond charge predicted
       N       E                     dE             d eps       ncg     rms          rms(c)
DAV:   1    -0.303507319891E+03   -0.52387E-09    0.11403E-10   312   0.273E-10    0.423E-10
RMM:   2    -0.303507319891E+03   -0.46566E-09    0.00000E+00     2   0.152E-10
  68 F= -.30350732E+03 E0= -.30354932E+03  d E =0.582077E-10
quench:  g(F)=  0.000E+00 g(S)=  0.000E+00 dE (1.order)= 0.000E+00
 bond charge predicted
       N       E                     dE             d eps       ncg     rms          rms(c)
DAV:   1    -0.303507319891E+03   -0.57480E-09   -0.10109E-10   312   0.438E-10    0.303E-10
RMM:   2    -0.303507319891E+03    0.80036E-10    0.00000E+00     2   0.121E-10
  69 F= -.30350732E+03 E0= -.30354932E+03  d E =-.291038E-10
quench:  g(F)=  0.000E+00 g(S)=  0.000E+00 dE (1.order)= 0.000E+00
 bond charge predicted
       N       E                     dE             d eps       ncg     rms          rms(c)
DAV:   1    -0.303507319891E+03    0.43656E-09    0.82082E-12   312   0.350E-10    0.236E-10
RMM:   2    -0.303507319891E+03   -0.39290E-09    0.00000E+00     2   0.111E-10
  70 F= -.30350732E+03 E0= -.30354932E+03  d E =-.363798E-10
quench:  g(F)=  0.000E+00 g(S)=  0.000E+00 dE (1.order)= 0.000E+00
 bond charge predicted
       N       E                     dE             d eps       ncg     rms          rms(c)
DAV:   1    -0.303507319891E+03   -0.34197E-09    0.17807E-10   312   0.220E-10    0.235E-10
RMM:   2    -0.303507319891E+03   -0.50932E-10    0.00000E+00     2   0.108E-10
  71 F= -.30350732E+03 E0= -.30354932E+03  d E =0.000000E+00
quench:  g(F)=  0.000E+00 g(S)=  0.000E+00 dE (1.order)= 0.000E+00
 bond charge predicted
       N       E                     dE             d eps       ncg     rms          rms(c)
DAV:   1    -0.303507319892E+03   -0.26921E-09    0.15493E-10   312   0.269E-10    0.308E-10
RMM:   2    -0.303507319891E+03    0.25466E-09    0.00000E+00     2   0.116E-10
  72 F= -.30350732E+03 E0= -.30354932E+03  d E =0.363798E-10
quench:  g(F)=  0.000E+00 g(S)=  0.000E+00 dE (1.order)= 0.000E+00
 bond charge predicted
       N       E                     dE             d eps       ncg     rms          rms(c)
DAV:   1    -0.303507319892E+03   -0.59663E-09    0.10012E-10   312   0.278E-10    0.336E-10
RMM:   2    -0.303507319891E+03    0.96043E-09    0.00000E+00     2   0.976E-11
  73 F= -.30350732E+03 E0= -.30354932E+03  d E =0.109139E-09
quench:  g(F)=  0.000E+00 g(S)=  0.000E+00 dE (1.order)= 0.000E+00
 bond charge predicted
       N       E                     dE             d eps       ncg     rms          rms(c)
DAV:   1    -0.303507319892E+03   -0.26921E-09    0.65516E-11   312   0.270E-10    0.257E-10
RMM:   2    -0.303507319891E+03    0.11350E-08    0.00000E+00     2   0.103E-10
  74 F= -.30350732E+03 E0= -.30354932E+03  d E =-.945874E-10
quench:  g(F)=  0.000E+00 g(S)=  0.000E+00 dE (1.order)= 0.000E+00
 bond charge predicted
       N       E                     dE             d eps       ncg     rms          rms(c)
DAV:   1    -0.303507319892E+03    0.87311E-09    0.10141E-10   312   0.277E-10    0.266E-10
RMM:   2    -0.303507319891E+03    0.26193E-09    0.00000E+00     2   0.104E-10
  75 F= -.30350732E+03 E0= -.30354932E+03  d E =0.000000E+00
quench:  g(F)=  0.000E+00 g(S)=  0.000E+00 dE (1.order)= 0.000E+00
 bond charge predicted
       N       E                     dE             d eps       ncg     rms          rms(c)
DAV:   1    -0.303507319892E+03    0.10186E-09    0.18682E-10   312   0.213E-10    0.316E-10
RMM:   2    -0.303507319891E+03    0.20373E-09    0.00000E+00     2   0.127E-10
  76 F= -.30350732E+03 E0= -.30354932E+03  d E =0.436557E-10
quench:  g(F)=  0.000E+00 g(S)=  0.000E+00 dE (1.order)= 0.000E+00
 bond charge predicted
       N       E                     dE             d eps       ncg     rms          rms(c)
DAV:   1    -0.303507319891E+03    0.48021E-09    0.12784E-10   312   0.277E-10    0.289E-10
RMM:   2    -0.303507319891E+03   -0.32014E-09    0.00000E+00     2   0.115E-10
  77 F= -.30350732E+03 E0= -.30354932E+03  d E =-.436557E-10
quench:  g(F)=  0.000E+00 g(S)=  0.000E+00 dE (1.order)= 0.000E+00
 bond charge predicted
       N       E                     dE             d eps       ncg     rms          rms(c)
DAV:   1    -0.303507319892E+03   -0.12878E-08    0.79880E-11   312   0.303E-10    0.276E-10
RMM:   2    -0.303507319891E+03    0.10332E-08    0.00000E+00     2   0.926E-11
  78 F= -.30350732E+03 E0= -.30354932E+03  d E =0.654836E-10
quench:  g(F)=  0.000E+00 g(S)=  0.000E+00 dE (1.order)= 0.000E+00
 bond charge predicted
       N       E                     dE             d eps       ncg     rms          rms(c)
DAV:   1    -0.303507319890E+03    0.22337E-08   -0.25625E-11   312   0.189E-10    0.315E-10
RMM:   2    -0.303507319891E+03   -0.12296E-08    0.00000E+00     2   0.935E-11
  79 F= -.30350732E+03 E0= -.30354932E+03  d E =-.291038E-10
quench:  g(F)=  0.000E+00 g(S)=  0.000E+00 dE (1.order)= 0.000E+00
 bond charge predicted
       N       E                     dE             d eps       ncg     rms          rms(c)
DAV:   1    -0.303507319890E+03   -0.21828E-09    0.20744E-11   312   0.290E-10    0.242E-10
RMM:   2    -0.303507319891E+03   -0.96770E-09    0.00000E+00     2   0.934E-11
  80 F= -.30350732E+03 E0= -.30354932E+03  d E =0.436557E-10
quench:  g(F)=  0.000E+00 g(S)=  0.000E+00 dE (1.order)= 0.000E+00
 bond charge predicted
       N       E                     dE             d eps       ncg     rms          rms(c)
DAV:   1    -0.303507319892E+03   -0.20591E-08   -0.12857E-11   312   0.247E-10    0.204E-10
RMM:   2    -0.303507319891E+03    0.97498E-09    0.00000E+00     2   0.848E-11
  81 F= -.30350732E+03 E0= -.30354932E+03  d E =-.116415E-09
quench:  g(F)=  0.000E+00 g(S)=  0.000E+00 dE (1.order)= 0.000E+00
 bond charge predicted
       N       E                     dE             d eps       ncg     rms          rms(c)
DAV:   1    -0.303507319891E+03    0.17826E-08    0.20015E-10   312   0.166E-10    0.262E-10
RMM:   2    -0.303507319891E+03   -0.72032E-09    0.00000E+00     2   0.899E-11
  82 F= -.30350732E+03 E0= -.30354932E+03  d E =0.873115E-10
quench:  g(F)=  0.000E+00 g(S)=  0.000E+00 dE (1.order)= 0.000E+00
 bond charge predicted
       N       E                     dE             d eps       ncg     rms          rms(c)
DAV:   1    -0.303507319891E+03   -0.54570E-09   -0.32062E-11   312   0.163E-10    0.308E-10
RMM:   2    -0.303507319891E+03   -0.20373E-09    0.00000E+00     2   0.103E-10
  83 F= -.30350732E+03 E0= -.30354932E+03  d E =-.291038E-10
quench:  g(F)=  0.000E+00 g(S)=  0.000E+00 dE (1.order)= 0.000E+00
 bond charge predicted
       N       E                     dE             d eps       ncg     rms          rms(c)
DAV:   1    -0.303507319893E+03   -0.15425E-08    0.24422E-10   312   0.278E-10    0.309E-10
RMM:   2    -0.303507319891E+03    0.13970E-08    0.00000E+00     2   0.101E-10
  84 F= -.30350732E+03 E0= -.30354932E+03  d E =0.582077E-10
quench:  g(F)=  0.000E+00 g(S)=  0.000E+00 dE (1.order)= 0.000E+00
 bond charge predicted
       N       E                     dE             d eps       ncg     rms          rms(c)
DAV:   1    -0.303507319890E+03    0.24665E-08    0.45946E-11   312   0.188E-10    0.289E-10
RMM:   2    -0.303507319891E+03   -0.12078E-08    0.00000E+00     2   0.100E-10
  85 F= -.30350732E+03 E0= -.30354932E+03  d E =-.138243E-09
quench:  g(F)=  0.000E+00 g(S)=  0.000E+00 dE (1.order)= 0.000E+00
 bond charge predicted
       N       E                     dE             d eps       ncg     rms          rms(c)
DAV:   1    -0.303507319891E+03   -0.10623E-08   -0.14600E-10   312   0.201E-10    0.319E-10
RMM:   2    -0.303507319891E+03   -0.13097E-09    0.00000E+00     2   0.951E-11
  86 F= -.30350732E+03 E0= -.30354932E+03  d E =0.145519E-10
quench:  g(F)=  0.000E+00 g(S)=  0.000E+00 dE (1.order)= 0.000E+00
 bond charge predicted
       N       E                     dE             d eps       ncg     rms          rms(c)
DAV:   1    -0.303507319892E+03   -0.57480E-09    0.19540E-10   312   0.236E-10    0.286E-10
RMM:   2    -0.303507319891E+03    0.55297E-09    0.00000E+00     2   0.841E-11
  87 F= -.30350732E+03 E0= -.30354932E+03  d E =0.109139E-09
quench:  g(F)=  0.000E+00 g(S)=  0.000E+00 dE (1.order)= 0.000E+00
 bond charge predicted
       N       E                     dE             d eps       ncg     rms          rms(c)
DAV:   1    -0.303507319891E+03    0.57480E-09    0.15335E-11   312   0.281E-10    0.315E-10
RMM:   2    -0.303507319891E+03   -0.87311E-10    0.00000E+00     2   0.115E-10
  88 F= -.30350732E+03 E0= -.30354932E+03  d E =-.654836E-10
quench:  g(F)=  0.000E+00 g(S)=  0.000E+00 dE (1.order)= 0.000E+00
 bond charge predicted
       N       E                     dE             d eps       ncg     rms          rms(c)
DAV:   1    -0.303507319892E+03   -0.11059E-08    0.30253E-11   300   0.352E-10    0.267E-10
RMM:   2    -0.303507319891E+03    0.99681E-09    0.00000E+00     1   0.102E-10
  89 F= -.30350732E+03 E0= -.30354932E+03  d E =-.218279E-10
quench:  g(F)=  0.000E+00 g(S)=  0.000E+00 dE (1.order)= 0.000E+00
 bond charge predicted
       N       E                     dE             d eps       ncg     rms          rms(c)
DAV:   1    -0.303507319893E+03   -0.13824E-09    0.21004E-10   294   0.272E-10    0.212E-10
RMM:   2    -0.303507319891E+03    0.11205E-08    0.00000E+00     1   0.769E-11
  90 F= -.30350732E+03 E0= -.30354932E+03  d E =-.145519E-10
quench:  g(F)=  0.000E+00 g(S)=  0.000E+00 dE (1.order)= 0.000E+00
 bond charge predicted
       N       E                     dE             d eps       ncg     rms          rms(c)
DAV:   1    -0.303507319892E+03    0.71304E-09    0.20569E-10   294   0.200E-10    0.200E-10
RMM:   2    -0.303507319891E+03    0.43656E-09    0.00000E+00     1   0.772E-11
  91 F= -.30350732E+03 E0= -.30354932E+03  d E =0.291038E-10
quench:  g(F)=  0.000E+00 g(S)=  0.000E+00 dE (1.order)= 0.000E+00
 bond charge predicted
       N       E                     dE             d eps       ncg     rms          rms(c)
DAV:   1    -0.303507319892E+03   -0.14552E-10   -0.45615E-11   294   0.123E-10    0.264E-10
RMM:   2    -0.303507319891E+03    0.42928E-09    0.00000E+00     1   0.884E-11
  92 F= -.30350732E+03 E0= -.30354932E+03  d E =-.218279E-10
quench:  g(F)=  0.000E+00 g(S)=  0.000E+00 dE (1.order)= 0.000E+00
 bond charge predicted
       N       E                     dE             d eps       ncg     rms          rms(c)
DAV:   1    -0.303507319891E+03    0.58935E-09    0.43258E-11   294   0.220E-10    0.216E-10
RMM:   2    -0.303507319891E+03   -0.12369E-09    0.00000E+00     1   0.827E-11
  93 F= -.30350732E+03 E0= -.30354932E+03  d E =0.363798E-10
quench:  g(F)=  0.000E+00 g(S)=  0.000E+00 dE (1.order)= 0.000E+00
 bond charge predicted
       N       E                     dE             d eps       ncg     rms          rms(c)
DAV:   1    -0.303507319891E+03    0.16007E-09    0.87778E-11   294   0.226E-10    0.163E-10
RMM:   2    -0.303507319891E+03   -0.29104E-09    0.00000E+00     1   0.819E-11
  94 F= -.30350732E+03 E0= -.30354932E+03  d E =-.727596E-11
quench:  g(F)=  0.000E+00 g(S)=  0.000E+00 dE (1.order)= 0.000E+00
 bond charge predicted
       N       E                     dE             d eps       ncg     rms          rms(c)
DAV:   1    -0.303507319892E+03   -0.76398E-09   -0.52595E-11   294   0.111E-10    0.208E-10
RMM:   2    -0.303507319891E+03    0.37835E-09    0.00000E+00     1   0.728E-11
  95 F= -.30350732E+03 E0= -.30354932E+03  d E =-.945874E-10
quench:  g(F)=  0.000E+00 g(S)=  0.000E+00 dE (1.order)= 0.000E+00
 bond charge predicted
       N       E                     dE             d eps       ncg     rms          rms(c)
DAV:   1    -0.303507319891E+03    0.93132E-09    0.64342E-11   294   0.120E-10    0.306E-10
RMM:   2    -0.303507319891E+03   -0.45839E-09    0.00000E+00     1   0.924E-11
  96 F= -.30350732E+03 E0= -.30354932E+03  d E =0.945874E-10
quench:  g(F)=  0.000E+00 g(S)=  0.000E+00 dE (1.order)= 0.000E+00
 bond charge predicted
       N       E                     dE             d eps       ncg     rms          rms(c)
DAV:   1    -0.303507319892E+03   -0.15789E-08   -0.13579E-10   294   0.252E-10    0.271E-10
RMM:   2    -0.303507319891E+03    0.10841E-08    0.00000E+00     1   0.101E-10
  97 F= -.30350732E+03 E0= -.30354932E+03  d E =-.363798E-10
quench:  g(F)=  0.000E+00 g(S)=  0.000E+00 dE (1.order)= 0.000E+00
 bond charge predicted
       N       E                     dE             d eps       ncg     rms          rms(c)
DAV:   1    -0.303507319891E+03    0.16444E-08   -0.10314E-11   294   0.267E-10    0.290E-10
RMM:   2    -0.303507319891E+03   -0.45839E-09    0.00000E+00     1   0.857E-11
  98 F= -.30350732E+03 E0= -.30354932E+03  d E =0.101863E-09
quench:  g(F)=  0.000E+00 g(S)=  0.000E+00 dE (1.order)= 0.000E+00
 bond charge predicted
       N       E                     dE             d eps       ncg     rms          rms(c)
DAV:   1    -0.303507319891E+03   -0.21100E-09    0.38017E-11   294   0.208E-10    0.319E-10
RMM:   2    -0.303507319891E+03   -0.24011E-09    0.00000E+00     1   0.828E-11
  99 F= -.30350732E+03 E0= -.30354932E+03  d E =0.727596E-11
quench:  g(F)=  0.000E+00 g(S)=  0.000E+00 dE (1.order)= 0.000E+00
 bond charge predicted
       N       E                     dE             d eps       ncg     rms          rms(c)
DAV:   1    -0.303507319891E+03    0.48021E-09   -0.16078E-12   294   0.197E-10    0.225E-10
RMM:   2    -0.303507319891E+03   -0.79308E-09    0.00000E+00     1   0.844E-11
 100 F= -.30350732E+03 E0= -.30354932E+03  d E =-.727596E-10
quench:  g(F)=  0.000E+00 g(S)=  0.000E+00 dE (1.order)= 0.000E+00
 bond charge predicted
       N       E                     dE             d eps       ncg     rms          rms(c)
DAV:   1    -0.303507319892E+03   -0.94587E-09    0.10271E-10   294   0.114E-10    0.350E-10
RMM:   2    -0.303507319891E+03    0.19645E-09    0.00000E+00     1   0.926E-11
 101 F= -.30350732E+03 E0= -.30354932E+03  d E =0.436557E-10
quench:  g(F)=  0.000E+00 g(S)=  0.000E+00 dE (1.order)= 0.000E+00
 bond charge predicted
       N       E                     dE             d eps       ncg     rms          rms(c)
DAV:   1    -0.303507319891E+03    0.74942E-09   -0.11556E-10   294   0.209E-10    0.353E-10
RMM:   2    -0.303507319891E+03   -0.65484E-09    0.00000E+00     1   0.114E-10
 102 F= -.30350732E+03 E0= -.30354932E+03  d E =-.101863E-09
quench:  g(F)=  0.000E+00 g(S)=  0.000E+00 dE (1.order)= 0.000E+00
 bond charge predicted
       N       E                     dE             d eps       ncg     rms          rms(c)
DAV:   1    -0.303507319892E+03   -0.80763E-09    0.10735E-10   294   0.417E-10    0.136E-10
RMM:   2    -0.303507319891E+03    0.16735E-09    0.00000E+00     1   0.783E-11
 103 F= -.30350732E+03 E0= -.30354932E+03  d E =0.145519E-10
quench:  g(F)=  0.000E+00 g(S)=  0.000E+00 dE (1.order)= 0.000E+00
 bond charge predicted
       N       E                     dE             d eps       ncg     rms          rms(c)
DAV:   1    -0.303507319891E+03    0.41473E-09   -0.11637E-10   294   0.986E-11    0.288E-10
RMM:   2    -0.303507319891E+03   -0.21828E-09    0.00000E+00     1   0.100E-10
 104 F= -.30350732E+03 E0= -.30354932E+03  d E =0.291038E-10
quench:  g(F)=  0.000E+00 g(S)=  0.000E+00 dE (1.order)= 0.000E+00
 bond charge predicted
       N       E                     dE             d eps       ncg     rms          rms(c)
DAV:   1    -0.303507319891E+03    0.60390E-09   -0.11130E-11   294   0.252E-10    0.269E-10
RMM:   2    -0.303507319891E+03   -0.82946E-09    0.00000E+00     1   0.105E-10
 105 F= -.30350732E+03 E0= -.30354932E+03  d E =-.727596E-11
quench:  g(F)=  0.000E+00 g(S)=  0.000E+00 dE (1.order)= 0.000E+00
 bond charge predicted
       N       E                     dE             d eps       ncg     rms          rms(c)
DAV:   1    -0.303507319891E+03   -0.21828E-10    0.23049E-10   294   0.297E-10    0.204E-10
RMM:   2    -0.303507319891E+03   -0.72760E-09    0.00000E+00     1   0.664E-11
 106 F= -.30350732E+03 E0= -.30354932E+03  d E =0.800355E-10
quench:  g(F)=  0.000E+00 g(S)=  0.000E+00 dE (1.order)= 0.000E+00
 bond charge predicted
       N       E                     dE             d eps       ncg     rms          rms(c)
DAV:   1    -0.303507319891E+03   -0.82946E-09    0.14331E-10   294   0.147E-10    0.245E-10
RMM:   2    -0.303507319891E+03   -0.72760E-11    0.00000E+00     1   0.777E-11
 107 F= -.30350732E+03 E0= -.30354932E+03  d E =-.109139E-09
quench:  g(F)=  0.000E+00 g(S)=  0.000E+00 dE (1.order)= 0.000E+00
 bond charge predicted
       N       E                     dE             d eps       ncg     rms          rms(c)
DAV:   1    -0.303507319892E+03   -0.43656E-09    0.10896E-11   294   0.167E-10    0.190E-10
RMM:   2    -0.303507319891E+03    0.43656E-09    0.00000E+00     1   0.782E-11
 108 F= -.30350732E+03 E0= -.30354932E+03  d E =0.727596E-11
quench:  g(F)=  0.000E+00 g(S)=  0.000E+00 dE (1.order)= 0.000E+00
 bond charge predicted
       N       E                     dE             d eps       ncg     rms          rms(c)
DAV:   1    -0.303507319892E+03   -0.18190E-09    0.10301E-10   294   0.177E-10    0.255E-10
RMM:   2    -0.303507319891E+03    0.61118E-09    0.00000E+00     1   0.934E-11
 109 F= -.30350732E+03 E0= -.30354932E+03  d E =-.727596E-11
quench:  g(F)=  0.000E+00 g(S)=  0.000E+00 dE (1.order)= 0.000E+00
 bond charge predicted
       N       E                     dE             d eps       ncg     rms          rms(c)
DAV:   1    -0.303507319892E+03    0.17462E-09    0.70298E-11   294   0.237E-10    0.244E-10
RMM:   2    -0.303507319891E+03    0.56752E-09    0.00000E+00     1   0.796E-11
 110 F= -.30350732E+03 E0= -.30354932E+03  d E =0.130967E-09
quench:  g(F)=  0.000E+00 g(S)=  0.000E+00 dE (1.order)= 0.000E+00
 bond charge predicted
       N       E                     dE             d eps       ncg     rms          rms(c)
DAV:   1    -0.303507319890E+03    0.15425E-08   -0.97806E-11   294   0.255E-10    0.201E-10
RMM:   2    -0.303507319891E+03   -0.96770E-09    0.00000E+00     1   0.720E-11
 111 F= -.30350732E+03 E0= -.30354932E+03  d E =0.727596E-11
quench:  g(F)=  0.000E+00 g(S)=  0.000E+00 dE (1.order)= 0.000E+00
 bond charge predicted
       N       E                     dE             d eps       ncg     rms          rms(c)
DAV:   1    -0.303507319891E+03   -0.76398E-09   -0.68522E-11   294   0.174E-10    0.432E-10
RMM:   2    -0.303507319891E+03   -0.25466E-09    0.00000E+00     1   0.104E-10
 112 F= -.30350732E+03 E0= -.30354932E+03  d E =-.509317E-10
quench:  g(F)=  0.000E+00 g(S)=  0.000E+00 dE (1.order)= 0.000E+00
 bond charge predicted
       N       E                     dE             d eps       ncg     rms          rms(c)
DAV:   1    -0.303507319892E+03   -0.98953E-09   -0.10684E-10   294   0.233E-10    0.177E-10
RMM:   2    -0.303507319891E+03    0.60390E-09    0.00000E+00     1   0.859E-11
 113 F= -.30350732E+03 E0= -.30354932E+03  d E =-.130967E-09
quench:  g(F)=  0.000E+00 g(S)=  0.000E+00 dE (1.order)= 0.000E+00
 bond charge predicted
       N       E                     dE             d eps       ncg     rms          rms(c)
DAV:   1    -0.303507319891E+03    0.12733E-08    0.63899E-11   294   0.999E-11    0.276E-10
RMM:   2    -0.303507319891E+03   -0.59663E-09    0.00000E+00     1   0.758E-11
 114 F= -.30350732E+03 E0= -.30354932E+03  d E =0.727596E-10
quench:  g(F)=  0.000E+00 g(S)=  0.000E+00 dE (1.order)= 0.000E+00
 bond charge predicted
       N       E                     dE             d eps       ncg     rms          rms(c)
DAV:   1    -0.303507319892E+03   -0.13097E-08    0.14189E-10   294   0.182E-10    0.315E-10
RMM:   2    -0.303507319891E+03    0.72032E-09    0.00000E+00     1   0.899E-11
 115 F= -.30350732E+03 E0= -.30354932E+03  d E =0.727596E-11
quench:  g(F)=  0.000E+00 g(S)=  0.000E+00 dE (1.order)= 0.000E+00
 bond charge predicted
       N       E                     dE             d eps       ncg     rms          rms(c)
DAV:   1    -0.303507319891E+03    0.95315E-09    0.10276E-10   294   0.332E-10    0.317E-10
RMM:   2    -0.303507319891E+03   -0.31287E-09    0.00000E+00     1   0.998E-11
 116 F= -.30350732E+03 E0= -.30354932E+03  d E =-.800355E-10
quench:  g(F)=  0.000E+00 g(S)=  0.000E+00 dE (1.order)= 0.000E+00
 bond charge predicted
       N       E                     dE             d eps       ncg     rms          rms(c)
DAV:   1    -0.303507319892E+03   -0.82946E-09    0.38281E-11   294   0.315E-10    0.342E-10
RMM:   2    -0.303507319891E+03    0.62573E-09    0.00000E+00     1   0.105E-10
 117 F= -.30350732E+03 E0= -.30354932E+03  d E =0.109139E-09
quench:  g(F)=  0.000E+00 g(S)=  0.000E+00 dE (1.order)= 0.000E+00
 bond charge predicted
       N       E                     dE             d eps       ncg     rms          rms(c)
DAV:   1    -0.303507319892E+03   -0.18190E-09   -0.44854E-11   294   0.330E-10    0.296E-10
RMM:   2    -0.303507319891E+03    0.82946E-09    0.00000E+00     1   0.822E-11
 118 F= -.30350732E+03 E0= -.30354932E+03  d E =0.218279E-10
quench:  g(F)=  0.000E+00 g(S)=  0.000E+00 dE (1.order)= 0.000E+00
 bond charge predicted
       N       E                     dE             d eps       ncg     rms          rms(c)
DAV:   1    -0.303507319892E+03    0.48749E-09   -0.13164E-10   294   0.235E-10    0.242E-10
RMM:   2    -0.303507319891E+03    0.22555E-09    0.00000E+00     1   0.761E-11
 119 F= -.30350732E+03 E0= -.30354932E+03  d E =-.116415E-09
quench:  g(F)=  0.000E+00 g(S)=  0.000E+00 dE (1.order)= 0.000E+00
 bond charge predicted
       N       E                     dE             d eps       ncg     rms          rms(c)
DAV:   1    -0.303507319891E+03    0.29104E-09   -0.82436E-11   294   0.144E-10    0.284E-10
RMM:   2    -0.303507319891E+03   -0.72760E-11    0.00000E+00     1   0.789E-11
 120 F= -.30350732E+03 E0= -.30354932E+03  d E =0.582077E-10
quench:  g(F)=  0.000E+00 g(S)=  0.000E+00 dE (1.order)= 0.000E+00
 bond charge predicted
       N       E                     dE             d eps       ncg     rms          rms(c)
DAV:   1    -0.303507319892E+03   -0.65484E-09   -0.89607E-11   294   0.108E-10    0.294E-10
RMM:   2    -0.303507319891E+03    0.73487E-09    0.00000E+00     1   0.799E-11
 121 F= -.30350732E+03 E0= -.30354932E+03  d E =0.873115E-10
quench:  g(F)=  0.000E+00 g(S)=  0.000E+00 dE (1.order)= 0.000E+00
 bond charge predicted
       N       E                     dE             d eps       ncg     rms          rms(c)
DAV:   1    -0.303507319891E+03    0.12660E-08   -0.11117E-11   294   0.222E-10    0.294E-10
RMM:   2    -0.303507319891E+03   -0.56025E-09    0.00000E+00     1   0.807E-11
 122 F= -.30350732E+03 E0= -.30354932E+03  d E =-.291038E-10
quench:  g(F)=  0.000E+00 g(S)=  0.000E+00 dE (1.order)= 0.000E+00
 bond charge predicted
       N       E                     dE             d eps       ncg     rms          rms(c)
DAV:   1    -0.303507319892E+03   -0.13242E-08   -0.19475E-11   294   0.224E-10    0.263E-10
RMM:   2    -0.303507319891E+03    0.79308E-09    0.00000E+00     1   0.763E-11
 123 F= -.30350732E+03 E0= -.30354932E+03  d E =0.291038E-10
quench:  g(F)=  0.000E+00 g(S)=  0.000E+00 dE (1.order)= 0.000E+00
 bond charge predicted
       N       E                     dE             d eps       ncg     rms          rms(c)
DAV:   1    -0.303507319892E+03    0.22555E-09    0.24614E-11   294   0.227E-10    0.209E-10
RMM:   2    -0.303507319891E+03    0.53114E-09    0.00000E+00     1   0.786E-11
 124 F= -.30350732E+03 E0= -.30354932E+03  d E =-.363798E-10
quench:  g(F)=  0.000E+00 g(S)=  0.000E+00 dE (1.order)= 0.000E+00
 bond charge predicted
       N       E                     dE             d eps       ncg     rms          rms(c)
DAV:   1    -0.303507319892E+03   -0.72760E-11    0.20455E-10   294   0.231E-10    0.311E-10
RMM:   2    -0.303507319891E+03    0.44383E-09    0.00000E+00     1   0.977E-11
 125 F= -.30350732E+03 E0= -.30354932E+03  d E =-.945874E-10
quench:  g(F)=  0.000E+00 g(S)=  0.000E+00 dE (1.order)= 0.000E+00
 bond charge predicted
       N       E                     dE             d eps       ncg     rms          rms(c)
DAV:   1    -0.303507319891E+03    0.66211E-09    0.83760E-11   294   0.272E-10    0.280E-10
RMM:   2    -0.303507319891E+03   -0.87311E-10    0.00000E+00     1   0.816E-11
 126 F= -.30350732E+03 E0= -.30354932E+03  d E =0.130967E-09
quench:  g(F)=  0.000E+00 g(S)=  0.000E+00 dE (1.order)= 0.000E+00
 bond charge predicted
       N       E                     dE             d eps       ncg     rms          rms(c)
DAV:   1    -0.303507319890E+03    0.91677E-09    0.95889E-12   294   0.241E-10    0.281E-10
RMM:   2    -0.303507319891E+03   -0.11350E-08    0.00000E+00     1   0.930E-11
 127 F= -.30350732E+03 E0= -.30354932E+03  d E =-.130967E-09
quench:  g(F)=  0.000E+00 g(S)=  0.000E+00 dE (1.order)= 0.000E+00
 bond charge predicted
       N       E                     dE             d eps       ncg     rms          rms(c)
DAV:   1    -0.303507319891E+03   -0.85856E-09    0.42061E-11   294   0.229E-10    0.213E-10
RMM:   2    -0.303507319891E+03   -0.21100E-09    0.00000E+00     1   0.665E-11
 128 F= -.30350732E+03 E0= -.30354932E+03  d E =0.654836E-10
quench:  g(F)=  0.000E+00 g(S)=  0.000E+00 dE (1.order)= 0.000E+00
 bond charge predicted
       N       E                     dE             d eps       ncg     rms          rms(c)
DAV:   1    -0.303507319892E+03   -0.72032E-09   -0.24186E-11   294   0.203E-10    0.229E-10
RMM:   2    -0.303507319891E+03    0.49477E-09    0.00000E+00     1   0.799E-11
 129 F= -.30350732E+03 E0= -.30354932E+03  d E =-.145519E-10
quench:  g(F)=  0.000E+00 g(S)=  0.000E+00 dE (1.order)= 0.000E+00
 bond charge predicted
       N       E                     dE             d eps       ncg     rms          rms(c)
DAV:   1    -0.303507319891E+03    0.70577E-09    0.33565E-10   294   0.194E-10    0.314E-10
RMM:   2    -0.303507319891E+03   -0.17462E-09    0.00000E+00     1   0.787E-11
 130 F= -.30350732E+03 E0= -.30354932E+03  d E =0.363798E-10
quench:  g(F)=  0.000E+00 g(S)=  0.000E+00 dE (1.order)= 0.000E+00
 bond charge predicted
       N       E                     dE             d eps       ncg     rms          rms(c)
DAV:   1    -0.303507319891E+03   -0.13097E-09    0.33458E-13   294   0.207E-10    0.401E-10
RMM:   2    -0.303507319891E+03    0.00000E+00    0.00000E+00     1   0.109E-10
 131 F= -.30350732E+03 E0= -.30354932E+03  d E =0.436557E-10
quench:  g(F)=  0.000E+00 g(S)=  0.000E+00 dE (1.order)= 0.000E+00
 bond charge predicted
       N       E                     dE             d eps       ncg     rms          rms(c)
DAV:   1    -0.303507319891E+03    0.16007E-09    0.99111E-12   294   0.434E-10    0.235E-10
RMM:   2    -0.303507319891E+03   -0.31287E-09    0.00000E+00     1   0.866E-11
 132 F= -.30350732E+03 E0= -.30354932E+03  d E =-.152795E-09
quench:  g(F)=  0.000E+00 g(S)=  0.000E+00 dE (1.order)= 0.000E+00
 bond charge predicted
       N       E                     dE             d eps       ncg     rms          rms(c)
DAV:   1    -0.303507319893E+03   -0.15280E-08    0.10526E-10   294   0.143E-10    0.262E-10
RMM:   2    -0.303507319891E+03    0.12078E-08    0.00000E+00     1   0.945E-11
 133 F= -.30350732E+03 E0= -.30354932E+03  d E =-.727596E-11
quench:  g(F)=  0.000E+00 g(S)=  0.000E+00 dE (1.order)= 0.000E+00
 bond charge predicted
       N       E                     dE             d eps       ncg     rms          rms(c)
DAV:   1    -0.303507319892E+03    0.39290E-09    0.30272E-12   294   0.268E-10    0.436E-10
RMM:   2    -0.303507319891E+03    0.91677E-09    0.00000E+00     1   0.137E-10
 134 F= -.30350732E+03 E0= -.30354932E+03  d E =0.101863E-09
quench:  g(F)=  0.000E+00 g(S)=  0.000E+00 dE (1.order)= 0.000E+00
 bond charge predicted
       N       E                     dE             d eps       ncg     rms          rms(c)
DAV:   1    -0.303507319891E+03    0.84401E-09    0.23691E-11   294   0.427E-10    0.364E-10
RMM:   2    -0.303507319891E+03    0.13097E-09    0.00000E+00     1   0.102E-10
 135 F= -.30350732E+03 E0= -.30354932E+03  d E =0.582077E-10
quench:  g(F)=  0.000E+00 g(S)=  0.000E+00 dE (1.order)= 0.000E+00
 bond charge predicted
       N       E                     dE             d eps       ncg     rms          rms(c)
DAV:   1    -0.303507319891E+03    0.20373E-09    0.67606E-11   294   0.291E-10    0.350E-10
RMM:   2    -0.303507319891E+03   -0.14552E-09    0.00000E+00     1   0.112E-10
 136 F= -.30350732E+03 E0= -.30354932E+03  d E =-.727596E-10
quench:  g(F)=  0.000E+00 g(S)=  0.000E+00 dE (1.order)= 0.000E+00
 bond charge predicted
       N       E                     dE             d eps       ncg     rms          rms(c)
DAV:   1    -0.303507319892E+03   -0.43656E-09    0.32106E-11   294   0.427E-10    0.352E-10
RMM:   2    -0.303507319891E+03    0.27649E-09    0.00000E+00     1   0.888E-11
 137 F= -.30350732E+03 E0= -.30354932E+03  d E =-.145519E-10
quench:  g(F)=  0.000E+00 g(S)=  0.000E+00 dE (1.order)= 0.000E+00
 bond charge predicted
       N       E                     dE             d eps       ncg     rms          rms(c)
DAV:   1    -0.303507319891E+03    0.16735E-09    0.75486E-11   294   0.220E-10    0.298E-10
RMM:   2    -0.303507319891E+03    0.16735E-09    0.00000E+00     1   0.106E-10
 138 F= -.30350732E+03 E0= -.30354932E+03  d E =0.582077E-10
quench:  g(F)=  0.000E+00 g(S)=  0.000E+00 dE (1.order)= 0.000E+00
 bond charge predicted
       N       E                     dE             d eps       ncg     rms          rms(c)
DAV:   1    -0.303507319891E+03    0.94587E-10    0.21646E-11   294   0.318E-10    0.196E-10
RMM:   2    -0.303507319891E+03    0.14552E-10    0.00000E+00     1   0.861E-11
 139 F= -.30350732E+03 E0= -.30354932E+03  d E =-.582077E-10
quench:  g(F)=  0.000E+00 g(S)=  0.000E+00 dE (1.order)= 0.000E+00
 bond charge predicted
       N       E                     dE             d eps       ncg     rms          rms(c)
DAV:   1    -0.303507319892E+03   -0.50204E-09    0.60314E-11   294   0.181E-10    0.239E-10
RMM:   2    -0.303507319891E+03    0.46566E-09    0.00000E+00     1   0.732E-11
 140 F= -.30350732E+03 E0= -.30354932E+03  d E =-.509317E-10
quench:  g(F)=  0.000E+00 g(S)=  0.000E+00 dE (1.order)= 0.000E+00
 bond charge predicted
       N       E                     dE             d eps       ncg     rms          rms(c)
DAV:   1    -0.303507319892E+03   -0.47294E-09   -0.47786E-11   294   0.155E-10    0.291E-10
RMM:   2    -0.303507319891E+03    0.99681E-09    0.00000E+00     1   0.815E-11
 141 F= -.30350732E+03 E0= -.30354932E+03  d E =0.582077E-10
quench:  g(F)=  0.000E+00 g(S)=  0.000E+00 dE (1.order)= 0.000E+00
 bond charge predicted
       N       E                     dE             d eps       ncg     rms          rms(c)
DAV:   1    -0.303507319891E+03    0.11642E-08    0.10288E-10   294   0.277E-10    0.184E-10
RMM:   2    -0.303507319891E+03   -0.19645E-09    0.00000E+00     1   0.795E-11
 142 F= -.30350732E+03 E0= -.30354932E+03  d E =-.291038E-10
quench:  g(F)=  0.000E+00 g(S)=  0.000E+00 dE (1.order)= 0.000E+00
 bond charge predicted
       N       E                     dE             d eps       ncg     rms          rms(c)
DAV:   1    -0.303507319892E+03   -0.34197E-09    0.15529E-10   294   0.174E-10    0.263E-10
RMM:   2    -0.303507319891E+03    0.14552E-09    0.00000E+00     1   0.862E-11
 143 F= -.30350732E+03 E0= -.30354932E+03  d E =0.000000E+00
quench:  g(F)=  0.000E+00 g(S)=  0.000E+00 dE (1.order)= 0.000E+00
 bond charge predicted
       N       E                     dE             d eps       ncg     rms          rms(c)
DAV:   1    -0.303507319891E+03    0.18917E-09    0.48069E-11   294   0.212E-10    0.328E-10
RMM:   2    -0.303507319891E+03   -0.65484E-10    0.00000E+00     1   0.954E-11
 144 F= -.30350732E+03 E0= -.30354932E+03  d E =-.218279E-10
quench:  g(F)=  0.000E+00 g(S)=  0.000E+00 dE (1.order)= 0.000E+00
 bond charge predicted
       N       E                     dE             d eps       ncg     rms          rms(c)
DAV:   1    -0.303507319892E+03   -0.31287E-09    0.13802E-11   294   0.362E-10    0.254E-10
RMM:   2    -0.303507319891E+03    0.33469E-09    0.00000E+00     1   0.828E-11
 145 F= -.30350732E+03 E0= -.30354932E+03  d E =0.873115E-10
quench:  g(F)=  0.000E+00 g(S)=  0.000E+00 dE (1.order)= 0.000E+00
 bond charge predicted
       N       E                     dE             d eps       ncg     rms          rms(c)
DAV:   1    -0.303507319890E+03    0.13533E-08    0.37429E-11   294   0.186E-10    0.251E-10
RMM:   2    -0.303507319891E+03   -0.10259E-08    0.00000E+00     1   0.730E-11
 146 F= -.30350732E+03 E0= -.30354932E+03  d E =-.727596E-11
quench:  g(F)=  0.000E+00 g(S)=  0.000E+00 dE (1.order)= 0.000E+00
 bond charge predicted
       N       E                     dE             d eps       ncg     rms          rms(c)
DAV:   1    -0.303507319891E+03   -0.70577E-09   -0.10275E-10   294   0.183E-10    0.170E-10
RMM:   2    -0.303507319891E+03   -0.25466E-09    0.00000E+00     1   0.732E-11
 147 F= -.30350732E+03 E0= -.30354932E+03  d E =0.654836E-10
quench:  g(F)=  0.000E+00 g(S)=  0.000E+00 dE (1.order)= 0.000E+00
 bond charge predicted
       N       E                     dE             d eps       ncg     rms          rms(c)
DAV:   1    -0.303507319891E+03   -0.36380E-10    0.63580E-11   294   0.131E-10    0.265E-10
RMM:   2    -0.303507319891E+03   -0.24011E-09    0.00000E+00     1   0.853E-11
 148 F= -.30350732E+03 E0= -.30354932E+03  d E =-.218279E-10
quench:  g(F)=  0.000E+00 g(S)=  0.000E+00 dE (1.order)= 0.000E+00
 bond charge predicted
       N       E                     dE             d eps       ncg     rms          rms(c)
DAV:   1    -0.303507319892E+03   -0.89494E-09   -0.10368E-12   294   0.236E-10    0.222E-10
RMM:   2    -0.303507319891E+03    0.64028E-09    0.00000E+00     1   0.847E-11
 149 F= -.30350732E+03 E0= -.30354932E+03  d E =-.145519E-10
quench:  g(F)=  0.000E+00 g(S)=  0.000E+00 dE (1.order)= 0.000E+00
 bond charge predicted
       N       E                     dE             d eps       ncg     rms          rms(c)
DAV:   1    -0.303507319892E+03    0.24011E-09    0.11667E-10   294   0.245E-10    0.320E-10
RMM:   2    -0.303507319891E+03    0.28376E-09    0.00000E+00     1   0.971E-11
 150 F= -.30350732E+03 E0= -.30354932E+03  d E =-.116415E-09
quench:  g(F)=  0.000E+00 g(S)=  0.000E+00 dE (1.order)= 0.000E+00
 bond charge predicted
       N       E                     dE             d eps       ncg     rms          rms(c)
DAV:   1    -0.303507319891E+03    0.92405E-09    0.14499E-10   294   0.300E-10    0.231E-10
RMM:   2    -0.303507319891E+03   -0.54570E-09    0.00000E+00     1   0.714E-11
 151 F= -.30350732E+03 E0= -.30354932E+03  d E =0.945874E-10
quench:  g(F)=  0.000E+00 g(S)=  0.000E+00 dE (1.order)= 0.000E+00
 bond charge predicted
       N       E                     dE             d eps       ncg     rms          rms(c)
DAV:   1    -0.303507319892E+03   -0.11278E-08    0.26690E-11   294   0.171E-10    0.288E-10
RMM:   2    -0.303507319891E+03    0.63301E-09    0.00000E+00     1   0.947E-11
 152 F= -.30350732E+03 E0= -.30354932E+03  d E =0.509317E-10
quench:  g(F)=  0.000E+00 g(S)=  0.000E+00 dE (1.order)= 0.000E+00
 bond charge predicted
       N       E                     dE             d eps       ncg     rms          rms(c)
DAV:   1    -0.303507319892E+03   -0.25466E-09   -0.85551E-11   294   0.220E-10    0.248E-10
RMM:   2    -0.303507319891E+03    0.76398E-09    0.00000E+00     1   0.759E-11
 153 F= -.30350732E+03 E0= -.30354932E+03  d E =-.123691E-09
quench:  g(F)=  0.000E+00 g(S)=  0.000E+00 dE (1.order)= 0.000E+00
 bond charge predicted
       N       E                     dE             d eps       ncg     rms          rms(c)
DAV:   1    -0.303507319892E+03    0.47294E-09    0.13872E-10   294   0.236E-10    0.294E-10
RMM:   2    -0.303507319891E+03    0.29104E-09    0.00000E+00     1   0.907E-11
 154 F= -.30350732E+03 E0= -.30354932E+03  d E =0.000000E+00
quench:  g(F)=  0.000E+00 g(S)=  0.000E+00 dE (1.order)= 0.000E+00
 bond charge predicted
       N       E                     dE             d eps       ncg     rms          rms(c)
DAV:   1    -0.303507319893E+03   -0.10914E-08    0.92844E-11   294   0.204E-10    0.271E-10
RMM:   2    -0.303507319891E+03    0.13315E-08    0.00000E+00     1   0.957E-11
 155 F= -.30350732E+03 E0= -.30354932E+03  d E =-.509317E-10
quench:  g(F)=  0.000E+00 g(S)=  0.000E+00 dE (1.order)= 0.000E+00
 bond charge predicted
       N       E                     dE             d eps       ncg     rms          rms(c)
DAV:   1    -0.303507319892E+03    0.11642E-08    0.19717E-10   294   0.295E-10    0.304E-10
RMM:   2    -0.303507319891E+03    0.24011E-09    0.00000E+00     1   0.104E-10
 156 F= -.30350732E+03 E0= -.30354932E+03  d E =0.727596E-10
quench:  g(F)=  0.000E+00 g(S)=  0.000E+00 dE (1.order)= 0.000E+00
 bond charge predicted
       N       E                     dE             d eps       ncg     rms          rms(c)
DAV:   1    -0.303507319891E+03    0.73487E-09    0.31835E-12   294   0.349E-10    0.165E-10
RMM:   2    -0.303507319891E+03   -0.48749E-09    0.00000E+00     1   0.881E-11
 157 F= -.30350732E+03 E0= -.30354932E+03  d E =0.727596E-11
quench:  g(F)=  0.000E+00 g(S)=  0.000E+00 dE (1.order)= 0.000E+00
 bond charge predicted
       N       E                     dE             d eps       ncg     rms          rms(c)
DAV:   1    -0.303507319891E+03   -0.12369E-09   -0.15524E-12   294   0.155E-10    0.274E-10
RMM:   2    -0.303507319891E+03   -0.29831E-09    0.00000E+00     1   0.869E-11
 158 F= -.30350732E+03 E0= -.30354932E+03  d E =0.654836E-10
quench:  g(F)=  0.000E+00 g(S)=  0.000E+00 dE (1.order)= 0.000E+00
 bond charge predicted
       N       E                     dE             d eps       ncg     rms          rms(c)
DAV:   1    -0.303507319891E+03   -0.27649E-09    0.53823E-11   294   0.237E-10    0.273E-10
RMM:   2    -0.303507319891E+03   -0.36380E-10    0.00000E+00     1   0.918E-11
 159 F= -.30350732E+03 E0= -.30354932E+03  d E =-.145519E-10
quench:  g(F)=  0.000E+00 g(S)=  0.000E+00 dE (1.order)= 0.000E+00
 bond charge predicted
       N       E                     dE             d eps       ncg     rms          rms(c)
DAV:   1    -0.303507319892E+03   -0.24738E-09    0.14268E-10   294   0.201E-10    0.275E-10
RMM:   2    -0.303507319891E+03    0.25466E-09    0.00000E+00     1   0.819E-11
 160 F= -.30350732E+03 E0= -.30354932E+03  d E =0.436557E-10
quench:  g(F)=  0.000E+00 g(S)=  0.000E+00 dE (1.order)= 0.000E+00
 bond charge predicted
       N       E                     dE             d eps       ncg     rms          rms(c)
DAV:   1    -0.303507319891E+03    0.57480E-09    0.22948E-11   294   0.193E-10    0.211E-10
RMM:   2    -0.303507319891E+03   -0.34197E-09    0.00000E+00     1   0.768E-11
 161 F= -.30350732E+03 E0= -.30354932E+03  d E =-.218279E-10
quench:  g(F)=  0.000E+00 g(S)=  0.000E+00 dE (1.order)= 0.000E+00
 bond charge predicted
       N       E                     dE             d eps       ncg     rms          rms(c)
DAV:   1    -0.303507319891E+03   -0.23283E-09    0.83549E-11   294   0.213E-10    0.288E-10
RMM:   2    -0.303507319891E+03   -0.13097E-09    0.00000E+00     1   0.101E-10
 162 F= -.30350732E+03 E0= -.30354932E+03  d E =-.218279E-10
quench:  g(F)=  0.000E+00 g(S)=  0.000E+00 dE (1.order)= 0.000E+00
 bond charge predicted
       N       E                     dE             d eps       ncg     rms          rms(c)
DAV:   1    -0.303507319892E+03   -0.45839E-09   -0.14828E-10   294   0.263E-10    0.374E-10
RMM:   2    -0.303507319891E+03    0.37107E-09    0.00000E+00     1   0.102E-10
 163 F= -.30350732E+03 E0= -.30354932E+03  d E =0.436557E-10
quench:  g(F)=  0.000E+00 g(S)=  0.000E+00 dE (1.order)= 0.000E+00
 bond charge predicted
       N       E                     dE             d eps       ncg     rms          rms(c)
DAV:   1    -0.303507319892E+03   -0.22555E-09    0.32714E-11   294   0.239E-10    0.339E-10
RMM:   2    -0.303507319891E+03    0.52387E-09    0.00000E+00     1   0.111E-10
 164 F= -.30350732E+03 E0= -.30354932E+03  d E =-.727596E-10
quench:  g(F)=  0.000E+00 g(S)=  0.000E+00 dE (1.order)= 0.000E+00
 bond charge predicted
       N       E                     dE             d eps       ncg     rms          rms(c)
DAV:   1    -0.303507319891E+03    0.80036E-09    0.52120E-11   294   0.442E-10    0.225E-10
RMM:   2    -0.303507319891E+03   -0.32014E-09    0.00000E+00     1   0.923E-11
 165 F= -.30350732E+03 E0= -.30354932E+03  d E =-.436557E-10
quench:  g(F)=  0.000E+00 g(S)=  0.000E+00 dE (1.order)= 0.000E+00
 bond charge predicted
       N       E                     dE             d eps       ncg     rms          rms(c)
DAV:   1    -0.303507319891E+03   -0.21100E-09    0.73226E-11   294   0.226E-10    0.229E-10
RMM:   2    -0.303507319891E+03   -0.15280E-09    0.00000E+00     1   0.855E-11
 166 F= -.30350732E+03 E0= -.30354932E+03  d E =-.436557E-10
quench:  g(F)=  0.000E+00 g(S)=  0.000E+00 dE (1.order)= 0.000E+00
 bond charge predicted
       N       E                     dE             d eps       ncg     rms          rms(c)
DAV:   1    -0.303507319892E+03   -0.40745E-09    0.17375E-10   294   0.270E-10    0.258E-10
RMM:   2    -0.303507319891E+03    0.35652E-09    0.00000E+00     1   0.939E-11
 167 F= -.30350732E+03 E0= -.30354932E+03  d E =0.101863E-09
quench:  g(F)=  0.000E+00 g(S)=  0.000E+00 dE (1.order)= 0.000E+00
 bond charge predicted
       N       E                     dE             d eps       ncg     rms          rms(c)
DAV:   1    -0.303507319892E+03   -0.48021E-09    0.15708E-11   294   0.155E-10    0.359E-10
RMM:   2    -0.303507319891E+03    0.82946E-09    0.00000E+00     1   0.103E-10
 168 F= -.30350732E+03 E0= -.30354932E+03  d E =-.727596E-11
quench:  g(F)=  0.000E+00 g(S)=  0.000E+00 dE (1.order)= 0.000E+00
 bond charge predicted
       N       E                     dE             d eps       ncg     rms          rms(c)
DAV:   1    -0.303507319891E+03    0.74942E-09   -0.15030E-11   294   0.342E-10    0.138E-10
RMM:   2    -0.303507319891E+03   -0.14552E-10    0.00000E+00     1   0.810E-11
 169 F= -.30350732E+03 E0= -.30354932E+03  d E =-.945874E-10
quench:  g(F)=  0.000E+00 g(S)=  0.000E+00 dE (1.order)= 0.000E+00
 bond charge predicted
       N       E                     dE             d eps       ncg     rms          rms(c)
DAV:   1    -0.303507319891E+03    0.26193E-09    0.10032E-10   294   0.140E-10    0.374E-10
RMM:   2    -0.303507319891E+03   -0.14552E-09    0.00000E+00     1   0.985E-11
 170 F= -.30350732E+03 E0= -.30354932E+03  d E =0.130967E-09
quench:  g(F)=  0.000E+00 g(S)=  0.000E+00 dE (1.order)= 0.000E+00
 bond charge predicted
       N       E                     dE             d eps       ncg     rms          rms(c)
DAV:   1    -0.303507319891E+03   -0.65484E-10    0.14164E-10   294   0.226E-10    0.292E-10
RMM:   2    -0.303507319891E+03   -0.10186E-09    0.00000E+00     1   0.104E-10
 171 F= -.30350732E+03 E0= -.30354932E+03  d E =-.218279E-10
quench:  g(F)=  0.000E+00 g(S)=  0.000E+00 dE (1.order)= 0.000E+00
 bond charge predicted
       N       E                     dE             d eps       ncg     rms          rms(c)
DAV:   1    -0.303507319892E+03   -0.33469E-09   -0.21271E-12   294   0.226E-10    0.302E-10
RMM:   2    -0.303507319891E+03    0.19645E-09    0.00000E+00     1   0.958E-11
 172 F= -.30350732E+03 E0= -.30354932E+03  d E =-.363798E-10
quench:  g(F)=  0.000E+00 g(S)=  0.000E+00 dE (1.order)= 0.000E+00
 bond charge predicted
       N       E                     dE             d eps       ncg     rms          rms(c)
DAV:   1    -0.303507319892E+03   -0.58208E-09    0.16006E-11   294   0.310E-10    0.364E-10
RMM:   2    -0.303507319891E+03    0.81491E-09    0.00000E+00     1   0.117E-10
 173 F= -.30350732E+03 E0= -.30354932E+03  d E =0.363798E-10
quench:  g(F)=  0.000E+00 g(S)=  0.000E+00 dE (1.order)= 0.000E+00
 bond charge predicted
       N       E                     dE             d eps       ncg     rms          rms(c)
DAV:   1    -0.303507319891E+03    0.72032E-09    0.57550E-11   294   0.377E-10    0.174E-10
RMM:   2    -0.303507319891E+03    0.21828E-10    0.00000E+00     1   0.822E-11
 174 F= -.30350732E+03 E0= -.30354932E+03  d E =-.727596E-10
quench:  g(F)=  0.000E+00 g(S)=  0.000E+00 dE (1.order)= 0.000E+00
 bond charge predicted
       N       E                     dE             d eps       ncg     rms          rms(c)
DAV:   1    -0.303507319891E+03    0.87311E-10    0.49396E-11   294   0.178E-10    0.354E-10
RMM:   2    -0.303507319891E+03   -0.72760E-11    0.00000E+00     1   0.111E-10
 175 F= -.30350732E+03 E0= -.30354932E+03  d E =0.582077E-10
quench:  g(F)=  0.000E+00 g(S)=  0.000E+00 dE (1.order)= 0.000E+00
 bond charge predicted
       N       E                     dE             d eps       ncg     rms          rms(c)
DAV:   1    -0.303507319890E+03    0.16007E-08    0.63934E-11   294   0.316E-10    0.424E-10
RMM:   2    -0.303507319891E+03   -0.16735E-08    0.00000E+00     1   0.102E-10
 176 F= -.30350732E+03 E0= -.30354932E+03  d E =-.654836E-10
quench:  g(F)=  0.000E+00 g(S)=  0.000E+00 dE (1.order)= 0.000E+00
 bond charge predicted
       N       E                     dE             d eps       ncg     rms          rms(c)
DAV:   1    -0.303507319892E+03   -0.21028E-08    0.13550E-10   294   0.320E-10    0.400E-10
RMM:   2    -0.303507319891E+03    0.42928E-09    0.00000E+00     1   0.126E-10
 177 F= -.30350732E+03 E0= -.30354932E+03  d E =0.000000E+00
quench:  g(F)=  0.000E+00 g(S)=  0.000E+00 dE (1.order)= 0.000E+00
 bond charge predicted
       N       E                     dE             d eps       ncg     rms          rms(c)
DAV:   1    -0.303507319891E+03    0.61846E-09   -0.24138E-11   294   0.492E-10    0.244E-10
RMM:   2    -0.303507319891E+03   -0.24738E-09    0.00000E+00     1   0.104E-10
 178 F= -.30350732E+03 E0= -.30354932E+03  d E =-.582077E-10
quench:  g(F)=  0.000E+00 g(S)=  0.000E+00 dE (1.order)= 0.000E+00
 bond charge predicted
       N       E                     dE             d eps       ncg     rms          rms(c)
DAV:   1    -0.303507319892E+03   -0.31287E-09    0.47886E-11   294   0.281E-10    0.332E-10
RMM:   2    -0.303507319891E+03    0.15280E-09    0.00000E+00     1   0.112E-10
 179 F= -.30350732E+03 E0= -.30354932E+03  d E =0.873115E-10
quench:  g(F)=  0.000E+00 g(S)=  0.000E+00 dE (1.order)= 0.000E+00
 bond charge predicted
       N       E                     dE             d eps       ncg     rms          rms(c)
DAV:   1    -0.303507319891E+03    0.98225E-09    0.56753E-11   294   0.404E-10    0.250E-10
RMM:   2    -0.303507319891E+03   -0.79308E-09    0.00000E+00     1   0.946E-11
 180 F= -.30350732E+03 E0= -.30354932E+03  d E =0.363798E-10
[...]
 bond charge predicted
       N       E                     dE             d eps       ncg     rms          rms(c)
DAV:   1    -0.303507319891E+03    0.64756E-09   -0.49775E-12   294   0.275E-10    0.233E-10
RMM:   2    -0.303507319891E+03   -0.51659E-09    0.00000E+00     1   0.930E-11
 253 F= -.30350732E+03 E0= -.30354932E+03  d E =-.145519E-10
quench:  g(F)=  0.000E+00 g(S)=  0.000E+00 dE (1.order)= 0.000E+00
 bond charge predicted
       N       E                     dE             d eps       ncg     rms          rms(c)
DAV:   1    -0.303507319891E+03   -0.80036E-10    0.12260E-10   294   0.194E-10    0.267E-10
RMM:   2    -0.303507319891E+03   -0.37835E-09    0.00000E+00     1   0.808E-11
 254 F= -.30350732E+03 E0= -.30354932E+03  d E =0.582077E-10
quench:  g(F)=  0.000E+00 g(S)=  0.000E+00 dE (1.order)= 0.000E+00
 bond charge predicted
       N       E                     dE             d eps       ncg     rms          rms(c)
DAV:   1    -0.303507319891E+03    0.13097E-09    0.49622E-11   294   0.198E-10    0.321E-10
RMM:   2    -0.303507319891E+03   -0.63301E-09    0.00000E+00     1   0.106E-10
 255 F= -.30350732E+03 E0= -.30354932E+03  d E =-.123691E-09
quench:  g(F)=  0.000E+00 g(S)=  0.000E+00 dE (1.order)= 0.000E+00
 bond charge predicted
       N       E                     dE             d eps       ncg     rms          rms(c)
DAV:   1    -0.303507319891E+03   -0.44383E-09    0.11155E-10   294   0.375E-10    0.223E-10
RMM:   2    -0.303507319891E+03   -0.50932E-10    0.00000E+00     1   0.774E-11
 256 F= -.30350732E+03 E0= -.30354932E+03  d E =0.138243E-09
quench:  g(F)=  0.000E+00 g(S)=  0.000E+00 dE (1.order)= 0.000E+00
 bond charge predicted
       N       E                     dE             d eps       ncg     rms          rms(c)
DAV:   1    -0.303507319892E+03   -0.53842E-09    0.13982E-10   294   0.160E-10    0.278E-10
RMM:   2    -0.303507319891E+03    0.43656E-09    0.00000E+00     1   0.791E-11
 257 F= -.30350732E+03 E0= -.30354932E+03  d E =-.509317E-10
quench:  g(F)=  0.000E+00 g(S)=  0.000E+00 dE (1.order)= 0.000E+00
 bond charge predicted
       N       E                     dE             d eps       ncg     rms          rms(c)
DAV:   1    -0.303507319890E+03    0.21755E-08    0.93748E-11   294   0.143E-10    0.343E-10
RMM:   2    -0.303507319891E+03   -0.17608E-08    0.00000E+00     1   0.815E-11
 258 F= -.30350732E+03 E0= -.30354932E+03  d E =-.218279E-10
quench:  g(F)=  0.000E+00 g(S)=  0.000E+00 dE (1.order)= 0.000E+00
 bond charge predicted
       N       E                     dE             d eps       ncg     rms          rms(c)
DAV:   1    -0.303507319891E+03   -0.13169E-08   -0.61670E-11   294   0.132E-10    0.302E-10
RMM:   2    -0.303507319891E+03   -0.33469E-09    0.00000E+00     1   0.764E-11
 259 F= -.30350732E+03 E0= -.30354932E+03  d E =0.109139E-09
quench:  g(F)=  0.000E+00 g(S)=  0.000E+00 dE (1.order)= 0.000E+00
 bond charge predicted
       N       E                     dE             d eps       ncg     rms          rms(c)
DAV:   1    -0.303507319893E+03   -0.15716E-08    0.34162E-11   294   0.111E-10    0.320E-10
RMM:   2    -0.303507319891E+03    0.10987E-08    0.00000E+00     1   0.929E-11
 260 F= -.30350732E+03 E0= -.30354932E+03  d E =-.138243E-09
quench:  g(F)=  0.000E+00 g(S)=  0.000E+00 dE (1.order)= 0.000E+00
 bond charge predicted
       N       E                     dE             d eps       ncg     rms          rms(c)
DAV:   1    -0.303507319891E+03    0.13461E-08    0.19366E-10   294   0.144E-10    0.404E-10
RMM:   2    -0.303507319891E+03   -0.30559E-09    0.00000E+00     1   0.102E-10
 261 F= -.30350732E+03 E0= -.30354932E+03  d E =-.582077E-10
quench:  g(F)=  0.000E+00 g(S)=  0.000E+00 dE (1.order)= 0.000E+00
 bond charge predicted
       N       E                     dE             d eps       ncg     rms          rms(c)
DAV:   1    -0.303507319892E+03   -0.93132E-09    0.18930E-10   294   0.320E-10    0.281E-10
RMM:   2    -0.303507319891E+03    0.70577E-09    0.00000E+00     1   0.102E-10
 262 F= -.30350732E+03 E0= -.30354932E+03  d E =0.800355E-10
quench:  g(F)=  0.000E+00 g(S)=  0.000E+00 dE (1.order)= 0.000E+00
 bond charge predicted
       N       E                     dE             d eps       ncg     rms          rms(c)
DAV:   1    -0.303507319893E+03   -0.51659E-09   -0.30899E-11   294   0.187E-10    0.250E-10
RMM:   2    -0.303507319891E+03    0.11860E-08    0.00000E+00     1   0.942E-11
 263 F= -.30350732E+03 E0= -.30354932E+03  d E =-.363798E-10
quench:  g(F)=  0.000E+00 g(S)=  0.000E+00 dE (1.order)= 0.000E+00
 bond charge predicted
       N       E                     dE             d eps       ncg     rms          rms(c)
DAV:   1    -0.303507319892E+03    0.74215E-09    0.11747E-10   294   0.260E-10    0.338E-10
RMM:   2    -0.303507319891E+03    0.45839E-09    0.00000E+00     1   0.133E-10
 264 F= -.30350732E+03 E0= -.30354932E+03  d E =0.145519E-10
quench:  g(F)=  0.000E+00 g(S)=  0.000E+00 dE (1.order)= 0.000E+00
 bond charge predicted
       N       E                     dE             d eps       ncg     rms          rms(c)
DAV:   1    -0.303507319891E+03    0.77853E-09    0.16580E-11   294   0.363E-10    0.317E-10
RMM:   2    -0.303507319891E+03   -0.28376E-09    0.00000E+00     1   0.112E-10
 265 F= -.30350732E+03 E0= -.30354932E+03  d E =0.363798E-10
quench:  g(F)=  0.000E+00 g(S)=  0.000E+00 dE (1.order)= 0.000E+00
 bond charge predicted
       N       E                     dE             d eps       ncg     rms          rms(c)
DAV:   1    -0.303507319892E+03   -0.83674E-09    0.14340E-10   294   0.407E-10    0.238E-10
RMM:   2    -0.303507319891E+03    0.59663E-09    0.00000E+00     1   0.883E-11
 266 F= -.30350732E+03 E0= -.30354932E+03  d E =0.436557E-10
quench:  g(F)=  0.000E+00 g(S)=  0.000E+00 dE (1.order)= 0.000E+00
 bond charge predicted
       N       E                     dE             d eps       ncg     rms          rms(c)
DAV:   1    -0.303507319891E+03    0.74215E-09    0.10742E-10   294   0.251E-10    0.196E-10
RMM:   2    -0.303507319891E+03   -0.19645E-09    0.00000E+00     1   0.807E-11
 267 F= -.30350732E+03 E0= -.30354932E+03  d E =-.509317E-10
quench:  g(F)=  0.000E+00 g(S)=  0.000E+00 dE (1.order)= 0.000E+00
 bond charge predicted
       N       E                     dE             d eps       ncg     rms          rms(c)
DAV:   1    -0.303507319890E+03    0.84401E-09    0.66229E-11   294   0.193E-10    0.282E-10
RMM:   2    -0.303507319891E+03   -0.10696E-08    0.00000E+00     1   0.816E-11
 268 F= -.30350732E+03 E0= -.30354932E+03  d E =-.291038E-10
quench:  g(F)=  0.000E+00 g(S)=  0.000E+00 dE (1.order)= 0.000E+00
 bond charge predicted
       N       E                     dE             d eps       ncg     rms          rms(c)
DAV:   1    -0.303507319891E+03   -0.54570E-09    0.11038E-10   294   0.180E-10    0.314E-10
RMM:   2    -0.303507319891E+03   -0.55297E-09    0.00000E+00     1   0.103E-10
 269 F= -.30350732E+03 E0= -.30354932E+03  d E =-.291038E-10
quench:  g(F)=  0.000E+00 g(S)=  0.000E+00 dE (1.order)= 0.000E+00
 bond charge predicted
       N       E                     dE             d eps       ncg     rms          rms(c)
DAV:   1    -0.303507319891E+03   -0.94587E-10   -0.18597E-12   294   0.219E-10    0.296E-10
RMM:   2    -0.303507319891E+03   -0.45839E-09    0.00000E+00     1   0.895E-11
 270 F= -.30350732E+03 E0= -.30354932E+03  d E =0.000000E+00
quench:  g(F)=  0.000E+00 g(S)=  0.000E+00 dE (1.order)= 0.000E+00
 bond charge predicted
       N       E                     dE             d eps       ncg     rms          rms(c)
DAV:   1    -0.303507319891E+03    0.18917E-09    0.13134E-10   294   0.223E-10    0.404E-10
RMM:   2    -0.303507319891E+03   -0.50932E-09    0.00000E+00     1   0.115E-10
 271 F= -.30350732E+03 E0= -.30354932E+03  d E =0.138243E-09
quench:  g(F)=  0.000E+00 g(S)=  0.000E+00 dE (1.order)= 0.000E+00
 bond charge predicted
       N       E                     dE             d eps       ncg     rms          rms(c)
DAV:   1    -0.303507319892E+03   -0.12951E-08   -0.17974E-10   294   0.388E-10    0.219E-10
RMM:   2    -0.303507319891E+03    0.75670E-09    0.00000E+00     1   0.904E-11
 272 F= -.30350732E+03 E0= -.30354932E+03  d E =-.291038E-10
quench:  g(F)=  0.000E+00 g(S)=  0.000E+00 dE (1.order)= 0.000E+00
 bond charge predicted
       N       E                     dE             d eps       ncg     rms          rms(c)
DAV:   1    -0.303507319892E+03    0.51659E-09    0.54781E-11   294   0.186E-10    0.309E-10
RMM:   2    -0.303507319891E+03    0.22555E-09    0.00000E+00     1   0.878E-11
 273 F= -.30350732E+03 E0= -.30354932E+03  d E =-.145519E-10
quench:  g(F)=  0.000E+00 g(S)=  0.000E+00 dE (1.order)= 0.000E+00
 bond charge predicted
       N       E                     dE             d eps       ncg     rms          rms(c)
DAV:   1    -0.303507319892E+03   -0.23283E-09    0.40071E-12   294   0.298E-10    0.304E-10
RMM:   2    -0.303507319891E+03    0.45839E-09    0.00000E+00     1   0.967E-11
 274 F= -.30350732E+03 E0= -.30354932E+03  d E =0.000000E+00
quench:  g(F)=  0.000E+00 g(S)=  0.000E+00 dE (1.order)= 0.000E+00
 bond charge predicted
       N       E                     dE             d eps       ncg     rms          rms(c)
DAV:   1    -0.303507319891E+03    0.94587E-09    0.13966E-10   294   0.240E-10    0.202E-10
RMM:   2    -0.303507319891E+03   -0.56025E-09    0.00000E+00     1   0.636E-11
 275 F= -.30350732E+03 E0= -.30354932E+03  d E =-.727596E-10
quench:  g(F)=  0.000E+00 g(S)=  0.000E+00 dE (1.order)= 0.000E+00
 bond charge predicted
       N       E                     dE             d eps       ncg     rms          rms(c)
DAV:   1    -0.303507319892E+03   -0.87311E-09   -0.12296E-11   294   0.155E-10    0.282E-10
RMM:   2    -0.303507319891E+03    0.35652E-09    0.00000E+00     1   0.803E-11
 276 F= -.30350732E+03 E0= -.30354932E+03  d E =0.436557E-10
quench:  g(F)=  0.000E+00 g(S)=  0.000E+00 dE (1.order)= 0.000E+00
 bond charge predicted
       N       E                     dE             d eps       ncg     rms          rms(c)
DAV:   1    -0.303507319892E+03   -0.29104E-09    0.10725E-10   294   0.235E-10    0.270E-10
RMM:   2    -0.303507319891E+03    0.53842E-09    0.00000E+00     1   0.105E-10
 277 F= -.30350732E+03 E0= -.30354932E+03  d E =-.109139E-09
quench:  g(F)=  0.000E+00 g(S)=  0.000E+00 dE (1.order)= 0.000E+00
 bond charge predicted
       N       E                     dE             d eps       ncg     rms          rms(c)
DAV:   1    -0.303507319891E+03    0.69849E-09    0.28129E-11   294   0.283E-10    0.239E-10
RMM:   2    -0.303507319891E+03   -0.65484E-10    0.00000E+00     1   0.804E-11
 278 F= -.30350732E+03 E0= -.30354932E+03  d E =0.945874E-10
quench:  g(F)=  0.000E+00 g(S)=  0.000E+00 dE (1.order)= 0.000E+00
 bond charge predicted
       N       E                     dE             d eps       ncg     rms          rms(c)
DAV:   1    -0.303507319892E+03   -0.86584E-09   -0.59585E-11   294   0.221E-10    0.276E-10
RMM:   2    -0.303507319891E+03    0.80036E-09    0.00000E+00     1   0.879E-11
 279 F= -.30350732E+03 E0= -.30354932E+03  d E =0.000000E+00
quench:  g(F)=  0.000E+00 g(S)=  0.000E+00 dE (1.order)= 0.000E+00
 bond charge predicted
       N       E                     dE             d eps       ncg     rms          rms(c)
DAV:   1    -0.303507319891E+03    0.16153E-08    0.22150E-10   294   0.236E-10    0.340E-10
RMM:   2    -0.303507319891E+03   -0.85129E-09    0.00000E+00     1   0.103E-10
 280 F= -.30350732E+03 E0= -.30354932E+03  d E =-.363798E-10
quench:  g(F)=  0.000E+00 g(S)=  0.000E+00 dE (1.order)= 0.000E+00
 bond charge predicted
       N       E                     dE             d eps       ncg     rms          rms(c)
DAV:   1    -0.303507319893E+03   -0.19281E-08   -0.42531E-11   294   0.233E-10    0.422E-10
RMM:   2    -0.303507319891E+03    0.10477E-08    0.00000E+00     1   0.122E-10
 281 F= -.30350732E+03 E0= -.30354932E+03  d E =-.291038E-10
quench:  g(F)=  0.000E+00 g(S)=  0.000E+00 dE (1.order)= 0.000E+00
 bond charge predicted
       N       E                     dE             d eps       ncg     rms          rms(c)
DAV:   1    -0.303507319891E+03    0.13824E-08    0.97773E-11   294   0.449E-10    0.393E-10
RMM:   2    -0.303507319891E+03   -0.29104E-09    0.00000E+00     1   0.122E-10
 282 F= -.30350732E+03 E0= -.30354932E+03  d E =0.436557E-10
quench:  g(F)=  0.000E+00 g(S)=  0.000E+00 dE (1.order)= 0.000E+00
 bond charge predicted
       N       E                     dE             d eps       ncg     rms          rms(c)
DAV:   1    -0.303507319891E+03   -0.72760E-10    0.11349E-10   294   0.440E-10    0.402E-10
RMM:   2    -0.303507319891E+03   -0.16735E-09    0.00000E+00     1   0.130E-10
 283 F= -.30350732E+03 E0= -.30354932E+03  d E =0.509317E-10
quench:  g(F)=  0.000E+00 g(S)=  0.000E+00 dE (1.order)= 0.000E+00
 bond charge predicted
       N       E                     dE             d eps       ncg     rms          rms(c)
DAV:   1    -0.303507319891E+03    0.42201E-09    0.30340E-10   294   0.529E-10    0.284E-10
RMM:   2    -0.303507319891E+03   -0.56752E-09    0.00000E+00     1   0.108E-10
 284 F= -.30350732E+03 E0= -.30354932E+03  d E =0.218279E-10
quench:  g(F)=  0.000E+00 g(S)=  0.000E+00 dE (1.order)= 0.000E+00
 bond charge predicted
       N       E                     dE             d eps       ncg     rms          rms(c)
DAV:   1    -0.303507319891E+03   -0.48749E-09    0.26310E-11   294   0.311E-10    0.212E-10
RMM:   2    -0.303507319891E+03   -0.18190E-09    0.00000E+00     1   0.972E-11
 285 F= -.30350732E+03 E0= -.30354932E+03  d E =-.101863E-09
quench:  g(F)=  0.000E+00 g(S)=  0.000E+00 dE (1.order)= 0.000E+00
 bond charge predicted
       N       E                     dE             d eps       ncg     rms          rms(c)
DAV:   1    -0.303507319891E+03   -0.13097E-09    0.43575E-11   294   0.192E-10    0.308E-10
RMM:   2    -0.303507319891E+03   -0.80036E-10    0.00000E+00     1   0.112E-10
 286 F= -.30350732E+03 E0= -.30354932E+03  d E =-.291038E-10
quench:  g(F)=  0.000E+00 g(S)=  0.000E+00 dE (1.order)= 0.000E+00
 bond charge predicted
       N       E                     dE             d eps       ncg     rms          rms(c)
DAV:   1    -0.303507319891E+03    0.76398E-09    0.10144E-10   294   0.241E-10    0.338E-10
RMM:   2    -0.303507319891E+03   -0.72760E-09    0.00000E+00     1   0.125E-10
 287 F= -.30350732E+03 E0= -.30354932E+03  d E =0.116415E-09
quench:  g(F)=  0.000E+00 g(S)=  0.000E+00 dE (1.order)= 0.000E+00
 bond charge predicted
       N       E                     dE             d eps       ncg     rms          rms(c)
DAV:   1    -0.303507319890E+03    0.45111E-09    0.13387E-10   294   0.384E-10    0.277E-10
RMM:   2    -0.303507319891E+03   -0.12369E-08    0.00000E+00     1   0.857E-11
 288 F= -.30350732E+03 E0= -.30354932E+03  d E =-.582077E-10
quench:  g(F)=  0.000E+00 g(S)=  0.000E+00 dE (1.order)= 0.000E+00
 bond charge predicted
       N       E                     dE             d eps       ncg     rms          rms(c)
DAV:   1    -0.303507319892E+03   -0.13533E-08    0.16144E-10   294   0.214E-10    0.366E-10
RMM:   2    -0.303507319891E+03    0.24011E-09    0.00000E+00     1   0.105E-10
 289 F= -.30350732E+03 E0= -.30354932E+03  d E =0.123691E-09
quench:  g(F)=  0.000E+00 g(S)=  0.000E+00 dE (1.order)= 0.000E+00
 bond charge predicted
       N       E                     dE             d eps       ncg     rms          rms(c)
DAV:   1    -0.303507319892E+03   -0.84401E-09    0.39466E-11   294   0.312E-10    0.406E-10
RMM:   2    -0.303507319891E+03    0.10041E-08    0.00000E+00     1   0.120E-10
 290 F= -.30350732E+03 E0= -.30354932E+03  d E =-.800355E-10
quench:  g(F)=  0.000E+00 g(S)=  0.000E+00 dE (1.order)= 0.000E+00
 bond charge predicted
       N       E                     dE             d eps       ncg     rms          rms(c)
DAV:   1    -0.303507319892E+03    0.25466E-09    0.60634E-11   294   0.288E-10    0.237E-10
RMM:   2    -0.303507319891E+03    0.75670E-09    0.00000E+00     1   0.807E-11
 291 F= -.30350732E+03 E0= -.30354932E+03  d E =0.727596E-11
quench:  g(F)=  0.000E+00 g(S)=  0.000E+00 dE (1.order)= 0.000E+00
 bond charge predicted
       N       E                     dE             d eps       ncg     rms          rms(c)
DAV:   1    -0.303507319891E+03    0.79308E-09   -0.11112E-10   294   0.172E-10    0.267E-10
RMM:   2    -0.303507319891E+03   -0.72760E-10    0.00000E+00     1   0.841E-11
 292 F= -.30350732E+03 E0= -.30354932E+03  d E =-.363798E-10
quench:  g(F)=  0.000E+00 g(S)=  0.000E+00 dE (1.order)= 0.000E+00
 bond charge predicted
       N       E                     dE             d eps       ncg     rms          rms(c)
DAV:   1    -0.303507319890E+03    0.14988E-08   -0.17706E-11   294   0.167E-10    0.296E-10
RMM:   2    -0.303507319891E+03   -0.15934E-08    0.00000E+00     1   0.864E-11
 293 F= -.30350732E+03 E0= -.30354932E+03  d E =-.218279E-10
quench:  g(F)=  0.000E+00 g(S)=  0.000E+00 dE (1.order)= 0.000E+00
 bond charge predicted
       N       E                     dE             d eps       ncg     rms          rms(c)
DAV:   1    -0.303507319892E+03   -0.17390E-08    0.78310E-11   294   0.203E-10    0.249E-10
RMM:   2    -0.303507319891E+03    0.28376E-09    0.00000E+00     1   0.675E-11
 294 F= -.30350732E+03 E0= -.30354932E+03  d E =0.138243E-09
quench:  g(F)=  0.000E+00 g(S)=  0.000E+00 dE (1.order)= 0.000E+00
 bond charge predicted
       N       E                     dE             d eps       ncg     rms          rms(c)
DAV:   1    -0.303507319891E+03    0.66939E-09    0.18099E-11   294   0.166E-10    0.289E-10
RMM:   2    -0.303507319891E+03   -0.39290E-09    0.00000E+00     1   0.774E-11
 295 F= -.30350732E+03 E0= -.30354932E+03  d E =-.727596E-11
quench:  g(F)=  0.000E+00 g(S)=  0.000E+00 dE (1.order)= 0.000E+00
 bond charge predicted
       N       E                     dE             d eps       ncg     rms          rms(c)
DAV:   1    -0.303507319890E+03    0.66939E-09    0.87444E-11   294   0.246E-10    0.292E-10
RMM:   2    -0.303507319891E+03   -0.11423E-08    0.00000E+00     1   0.803E-11
 296 F= -.30350732E+03 E0= -.30354932E+03  d E =-.800355E-10
quench:  g(F)=  0.000E+00 g(S)=  0.000E+00 dE (1.order)= 0.000E+00
 bond charge predicted
       N       E                     dE             d eps       ncg     rms          rms(c)
DAV:   1    -0.303507319892E+03   -0.17244E-08    0.89581E-11   294   0.201E-10    0.321E-10
RMM:   2    -0.303507319891E+03    0.56752E-09    0.00000E+00     1   0.902E-11
 297 F= -.30350732E+03 E0= -.30354932E+03  d E =-.145519E-10
quench:  g(F)=  0.000E+00 g(S)=  0.000E+00 dE (1.order)= 0.000E+00
 bond charge predicted
       N       E                     dE             d eps       ncg     rms          rms(c)
DAV:   1    -0.303507319893E+03   -0.61846E-09   -0.36928E-11   294   0.327E-10    0.292E-10
RMM:   2    -0.303507319891E+03    0.11205E-08    0.00000E+00     1   0.105E-10
 298 F= -.30350732E+03 E0= -.30354932E+03  d E =-.654836E-10
quench:  g(F)=  0.000E+00 g(S)=  0.000E+00 dE (1.order)= 0.000E+00
 bond charge predicted
       N       E                     dE             d eps       ncg     rms          rms(c)
DAV:   1    -0.303507319891E+03    0.18117E-08   -0.10218E-10   294   0.292E-10    0.345E-10
RMM:   2    -0.303507319891E+03   -0.62573E-09    0.00000E+00     0   0.937E-11
 299 F= -.30350732E+03 E0= -.30354932E+03  d E =0.654836E-10
quench:  g(F)=  0.000E+00 g(S)=  0.000E+00 dE (1.order)= 0.000E+00
 bond charge predicted
       N       E                     dE             d eps       ncg     rms          rms(c)
DAV:   1    -0.303507319891E+03   -0.71304E-09    0.12966E-10   294   0.158E-10    0.392E-10
RMM:   2    -0.303507319891E+03    0.87311E-10    0.00000E+00     1   0.996E-11
 300 F= -.30350732E+03 E0= -.30354932E+03  d E =0.000000E+00
quench:  g(F)=  0.000E+00 g(S)=  0.000E+00 dE (1.order)= 0.000E+00
