   3   3   0   0
  0.4092577E+02  0.5291554E-09  0.6991127E-09  0.4874906E-09  0.1500000E-16
   1.0000000000000000E-004
  CAR 
 unknown system                          
      6.31211656    -26.52428242  301      0.11567061      1.00000000
    -26.524  0.0000E+00  0.0000E+00
    -26.415  0.0000E+00  0.0000E+00
    -26.305  0.0000E+00  0.0000E+00
    -26.196  0.0000E+00  0.0000E+00
    -26.086  0.0000E+00  0.0000E+00
    -25.977  0.0000E+00  0.0000E+00
    -25.868  0.0000E+00  0.0000E+00
    -25.758  0.0000E+00  0.0000E+00
    -25.649  0.0000E+00  0.0000E+00
    -25.539  0.0000E+00  0.0000E+00
    -25.430  0.0000E+00  0.0000E+00
    -25.320  0.3543E-16  0.3878E-17
    -25.211  0.5749E-07  0.6293E-08
    -25.101  0.8915E-02  0.9758E-03
    -24.992  0.4114E+00  0.4601E-01
    -24.882  0.2806E+00  0.7672E-01
    -24.773  0.5000E-01  0.8219E-01
    -24.664  0.1032E-04  0.8219E-01
    -24.554  0.2555E-12  0.8219E-01
    -24.445  0.0000E+00  0.8219E-01
    -24.335  0.0000E+00  0.8219E-01
    -24.226  0.0000E+00  0.8219E-01
    -24.116  0.0000E+00  0.8219E-01
    -24.007  0.0000E+00  0.8219E-01
    -23.897  0.0000E+00  0.8219E-01
    -23.788  0.0000E+00  0.8219E-01
    -23.678  0.0000E+00  0.8219E-01
    -23.569  0.0000E+00  0.8219E-01
    -23.460  0.0000E+00  0.8219E-01
    -23.350  0.0000E+00  0.8219E-01
    -23.241  0.0000E+00  0.8219E-01
    -23.131  0.0000E+00  0.8219E-01
    -23.022  0.0000E+00  0.8219E-01
    -22.912  0.0000E+00  0.8219E-01
    -22.803  0.0000E+00  0.8219E-01
    -22.693  0.0000E+00  0.8219E-01
    -22.584  0.0000E+00  0.8219E-01
    -22.474  0.0000E+00  0.8219E-01
    -22.365  0.0000E+00  0.8219E-01
    -22.256  0.0000E+00  0.8219E-01
    -22.146  0.0000E+00  0.8219E-01
    -22.037  0.0000E+00  0.8219E-01
    -21.927  0.0000E+00  0.8219E-01
    -21.818  0.0000E+00  0.8219E-01
    -21.708  0.0000E+00  0.8219E-01
    -21.599  0.0000E+00  0.8219E-01
    -21.489  0.0000E+00  0.8219E-01
    -21.380  0.0000E+00  0.8219E-01
    -21.270  0.0000E+00  0.8219E-01
    -21.161  0.0000E+00  0.8219E-01
    -21.052  0.0000E+00  0.8219E-01
    -20.942  0.0000E+00  0.8219E-01
    -20.833  0.0000E+00  0.8219E-01
    -20.723  0.0000E+00  0.8219E-01
    -20.614  0.0000E+00  0.8219E-01
    -20.504  0.0000E+00  0.8219E-01
    -20.395  0.0000E+00  0.8219E-01
    -20.285  0.0000E+00  0.8219E-01
    -20.176  0.0000E+00  0.8219E-01
    -20.066  0.0000E+00  0.8219E-01
    -19.957  0.0000E+00  0.8219E-01
    -19.848  0.0000E+00  0.8219E-01
    -19.738  0.0000E+00  0.8219E-01
    -19.629  0.0000E+00  0.8219E-01
    -19.519  0.0000E+00  0.8219E-01
    -19.410  0.0000E+00  0.8219E-01
    -19.300  0.0000E+00  0.8219E-01
    -19.191  0.0000E+00  0.8219E-01
    -19.081  0.0000E+00  0.8219E-01
    -18.972  0.0000E+00  0.8219E-01
    -18.862  0.0000E+00  0.8219E-01
    -18.753  0.0000E+00  0.8219E-01
    -18.644  0.0000E+00  0.8219E-01
    -18.534  0.0000E+00  0.8219E-01
    -18.425  0.0000E+00  0.8219E-01
    -18.315  0.0000E+00  0.8219E-01
    -18.206  0.0000E+00  0.8219E-01
    -18.096  0.0000E+00  0.8219E-01
    -17.987  0.0000E+00  0.8219E-01
    -17.877  0.0000E+00  0.8219E-01
    -17.768  0.0000E+00  0.8219E-01
    -17.658  0.0000E+00  0.8219E-01
    -17.549  0.0000E+00  0.8219E-01
    -17.440  0.0000E+00  0.8219E-01
    -17.330  0.0000E+00  0.8219E-01
    -17.221  0.0000E+00  0.8219E-01
    -17.111  0.0000E+00  0.8219E-01
    -17.002  0.0000E+00  0.8219E-01
    -16.892  0.0000E+00  0.8219E-01
    -16.783  0.0000E+00  0.8219E-01
    -16.673  0.0000E+00  0.8219E-01
    -16.564  0.0000E+00  0.8219E-01
    -16.454  0.0000E+00  0.8219E-01
    -16.345  0.0000E+00  0.8219E-01
    -16.236  0.0000E+00  0.8219E-01
    -16.126  0.0000E+00  0.8219E-01
    -16.017  0.0000E+00  0.8219E-01
    -15.907  0.0000E+00  0.8219E-01
    -15.798  0.0000E+00  0.8219E-01
    -15.688  0.0000E+00  0.8219E-01
    -15.579  0.0000E+00  0.8219E-01
    -15.469  0.0000E+00  0.8219E-01
    -15.360  0.0000E+00  0.8219E-01
    -15.250  0.0000E+00  0.8219E-01
    -15.141  0.0000E+00  0.8219E-01
    -15.032  0.0000E+00  0.8219E-01
    -14.922  0.0000E+00  0.8219E-01
    -14.813  0.0000E+00  0.8219E-01
    -14.703  0.0000E+00  0.8219E-01
    -14.594  0.0000E+00  0.8219E-01
    -14.484  0.0000E+00  0.8219E-01
    -14.375  0.0000E+00  0.8219E-01
    -14.265  0.0000E+00  0.8219E-01
    -14.156  0.0000E+00  0.8219E-01
    -14.046  0.0000E+00  0.8219E-01
    -13.937  0.0000E+00  0.8219E-01
    -13.828  0.0000E+00  0.8219E-01
    -13.718  0.0000E+00  0.8219E-01
    -13.609  0.0000E+00  0.8219E-01
    -13.499  0.0000E+00  0.8219E-01
    -13.390  0.0000E+00  0.8219E-01
    -13.280  0.0000E+00  0.8219E-01
    -13.171  0.0000E+00  0.8219E-01
    -13.061  0.3141E-10  0.8219E-01
    -12.952  0.3453E-04  0.8220E-01
    -12.842  0.1524E-01  0.8386E-01
    -12.733  0.7743E-01  0.9234E-01
    -12.624  0.6375E-01  0.9932E-01
    -12.514  0.7481E-01  0.1075E+00
    -12.405  0.1904E-01  0.1096E+00
    -12.295  0.1112E-04  0.1096E+00
    -12.186  0.1472E-11  0.1096E+00
    -12.076  0.0000E+00  0.1096E+00
    -11.967  0.0000E+00  0.1096E+00
    -11.857  0.0000E+00  0.1096E+00
    -11.748  0.0000E+00  0.1096E+00
    -11.638  0.0000E+00  0.1096E+00
    -11.529  0.0000E+00  0.1096E+00
    -11.420  0.0000E+00  0.1096E+00
    -11.310  0.0000E+00  0.1096E+00
    -11.201  0.0000E+00  0.1096E+00
    -11.091  0.0000E+00  0.1096E+00
    -10.982  0.0000E+00  0.1096E+00
    -10.872  0.0000E+00  0.1096E+00
    -10.763  0.0000E+00  0.1096E+00
    -10.653  0.0000E+00  0.1096E+00
    -10.544  0.0000E+00  0.1096E+00
    -10.434  0.0000E+00  0.1096E+00
    -10.325  0.0000E+00  0.1096E+00
    -10.216  0.0000E+00  0.1096E+00
    -10.106  0.0000E+00  0.1096E+00
     -9.997  0.0000E+00  0.1096E+00
     -9.887  0.0000E+00  0.1096E+00
     -9.778  0.0000E+00  0.1096E+00
     -9.668  0.0000E+00  0.1096E+00
     -9.559  0.0000E+00  0.1096E+00
     -9.449  0.0000E+00  0.1096E+00
     -9.340  0.0000E+00  0.1096E+00
     -9.230  0.0000E+00  0.1096E+00
     -9.121  0.0000E+00  0.1096E+00
     -9.012  0.0000E+00  0.1096E+00
     -8.902  0.0000E+00  0.1096E+00
     -8.793  0.0000E+00  0.1096E+00
     -8.683  0.0000E+00  0.1096E+00
     -8.574  0.0000E+00  0.1096E+00
     -8.464  0.0000E+00  0.1096E+00
     -8.355  0.0000E+00  0.1096E+00
     -8.245  0.0000E+00  0.1096E+00
     -8.136  0.0000E+00  0.1096E+00
     -8.026  0.3283E-13  0.1096E+00
     -7.917  0.9966E-06  0.1096E+00
     -7.808  0.5277E-02  0.1102E+00
     -7.698  0.4366E-01  0.1149E+00
     -7.589  0.3005E-01  0.1182E+00
     -7.479  0.2351E-01  0.1208E+00
     -7.370  0.2240E-01  0.1233E+00
     -7.260  0.1662E+00  0.1414E+00
     -7.151  0.8020E+00  0.2292E+00
     -7.041  0.1228E+00  0.2427E+00
     -6.932  0.3534E-01  0.2465E+00
     -6.822  0.3514E-03  0.2466E+00
     -6.713  0.1529E-08  0.2466E+00
     -6.604  0.7940E-18  0.2466E+00
     -6.494  0.0000E+00  0.2466E+00
     -6.385  0.0000E+00  0.2466E+00
     -6.275  0.0000E+00  0.2466E+00
     -6.166  0.0000E+00  0.2466E+00
     -6.056  0.0000E+00  0.2466E+00
     -5.947  0.0000E+00  0.2466E+00
     -5.837  0.0000E+00  0.2466E+00
     -5.728  0.0000E+00  0.2466E+00
     -5.618  0.1297E-14  0.2466E+00
     -5.509  0.6417E-07  0.2466E+00
     -5.400  0.5485E-03  0.2466E+00
     -5.290  0.1256E-01  0.2480E+00
     -5.181  0.2750E-01  0.2510E+00
     -5.071  0.3844E-01  0.2552E+00
     -4.962  0.3523E-01  0.2591E+00
     -4.852  0.1901E-01  0.2612E+00
     -4.743  0.9550E-02  0.2622E+00
     -4.633  0.1600E-01  0.2640E+00
     -4.524  0.4417E-02  0.2644E+00
     -4.414  0.1486E-01  0.2661E+00
     -4.305  0.9769E-02  0.2671E+00
     -4.196  0.1460E-01  0.2687E+00
     -4.086  0.1282E-01  0.2701E+00
     -3.977  0.2427E-01  0.2728E+00
     -3.867  0.1058E-01  0.2740E+00
     -3.758  0.1288E-03  0.2740E+00
     -3.648  0.4842E-03  0.2740E+00
     -3.539  0.1338E-01  0.2755E+00
     -3.429  0.2631E-01  0.2784E+00
     -3.320  0.1192E-01  0.2797E+00
     -3.210  0.1714E-01  0.2816E+00
     -3.101  0.2908E-01  0.2847E+00
     -2.992  0.5368E-01  0.2906E+00
     -2.882  0.3171E-01  0.2941E+00
     -2.773  0.3146E-01  0.2975E+00
     -2.663  0.4068E-01  0.3020E+00
     -2.554  0.3391E-01  0.3057E+00
     -2.444  0.3000E-01  0.3090E+00
     -2.335  0.2619E-01  0.3118E+00
     -2.225  0.3845E-01  0.3160E+00
     -2.116  0.4174E-01  0.3206E+00
     -2.006  0.3296E-01  0.3242E+00
     -1.897  0.2275E-01  0.3267E+00
     -1.788  0.2187E-01  0.3291E+00
     -1.678  0.1278E-01  0.3305E+00
     -1.569  0.7614E-02  0.3313E+00
     -1.459  0.6593E-02  0.3321E+00
     -1.350  0.6862E-02  0.3328E+00
     -1.240  0.6735E-03  0.3329E+00
     -1.131  0.4408E-02  0.3334E+00
     -1.021  0.6616E-02  0.3341E+00
     -0.912  0.7025E-02  0.3349E+00
     -0.802  0.6651E-02  0.3356E+00
     -0.693  0.3621E-02  0.3360E+00
     -0.584  0.7397E-02  0.3368E+00
     -0.474  0.9465E-02  0.3378E+00
     -0.365  0.1434E-01  0.3394E+00
     -0.255  0.4535E-02  0.3399E+00
     -0.146  0.6794E-02  0.3406E+00
     -0.036  0.1281E-01  0.3420E+00
      0.073  0.2297E-02  0.3423E+00
      0.183  0.6140E-02  0.3430E+00
      0.292  0.2789E-02  0.3433E+00
      0.402  0.1290E-01  0.3447E+00
      0.511  0.1144E-01  0.3459E+00
      0.620  0.1890E-01  0.3480E+00
      0.730  0.8993E-02  0.3490E+00
      0.839  0.1382E-01  0.3505E+00
      0.949  0.1557E-01  0.3522E+00
      1.058  0.1161E-01  0.3535E+00
      1.168  0.1092E-01  0.3547E+00
      1.277  0.1588E-01  0.3564E+00
      1.387  0.1322E-01  0.3579E+00
      1.496  0.1660E-01  0.3597E+00
      1.606  0.8109E-02  0.3606E+00
      1.715  0.2621E-01  0.3634E+00
      1.824  0.6087E-01  0.3701E+00
      1.934  0.3395E-01  0.3738E+00
      2.043  0.2882E-01  0.3770E+00
      2.153  0.1773E-01  0.3789E+00
      2.262  0.5119E-01  0.3845E+00
      2.372  0.3812E-01  0.3887E+00
      2.481  0.1725E-02  0.3889E+00
      2.591  0.1637E-01  0.3907E+00
      2.700  0.1787E-01  0.3926E+00
      2.810  0.3213E-01  0.3961E+00
      2.919  0.4245E-01  0.4008E+00
      3.028  0.4465E-01  0.4057E+00
      3.138  0.2480E-01  0.4084E+00
      3.247  0.5617E-01  0.4145E+00
      3.357  0.2521E-01  0.4173E+00
      3.466  0.2511E-01  0.4200E+00
      3.576  0.4547E-01  0.4250E+00
      3.685  0.3199E-01  0.4285E+00
      3.795  0.1633E-01  0.4303E+00
      3.904  0.1085E-01  0.4315E+00
      4.014  0.9784E-02  0.4326E+00
      4.123  0.6033E-02  0.4332E+00
      4.232  0.9835E-02  0.4343E+00
      4.342  0.9938E-02  0.4354E+00
      4.451  0.1292E-01  0.4368E+00
      4.561  0.3517E-02  0.4372E+00
      4.670  0.2871E-02  0.4375E+00
      4.780  0.3339E-02  0.4379E+00
      4.889  0.4381E-02  0.4383E+00
      4.999  0.8850E-04  0.4384E+00
      5.108  0.7268E-09  0.4384E+00
      5.218  0.7940E-18  0.4384E+00
      5.327  0.0000E+00  0.4384E+00
      5.436  0.0000E+00  0.4384E+00
      5.546  0.0000E+00  0.4384E+00
      5.655  0.0000E+00  0.4384E+00
      5.765  0.0000E+00  0.4384E+00
      5.874  0.0000E+00  0.4384E+00
      5.984  0.0000E+00  0.4384E+00
      6.093  0.0000E+00  0.4384E+00
      6.203  0.0000E+00  0.4384E+00
      6.312  0.0000E+00  0.4384E+00
