   3   3   0   0
  0.4092577E+02  0.5291554E-09  0.6991127E-09  0.4874906E-09  0.1500000E-16
   1.0000000000000000E-004
  CAR 
 unknown system                          
     17.19221130    -27.04235169  301      0.11563164      1.00000000
    -27.042  0.0000E+00  0.0000E+00
    -26.895  0.0000E+00  0.0000E+00
    -26.747  0.0000E+00  0.0000E+00
    -26.600  0.0000E+00  0.0000E+00
    -26.453  0.0000E+00  0.0000E+00
    -26.305  0.0000E+00  0.0000E+00
    -26.158  0.0000E+00  0.0000E+00
    -26.010  0.0000E+00  0.0000E+00
    -25.863  0.0000E+00  0.0000E+00
    -25.715  0.0000E+00  0.0000E+00
    -25.568  0.0000E+00  0.0000E+00
    -25.420  0.0000E+00  0.0000E+00
    -25.273  0.8353E-12  0.1232E-12
    -25.126  0.1011E-02  0.1491E-03
    -24.978  0.3439E+00  0.5086E-01
    -24.831  0.2106E+00  0.8190E-01
    -24.683  0.1954E-02  0.8219E-01
    -24.536  0.8738E-11  0.8219E-01
    -24.388  0.0000E+00  0.8219E-01
    -24.241  0.0000E+00  0.8219E-01
    -24.093  0.0000E+00  0.8219E-01
    -23.946  0.0000E+00  0.8219E-01
    -23.798  0.0000E+00  0.8219E-01
    -23.651  0.0000E+00  0.8219E-01
    -23.504  0.0000E+00  0.8219E-01
    -23.356  0.0000E+00  0.8219E-01
    -23.209  0.0000E+00  0.8219E-01
    -23.061  0.0000E+00  0.8219E-01
    -22.914  0.0000E+00  0.8219E-01
    -22.766  0.0000E+00  0.8219E-01
    -22.619  0.0000E+00  0.8219E-01
    -22.471  0.0000E+00  0.8219E-01
    -22.324  0.0000E+00  0.8219E-01
    -22.177  0.0000E+00  0.8219E-01
    -22.029  0.0000E+00  0.8219E-01
    -21.882  0.0000E+00  0.8219E-01
    -21.734  0.0000E+00  0.8219E-01
    -21.587  0.0000E+00  0.8219E-01
    -21.439  0.0000E+00  0.8219E-01
    -21.292  0.0000E+00  0.8219E-01
    -21.144  0.0000E+00  0.8219E-01
    -20.997  0.0000E+00  0.8219E-01
    -20.850  0.0000E+00  0.8219E-01
    -20.702  0.0000E+00  0.8219E-01
    -20.555  0.0000E+00  0.8219E-01
    -20.407  0.0000E+00  0.8219E-01
    -20.260  0.0000E+00  0.8219E-01
    -20.112  0.0000E+00  0.8219E-01
    -19.965  0.0000E+00  0.8219E-01
    -19.817  0.0000E+00  0.8219E-01
    -19.670  0.0000E+00  0.8219E-01
    -19.522  0.0000E+00  0.8219E-01
    -19.375  0.0000E+00  0.8219E-01
    -19.228  0.0000E+00  0.8219E-01
    -19.080  0.0000E+00  0.8219E-01
    -18.933  0.0000E+00  0.8219E-01
    -18.785  0.0000E+00  0.8219E-01
    -18.638  0.0000E+00  0.8219E-01
    -18.490  0.0000E+00  0.8219E-01
    -18.343  0.0000E+00  0.8219E-01
    -18.195  0.0000E+00  0.8219E-01
    -18.048  0.0000E+00  0.8219E-01
    -17.901  0.0000E+00  0.8219E-01
    -17.753  0.0000E+00  0.8219E-01
    -17.606  0.0000E+00  0.8219E-01
    -17.458  0.0000E+00  0.8219E-01
    -17.311  0.0000E+00  0.8219E-01
    -17.163  0.0000E+00  0.8219E-01
    -17.016  0.0000E+00  0.8219E-01
    -16.868  0.0000E+00  0.8219E-01
    -16.721  0.0000E+00  0.8219E-01
    -16.574  0.0000E+00  0.8219E-01
    -16.426  0.0000E+00  0.8219E-01
    -16.279  0.0000E+00  0.8219E-01
    -16.131  0.0000E+00  0.8219E-01
    -15.984  0.0000E+00  0.8219E-01
    -15.836  0.0000E+00  0.8219E-01
    -15.689  0.0000E+00  0.8219E-01
    -15.541  0.0000E+00  0.8219E-01
    -15.394  0.0000E+00  0.8219E-01
    -15.246  0.0000E+00  0.8219E-01
    -15.099  0.0000E+00  0.8219E-01
    -14.952  0.0000E+00  0.8219E-01
    -14.804  0.0000E+00  0.8219E-01
    -14.657  0.0000E+00  0.8219E-01
    -14.509  0.0000E+00  0.8219E-01
    -14.362  0.0000E+00  0.8219E-01
    -14.214  0.0000E+00  0.8219E-01
    -14.067  0.0000E+00  0.8219E-01
    -13.919  0.0000E+00  0.8219E-01
    -13.772  0.0000E+00  0.8219E-01
    -13.625  0.0000E+00  0.8219E-01
    -13.477  0.0000E+00  0.8219E-01
    -13.330  0.0000E+00  0.8219E-01
    -13.182  0.0000E+00  0.8219E-01
    -13.035  0.1561E-08  0.8219E-01
    -12.887  0.2100E-02  0.8250E-01
    -12.740  0.6201E-01  0.9164E-01
    -12.592  0.6233E-01  0.1008E+00
    -12.445  0.5905E-01  0.1095E+00
    -12.297  0.3141E-03  0.1096E+00
    -12.150  0.1640E-11  0.1096E+00
    -12.003  0.0000E+00  0.1096E+00
    -11.855  0.0000E+00  0.1096E+00
    -11.708  0.0000E+00  0.1096E+00
    -11.560  0.0000E+00  0.1096E+00
    -11.413  0.0000E+00  0.1096E+00
    -11.265  0.0000E+00  0.1096E+00
    -11.118  0.0000E+00  0.1096E+00
    -10.970  0.0000E+00  0.1096E+00
    -10.823  0.0000E+00  0.1096E+00
    -10.676  0.0000E+00  0.1096E+00
    -10.528  0.0000E+00  0.1096E+00
    -10.381  0.0000E+00  0.1096E+00
    -10.233  0.0000E+00  0.1096E+00
    -10.086  0.0000E+00  0.1096E+00
     -9.938  0.0000E+00  0.1096E+00
     -9.791  0.0000E+00  0.1096E+00
     -9.643  0.0000E+00  0.1096E+00
     -9.496  0.0000E+00  0.1096E+00
     -9.349  0.0000E+00  0.1096E+00
     -9.201  0.0000E+00  0.1096E+00
     -9.054  0.0000E+00  0.1096E+00
     -8.906  0.0000E+00  0.1096E+00
     -8.759  0.0000E+00  0.1096E+00
     -8.611  0.0000E+00  0.1096E+00
     -8.464  0.0000E+00  0.1096E+00
     -8.316  0.0000E+00  0.1096E+00
     -8.169  0.0000E+00  0.1096E+00
     -8.021  0.6700E-13  0.1096E+00
     -7.874  0.5709E-04  0.1096E+00
     -7.727  0.2802E-01  0.1137E+00
     -7.579  0.3238E-01  0.1185E+00
     -7.432  0.2275E-01  0.1219E+00
     -7.284  0.7049E-01  0.1323E+00
     -7.137  0.6897E+00  0.2339E+00
     -6.989  0.7917E-01  0.2456E+00
     -6.842  0.6484E-02  0.2466E+00
     -6.694  0.1869E-07  0.2466E+00
     -6.547  0.0000E+00  0.2466E+00
     -6.400  0.0000E+00  0.2466E+00
     -6.252  0.0000E+00  0.2466E+00
     -6.105  0.0000E+00  0.2466E+00
     -5.957  0.0000E+00  0.2466E+00
     -5.810  0.0000E+00  0.2466E+00
     -5.662  0.7367E-19  0.2466E+00
     -5.515  0.2339E-07  0.2466E+00
     -5.367  0.1564E-02  0.2468E+00
     -5.220  0.1989E-01  0.2497E+00
     -5.073  0.3687E-01  0.2552E+00
     -4.925  0.3274E-01  0.2600E+00
     -4.778  0.1221E-01  0.2618E+00
     -4.630  0.1492E-01  0.2640E+00
     -4.483  0.5298E-02  0.2648E+00
     -4.335  0.1546E-01  0.2671E+00
     -4.188  0.1260E-01  0.2689E+00
     -4.040  0.1491E-01  0.2711E+00
     -3.893  0.1888E-01  0.2739E+00
     -3.745  0.4760E-03  0.2740E+00
     -3.598  0.2972E-02  0.2744E+00
     -3.451  0.2357E-01  0.2779E+00
     -3.303  0.1348E-01  0.2799E+00
     -3.156  0.2022E-01  0.2829E+00
     -3.008  0.4698E-01  0.2898E+00
     -2.861  0.3205E-01  0.2945E+00
     -2.713  0.3787E-01  0.3001E+00
     -2.566  0.3540E-01  0.3053E+00
     -2.418  0.3056E-01  0.3098E+00
     -2.271  0.2693E-01  0.3138E+00
     -2.124  0.4428E-01  0.3203E+00
     -1.976  0.2973E-01  0.3247E+00
     -1.829  0.2495E-01  0.3284E+00
     -1.681  0.1413E-01  0.3305E+00
     -1.534  0.6937E-02  0.3315E+00
     -1.386  0.7471E-02  0.3326E+00
     -1.239  0.1999E-02  0.3329E+00
     -1.091  0.5775E-02  0.3337E+00
     -0.944  0.6166E-02  0.3346E+00
     -0.797  0.6462E-02  0.3356E+00
     -0.649  0.5406E-02  0.3364E+00
     -0.502  0.7392E-02  0.3375E+00
     -0.354  0.1338E-01  0.3395E+00
     -0.207  0.5405E-02  0.3403E+00
     -0.059  0.1050E-01  0.3418E+00
      0.088  0.3551E-02  0.3423E+00
      0.236  0.4952E-02  0.3431E+00
      0.383  0.9589E-02  0.3445E+00
      0.531  0.1248E-01  0.3463E+00
      0.678  0.1311E-01  0.3482E+00
      0.825  0.1492E-01  0.3504E+00
      0.973  0.1567E-01  0.3528E+00
      1.120  0.1002E-01  0.3542E+00
      1.268  0.1398E-01  0.3563E+00
      1.415  0.1484E-01  0.3585E+00
      1.563  0.1197E-01  0.3602E+00
      1.710  0.2012E-01  0.3632E+00
      1.858  0.5723E-01  0.3717E+00
      2.005  0.2996E-01  0.3761E+00
      2.152  0.1916E-01  0.3789E+00
      2.300  0.5076E-01  0.3864E+00
      2.447  0.1675E-01  0.3888E+00
      2.595  0.1310E-01  0.3908E+00
      2.742  0.1931E-01  0.3936E+00
      2.890  0.4057E-01  0.3996E+00
      3.037  0.4328E-01  0.4060E+00
      3.185  0.3189E-01  0.4107E+00
      3.332  0.4216E-01  0.4169E+00
      3.479  0.2607E-01  0.4208E+00
      3.627  0.3780E-01  0.4263E+00
      3.774  0.2551E-01  0.4301E+00
      3.922  0.1093E-01  0.4317E+00
      4.069  0.7653E-02  0.4328E+00
      4.217  0.1603E-01  0.4352E+00
      4.364  0.1863E-01  0.4379E+00
      4.512  0.2079E-01  0.4410E+00
      4.659  0.2354E-01  0.4445E+00
      4.807  0.2290E-01  0.4479E+00
      4.954  0.1497E-01  0.4501E+00
      5.101  0.3587E-01  0.4553E+00
      5.249  0.2679E-01  0.4593E+00
      5.396  0.4347E-01  0.4657E+00
      5.544  0.3884E-01  0.4714E+00
      5.691  0.5265E-01  0.4792E+00
      5.839  0.2066E-01  0.4822E+00
      5.986  0.3870E-01  0.4879E+00
      6.134  0.2395E-01  0.4915E+00
      6.281  0.5941E-01  0.5002E+00
      6.428  0.3417E-01  0.5053E+00
      6.576  0.3347E-01  0.5102E+00
      6.723  0.3428E-01  0.5153E+00
      6.871  0.2376E-01  0.5188E+00
      7.018  0.6513E-01  0.5284E+00
      7.166  0.4999E-01  0.5357E+00
      7.313  0.3331E-01  0.5407E+00
      7.461  0.3330E-01  0.5456E+00
      7.608  0.2287E-01  0.5489E+00
      7.756  0.2999E-01  0.5534E+00
      7.903  0.3235E-01  0.5581E+00
      8.050  0.2010E-01  0.5611E+00
      8.198  0.5146E-01  0.5687E+00
      8.345  0.5035E-01  0.5761E+00
      8.493  0.5868E-01  0.5848E+00
      8.640  0.4537E-01  0.5914E+00
      8.788  0.3929E-01  0.5972E+00
      8.935  0.5230E-01  0.6050E+00
      9.083  0.4079E-01  0.6110E+00
      9.230  0.5041E-01  0.6184E+00
      9.377  0.4621E-01  0.6252E+00
      9.525  0.4724E-01  0.6322E+00
      9.672  0.4507E-01  0.6388E+00
      9.820  0.4258E-01  0.6451E+00
      9.967  0.5178E-01  0.6527E+00
     10.115  0.3468E-01  0.6579E+00
     10.262  0.3625E-01  0.6632E+00
     10.410  0.5275E-01  0.6710E+00
     10.557  0.3519E-01  0.6762E+00
     10.704  0.4158E-01  0.6823E+00
     10.852  0.4267E-01  0.6886E+00
     10.999  0.5435E-01  0.6966E+00
     11.147  0.3887E-01  0.7023E+00
     11.294  0.5285E-01  0.7101E+00
     11.442  0.4013E-01  0.7160E+00
     11.589  0.5732E-01  0.7245E+00
     11.737  0.4673E-01  0.7314E+00
     11.884  0.5242E-01  0.7391E+00
     12.032  0.4259E-01  0.7454E+00
     12.179  0.3814E-01  0.7510E+00
     12.326  0.4936E-01  0.7583E+00
     12.474  0.4019E-01  0.7642E+00
     12.621  0.4046E-01  0.7702E+00
     12.769  0.4509E-01  0.7768E+00
     12.916  0.7122E-01  0.7873E+00
     13.064  0.3639E-01  0.7927E+00
     13.211  0.3796E-01  0.7983E+00
     13.359  0.5103E-01  0.8058E+00
     13.506  0.3421E-01  0.8109E+00
     13.653  0.5531E-01  0.8190E+00
     13.801  0.5065E-01  0.8265E+00
     13.948  0.3269E-01  0.8313E+00
     14.096  0.6393E-01  0.8407E+00
     14.243  0.5154E-01  0.8483E+00
     14.391  0.4551E-01  0.8550E+00
     14.538  0.5142E-01  0.8626E+00
     14.686  0.2973E-01  0.8670E+00
     14.833  0.2829E-01  0.8712E+00
     14.980  0.1470E-01  0.8734E+00
     15.128  0.1636E-01  0.8758E+00
     15.275  0.6423E-02  0.8767E+00
     15.423  0.1120E-04  0.8767E+00
     15.570  0.1172E-13  0.8767E+00
     15.718  0.0000E+00  0.8767E+00
     15.865  0.0000E+00  0.8767E+00
     16.013  0.0000E+00  0.8767E+00
     16.160  0.0000E+00  0.8767E+00
     16.308  0.0000E+00  0.8767E+00
     16.455  0.0000E+00  0.8767E+00
     16.602  0.0000E+00  0.8767E+00
     16.750  0.0000E+00  0.8767E+00
     16.897  0.0000E+00  0.8767E+00
     17.045  0.0000E+00  0.8767E+00
     17.192  0.0000E+00  0.8767E+00
