       N       E                     dE             d eps       ncg     rms          rms(c)
DAV:   1     0.133206546741E+03    0.13321E+03   -0.10249E+04  1408   0.124E+03
DAV:   2     0.267457012821E+01   -0.13053E+03   -0.12851E+03  1664   0.291E+02
DAV:   3    -0.837600291183E+01   -0.11051E+02   -0.11025E+02  1632   0.893E+01
DAV:   4    -0.856471216222E+01   -0.18871E+00   -0.18869E+00  1800   0.126E+01
DAV:   5    -0.856820872277E+01   -0.34966E-02   -0.34965E-02  1664   0.167E+00    0.814E+00
DAV:   6    -0.744759547571E+01    0.11206E+01   -0.32606E+00  1848   0.243E+01    0.652E+00
DAV:   7    -0.738489691415E+01    0.62699E-01   -0.10568E+00  1520   0.538E+00    0.166E+00
DAV:   8    -0.737899075330E+01    0.59062E-02   -0.55225E-02  1528   0.172E+00    0.763E-01
DAV:   9    -0.737934540834E+01   -0.35466E-03   -0.21147E-02  1512   0.104E+00    0.379E-01
DAV:  10    -0.738099930749E+01   -0.16539E-02   -0.13927E-03  1608   0.311E-01    0.206E-01
DAV:  11    -0.738342887113E+01   -0.24296E-02   -0.32643E-03  1456   0.258E-01    0.447E-02
DAV:  12    -0.738360032711E+01   -0.17146E-03   -0.18718E-04  1688   0.770E-02    0.459E-02
DAV:  13    -0.738369115905E+01   -0.90832E-04   -0.14468E-04  1448   0.426E-02    0.136E-02
DAV:  14    -0.738369774244E+01   -0.65834E-05   -0.14952E-05  1488   0.203E-02    0.533E-03
DAV:  15    -0.738369903177E+01   -0.12893E-05   -0.23534E-06  1104   0.867E-03    0.617E-04
DAV:  16    -0.738369913831E+01   -0.10654E-06   -0.22656E-07  1360   0.286E-03
   1 F= -.73836991E+01 E0= -.73833781E+01  d E =-.642011E-03
 Found     9 degrees of freedom:
 Adding 6 more for cell shape distortion
       N       E                     dE             d eps       ncg     rms          rms(c)
DAV:   1    -0.764994316834E+01   -0.26624E+00   -0.66748E+00  1520   0.375E+01    0.382E+00
DAV:   2    -0.742160967673E+01    0.22833E+00   -0.98983E-01  1408   0.162E+01    0.163E+00
DAV:   3    -0.737860856417E+01    0.43001E-01   -0.62205E-02  1624   0.232E+00    0.790E-01
DAV:   4    -0.736591480742E+01    0.12694E-01   -0.93087E-03  1712   0.125E+00    0.183E-01
DAV:   5    -0.736546978072E+01    0.44503E-03   -0.25802E-03  1632   0.508E-01    0.549E-02
DAV:   6    -0.736550335493E+01   -0.33574E-04   -0.29684E-04  1608   0.211E-01    0.231E-02
DAV:   7    -0.736550924397E+01   -0.58890E-05   -0.13170E-05  1608   0.562E-02    0.947E-03
DAV:   8    -0.736551404245E+01   -0.47985E-05   -0.77882E-06  1472   0.283E-02    0.354E-03
DAV:   9    -0.736551555589E+01   -0.15134E-05   -0.27072E-06  1160   0.108E-02    0.148E-03
DAV:  10    -0.736551564259E+01   -0.86700E-07   -0.32913E-07  1232   0.514E-03
   2 F= -.73655156E+01 E0= -.73651946E+01  d E =-.642009E-03
       N       E                     dE             d eps       ncg     rms          rms(c)
DAV:   1    -0.744846939399E+01   -0.82954E-01   -0.15981E+00  1544   0.174E+01    0.192E+00
DAV:   2    -0.739146519780E+01    0.57004E-01   -0.28336E-01  1416   0.927E+00    0.811E-01
DAV:   3    -0.738134108071E+01    0.10124E-01   -0.17383E-02  1696   0.166E+00    0.402E-01
DAV:   4    -0.737823313798E+01    0.31079E-02   -0.24602E-03  1776   0.713E-01    0.107E-01
DAV:   5    -0.737809474188E+01    0.13840E-03   -0.73444E-04  1656   0.283E-01    0.283E-02
DAV:   6    -0.737810776381E+01   -0.13022E-04   -0.15107E-04  1496   0.186E-01    0.180E-02
DAV:   7    -0.737810723327E+01    0.53054E-06   -0.14449E-05  1720   0.654E-02    0.649E-03
DAV:   8    -0.737810839124E+01   -0.11580E-05   -0.25572E-06  1280   0.128E-02    0.201E-03
DAV:   9    -0.737810872433E+01   -0.33309E-06   -0.74956E-07  1176   0.108E-02
   3 F= -.73781087E+01 E0= -.73777877E+01  d E =-.642010E-03
       N       E                     dE             d eps       ncg     rms          rms(c)
DAV:   1    -0.767675679699E+01   -0.29865E+00   -0.66114E+00  1560   0.351E+01    0.396E+00
DAV:   2    -0.743716278640E+01    0.23959E+00   -0.12921E+00  1424   0.208E+01    0.167E+00
DAV:   3    -0.739550740779E+01    0.41655E-01   -0.81096E-02  1688   0.399E+00    0.844E-01
DAV:   4    -0.738204479606E+01    0.13463E-01   -0.11884E-02  1808   0.154E+00    0.234E-01
DAV:   5    -0.738139420297E+01    0.65059E-03   -0.31525E-03  1648   0.613E-01    0.573E-02
DAV:   6    -0.738144746196E+01   -0.53259E-04   -0.66622E-04  1472   0.387E-01    0.394E-02
DAV:   7    -0.738144987553E+01   -0.24136E-05   -0.53156E-05  1680   0.124E-01    0.140E-02
DAV:   8    -0.738145455473E+01   -0.46792E-05   -0.98508E-06  1440   0.268E-02    0.429E-03
DAV:   9    -0.738145589800E+01   -0.13433E-05   -0.23328E-06  1184   0.142E-02    0.150E-03
DAV:  10    -0.738145622592E+01   -0.32793E-06   -0.64889E-07  1152   0.742E-03
   4 F= -.73814562E+01 E0= -.73811352E+01  d E =-.642013E-03
       N       E                     dE             d eps       ncg     rms          rms(c)
DAV:   1    -0.744718906761E+01   -0.65733E-01   -0.17455E+00  1536   0.184E+01    0.201E+00
DAV:   2    -0.738520196352E+01    0.61987E-01   -0.31163E-01  1424   0.992E+00    0.849E-01
DAV:   3    -0.737398145661E+01    0.11221E-01   -0.18882E-02  1664   0.178E+00    0.422E-01
DAV:   4    -0.737051128515E+01    0.34702E-02   -0.28851E-03  1792   0.769E-01    0.114E-01
DAV:   5    -0.737036434783E+01    0.14694E-03   -0.84983E-04  1640   0.311E-01    0.293E-02
DAV:   6    -0.737037846968E+01   -0.14122E-04   -0.17419E-04  1472   0.200E-01    0.199E-02
DAV:   7    -0.737037803546E+01    0.43422E-06   -0.15364E-05  1680   0.678E-02    0.761E-03
DAV:   8    -0.737037935728E+01   -0.13218E-05   -0.28866E-06  1312   0.136E-02    0.222E-03
DAV:   9    -0.737037964919E+01   -0.29191E-06   -0.77773E-07  1200   0.115E-02
   5 F= -.73703796E+01 E0= -.73700586E+01  d E =-.642017E-03
       N       E                     dE             d eps       ncg     rms          rms(c)
DAV:   1    -0.824434541750E+01   -0.87397E+00   -0.18488E+01  1440   0.730E+01    0.716E+00
DAV:   2    -0.751490039694E+01    0.72945E+00   -0.28901E+00  1416   0.272E+01    0.276E+00
DAV:   3    -0.740000114281E+01    0.11490E+00   -0.17836E-01  1616   0.369E+00    0.137E+00
DAV:   4    -0.736518000035E+01    0.34821E-01   -0.19881E-02  1680   0.166E+00    0.335E-01
DAV:   5    -0.736302041599E+01    0.21596E-02   -0.45065E-03  1800   0.618E-01    0.774E-02
DAV:   6    -0.736309424306E+01   -0.73827E-04   -0.66616E-04  1568   0.319E-01    0.315E-02
DAV:   7    -0.736313711592E+01   -0.42873E-04   -0.59619E-05  1440   0.916E-02    0.104E-02
DAV:   8    -0.736315184999E+01   -0.14734E-04   -0.29179E-05  1520   0.700E-02    0.603E-03
DAV:   9    -0.736315519321E+01   -0.33432E-05   -0.50021E-06  1232   0.214E-02    0.328E-03
DAV:  10    -0.736315622176E+01   -0.10286E-05   -0.20826E-06  1112   0.953E-03    0.570E-04
DAV:  11    -0.736315629444E+01   -0.72676E-07   -0.11021E-07  1192   0.449E-03
   6 F= -.73631563E+01 E0= -.73628353E+01  d E =-.642059E-03
       N       E                     dE             d eps       ncg     rms          rms(c)
DAV:   1    -0.744248293615E+01   -0.79327E-01   -0.15250E+00  1472   0.170E+01    0.210E+00
DAV:   2    -0.739198890221E+01    0.50494E-01   -0.23907E-01  1408   0.831E+00    0.845E-01
DAV:   3    -0.738153688969E+01    0.10452E-01   -0.14766E-02  1776   0.153E+00    0.409E-01
DAV:   4    -0.737848747082E+01    0.30494E-02   -0.28877E-03  1560   0.700E-01    0.112E-01
DAV:   5    -0.737838470720E+01    0.10276E-03   -0.62231E-04  1576   0.241E-01    0.267E-02
DAV:   6    -0.737838921885E+01   -0.45117E-05   -0.83377E-05  1520   0.126E-01    0.121E-02
DAV:   7    -0.737839096166E+01   -0.17428E-05   -0.96507E-06  1496   0.475E-02    0.298E-03
DAV:   8    -0.737839201053E+01   -0.10489E-05   -0.18682E-06  1112   0.151E-02    0.167E-03
DAV:   9    -0.737839249026E+01   -0.47974E-06   -0.49924E-07  1160   0.546E-03
   7 F= -.73783925E+01 E0= -.73780715E+01  d E =-.642024E-03
       N       E                     dE             d eps       ncg     rms          rms(c)
DAV:   1    -0.764392616954E+01   -0.26553E+00   -0.62777E+00  1504   0.345E+01    0.440E+00
DAV:   2    -0.743469446419E+01    0.20923E+00   -0.10820E+00  1408   0.188E+01    0.175E+00
DAV:   3    -0.739172602994E+01    0.42968E-01   -0.68986E-02  1792   0.371E+00    0.861E-01
DAV:   4    -0.737847125361E+01    0.13255E-01   -0.13508E-02  1624   0.142E+00    0.249E-01
DAV:   5    -0.737795033127E+01    0.52092E-03   -0.22763E-03  1584   0.456E-01    0.541E-02
DAV:   6    -0.737796902665E+01   -0.18695E-04   -0.31702E-04  1496   0.228E-01    0.241E-02
DAV:   7    -0.737797872192E+01   -0.96953E-05   -0.34482E-05  1488   0.850E-02    0.612E-03
DAV:   8    -0.737798284550E+01   -0.41236E-05   -0.74072E-06  1456   0.325E-02    0.365E-03
DAV:   9    -0.737798489840E+01   -0.20529E-05   -0.20924E-06  1120   0.848E-03    0.167E-03
DAV:  10    -0.737798543202E+01   -0.53362E-06   -0.10803E-06  1112   0.765E-03
   8 F= -.73779854E+01 E0= -.73776618E+01  d E =-.647179E-03
       N       E                     dE             d eps       ncg     rms          rms(c)
DAV:   1    -0.743004695179E+01   -0.52062E-01   -0.16518E+00  1600   0.183E+01    0.222E+00
DAV:   2    -0.737515858658E+01    0.54888E-01   -0.27334E-01  1408   0.931E+00    0.899E-01
DAV:   3    -0.736385391982E+01    0.11305E-01   -0.15910E-02  1784   0.173E+00    0.439E-01
DAV:   4    -0.736040365057E+01    0.34503E-02   -0.33733E-03  1664   0.729E-01    0.120E-01
DAV:   5    -0.736029749814E+01    0.10615E-03   -0.56099E-04  1552   0.228E-01    0.287E-02
DAV:   6    -0.736030332408E+01   -0.58259E-05   -0.85694E-05  1504   0.125E-01    0.123E-02
DAV:   7    -0.736030634909E+01   -0.30250E-05   -0.12542E-05  1504   0.557E-02    0.358E-03
DAV:   8    -0.736030805319E+01   -0.17041E-05   -0.27962E-06  1160   0.179E-02    0.201E-03
DAV:   9    -0.736030873355E+01   -0.68036E-06   -0.79669E-07  1120   0.599E-03
   9 F= -.73603087E+01 E0= -.73599434E+01  d E =-.730591E-03
       N       E                     dE             d eps       ncg     rms          rms(c)
DAV:   1    -0.830588739529E+01   -0.94558E+00   -0.18985E+01  1448   0.730E+01    0.714E+00
DAV:   2    -0.753516470177E+01    0.77072E+00   -0.30427E+00  1448   0.285E+01    0.275E+00
DAV:   3    -0.742209065477E+01    0.11307E+00   -0.20826E-01  1592   0.377E+00    0.137E+00
DAV:   4    -0.738895136189E+01    0.33139E-01   -0.18036E-02  1640   0.174E+00    0.364E-01
DAV:   5    -0.738646859782E+01    0.24828E-02   -0.44208E-03  1608   0.648E-01    0.744E-02
DAV:   6    -0.738654210136E+01   -0.73504E-04   -0.66996E-04  1464   0.294E-01    0.367E-02
DAV:   7    -0.738662285593E+01   -0.80755E-04   -0.11216E-04  1456   0.105E-01    0.113E-02
DAV:   8    -0.738665461987E+01   -0.31764E-04   -0.48113E-05  1488   0.770E-02    0.726E-03
DAV:   9    -0.738666286998E+01   -0.82501E-05   -0.94043E-06  1512   0.309E-02    0.362E-03
DAV:  10    -0.738666563974E+01   -0.27698E-05   -0.46512E-06  1120   0.153E-02    0.908E-04
DAV:  11    -0.738666583924E+01   -0.19950E-06   -0.39377E-07  1336   0.878E-03
  10 F= -.73866658E+01 E0= -.73863448E+01  d E =-.642081E-03
       N       E                     dE             d eps       ncg     rms          rms(c)
DAV:   1    -0.746752656872E+01   -0.80861E-01   -0.18087E+00  1456   0.172E+01    0.194E+00
DAV:   2    -0.740038625535E+01    0.67140E-01   -0.30904E-01  1432   0.933E+00    0.806E-01
DAV:   3    -0.738879643480E+01    0.11590E-01   -0.22063E-02  1560   0.178E+00    0.401E-01
DAV:   4    -0.738560948856E+01    0.31869E-02   -0.34624E-03  1696   0.806E-01    0.119E-01
DAV:   5    -0.738541888108E+01    0.19061E-03   -0.10565E-03  1536   0.305E-01    0.340E-02
DAV:   6    -0.738545285083E+01   -0.33970E-04   -0.22679E-04  1440   0.227E-01    0.221E-02
DAV:   7    -0.738545549718E+01   -0.26464E-05   -0.27404E-05  1496   0.885E-02    0.890E-03
DAV:   8    -0.738546143315E+01   -0.59360E-05   -0.10096E-05  1424   0.223E-02    0.332E-03
DAV:   9    -0.738546242541E+01   -0.99226E-06   -0.17878E-06  1256   0.187E-02
  11 F= -.73854624E+01 E0= -.73851414E+01  d E =-.642028E-03
       N       E                     dE             d eps       ncg     rms          rms(c)
DAV:   1    -0.772460716408E+01   -0.33915E+00   -0.74910E+00  1448   0.344E+01    0.400E+00
DAV:   2    -0.744524236186E+01    0.27936E+00   -0.14034E+00  1432   0.205E+01    0.165E+00
DAV:   3    -0.739686589975E+01    0.48376E-01   -0.10047E-01  1552   0.416E+00    0.845E-01
DAV:   4    -0.738211541504E+01    0.14750E-01   -0.15708E-02  1616   0.168E+00    0.254E-01
DAV:   5    -0.738113282843E+01    0.98259E-03   -0.44953E-03  1560   0.644E-01    0.678E-02
DAV:   6    -0.738126420162E+01   -0.13137E-03   -0.95748E-04  1432   0.450E-01    0.449E-02
DAV:   7    -0.738128100748E+01   -0.16806E-04   -0.10947E-04  1488   0.175E-01    0.178E-02
DAV:   8    -0.738130221002E+01   -0.21203E-04   -0.35109E-05  1448   0.410E-02    0.623E-03
DAV:   9    -0.738130595836E+01   -0.37483E-05   -0.50973E-06  1336   0.269E-02    0.200E-03
DAV:  10    -0.738130695620E+01   -0.99784E-06   -0.18132E-06  1088   0.992E-03
  12 F= -.73813070E+01 E0= -.73809860E+01  d E =-.642007E-03
       N       E                     dE             d eps       ncg     rms          rms(c)
DAV:   1    -0.746786623684E+01   -0.86560E-01   -0.19765E+00  1432   0.180E+01    0.203E+00
DAV:   2    -0.739493843590E+01    0.72928E-01   -0.33831E-01  1416   0.979E+00    0.843E-01
DAV:   3    -0.738221740755E+01    0.12721E-01   -0.23964E-02  1560   0.187E+00    0.421E-01
DAV:   4    -0.737854150904E+01    0.36759E-02   -0.37156E-03  1760   0.841E-01    0.125E-01
DAV:   5    -0.737829942706E+01    0.24208E-03   -0.11101E-03  1528   0.312E-01    0.346E-02
DAV:   6    -0.737833546379E+01   -0.36037E-04   -0.23352E-04  1440   0.225E-01    0.218E-02
DAV:   7    -0.737833883232E+01   -0.33685E-05   -0.25627E-05  1512   0.844E-02    0.898E-03
DAV:   8    -0.737834467351E+01   -0.58412E-05   -0.10184E-05  1448   0.223E-02    0.327E-03
DAV:   9    -0.737834566344E+01   -0.98993E-06   -0.17350E-06  1248   0.175E-02
  13 F= -.73783457E+01 E0= -.73780247E+01  d E =-.642019E-03
       N       E                     dE             d eps       ncg     rms          rms(c)
DAV:   1    -0.780611633612E+01   -0.42777E+00   -0.10502E+01  1432   0.413E+01    0.447E+00
DAV:   2    -0.746588150510E+01    0.34023E+00   -0.14092E+00  1464   0.190E+01    0.195E+00
DAV:   3    -0.739388770924E+01    0.71994E-01   -0.12342E-01  1616   0.298E+00    0.901E-01
DAV:   4    -0.737641817967E+01    0.17470E-01   -0.16348E-02  1576   0.152E+00    0.264E-01
DAV:   5    -0.737542286046E+01    0.99532E-03   -0.50543E-03  1568   0.654E-01    0.929E-02
DAV:   6    -0.737553441052E+01   -0.11155E-03   -0.60964E-04  1448   0.263E-01    0.374E-02
DAV:   7    -0.737555558053E+01   -0.21170E-04   -0.24802E-05  1616   0.654E-02    0.252E-02
DAV:   8    -0.737558569729E+01   -0.30117E-04   -0.49561E-05  1624   0.461E-02    0.811E-03
DAV:   9    -0.737559123357E+01   -0.55363E-05   -0.98647E-06  1560   0.230E-02    0.178E-03
DAV:  10    -0.737559185138E+01   -0.61781E-06   -0.12981E-06  1160   0.117E-02
  14 F= -.73755919E+01 E0= -.73752703E+01  d E =-.643111E-03
       N       E                     dE             d eps       ncg     rms          rms(c)
DAV:   1    -0.739524761628E+01   -0.19656E-01   -0.53542E-01  1456   0.697E+00    0.890E-01
DAV:   2    -0.738633502571E+01    0.89126E-02   -0.16510E-02  1680   0.169E+00    0.506E-01
DAV:   3    -0.738115634343E+01    0.51787E-02   -0.56186E-03  1608   0.828E-01    0.831E-02
DAV:   4    -0.738117122689E+01   -0.14883E-04   -0.11526E-03  1448   0.341E-01    0.339E-02
DAV:   5    -0.738116929765E+01    0.19292E-05   -0.66235E-05  1640   0.838E-02    0.134E-02
DAV:   6    -0.738116960993E+01   -0.31228E-06   -0.74869E-06  1632   0.413E-02
  15 F= -.73811696E+01 E0= -.73808486E+01  d E =-.642018E-03
       N       E                     dE             d eps       ncg     rms          rms(c)
DAV:   1    -0.743903752584E+01   -0.57868E-01   -0.21327E+00  1464   0.139E+01    0.176E+00
DAV:   2    -0.740387966734E+01    0.35158E-01   -0.65290E-02  1672   0.314E+00    0.101E+00
DAV:   3    -0.738312002046E+01    0.20760E-01   -0.23261E-02  1568   0.160E+00    0.143E-01
DAV:   4    -0.738322148712E+01   -0.10147E-03   -0.36937E-03  1448   0.597E-01    0.692E-02
DAV:   5    -0.738320845613E+01    0.13031E-04   -0.19218E-04  1704   0.155E-01    0.233E-02
DAV:   6    -0.738320912679E+01   -0.67065E-06   -0.35655E-05  1600   0.906E-02    0.118E-02
DAV:   7    -0.738321001131E+01   -0.88453E-06   -0.35607E-06  1592   0.242E-02
  16 F= -.73832100E+01 E0= -.73828890E+01  d E =-.642018E-03
       N       E                     dE             d eps       ncg     rms          rms(c)
DAV:   1    -0.739373092812E+01   -0.10522E-01   -0.53156E-01  1464   0.694E+00    0.880E-01
DAV:   2    -0.738493954253E+01    0.87914E-02   -0.15545E-02  1648   0.162E+00    0.504E-01
DAV:   3    -0.737976360125E+01    0.51759E-02   -0.55862E-03  1584   0.804E-01    0.741E-02
DAV:   4    -0.737979414607E+01   -0.30545E-04   -0.10599E-03  1416   0.319E-01    0.340E-02
DAV:   5    -0.737979207130E+01    0.20748E-05   -0.51942E-05  1720   0.816E-02    0.126E-02
DAV:   6    -0.737979217602E+01   -0.10471E-06   -0.86903E-06  1592   0.447E-02
  17 F= -.73797922E+01 E0= -.73794712E+01  d E =-.642031E-03
       N       E                     dE             d eps       ncg     rms          rms(c)
DAV:   1    -0.748022182041E+01   -0.10043E+00   -0.40195E+00  2272   0.191E+01    0.242E+00
DAV:   2    -0.742076054557E+01    0.59461E-01   -0.11874E-01  2784   0.481E+00    0.141E+00
DAV:   3    -0.738395439000E+01    0.36806E-01   -0.31567E-02  2608   0.208E+00    0.213E-01
DAV:   4    -0.738385930385E+01    0.95086E-04   -0.59759E-03  2384   0.877E-01    0.891E-02
DAV:   5    -0.738386727417E+01   -0.79703E-05   -0.44422E-04  2816   0.214E-01    0.417E-02
DAV:   6    -0.738387489933E+01   -0.76252E-05   -0.61338E-05  2504   0.128E-01    0.188E-02
DAV:   7    -0.738387661390E+01   -0.17146E-05   -0.17512E-05  2528   0.667E-02    0.380E-03
DAV:   8    -0.738387738241E+01   -0.76851E-06   -0.18965E-06  2552   0.120E-02
  18 F= -.73838774E+01 E0= -.73835773E+01  d E =-.600118E-03
       N       E                     dE             d eps       ncg     rms          rms(c)
DAV:   1    -0.739226980301E+01   -0.83932E-02   -0.17408E+00  2272   0.119E+01    0.808E-01
DAV:   2    -0.738769336569E+01    0.45764E-02   -0.30741E-02  2720   0.214E+00    0.493E-01
DAV:   3    -0.738363280245E+01    0.40606E-02   -0.35739E-03  2592   0.938E-01    0.325E-02
DAV:   4    -0.738373391954E+01   -0.10112E-03   -0.10044E-03  2416   0.386E-01    0.317E-02
DAV:   5    -0.738373530467E+01   -0.13851E-05   -0.23409E-05  2848   0.763E-02    0.130E-02
DAV:   6    -0.738373656719E+01   -0.12625E-05   -0.54683E-06  2400   0.338E-02    0.259E-03
DAV:   7    -0.738373688934E+01   -0.32215E-06   -0.66273E-07  1752   0.890E-03
  19 F= -.73837369E+01 E0= -.73834215E+01  d E =-.630844E-03
       N       E                     dE             d eps       ncg     rms          rms(c)
DAV:   1    -0.742678422683E+01   -0.43048E-01   -0.11760E+00  2632   0.971E+00    0.161E+00
DAV:   2    -0.740003495204E+01    0.26749E-01   -0.33683E-02  2624   0.264E+00    0.985E-01
DAV:   3    -0.738344766891E+01    0.16587E-01   -0.11678E-02  2640   0.163E+00    0.722E-02
DAV:   4    -0.738372076850E+01   -0.27310E-03   -0.27637E-03  2384   0.659E-01    0.608E-02
DAV:   5    -0.738372828005E+01   -0.75115E-05   -0.51189E-05  2712   0.101E-01    0.242E-02
DAV:   6    -0.738373586529E+01   -0.75852E-05   -0.16812E-05  2560   0.516E-02    0.631E-03
DAV:   7    -0.738373635807E+01   -0.49278E-06   -0.14412E-06  2232   0.150E-02
  20 F= -.73837364E+01 E0= -.73834208E+01  d E =-.631061E-03
       N       E                     dE             d eps       ncg     rms          rms(c)
DAV:   1    -0.739266620175E+01   -0.89303E-02   -0.18427E+00  2288   0.113E+01    0.802E-01
DAV:   2    -0.738791958822E+01    0.47466E-02   -0.27241E-02  2720   0.208E+00    0.493E-01
DAV:   3    -0.738377640712E+01    0.41432E-02   -0.27320E-03  2688   0.920E-01    0.313E-02
DAV:   4    -0.738387413236E+01   -0.97725E-04   -0.95189E-04  2376   0.373E-01    0.309E-02
DAV:   5    -0.738387488000E+01   -0.74763E-06   -0.13352E-05  3024   0.446E-02    0.178E-02
DAV:   6    -0.738387731046E+01   -0.24305E-05   -0.44720E-06  2336   0.284E-02    0.195E-03
DAV:   7    -0.738387770463E+01   -0.39417E-06   -0.60482E-07  1944   0.903E-03
  21 F= -.73838777E+01 E0= -.73835776E+01  d E =-.600115E-03
       N       E                     dE             d eps       ncg     rms          rms(c)
DAV:   1    -0.748023486700E+01   -0.96358E-01   -0.39167E+00  2288   0.193E+01    0.229E+00
DAV:   2    -0.742279610863E+01    0.57439E-01   -0.11968E-01  2600   0.535E+00    0.141E+00
DAV:   3    -0.738320344885E+01    0.39593E-01   -0.33557E-02  2720   0.279E+00    0.108E-01
DAV:   4    -0.738422184202E+01   -0.10184E-02   -0.99183E-03  2384   0.112E+00    0.107E-01
DAV:   5    -0.738426302160E+01   -0.41180E-04   -0.16313E-04  3112   0.131E-01    0.627E-02
DAV:   6    -0.738432792149E+01   -0.64900E-04   -0.72871E-05  2704   0.106E-01    0.724E-03
DAV:   7    -0.738433459007E+01   -0.66686E-05   -0.10245E-05  2776   0.331E-02    0.863E-03
DAV:   8    -0.738433650994E+01   -0.19199E-05   -0.35964E-06  2144   0.225E-02    0.183E-03
DAV:   9    -0.738433695718E+01   -0.44724E-06   -0.71314E-07  2128   0.493E-03
  22 F= -.73843370E+01 E0= -.73840195E+01  d E =-.635006E-03
       N       E                     dE             d eps       ncg     rms          rms(c)
DAV:   1    -0.739422751411E+01   -0.98910E-02   -0.18044E+00  2288   0.122E+01    0.812E-01
DAV:   2    -0.738846210258E+01    0.57654E-02   -0.30551E-02  2624   0.238E+00    0.498E-01
DAV:   3    -0.738365882544E+01    0.48033E-02   -0.46900E-03  2824   0.121E+00    0.360E-02
DAV:   4    -0.738385162116E+01   -0.19280E-03   -0.18399E-03  2384   0.488E-01    0.402E-02
DAV:   5    -0.738385608842E+01   -0.44673E-05   -0.41960E-05  2928   0.976E-02    0.182E-02
DAV:   6    -0.738386077721E+01   -0.46888E-05   -0.90777E-06  2408   0.459E-02    0.421E-03
DAV:   7    -0.738386234713E+01   -0.15699E-05   -0.17477E-06  2080   0.128E-02    0.339E-03
DAV:   8    -0.738386263313E+01   -0.28601E-06   -0.53747E-07  1712   0.102E-02
  23 F= -.73838626E+01 E0= -.73835425E+01  d E =-.640237E-03
       N       E                     dE             d eps       ncg     rms          rms(c)
DAV:   1    -0.743349452497E+01   -0.49632E-01   -0.12838E+00  2448   0.101E+01    0.161E+00
DAV:   2    -0.740284289035E+01    0.30652E-01   -0.39203E-02  2528   0.304E+00    0.994E-01
DAV:   3    -0.738328389791E+01    0.19559E-01   -0.16612E-02  2792   0.215E+00    0.798E-02
DAV:   4    -0.738380711989E+01   -0.52322E-03   -0.49832E-03  2336   0.776E-01    0.762E-02
DAV:   5    -0.738383148037E+01   -0.24360E-04   -0.74197E-05  2936   0.101E-01    0.371E-02
DAV:   6    -0.738386083524E+01   -0.29355E-04   -0.40582E-05  2872   0.699E-02    0.118E-02
DAV:   7    -0.738386146991E+01   -0.63467E-06   -0.35703E-06  2904   0.199E-02
  24 F= -.73838615E+01 E0= -.73835413E+01  d E =-.640265E-03
       N       E                     dE             d eps       ncg     rms          rms(c)
DAV:   1    -0.739494175744E+01   -0.11081E-01   -0.19580E+00  2296   0.116E+01    0.804E-01
DAV:   2    -0.738905181883E+01    0.58899E-02   -0.26772E-02  2616   0.230E+00    0.499E-01
DAV:   3    -0.738413955033E+01    0.49123E-02   -0.38914E-03  2864   0.124E+00    0.354E-02
DAV:   4    -0.738432430033E+01   -0.18475E-03   -0.17487E-03  2352   0.464E-01    0.403E-02
DAV:   5    -0.738432681852E+01   -0.25182E-05   -0.26009E-05  3016   0.678E-02    0.244E-02
DAV:   6    -0.738433462524E+01   -0.78067E-05   -0.90440E-06  2552   0.321E-02    0.465E-03
DAV:   7    -0.738433668548E+01   -0.20602E-05   -0.18794E-06  2016   0.139E-02    0.412E-03
DAV:   8    -0.738433693332E+01   -0.24784E-06   -0.70260E-07  1800   0.126E-02
  25 F= -.73843369E+01 E0= -.73840194E+01  d E =-.635014E-03
       N       E                     dE             d eps       ncg     rms          rms(c)
DAV:   1    -0.741927775954E+01   -0.34941E-01   -0.55279E+00  1432   0.185E+01    0.157E+00
DAV:   2    -0.740149784352E+01    0.17780E-01   -0.15228E-01  1592   0.518E+00    0.963E-01
DAV:   3    -0.738073284504E+01    0.20765E-01   -0.17383E-02  1992   0.225E+00    0.649E-02
DAV:   4    -0.738108386328E+01   -0.35102E-03   -0.53519E-03  1488   0.780E-01    0.401E-02
DAV:   5    -0.738109262628E+01   -0.87630E-05   -0.18311E-04  1888   0.173E-01    0.171E-02
DAV:   6    -0.738109674405E+01   -0.41178E-05   -0.44253E-05  1544   0.940E-02    0.830E-03
DAV:   7    -0.738109886694E+01   -0.21229E-05   -0.87581E-06  1584   0.401E-02    0.552E-03
DAV:   8    -0.738109951101E+01   -0.64407E-06   -0.15617E-06  1200   0.159E-02
  26 F= -.73810995E+01 E0= -.73807785E+01  d E =-.642011E-03
       N       E                     dE             d eps       ncg     rms          rms(c)
DAV:   1    -0.738170739758E+01   -0.60853E-03   -0.87183E-01  1424   0.483E+00    0.473E-02
DAV:   2    -0.738285809858E+01   -0.11507E-02   -0.11574E-02  1424   0.661E-01    0.149E-02
DAV:   3    -0.738288863335E+01   -0.30535E-04   -0.34000E-04  1584   0.114E-01    0.971E-03
DAV:   4    -0.738289025184E+01   -0.16185E-05   -0.16609E-05  1504   0.291E-02    0.472E-03
DAV:   5    -0.738289068505E+01   -0.43322E-06   -0.78101E-07  1168   0.713E-03
  27 F= -.73828907E+01 E0= -.73825697E+01  d E =-.642011E-03
       N       E                     dE             d eps       ncg     rms          rms(c)
DAV:   1    -0.737853195396E+01    0.43583E-02   -0.35050E+00  1424   0.980E+00    0.957E-02
DAV:   2    -0.738343684671E+01   -0.49049E-02   -0.49510E-02  1408   0.135E+00    0.294E-02
DAV:   3    -0.738357049048E+01   -0.13364E-03   -0.14708E-03  1576   0.240E-01    0.201E-02
DAV:   4    -0.738357603750E+01   -0.55470E-05   -0.71740E-05  1560   0.635E-02    0.995E-03
DAV:   5    -0.738357797610E+01   -0.19386E-05   -0.42852E-06  1672   0.155E-02    0.615E-03
DAV:   6    -0.738357912120E+01   -0.11451E-05   -0.11934E-06  1136   0.733E-03    0.867E-04
DAV:   7    -0.738357915350E+01   -0.32306E-07   -0.10292E-07   872   0.306E-03
  28 F= -.73835792E+01 E0= -.73832581E+01  d E =-.642011E-03
       N       E                     dE             d eps       ncg     rms          rms(c)
DAV:   1    -0.738137227320E+01    0.22068E-02   -0.87201E-01  1424   0.482E+00    0.469E-02
DAV:   2    -0.738251507498E+01   -0.11428E-02   -0.11491E-02  1408   0.658E-01    0.147E-02
DAV:   3    -0.738254559017E+01   -0.30515E-04   -0.33742E-04  1568   0.114E-01    0.944E-03
DAV:   4    -0.738254728731E+01   -0.16971E-05   -0.16461E-05  1480   0.287E-02    0.471E-03
DAV:   5    -0.738254773203E+01   -0.44471E-06   -0.75894E-07  1184   0.693E-03
  29 F= -.73825477E+01 E0= -.73822267E+01  d E =-.642011E-03
       N       E                     dE             d eps       ncg     rms          rms(c)
DAV:   1    -0.737201757341E+01    0.10530E-01   -0.70517E+00  1416   0.142E+01    0.136E-01
DAV:   2    -0.738268646519E+01   -0.10669E-01   -0.10713E-01  1416   0.198E+00    0.425E-02
DAV:   3    -0.738298228686E+01   -0.29582E-03   -0.32135E-03  1528   0.359E-01    0.302E-02
DAV:   4    -0.738299143626E+01   -0.91494E-05   -0.16723E-04  1600   0.100E-01    0.148E-02
DAV:   5    -0.738299490498E+01   -0.34687E-05   -0.10074E-05  1640   0.246E-02    0.887E-03
DAV:   6    -0.738299708267E+01   -0.21777E-05   -0.24254E-06  1392   0.108E-02    0.140E-03
DAV:   7    -0.738299713806E+01   -0.55391E-07   -0.13705E-07  1048   0.378E-03
  30 F= -.73829971E+01 E0= -.73826761E+01  d E =-.642011E-03
       N       E                     dE             d eps       ncg     rms          rms(c)
DAV:   1    -0.738221699712E+01    0.78009E-03   -0.87110E-01  1496   0.457E+00    0.383E-02
DAV:   2    -0.738339448671E+01   -0.11775E-02   -0.11647E-02  1456   0.627E-01    0.862E-03
DAV:   3    -0.738343101783E+01   -0.36531E-04   -0.34310E-04  1480   0.105E-01    0.844E-03
DAV:   4    -0.738343313316E+01   -0.21153E-05   -0.14695E-05  1520   0.253E-02    0.485E-03
DAV:   5    -0.738343395836E+01   -0.82519E-06   -0.99404E-07  1336   0.745E-03
  31 F= -.73834340E+01 E0= -.73831130E+01  d E =-.642011E-03
       N       E                     dE             d eps       ncg     rms          rms(c)
DAV:   1    -0.737858055375E+01    0.48526E-02   -0.35014E+00  1496   0.928E+00    0.798E-02
DAV:   2    -0.738360991623E+01   -0.50294E-02   -0.49968E-02  1456   0.129E+00    0.180E-02
DAV:   3    -0.738376785905E+01   -0.15794E-03   -0.14885E-03  1472   0.221E-01    0.178E-02
DAV:   4    -0.738377639738E+01   -0.85383E-05   -0.64660E-05  1544   0.550E-02    0.101E-02
DAV:   5    -0.738378025316E+01   -0.38558E-05   -0.55567E-06  1536   0.185E-02    0.354E-03
DAV:   6    -0.738378215913E+01   -0.19060E-05   -0.15964E-06  1176   0.755E-03    0.140E-03
DAV:   7    -0.738378252325E+01   -0.36412E-06   -0.72124E-07  1168   0.797E-03
  32 F= -.73837825E+01 E0= -.73834615E+01  d E =-.642011E-03
       N       E                     dE             d eps       ncg     rms          rms(c)
DAV:   1    -0.738244577497E+01    0.13364E-02   -0.87125E-01  1488   0.457E+00    0.388E-02
DAV:   2    -0.738362409080E+01   -0.11783E-02   -0.11669E-02  1456   0.628E-01    0.856E-03
DAV:   3    -0.738366109254E+01   -0.37002E-04   -0.34409E-04  1472   0.105E-01    0.826E-03
DAV:   4    -0.738366341899E+01   -0.23265E-05   -0.14800E-05  1544   0.253E-02    0.472E-03
DAV:   5    -0.738366433844E+01   -0.91945E-06   -0.99676E-07  1296   0.730E-03
  33 F= -.73836643E+01 E0= -.73833433E+01  d E =-.642011E-03
       N       E                     dE             d eps       ncg     rms          rms(c)
DAV:   1    -0.737198333264E+01    0.11680E-01   -0.70423E+00  2496   0.133E+01    0.114E-01
DAV:   2    -0.738327358546E+01   -0.11290E-01   -0.11282E-01  2288   0.192E+00    0.245E-02
DAV:   3    -0.738366727676E+01   -0.39369E-03   -0.34342E-03  2328   0.342E-01    0.272E-02
DAV:   4    -0.738368407916E+01   -0.16802E-04   -0.14861E-04  2448   0.826E-02    0.171E-02
DAV:   5    -0.738369355338E+01   -0.94742E-05   -0.15708E-05  2448   0.341E-02    0.451E-03
DAV:   6    -0.738369695118E+01   -0.33978E-05   -0.28997E-06  2024   0.115E-02    0.280E-03
DAV:   7    -0.738369747875E+01   -0.52757E-06   -0.16715E-06  2528   0.137E-02
  34 F= -.73836975E+01 E0= -.73833765E+01  d E =-.642011E-03
       N       E                     dE             d eps       ncg     rms          rms(c)
DAV:   1    -0.737756480166E+01    0.61321E-02   -0.35930E+00  2336   0.794E+00    0.253E-02
DAV:   2    -0.738348910205E+01   -0.59243E-02   -0.59086E-02  2392   0.111E+00    0.107E-02
DAV:   3    -0.738367905657E+01   -0.18995E-03   -0.18317E-03  2432   0.197E-01    0.103E-02
DAV:   4    -0.738368712745E+01   -0.80709E-05   -0.83369E-05  2696   0.466E-02    0.691E-03
DAV:   5    -0.738369035074E+01   -0.32233E-05   -0.12931E-05  2840   0.341E-02    0.311E-03
DAV:   6    -0.738369010583E+01    0.24491E-06   -0.98114E-07  2312   0.117E-02
  35 F= -.73836901E+01 E0= -.73833691E+01  d E =-.642011E-03
       N       E                     dE             d eps       ncg     rms          rms(c)
DAV:   1    -0.738015786804E+01    0.35325E-02   -0.21482E+00  2432   0.546E+00    0.568E-02
DAV:   2    -0.738354622032E+01   -0.33884E-02   -0.32908E-02  2552   0.776E-01    0.127E-02
DAV:   3    -0.738367051324E+01   -0.12429E-03   -0.10249E-03  2480   0.143E-01    0.119E-02
DAV:   4    -0.738368300986E+01   -0.12497E-04   -0.46323E-05  2480   0.390E-02    0.686E-03
DAV:   5    -0.738368937919E+01   -0.63693E-05   -0.66169E-06  2496   0.183E-02    0.165E-03
DAV:   6    -0.738369006923E+01   -0.69004E-06   -0.66520E-07  2304   0.570E-03
  36 F= -.73836901E+01 E0= -.73833691E+01  d E =-.642011E-03
       N       E                     dE             d eps       ncg     rms          rms(c)
DAV:   1    -0.737757745110E+01    0.61119E-02   -0.35939E+00  2320   0.795E+00    0.641E-02
DAV:   2    -0.738349084519E+01   -0.59134E-02   -0.59542E-02  2328   0.112E+00    0.121E-02
DAV:   3    -0.738369125868E+01   -0.20041E-03   -0.18323E-03  2400   0.201E-01    0.176E-02
DAV:   4    -0.738369567169E+01   -0.44130E-05   -0.78023E-05  2400   0.446E-02    0.142E-02
DAV:   5    -0.738369691001E+01   -0.12383E-05   -0.94906E-06  2288   0.300E-02    0.233E-03
DAV:   6    -0.738369759979E+01   -0.68978E-06   -0.12671E-06  2408   0.860E-03
  37 F= -.73836976E+01 E0= -.73833766E+01  d E =-.642011E-03
       N       E                     dE             d eps       ncg     rms          rms(c)
DAV:   1    -0.737502792393E+01    0.86690E-02   -0.80272E+00  1408   0.220E+01    0.201E-01
DAV:   2    -0.738299271655E+01   -0.79648E-02   -0.77008E-02  1664   0.246E+00    0.734E-02
DAV:   3    -0.738319629087E+01   -0.20357E-03   -0.25021E-03  1760   0.536E-01    0.316E-02
DAV:   4    -0.738321344461E+01   -0.17154E-04   -0.13248E-04  1600   0.955E-02    0.179E-02
DAV:   5    -0.738322098183E+01   -0.75372E-05   -0.24295E-05  1960   0.465E-02    0.398E-03
DAV:   6    -0.738322140369E+01   -0.42186E-06   -0.14837E-06  1464   0.140E-02
  38 F= -.73832214E+01 E0= -.73829004E+01  d E =-.642011E-03
       N       E                     dE             d eps       ncg     rms          rms(c)
DAV:   1    -0.738337687329E+01   -0.15589E-03   -0.11301E+00  1408   0.681E+00    0.900E-02
DAV:   2    -0.738369468312E+01   -0.31781E-03   -0.26589E-03  1704   0.432E-01    0.239E-02
DAV:   3    -0.738369643048E+01   -0.17474E-05   -0.43086E-05  1640   0.838E-02    0.124E-02
DAV:   4    -0.738369737605E+01   -0.94557E-06   -0.51500E-06  1712   0.244E-02
  39 F= -.73836974E+01 E0= -.73833764E+01  d E =-.642011E-03
       N       E                     dE             d eps       ncg     rms          rms(c)
DAV:   1    -0.738176957539E+01    0.19269E-02   -0.45399E+00  1408   0.138E+01    0.187E-01
DAV:   2    -0.738325197477E+01   -0.14824E-02   -0.13034E-02  1664   0.103E+00    0.594E-02
DAV:   3    -0.738325073578E+01    0.12390E-05   -0.27353E-04  1648   0.235E-01    0.265E-02
DAV:   4    -0.738325535748E+01   -0.46217E-05   -0.22588E-05  1712   0.433E-02    0.143E-02
DAV:   5    -0.738325792674E+01   -0.25693E-05   -0.54697E-06  1520   0.176E-02    0.322E-03
DAV:   6    -0.738325810842E+01   -0.18169E-06   -0.25593E-07   768   0.470E-03
  40 F= -.73832581E+01 E0= -.73829371E+01  d E =-.642011E-03
       N       E                     dE             d eps       ncg     rms          rms(c)
DAV:   1    -0.738207733707E+01    0.11806E-02   -0.11301E+00  1408   0.681E+00    0.910E-02
DAV:   2    -0.738239117304E+01   -0.31384E-03   -0.26053E-03  1704   0.422E-01    0.229E-02
DAV:   3    -0.738239303151E+01   -0.18585E-05   -0.39630E-05  1648   0.794E-02    0.122E-02
DAV:   4    -0.738239407627E+01   -0.10448E-05   -0.49692E-06  1712   0.235E-02    0.601E-03
DAV:   5    -0.738239455908E+01   -0.48281E-06   -0.11248E-06  1064   0.100E-02
  41 F= -.73823946E+01 E0= -.73820736E+01  d E =-.642011E-03
       N       E                     dE             d eps       ncg     rms          rms(c)
DAV:   1    -0.737822384431E+01    0.41702E-02   -0.91317E+00  1408   0.197E+01    0.261E-01
DAV:   2    -0.738185092436E+01   -0.36271E-02   -0.32159E-02  1688   0.166E+00    0.900E-02
DAV:   3    -0.738184494937E+01    0.59750E-05   -0.63087E-04  1656   0.358E-01    0.388E-02
DAV:   4    -0.738185463267E+01   -0.96833E-05   -0.45282E-05  1680   0.558E-02    0.212E-02
DAV:   5    -0.738185991380E+01   -0.52811E-05   -0.10927E-05  1520   0.257E-02    0.483E-03
DAV:   6    -0.738186033400E+01   -0.42020E-06   -0.58012E-07  1136   0.695E-03
  42 F= -.73818603E+01 E0= -.73815393E+01  d E =-.642011E-03
       N       E                     dE             d eps       ncg     rms          rms(c)
DAV:   1    -0.738297841864E+01   -0.11185E-02   -0.11288E+00  1408   0.693E+00    0.182E-01
DAV:   2    -0.738332954340E+01   -0.35112E-03   -0.32011E-03  1664   0.445E-01    0.364E-02
DAV:   3    -0.738332429563E+01    0.52478E-05   -0.48517E-05  1752   0.713E-02    0.188E-02
DAV:   4    -0.738332268526E+01    0.16104E-05   -0.13665E-05  1688   0.332E-02    0.686E-03
DAV:   5    -0.738332270553E+01   -0.20263E-07   -0.17533E-06  1088   0.152E-02
  43 F= -.73833227E+01 E0= -.73830017E+01  d E =-.642011E-03
       N       E                     dE             d eps       ncg     rms          rms(c)
DAV:   1    -0.738144463507E+01    0.18781E-02   -0.45353E+00  1408   0.140E+01    0.368E-01
DAV:   2    -0.738299120346E+01   -0.15466E-02   -0.14300E-02  1664   0.978E-01    0.737E-02
DAV:   3    -0.738297069439E+01    0.20509E-04   -0.23209E-04  1744   0.173E-01    0.372E-02
DAV:   4    -0.738296514343E+01    0.55510E-05   -0.53372E-05  1704   0.709E-02    0.154E-02
DAV:   5    -0.738296562123E+01   -0.47779E-06   -0.85304E-06  1568   0.308E-02
  44 F= -.73829656E+01 E0= -.73826446E+01  d E =-.642011E-03
       N       E                     dE             d eps       ncg     rms          rms(c)
DAV:   1    -0.738077071661E+01    0.21944E-02   -0.11289E+00  1408   0.693E+00    0.186E-01
DAV:   2    -0.738112490360E+01   -0.35419E-03   -0.31887E-03  1664   0.435E-01    0.352E-02
DAV:   3    -0.738112101183E+01    0.38918E-05   -0.44942E-05  1744   0.616E-02    0.185E-02
DAV:   4    -0.738112007766E+01    0.93417E-06   -0.13707E-05  1680   0.309E-02    0.562E-03
DAV:   5    -0.738112018725E+01   -0.10959E-06   -0.16049E-06  1064   0.150E-02
  45 F= -.73811202E+01 E0= -.73807992E+01  d E =-.642011E-03
       N       E                     dE             d eps       ncg     rms          rms(c)
DAV:   1    -0.737953504839E+01    0.15850E-02   -0.91277E+00  2272   0.201E+01    0.395E-01
DAV:   2    -0.738326116271E+01   -0.37261E-02   -0.35933E-02  2696   0.175E+00    0.113E-01
DAV:   3    -0.738321057306E+01    0.50590E-04   -0.81386E-04  2568   0.416E-01    0.490E-02
DAV:   4    -0.738321063112E+01   -0.58064E-07   -0.81614E-05  2800   0.838E-02    0.261E-02
DAV:   5    -0.738321439938E+01   -0.37683E-05   -0.19288E-05  2448   0.310E-02    0.708E-03
DAV:   6    -0.738321495617E+01   -0.55679E-06   -0.97581E-07  1864   0.970E-03
  46 F= -.73832150E+01 E0= -.73828940E+01  d E =-.642011E-03
       N       E                     dE             d eps       ncg     rms          rms(c)
DAV:   1    -0.738178757027E+01    0.14268E-02   -0.46734E+00  2272   0.122E+01    0.686E-02
DAV:   2    -0.738357866732E+01   -0.17911E-02   -0.17968E-02  2632   0.980E-01    0.518E-02
DAV:   3    -0.738357266174E+01    0.60056E-05   -0.22581E-04  2632   0.186E-01    0.237E-02
DAV:   4    -0.738357398884E+01   -0.13271E-05   -0.18779E-05  2640   0.532E-02    0.903E-03
DAV:   5    -0.738357539038E+01   -0.14015E-05   -0.34901E-06  2200   0.139E-02    0.182E-03
DAV:   6    -0.738357541822E+01   -0.27844E-07   -0.15458E-07  1288   0.427E-03
  47 F= -.73835754E+01 E0= -.73832544E+01  d E =-.642011E-03
       N       E                     dE             d eps       ncg     rms          rms(c)
DAV:   1    -0.738261594693E+01    0.95944E-03   -0.27898E+00  2280   0.839E+00    0.791E-02
DAV:   2    -0.738356415424E+01   -0.94821E-03   -0.83674E-03  2512   0.648E-01    0.468E-02
DAV:   3    -0.738356228428E+01    0.18700E-05   -0.13984E-04  2536   0.159E-01    0.247E-02
DAV:   4    -0.738357447965E+01   -0.12195E-04   -0.35158E-05  2440   0.433E-02    0.677E-03
DAV:   5    -0.738357509545E+01   -0.61580E-06   -0.41392E-06  2592   0.308E-02
  48 F= -.73835751E+01 E0= -.73832541E+01  d E =-.642011E-03
       N       E                     dE             d eps       ncg     rms          rms(c)
DAV:   1    -0.738145837349E+01    0.21161E-02   -0.46694E+00  2272   0.122E+01    0.748E-02
DAV:   2    -0.738322298806E+01   -0.17646E-02   -0.17620E-02  2624   0.972E-01    0.521E-02
DAV:   3    -0.738321450257E+01    0.84855E-05   -0.22044E-04  2608   0.186E-01    0.243E-02
DAV:   4    -0.738321388013E+01    0.62244E-06   -0.16352E-05  2744   0.416E-02    0.115E-02
DAV:   5    -0.738321498500E+01   -0.11049E-05   -0.49829E-06  2352   0.177E-02    0.212E-03
DAV:   6    -0.738321506485E+01   -0.79845E-07   -0.21537E-07  1312   0.387E-03
  49 F= -.73832151E+01 E0= -.73828941E+01  d E =-.642011E-03
       N       E                     dE             d eps       ncg     rms          rms(c)
DAV:   1    -0.737520051586E+01    0.80145E-02   -0.55770E+00  1408   0.158E+01    0.481E-01
DAV:   2    -0.738168281096E+01   -0.64823E-02   -0.70237E-02  1528   0.212E+00    0.167E-01
DAV:   3    -0.738146691948E+01    0.21589E-03   -0.17027E-03  1736   0.475E-01    0.120E-01
DAV:   4    -0.738135792191E+01    0.10900E-03   -0.60249E-04  1816   0.164E-01    0.714E-02
DAV:   5    -0.738135982773E+01   -0.19058E-05   -0.10358E-04  1560   0.898E-02    0.225E-02
DAV:   6    -0.738136108678E+01   -0.12590E-05   -0.14137E-05  1536   0.440E-02    0.669E-03
DAV:   7    -0.738136104499E+01    0.41790E-07   -0.36076E-06  1472   0.205E-02
  50 F= -.73813610E+01 E0= -.73810400E+01  d E =-.642011E-03
       N       E                     dE             d eps       ncg     rms          rms(c)
DAV:   1    -0.738235766366E+01   -0.99658E-03   -0.26204E-01  1504   0.195E+00    0.171E-01
DAV:   2    -0.738326434762E+01   -0.90668E-03   -0.10357E-02  1472   0.611E-01    0.562E-02
DAV:   3    -0.738322499819E+01    0.39349E-04   -0.20405E-04  1704   0.951E-02    0.413E-02
DAV:   4    -0.738320435946E+01    0.20639E-04   -0.19088E-04  1472   0.601E-02    0.184E-02
DAV:   5    -0.738320570353E+01   -0.13441E-05   -0.28567E-05  1440   0.288E-02    0.939E-03
DAV:   6    -0.738320520723E+01    0.49630E-06   -0.14440E-06  1208   0.753E-03
  51 F= -.73832052E+01 E0= -.73828842E+01  d E =-.642011E-03
       N       E                     dE             d eps       ncg     rms          rms(c)
DAV:   1    -0.737943556278E+01    0.37701E-02   -0.10490E+00  1504   0.391E+00    0.354E-01
DAV:   2    -0.738309748545E+01   -0.36619E-02   -0.41815E-02  1456   0.123E+00    0.115E-01
DAV:   3    -0.738293982914E+01    0.15766E-03   -0.82902E-04  1696   0.193E-01    0.857E-02
DAV:   4    -0.738285649967E+01    0.83329E-04   -0.78063E-04  1448   0.122E-01    0.382E-02
DAV:   5    -0.738286187846E+01   -0.53788E-05   -0.11713E-04  1456   0.585E-02    0.198E-02
DAV:   6    -0.738286073374E+01    0.11447E-05   -0.51877E-06  1656   0.145E-02    0.105E-02
DAV:   7    -0.738286126479E+01   -0.53105E-06   -0.56015E-06  1504   0.116E-02
  52 F= -.73828613E+01 E0= -.73825403E+01  d E =-.642011E-03
       N       E                     dE             d eps       ncg     rms          rms(c)
DAV:   1    -0.737993526548E+01    0.29255E-02   -0.26143E-01  1496   0.195E+00    0.171E-01
DAV:   2    -0.738083981936E+01   -0.90455E-03   -0.10329E-02  1456   0.611E-01    0.568E-02
DAV:   3    -0.738080139154E+01    0.38428E-04   -0.20344E-04  1696   0.954E-02    0.420E-02
DAV:   4    -0.738078111397E+01    0.20278E-04   -0.19583E-04  1464   0.605E-02    0.185E-02
DAV:   5    -0.738078248950E+01   -0.13755E-05   -0.29480E-05  1456   0.290E-02    0.954E-03
DAV:   6    -0.738078206174E+01    0.42776E-06   -0.16112E-06  1208   0.750E-03
  53 F= -.73807821E+01 E0= -.73804611E+01  d E =-.642011E-03
       N       E                     dE             d eps       ncg     rms          rms(c)
DAV:   1    -0.737494349131E+01    0.58390E-02   -0.20882E+00  1520   0.548E+00    0.508E-01
DAV:   2    -0.738211685911E+01   -0.71734E-02   -0.82006E-02  1456   0.170E+00    0.173E-01
DAV:   3    -0.738179994055E+01    0.31692E-03   -0.16001E-03  1680   0.269E-01    0.126E-01
DAV:   4    -0.738162674637E+01    0.17319E-03   -0.15566E-03  1448   0.173E-01    0.564E-02
DAV:   5    -0.738163727637E+01   -0.10530E-04   -0.22684E-04  1424   0.825E-02    0.285E-02
DAV:   6    -0.738163453830E+01    0.27381E-05   -0.10808E-05  1656   0.208E-02    0.161E-02
DAV:   7    -0.738163556252E+01   -0.10242E-05   -0.87419E-06  1496   0.156E-02    0.251E-03
DAV:   8    -0.738163606602E+01   -0.50350E-06   -0.65710E-07  1280   0.572E-03
  54 F= -.73816361E+01 E0= -.73813151E+01  d E =-.642011E-03
       N       E                     dE             d eps       ncg     rms          rms(c)
DAV:   1    -0.738200267239E+01   -0.36711E-03   -0.25366E-01  1664   0.205E+00    0.233E-01
DAV:   2    -0.738322504087E+01   -0.12224E-02   -0.13456E-02  1408   0.729E-01    0.525E-02
DAV:   3    -0.738317941385E+01    0.45627E-04   -0.27860E-04  1864   0.107E-01    0.347E-02
DAV:   4    -0.738316351663E+01    0.15897E-04   -0.18190E-04  1592   0.580E-02    0.148E-02
DAV:   5    -0.738316448838E+01   -0.97174E-06   -0.29820E-05  1424   0.297E-02    0.142E-02
DAV:   6    -0.738316458085E+01   -0.92473E-07   -0.10786E-06  1008   0.635E-03
  55 F= -.73831646E+01 E0= -.73828436E+01  d E =-.642011E-03
       N       E                     dE             d eps       ncg     rms          rms(c)
DAV:   1    -0.737850036089E+01    0.46641E-02   -0.10142E+00  1664   0.409E+00    0.479E-01
DAV:   2    -0.738340232468E+01   -0.49020E-02   -0.54005E-02  1408   0.146E+00    0.109E-01
DAV:   3    -0.738321749221E+01    0.18483E-03   -0.11209E-03  1832   0.215E-01    0.734E-02
DAV:   4    -0.738315293981E+01    0.64552E-04   -0.73043E-04  1600   0.117E-01    0.304E-02
DAV:   5    -0.738315700425E+01   -0.40644E-05   -0.12113E-04  1424   0.598E-02    0.294E-02
DAV:   6    -0.738315782441E+01   -0.82016E-06   -0.43087E-06  1696   0.126E-02
  56 F= -.73831578E+01 E0= -.73828368E+01  d E =-.642011E-03
       N       E                     dE             d eps       ncg     rms          rms(c)
DAV:   1    -0.738026946311E+01    0.28875E-02   -0.25293E-01  1664   0.204E+00    0.241E-01
DAV:   2    -0.738148883769E+01   -0.12194E-02   -0.13437E-02  1408   0.729E-01    0.497E-02
DAV:   3    -0.738144340459E+01    0.45433E-04   -0.27845E-04  1864   0.107E-01    0.325E-02
DAV:   4    -0.738142915436E+01    0.14250E-04   -0.17536E-04  1544   0.570E-02    0.138E-02
DAV:   5    -0.738143011115E+01   -0.95679E-06   -0.28810E-05  1424   0.291E-02    0.148E-02
DAV:   6    -0.738143032704E+01   -0.21589E-06   -0.92881E-07  1160   0.607E-03
  57 F= -.73814303E+01 E0= -.73811093E+01  d E =-.642011E-03
       N       E                     dE             d eps       ncg     rms          rms(c)
DAV:   1    -0.737512230050E+01    0.63078E-02   -0.20400E+00  2488   0.570E+00    0.541E-01
DAV:   2    -0.738375712503E+01   -0.86348E-02   -0.95861E-02  2440   0.188E+00    0.166E-01
DAV:   3    -0.738349592108E+01    0.26120E-03   -0.17715E-03  2928   0.279E-01    0.133E-01
DAV:   4    -0.738334829295E+01    0.14763E-03   -0.10929E-03  2384   0.145E-01    0.593E-02
DAV:   5    -0.738336414755E+01   -0.15855E-04   -0.18622E-04  2392   0.753E-02    0.352E-02
DAV:   6    -0.738336481897E+01   -0.67142E-06   -0.45286E-06  2704   0.146E-02
  58 F= -.73833648E+01 E0= -.73830438E+01  d E =-.642011E-03
       N       E                     dE             d eps       ncg     rms          rms(c)
DAV:   1    -0.737970807964E+01    0.36561E-02   -0.10147E+00  2608   0.325E+00    0.139E-01
DAV:   2    -0.738356354808E+01   -0.38555E-02   -0.39307E-02  2472   0.900E-01    0.491E-02
DAV:   3    -0.738361572195E+01   -0.52174E-04   -0.69975E-04  2760   0.127E-01    0.414E-02
DAV:   4    -0.738360682739E+01    0.88946E-05   -0.46341E-05  2712   0.382E-02    0.848E-03
DAV:   5    -0.738360669753E+01    0.12986E-06   -0.68442E-06  2552   0.188E-02
  59 F= -.73836067E+01 E0= -.73832857E+01  d E =-.642011E-03
       N       E                     dE             d eps       ncg     rms          rms(c)
DAV:   1    -0.738141228475E+01    0.21945E-02   -0.63341E-01  2536   0.230E+00    0.202E-01
DAV:   2    -0.738368604059E+01   -0.22738E-02   -0.25533E-02  2456   0.664E-01    0.104E-01
DAV:   3    -0.738364566726E+01    0.40373E-04   -0.41415E-04  2560   0.107E-01    0.813E-02
DAV:   4    -0.738360562698E+01    0.40040E-04   -0.35437E-04  2872   0.780E-02    0.258E-02
DAV:   5    -0.738360760890E+01   -0.19819E-05   -0.36770E-05  2360   0.335E-02    0.103E-02
DAV:   6    -0.738360621633E+01    0.13926E-05   -0.59296E-06  2696   0.121E-02    0.447E-03
DAV:   7    -0.738360654224E+01   -0.32592E-06   -0.26741E-06  2440   0.717E-03
  60 F= -.73836065E+01 E0= -.73832855E+01  d E =-.642011E-03
       N       E                     dE             d eps       ncg     rms          rms(c)
DAV:   1    -0.737946762451E+01    0.41386E-02   -0.10271E+00  2592   0.325E+00    0.271E-01
DAV:   2    -0.738343934796E+01   -0.39717E-02   -0.43389E-02  2544   0.929E-01    0.118E-01
DAV:   3    -0.738341715358E+01    0.22194E-04   -0.70429E-04  2640   0.139E-01    0.964E-02
DAV:   4    -0.738336077415E+01    0.56379E-04   -0.27282E-04  2784   0.679E-02    0.449E-02
DAV:   5    -0.738336509643E+01   -0.43223E-05   -0.40070E-05  2392   0.307E-02    0.208E-02
DAV:   6    -0.738336558431E+01   -0.48788E-06   -0.43824E-06  1952   0.936E-03
  61 F= -.73833656E+01 E0= -.73830446E+01  d E =-.642011E-03
