  30  30   0   0
  0.2290238E+02  0.6904221E-09  0.6904222E-09  0.1506882E-08  0.1500000E-16
   1.0000000000000000E-004
  CAR 
 unknown system                          
      8.95053856    -22.79460830  301      1.66238192      1.00000000
    -22.795  0.0000E+00  0.0000E+00
    -22.689  0.0000E+00  0.0000E+00
    -22.583  0.0000E+00  0.0000E+00
    -22.477  0.0000E+00  0.0000E+00
    -22.371  0.0000E+00  0.0000E+00
    -22.266  0.0000E+00  0.0000E+00
    -22.160  0.0000E+00  0.0000E+00
    -22.054  0.0000E+00  0.0000E+00
    -21.948  0.0000E+00  0.0000E+00
    -21.842  0.0000E+00  0.0000E+00
    -21.736  0.0000E+00  0.0000E+00
    -21.631  0.9514E-16  0.1007E-16
    -21.525  0.3785E-07  0.4005E-08
    -21.419  0.3209E-02  0.3396E-03
    -21.313  0.2531E+00  0.2712E-01
    -21.207  0.3080E+00  0.5971E-01
    -21.102  0.1201E-01  0.6098E-01
    -20.996  0.2183E+00  0.8408E-01
    -20.890  0.7272E+00  0.1610E+00
    -20.784  0.1917E+00  0.1813E+00
    -20.678  0.3855E-03  0.1814E+00
    -20.572  0.4103E-09  0.1814E+00
    -20.467  0.0000E+00  0.1814E+00
    -20.361  0.0000E+00  0.1814E+00
    -20.255  0.0000E+00  0.1814E+00
    -20.149  0.0000E+00  0.1814E+00
    -20.043  0.0000E+00  0.1814E+00
    -19.938  0.0000E+00  0.1814E+00
    -19.832  0.0000E+00  0.1814E+00
    -19.726  0.0000E+00  0.1814E+00
    -19.620  0.0000E+00  0.1814E+00
    -19.514  0.0000E+00  0.1814E+00
    -19.408  0.0000E+00  0.1814E+00
    -19.303  0.0000E+00  0.1814E+00
    -19.197  0.0000E+00  0.1814E+00
    -19.091  0.0000E+00  0.1814E+00
    -18.985  0.0000E+00  0.1814E+00
    -18.879  0.0000E+00  0.1814E+00
    -18.774  0.0000E+00  0.1814E+00
    -18.668  0.0000E+00  0.1814E+00
    -18.562  0.0000E+00  0.1814E+00
    -18.456  0.0000E+00  0.1814E+00
    -18.350  0.0000E+00  0.1814E+00
    -18.244  0.0000E+00  0.1814E+00
    -18.139  0.0000E+00  0.1814E+00
    -18.033  0.0000E+00  0.1814E+00
    -17.927  0.0000E+00  0.1814E+00
    -17.821  0.0000E+00  0.1814E+00
    -17.715  0.0000E+00  0.1814E+00
    -17.610  0.0000E+00  0.1814E+00
    -17.504  0.0000E+00  0.1814E+00
    -17.398  0.0000E+00  0.1814E+00
    -17.292  0.0000E+00  0.1814E+00
    -17.186  0.0000E+00  0.1814E+00
    -17.080  0.0000E+00  0.1814E+00
    -16.975  0.0000E+00  0.1814E+00
    -16.869  0.0000E+00  0.1814E+00
    -16.763  0.0000E+00  0.1814E+00
    -16.657  0.0000E+00  0.1814E+00
    -16.551  0.0000E+00  0.1814E+00
    -16.446  0.0000E+00  0.1814E+00
    -16.340  0.0000E+00  0.1814E+00
    -16.234  0.0000E+00  0.1814E+00
    -16.128  0.0000E+00  0.1814E+00
    -16.022  0.0000E+00  0.1814E+00
    -15.916  0.0000E+00  0.1814E+00
    -15.811  0.0000E+00  0.1814E+00
    -15.705  0.0000E+00  0.1814E+00
    -15.599  0.0000E+00  0.1814E+00
    -15.493  0.0000E+00  0.1814E+00
    -15.387  0.0000E+00  0.1814E+00
    -15.282  0.0000E+00  0.1814E+00
    -15.176  0.0000E+00  0.1814E+00
    -15.070  0.0000E+00  0.1814E+00
    -14.964  0.0000E+00  0.1814E+00
    -14.858  0.0000E+00  0.1814E+00
    -14.753  0.0000E+00  0.1814E+00
    -14.647  0.0000E+00  0.1814E+00
    -14.541  0.0000E+00  0.1814E+00
    -14.435  0.0000E+00  0.1814E+00
    -14.329  0.0000E+00  0.1814E+00
    -14.223  0.0000E+00  0.1814E+00
    -14.118  0.0000E+00  0.1814E+00
    -14.012  0.0000E+00  0.1814E+00
    -13.906  0.0000E+00  0.1814E+00
    -13.800  0.0000E+00  0.1814E+00
    -13.694  0.0000E+00  0.1814E+00
    -13.589  0.0000E+00  0.1814E+00
    -13.483  0.0000E+00  0.1814E+00
    -13.377  0.0000E+00  0.1814E+00
    -13.271  0.0000E+00  0.1814E+00
    -13.165  0.0000E+00  0.1814E+00
    -13.059  0.0000E+00  0.1814E+00
    -12.954  0.0000E+00  0.1814E+00
    -12.848  0.0000E+00  0.1814E+00
    -12.742  0.0000E+00  0.1814E+00
    -12.636  0.0000E+00  0.1814E+00
    -12.530  0.0000E+00  0.1814E+00
    -12.425  0.0000E+00  0.1814E+00
    -12.319  0.0000E+00  0.1814E+00
    -12.213  0.0000E+00  0.1814E+00
    -12.107  0.0000E+00  0.1814E+00
    -12.001  0.0000E+00  0.1814E+00
    -11.895  0.1639E-14  0.1814E+00
    -11.790  0.7063E-07  0.1814E+00
    -11.684  0.8441E-03  0.1814E+00
    -11.578  0.4528E-01  0.1862E+00
    -11.472  0.4873E-01  0.1914E+00
    -11.366  0.3702E-03  0.1914E+00
    -11.261  0.1535E-08  0.1914E+00
    -11.155  0.2228E-11  0.1914E+00
    -11.049  0.4522E-05  0.1914E+00
    -10.943  0.4203E-02  0.1919E+00
    -10.837  0.5264E-01  0.1975E+00
    -10.731  0.3768E-01  0.2014E+00
    -10.626  0.6865E-03  0.2015E+00
    -10.520  0.2185E-07  0.2015E+00
    -10.414  0.1856E-15  0.2015E+00
    -10.308  0.2245E-12  0.2015E+00
    -10.202  0.2013E-05  0.2015E+00
    -10.097  0.5690E-02  0.2021E+00
     -9.991  0.6926E-01  0.2094E+00
     -9.885  0.2023E-01  0.2116E+00
     -9.779  0.6250E-03  0.2116E+00
     -9.673  0.6740E-01  0.2188E+00
     -9.567  0.2113E+00  0.2411E+00
     -9.462  0.9998E-01  0.2517E+00
     -9.356  0.1557E-02  0.2519E+00
     -9.250  0.2630E-07  0.2519E+00
     -9.144  0.1028E-15  0.2519E+00
     -9.038  0.0000E+00  0.2519E+00
     -8.933  0.0000E+00  0.2519E+00
     -8.827  0.0000E+00  0.2519E+00
     -8.721  0.0000E+00  0.2519E+00
     -8.615  0.0000E+00  0.2519E+00
     -8.509  0.0000E+00  0.2519E+00
     -8.403  0.0000E+00  0.2519E+00
     -8.298  0.0000E+00  0.2519E+00
     -8.192  0.0000E+00  0.2519E+00
     -8.086  0.0000E+00  0.2519E+00
     -7.980  0.0000E+00  0.2519E+00
     -7.874  0.0000E+00  0.2519E+00
     -7.769  0.0000E+00  0.2519E+00
     -7.663  0.0000E+00  0.2519E+00
     -7.557  0.0000E+00  0.2519E+00
     -7.451  0.0000E+00  0.2519E+00
     -7.345  0.0000E+00  0.2519E+00
     -7.239  0.0000E+00  0.2519E+00
     -7.134  0.0000E+00  0.2519E+00
     -7.028  0.0000E+00  0.2519E+00
     -6.922  0.0000E+00  0.2519E+00
     -6.816  0.0000E+00  0.2519E+00
     -6.710  0.0000E+00  0.2519E+00
     -6.605  0.0000E+00  0.2519E+00
     -6.499  0.0000E+00  0.2519E+00
     -6.393  0.0000E+00  0.2519E+00
     -6.287  0.0000E+00  0.2519E+00
     -6.181  0.0000E+00  0.2519E+00
     -6.075  0.0000E+00  0.2519E+00
     -5.970  0.0000E+00  0.2519E+00
     -5.864  0.0000E+00  0.2519E+00
     -5.758  0.0000E+00  0.2519E+00
     -5.652  0.0000E+00  0.2519E+00
     -5.546  0.0000E+00  0.2519E+00
     -5.441  0.0000E+00  0.2519E+00
     -5.335  0.5579E-17  0.2519E+00
     -5.229  0.2188E-08  0.2519E+00
     -5.123  0.2326E-03  0.2519E+00
     -5.017  0.3274E-01  0.2554E+00
     -4.912  0.5471E-01  0.2612E+00
     -4.806  0.7524E-02  0.2620E+00
     -4.700  0.1482E-04  0.2620E+00
     -4.594  0.1716E-10  0.2620E+00
     -4.488  0.2991E-10  0.2620E+00
     -4.382  0.1743E-04  0.2620E+00
     -4.277  0.3203E-02  0.2623E+00
     -4.171  0.3179E-02  0.2626E+00
     -4.065  0.1995E-01  0.2648E+00
     -3.959  0.4053E-01  0.2690E+00
     -3.853  0.2636E-01  0.2718E+00
     -3.748  0.1977E-02  0.2720E+00
     -3.642  0.4390E-06  0.2720E+00
     -3.536  0.2241E-13  0.2720E+00
     -3.430  0.0000E+00  0.2720E+00
     -3.324  0.0000E+00  0.2720E+00
     -3.218  0.0000E+00  0.2720E+00
     -3.113  0.0000E+00  0.2720E+00
     -3.007  0.0000E+00  0.2720E+00
     -2.901  0.0000E+00  0.2720E+00
     -2.795  0.0000E+00  0.2720E+00
     -2.689  0.1045E-09  0.2720E+00
     -2.584  0.7858E-04  0.2720E+00
     -2.478  0.2277E-01  0.2745E+00
     -2.372  0.5561E-01  0.2803E+00
     -2.266  0.1120E-01  0.2815E+00
     -2.160  0.6258E-02  0.2822E+00
     -2.054  0.2788E-01  0.2851E+00
     -1.949  0.7080E-01  0.2926E+00
     -1.843  0.4853E-01  0.2978E+00
     -1.737  0.4130E-01  0.3021E+00
     -1.631  0.3511E-01  0.3059E+00
     -1.525  0.3553E-01  0.3096E+00
     -1.420  0.4379E-01  0.3142E+00
     -1.314  0.5169E-01  0.3197E+00
     -1.208  0.1757E-01  0.3216E+00
     -1.102  0.4055E-01  0.3259E+00
     -0.996  0.4711E-01  0.3309E+00
     -0.890  0.1546E-01  0.3325E+00
     -0.785  0.3525E-04  0.3325E+00
     -0.679  0.2365E-02  0.3327E+00
     -0.573  0.2196E-01  0.3351E+00
     -0.467  0.4508E-01  0.3398E+00
     -0.361  0.2470E-01  0.3425E+00
     -0.256  0.6007E-01  0.3488E+00
     -0.150  0.6019E-01  0.3552E+00
     -0.044  0.6282E-01  0.3618E+00
      0.062  0.5787E-01  0.3679E+00
      0.168  0.4190E-01  0.3724E+00
      0.274  0.7688E-01  0.3805E+00
      0.379  0.5617E-01  0.3865E+00
      0.485  0.5954E-01  0.3928E+00
      0.591  0.5265E-01  0.3983E+00
      0.697  0.7919E-01  0.4067E+00
      0.803  0.9312E-01  0.4166E+00
      0.908  0.8511E-01  0.4256E+00
      1.014  0.9029E-01  0.4351E+00
      1.120  0.7701E-01  0.4433E+00
      1.226  0.8397E-01  0.4522E+00
      1.332  0.8373E-01  0.4610E+00
      1.438  0.2247E-01  0.4634E+00
      1.543  0.7197E-03  0.4635E+00
      1.649  0.3684E-07  0.4635E+00
      1.755  0.3712E-15  0.4635E+00
      1.861  0.0000E+00  0.4635E+00
      1.967  0.0000E+00  0.4635E+00
      2.072  0.0000E+00  0.4635E+00
      2.178  0.0000E+00  0.4635E+00
      2.284  0.0000E+00  0.4635E+00
      2.390  0.0000E+00  0.4635E+00
      2.496  0.0000E+00  0.4635E+00
      2.602  0.0000E+00  0.4635E+00
      2.707  0.0000E+00  0.4635E+00
      2.813  0.0000E+00  0.4635E+00
      2.919  0.0000E+00  0.4635E+00
      3.025  0.0000E+00  0.4635E+00
      3.131  0.0000E+00  0.4635E+00
      3.236  0.0000E+00  0.4635E+00
      3.342  0.0000E+00  0.4635E+00
      3.448  0.0000E+00  0.4635E+00
      3.554  0.0000E+00  0.4635E+00
      3.660  0.0000E+00  0.4635E+00
      3.765  0.0000E+00  0.4635E+00
      3.871  0.0000E+00  0.4635E+00
      3.977  0.0000E+00  0.4635E+00
      4.083  0.0000E+00  0.4635E+00
      4.189  0.5377E-15  0.4635E+00
      4.295  0.3541E-07  0.4635E+00
      4.400  0.4591E-03  0.4635E+00
      4.506  0.4559E-02  0.4640E+00
      4.612  0.2714E-03  0.4640E+00
      4.718  0.9898E-08  0.4640E+00
      4.824  0.2756E-05  0.4640E+00
      4.929  0.3357E-02  0.4644E+00
      5.035  0.1500E-01  0.4660E+00
      5.141  0.2439E-01  0.4686E+00
      5.247  0.5348E-01  0.4742E+00
      5.353  0.3351E-01  0.4778E+00
      5.459  0.1866E-01  0.4797E+00
      5.564  0.2458E-01  0.4823E+00
      5.670  0.3190E-01  0.4857E+00
      5.776  0.4046E-01  0.4900E+00
      5.882  0.4553E-01  0.4948E+00
      5.988  0.3705E-01  0.4987E+00
      6.093  0.2424E-01  0.5013E+00
      6.199  0.6342E-01  0.5080E+00
      6.305  0.5152E-01  0.5135E+00
      6.411  0.3076E-01  0.5167E+00
      6.517  0.5196E-01  0.5222E+00
      6.623  0.4797E-01  0.5273E+00
      6.728  0.3779E-01  0.5313E+00
      6.834  0.6109E-01  0.5378E+00
      6.940  0.2802E-01  0.5407E+00
      7.046  0.4118E-01  0.5451E+00
      7.152  0.6764E-01  0.5522E+00
      7.257  0.3914E-01  0.5564E+00
      7.363  0.3277E-01  0.5598E+00
      7.469  0.3303E-01  0.5633E+00
      7.575  0.8279E-02  0.5642E+00
      7.681  0.1527E-03  0.5642E+00
      7.787  0.2567E-08  0.5642E+00
      7.892  0.8222E-17  0.5642E+00
      7.998  0.0000E+00  0.5642E+00
      8.104  0.0000E+00  0.5642E+00
      8.210  0.0000E+00  0.5642E+00
      8.316  0.0000E+00  0.5642E+00
      8.421  0.0000E+00  0.5642E+00
      8.527  0.0000E+00  0.5642E+00
      8.633  0.0000E+00  0.5642E+00
      8.739  0.0000E+00  0.5642E+00
      8.845  0.0000E+00  0.5642E+00
      8.951  0.0000E+00  0.5642E+00
