  79  79   0   0
  0.2352942E+02  0.1210264E-08  0.7093817E-09  0.2165102E-08  0.0000000E+00
   1.0000000000000000E-004
  CAR 
 NEB_refined                             
      8.96725841    -23.89933751  301      0.87437592      1.00000000
    -23.899  0.0000E+00  0.0000E+00
    -23.790  0.0000E+00  0.0000E+00
    -23.680  0.0000E+00  0.0000E+00
    -23.571 -0.9953E-31 -0.1090E-31
    -23.461 -0.6978E-27 -0.7646E-28
    -23.352 -0.2613E-23 -0.2864E-24
    -23.242 -0.5370E-20 -0.5886E-21
    -23.132 -0.6051E-17 -0.6635E-18
    -23.023 -0.3625E-14 -0.3978E-15
    -22.913 -0.1218E-11 -0.1339E-12
    -22.804 -0.2236E-09 -0.2463E-10
    -22.694 -0.2231E-07 -0.2469E-08
    -22.585 -0.1205E-05 -0.1345E-06
    -22.475 -0.3486E-04 -0.3954E-05
    -22.366 -0.5305E-03 -0.6207E-04
    -22.256 -0.4089E-02 -0.5100E-03
    -22.146 -0.1442E-01 -0.2089E-02
    -22.037 -0.1232E-01 -0.3439E-02
    -21.927  0.6761E-01  0.3968E-02
    -21.818  0.3180E+00  0.3881E-01
    -21.708  0.8048E+00  0.1270E+00
    -21.599  0.1235E+01  0.2623E+00
    -21.489  0.1121E+01  0.3851E+00
    -21.380  0.6142E+00  0.4524E+00
    -21.270  0.1808E+00  0.4722E+00
    -21.160 -0.4641E-02  0.4717E+00
    -21.051 -0.2432E-01  0.4690E+00
    -20.941 -0.8077E-02  0.4681E+00
    -20.832 -0.1206E-02  0.4680E+00
    -20.722 -0.9285E-04  0.4680E+00
    -20.613 -0.3829E-05  0.4680E+00
    -20.503 -0.8575E-07  0.4680E+00
    -20.394 -0.1049E-08  0.4680E+00
    -20.284 -0.7017E-11  0.4680E+00
    -20.174 -0.2572E-13  0.4680E+00
    -20.065 -0.4864E-16  0.4680E+00
    -19.955  0.0000E+00  0.4680E+00
    -19.846  0.0000E+00  0.4680E+00
    -19.736  0.0000E+00  0.4680E+00
    -19.627  0.0000E+00  0.4680E+00
    -19.517  0.0000E+00  0.4680E+00
    -19.408  0.0000E+00  0.4680E+00
    -19.298  0.0000E+00  0.4680E+00
    -19.188  0.0000E+00  0.4680E+00
    -19.079  0.0000E+00  0.4680E+00
    -18.969  0.0000E+00  0.4680E+00
    -18.860  0.0000E+00  0.4680E+00
    -18.750  0.0000E+00  0.4680E+00
    -18.641  0.0000E+00  0.4680E+00
    -18.531  0.0000E+00  0.4680E+00
    -18.422  0.0000E+00  0.4680E+00
    -18.312  0.0000E+00  0.4680E+00
    -18.202  0.0000E+00  0.4680E+00
    -18.093  0.0000E+00  0.4680E+00
    -17.983  0.0000E+00  0.4680E+00
    -17.874  0.0000E+00  0.4680E+00
    -17.764  0.0000E+00  0.4680E+00
    -17.655  0.0000E+00  0.4680E+00
    -17.545  0.0000E+00  0.4680E+00
    -17.436  0.0000E+00  0.4680E+00
    -17.326  0.0000E+00  0.4680E+00
    -17.216  0.0000E+00  0.4680E+00
    -17.107  0.0000E+00  0.4680E+00
    -16.997  0.0000E+00  0.4680E+00
    -16.888  0.0000E+00  0.4680E+00
    -16.778  0.0000E+00  0.4680E+00
    -16.669  0.0000E+00  0.4680E+00
    -16.559  0.0000E+00  0.4680E+00
    -16.450  0.0000E+00  0.4680E+00
    -16.340  0.0000E+00  0.4680E+00
    -16.230  0.0000E+00  0.4680E+00
    -16.121  0.0000E+00  0.4680E+00
    -16.011  0.0000E+00  0.4680E+00
    -15.902  0.0000E+00  0.4680E+00
    -15.792  0.0000E+00  0.4680E+00
    -15.683  0.0000E+00  0.4680E+00
    -15.573  0.0000E+00  0.4680E+00
    -15.464  0.0000E+00  0.4680E+00
    -15.354  0.0000E+00  0.4680E+00
    -15.244  0.0000E+00  0.4680E+00
    -15.135  0.0000E+00  0.4680E+00
    -15.025  0.0000E+00  0.4680E+00
    -14.916  0.0000E+00  0.4680E+00
    -14.806  0.0000E+00  0.4680E+00
    -14.697  0.0000E+00  0.4680E+00
    -14.587  0.0000E+00  0.4680E+00
    -14.478  0.0000E+00  0.4680E+00
    -14.368  0.0000E+00  0.4680E+00
    -14.258  0.0000E+00  0.4680E+00
    -14.149  0.0000E+00  0.4680E+00
    -14.039  0.0000E+00  0.4680E+00
    -13.930  0.0000E+00  0.4680E+00
    -13.820  0.0000E+00  0.4680E+00
    -13.711  0.0000E+00  0.4680E+00
    -13.601  0.0000E+00  0.4680E+00
    -13.492  0.0000E+00  0.4680E+00
    -13.382  0.0000E+00  0.4680E+00
    -13.272  0.0000E+00  0.4680E+00
    -13.163  0.0000E+00  0.4680E+00
    -13.053  0.0000E+00  0.4680E+00
    -12.944  0.0000E+00  0.4680E+00
    -12.834  0.0000E+00  0.4680E+00
    -12.725  0.0000E+00  0.4680E+00
    -12.615  0.0000E+00  0.4680E+00
    -12.506  0.0000E+00  0.4680E+00
    -12.396  0.0000E+00  0.4680E+00
    -12.286  0.0000E+00  0.4680E+00
    -12.177 -0.4853E-29  0.4680E+00
    -12.067 -0.2319E-25  0.4680E+00
    -11.958 -0.6064E-22  0.4680E+00
    -11.848 -0.8677E-19  0.4680E+00
    -11.739 -0.6593E-16  0.4680E+00
    -11.629 -0.2813E-13  0.4680E+00
    -11.520 -0.6544E-11  0.4680E+00
    -11.410 -0.8303E-09  0.4680E+00
    -11.300 -0.5730E-07  0.4680E+00
    -11.191 -0.2138E-05  0.4680E+00
    -11.081 -0.4259E-04  0.4680E+00
    -10.972 -0.4399E-03  0.4679E+00
    -10.862 -0.2159E-02  0.4677E+00
    -10.753 -0.3171E-02  0.4674E+00
    -10.643  0.1148E-01  0.4686E+00
    -10.534  0.5486E-01  0.4746E+00
    -10.424  0.9640E-01  0.4852E+00
    -10.314  0.8956E-01  0.4950E+00
    -10.205  0.4173E-01  0.4996E+00
    -10.095 -0.5133E-03  0.4995E+00
     -9.986 -0.5305E-02  0.4989E+00
     -9.876  0.5335E-01  0.5048E+00
     -9.767  0.1815E+00  0.5247E+00
     -9.657  0.2910E+00  0.5565E+00
     -9.548  0.2566E+00  0.5846E+00
     -9.438  0.1105E+00  0.5968E+00
     -9.328  0.8258E-02  0.5977E+00
     -9.219 -0.1058E-01  0.5965E+00
     -9.109 -0.3963E-02  0.5961E+00
     -9.000 -0.6004E-03  0.5960E+00
     -8.890 -0.4571E-04  0.5960E+00
     -8.781 -0.1849E-05  0.5960E+00
     -8.671 -0.4058E-07  0.5960E+00
     -8.562 -0.4867E-09  0.5960E+00
     -8.452 -0.3201E-11  0.5960E+00
     -8.342 -0.1155E-13  0.5960E+00
     -8.233 -0.2432E-16  0.5960E+00
     -8.123  0.0000E+00  0.5960E+00
     -8.014  0.0000E+00  0.5960E+00
     -7.904  0.0000E+00  0.5960E+00
     -7.795  0.0000E+00  0.5960E+00
     -7.685  0.0000E+00  0.5960E+00
     -7.576  0.0000E+00  0.5960E+00
     -7.466  0.0000E+00  0.5960E+00
     -7.356  0.0000E+00  0.5960E+00
     -7.247  0.0000E+00  0.5960E+00
     -7.137  0.0000E+00  0.5960E+00
     -7.028  0.0000E+00  0.5960E+00
     -6.918  0.0000E+00  0.5960E+00
     -6.809  0.0000E+00  0.5960E+00
     -6.699  0.0000E+00  0.5960E+00
     -6.590  0.0000E+00  0.5960E+00
     -6.480  0.0000E+00  0.5960E+00
     -6.370  0.0000E+00  0.5960E+00
     -6.261  0.0000E+00  0.5960E+00
     -6.151  0.0000E+00  0.5960E+00
     -6.042  0.0000E+00  0.5960E+00
     -5.932  0.0000E+00  0.5960E+00
     -5.823  0.0000E+00  0.5960E+00
     -5.713  0.0000E+00  0.5960E+00
     -5.604  0.0000E+00  0.5960E+00
     -5.494  0.0000E+00  0.5960E+00
     -5.384  0.0000E+00  0.5960E+00
     -5.275  0.0000E+00  0.5960E+00
     -5.165  0.0000E+00  0.5960E+00
     -5.056  0.0000E+00  0.5960E+00
     -4.946 -0.4128E-31  0.5960E+00
     -4.837 -0.2709E-27  0.5960E+00
     -4.727 -0.9690E-24  0.5960E+00
     -4.618 -0.1893E-20  0.5960E+00
     -4.508 -0.2019E-17  0.5960E+00
     -4.398 -0.1138E-14  0.5960E+00
     -4.289 -0.3584E-12  0.5960E+00
     -4.179 -0.6136E-10  0.5960E+00
     -4.070 -0.5699E-08  0.5960E+00
     -3.960 -0.2863E-06  0.5960E+00
     -3.851 -0.7738E-05  0.5960E+00
     -3.741 -0.1110E-03  0.5960E+00
     -3.632 -0.8148E-03  0.5959E+00
     -3.522 -0.2660E-02  0.5956E+00
     -3.412 -0.4238E-03  0.5956E+00
     -3.303  0.2193E-01  0.5980E+00
     -3.193  0.6598E-01  0.6052E+00
     -3.084  0.9382E-01  0.6155E+00
     -2.974  0.7674E-01  0.6239E+00
     -2.865  0.3598E-01  0.6278E+00
     -2.755  0.6022E-02  0.6285E+00
     -2.646 -0.2567E-02  0.6282E+00
     -2.536 -0.1482E-02  0.6280E+00
     -2.426 -0.2871E-03  0.6280E+00
     -2.317 -0.3195E-04  0.6280E+00
     -2.207 -0.9842E-04  0.6280E+00
     -2.098 -0.8962E-03  0.6279E+00
     -1.988 -0.3935E-02  0.6275E+00
     -1.879 -0.4611E-02  0.6270E+00
     -1.769  0.2267E-01  0.6294E+00
     -1.660  0.9494E-01  0.6398E+00
     -1.550  0.1630E+00  0.6577E+00
     -1.440  0.1789E+00  0.6773E+00
     -1.331  0.1693E+00  0.6958E+00
     -1.221  0.1469E+00  0.7119E+00
     -1.112  0.8987E-01  0.7218E+00
     -1.002  0.2394E-01  0.7244E+00
     -0.893 -0.8098E-02  0.7235E+00
     -0.783  0.7850E-02  0.7244E+00
     -0.674  0.7461E-01  0.7326E+00
     -0.564  0.1413E+00  0.7480E+00
     -0.454  0.1496E+00  0.7644E+00
     -0.345  0.1322E+00  0.7789E+00
     -0.235  0.1306E+00  0.7932E+00
     -0.126  0.1457E+00  0.8092E+00
     -0.016  0.1540E+00  0.8260E+00
      0.093  0.1469E+00  0.8421E+00
      0.203  0.1532E+00  0.8589E+00
      0.312  0.1754E+00  0.8781E+00
      0.422  0.2038E+00  0.9005E+00
      0.531  0.2304E+00  0.9257E+00
      0.641  0.2178E+00  0.9496E+00
      0.751  0.1618E+00  0.9673E+00
      0.860  0.9095E-01  0.9773E+00
      0.970  0.3019E-01  0.9806E+00
      1.079  0.2924E-03  0.9806E+00
      1.189 -0.3811E-02  0.9802E+00
      1.298 -0.1356E-02  0.9800E+00
      1.408 -0.2110E-03  0.9800E+00
      1.517 -0.1673E-04  0.9800E+00
      1.627 -0.7035E-06  0.9800E+00
      1.737 -0.1590E-07  0.9800E+00
      1.846 -0.1946E-09  0.9800E+00
      1.956 -0.1293E-11  0.9800E+00
      2.065 -0.4686E-14  0.9800E+00
      2.175 -0.8107E-17  0.9800E+00
      2.284 -0.2364E-18  0.9800E+00
      2.394 -0.1615E-15  0.9800E+00
      2.503 -0.6076E-13  0.9800E+00
      2.613 -0.1243E-10  0.9800E+00
      2.723 -0.1368E-08  0.9800E+00
      2.832 -0.8036E-07  0.9800E+00
      2.942 -0.2483E-05  0.9800E+00
      3.051 -0.3922E-04  0.9800E+00
      3.161 -0.2950E-03  0.9800E+00
      3.270 -0.8137E-03  0.9799E+00
      3.380  0.1015E-02  0.9800E+00
      3.489  0.9263E-02  0.9810E+00
      3.599  0.1621E-01  0.9828E+00
      3.709  0.1066E-01  0.9839E+00
      3.818  0.1735E-02  0.9841E+00
      3.928 -0.1050E-02  0.9840E+00
      4.037 -0.1504E-02  0.9839E+00
      4.147 -0.1148E-02  0.9837E+00
      4.256  0.8611E-02  0.9847E+00
      4.366  0.2765E-01  0.9877E+00
      4.475  0.2986E-01  0.9910E+00
      4.585  0.1134E-01  0.9922E+00
      4.695 -0.1535E-02  0.9920E+00
      4.804 -0.3247E-02  0.9917E+00
      4.914  0.5008E-02  0.9922E+00
      5.023  0.2627E-01  0.9951E+00
      5.133  0.4160E-01  0.9997E+00
      5.242  0.4345E-01  0.1004E+01
      5.352  0.5579E-01  0.1011E+01
      5.461  0.7764E-01  0.1019E+01
      5.571  0.9854E-01  0.1030E+01
      5.681  0.1189E+00  0.1043E+01
      5.790  0.1277E+00  0.1057E+01
      5.900  0.1094E+00  0.1069E+01
      6.009  0.7744E-01  0.1077E+01
      6.119  0.7163E-01  0.1085E+01
      6.228  0.8782E-01  0.1095E+01
      6.338  0.9094E-01  0.1105E+01
      6.447  0.8653E-01  0.1114E+01
      6.557  0.1000E+00  0.1125E+01
      6.667  0.1168E+00  0.1138E+01
      6.776  0.1145E+00  0.1151E+01
      6.886  0.1085E+00  0.1162E+01
      6.995  0.8840E-01  0.1172E+01
      7.105  0.3912E-01  0.1176E+01
      7.214  0.2255E-02  0.1177E+01
      7.324 -0.4155E-02  0.1176E+01
      7.433 -0.1414E-02  0.1176E+01
      7.543 -0.1930E-03  0.1176E+01
      7.653 -0.1300E-04  0.1176E+01
      7.762 -0.4578E-06  0.1176E+01
      7.872 -0.8630E-08  0.1176E+01
      7.981 -0.8806E-10  0.1176E+01
      8.091 -0.4892E-12  0.1176E+01
      8.200 -0.1484E-14  0.1176E+01
      8.310  0.0000E+00  0.1176E+01
      8.419  0.0000E+00  0.1176E+01
      8.529  0.0000E+00  0.1176E+01
      8.639  0.0000E+00  0.1176E+01
      8.748  0.0000E+00  0.1176E+01
      8.858  0.0000E+00  0.1176E+01
      8.967  0.0000E+00  0.1176E+01
