       N       E                     dE             d eps       ncg     rms          rms(c)
DAV:   1     0.465894334546E+04    0.46589E+04   -0.20000E+05   633   0.140E+03
DAV:   2     0.334972718386E+03   -0.43240E+04   -0.41593E+04   651   0.401E+02
DAV:   3    -0.284184971422E+03   -0.61916E+03   -0.61222E+03   693   0.166E+02
DAV:   4    -0.321453871748E+03   -0.37269E+02   -0.36831E+02   672   0.378E+01
DAV:   5    -0.323160971402E+03   -0.17071E+01   -0.17045E+01   843   0.826E+00    0.268E+01
RMM:   6    -0.305328907806E+03    0.17832E+02   -0.30603E+01   635   0.586E+00    0.178E+01
RMM:   7    -0.304586497763E+03    0.74241E+00   -0.39247E+01   632   0.554E+00    0.108E+01
RMM:   8    -0.304155698017E+03    0.43080E+00   -0.24694E+00   694   0.282E+00    0.593E+00
RMM:   9    -0.304166783517E+03   -0.11085E-01   -0.22301E+00   663   0.191E+00    0.245E+00
RMM:  10    -0.303969183175E+03    0.19760E+00   -0.24963E-01   690   0.109E+00    0.178E+00
RMM:  11    -0.303937542574E+03    0.31641E-01   -0.13089E-01   775   0.480E-01    0.105E+00
RMM:  12    -0.303938333727E+03   -0.79115E-03   -0.65676E-02   681   0.294E-01    0.654E-01
RMM:  13    -0.303942184312E+03   -0.38506E-02   -0.14488E-02   723   0.183E-01    0.525E-01
RMM:  14    -0.303947403464E+03   -0.52192E-02   -0.10165E-02   627   0.143E-01    0.425E-01
RMM:  15    -0.303942325218E+03    0.50782E-02   -0.30621E-03   759   0.860E-02    0.263E-01
RMM:  16    -0.303941811878E+03    0.51334E-03   -0.12204E-03   622   0.506E-02    0.110E-01
RMM:  17    -0.303942409019E+03   -0.59714E-03   -0.10996E-03   594   0.433E-02    0.127E-01
RMM:  18    -0.303942262959E+03    0.14606E-03   -0.15709E-04   561   0.224E-02    0.447E-02
RMM:  19    -0.303942206978E+03    0.55980E-04   -0.67738E-05   542   0.141E-02    0.138E-02
RMM:  20    -0.303942210165E+03   -0.31862E-05   -0.16633E-05   373   0.832E-03
   1 F= -.30394221E+03 E0= -.30398856E+03  d E =-.303942E+03
       N       E                     dE             d eps       ncg     rms          rms(c)
DAV:   1    -0.303942206798E+03    0.18047E-06   -0.10668E-05   357   0.115E-02    0.775E-03
RMM:   2    -0.303942208248E+03   -0.14496E-05   -0.62986E-06   343   0.452E-03
   2 F= -.30394221E+03 E0= -.30398853E+03  d E =0.191703E-05
       N       E                     dE             d eps       ncg     rms          rms(c)
DAV:   1    -0.303942205741E+03    0.10571E-05   -0.42656E-06   393   0.780E-03    0.373E-03
RMM:   2    -0.303942206551E+03   -0.80976E-06   -0.13310E-06   321   0.254E-03
   3 F= -.30394221E+03 E0= -.30398851E+03  d E =0.169689E-05
       N       E                     dE             d eps       ncg     rms          rms(c)
DAV:   1    -0.303942205433E+03    0.30843E-06   -0.15925E-06   438   0.503E-03    0.210E-03
RMM:   2    -0.303942205465E+03   -0.32560E-07   -0.37407E-07   202   0.155E-03
   4 F= -.30394221E+03 E0= -.30398852E+03  d E =0.108563E-05
       N       E                     dE             d eps       ncg     rms          rms(c)
DAV:   1    -0.303942205428E+03    0.49404E-08   -0.40023E-07   384   0.202E-03    0.148E-03
RMM:   2    -0.303942205498E+03   -0.70548E-07   -0.72900E-08   100   0.982E-04
   5 F= -.30394221E+03 E0= -.30398852E+03  d E =-.330474E-07
       N       E                     dE             d eps       ncg     rms          rms(c)
DAV:   1    -0.303942205400E+03    0.27459E-07   -0.18890E-07   366   0.164E-03    0.784E-04
RMM:   2    -0.303942205403E+03   -0.24957E-08    0.43149-222    50   0.727E-04
   6 F= -.30394221E+03 E0= -.30398852E+03  d E =0.955115E-07
       N       E                     dE             d eps       ncg     rms          rms(c)
DAV:   1    -0.303942205394E+03    0.61918E-08   -0.10764E-07   366   0.858E-04    0.692E-04
RMM:   2    -0.303942205383E+03    0.10587E-07    0.35617-222    48   0.554E-04
   7 F= -.30394221E+03 E0= -.30398852E+03  d E =0.192740E-07
       N       E                     dE             d eps       ncg     rms          rms(c)
DAV:   1    -0.303942205369E+03    0.24629E-07   -0.38790E-08   339   0.716E-04    0.458E-04
RMM:   2    -0.303942205368E+03    0.13679E-08    0.10438-270    39   0.400E-04
   8 F= -.30394221E+03 E0= -.30398852E+03  d E =0.154105E-07
       N       E                     dE             d eps       ncg     rms          rms(c)
DAV:   1    -0.303942205361E+03    0.78508E-08   -0.27488E-08   339   0.459E-04    0.380E-04
RMM:   2    -0.303942205359E+03    0.21246E-08    0.16835-256    36   0.329E-04
   9 F= -.30394221E+03 E0= -.30398852E+03  d E =0.860746E-08
       N       E                     dE             d eps       ncg     rms          rms(c)
DAV:   1    -0.303942205357E+03    0.40745E-08   -0.13763E-08   339   0.384E-04    0.286E-04
RMM:   2    -0.303942205357E+03   -0.72760E-10    0.54481-275    32   0.211E-04
  10 F= -.30394221E+03 E0= -.30398852E+03  d E =0.187720E-08
       N       E                     dE             d eps       ncg     rms          rms(c)
DAV:   1    -0.303942205353E+03    0.40745E-08   -0.64770E-09   339   0.288E-04    0.166E-04
RMM:   2    -0.303942205353E+03    0.10186E-09    0.14955-289    29   0.181E-04
  11 F= -.30394221E+03 E0= -.30398852E+03  d E =0.424916E-08
       N       E                     dE             d eps       ncg     rms          rms(c)
DAV:   1    -0.303942205352E+03    0.94587E-09   -0.65503E-09   339   0.181E-04    0.277E-04
RMM:   2    -0.303942205352E+03    0.48749E-09    0.91613-290    24   0.128E-04
  12 F= -.30394221E+03 E0= -.30398852E+03  d E =0.133150E-08
       N       E                     dE             d eps       ncg     rms          rms(c)
DAV:   1    -0.303942205351E+03    0.11205E-08   -0.28134E-09   339   0.220E-04    0.159E-04
RMM:   2    -0.303942205353E+03   -0.22192E-08    0.00000E+00    20   0.923E-05
  13 F= -.30394221E+03 E0= -.30398852E+03  d E =-.158616E-08
       N       E                     dE             d eps       ncg     rms          rms(c)
DAV:   1    -0.303942205351E+03    0.36380E-09   -0.38501E-09   339   0.216E-04    0.664E-05
RMM:   2    -0.303942205350E+03    0.80036E-09    0.00000E+00    19   0.868E-05
  14 F= -.30394221E+03 E0= -.30398852E+03  d E =0.338332E-08
       N       E                     dE             d eps       ncg     rms          rms(c)
DAV:   1    -0.303942205350E+03    0.73487E-09   -0.80608E-10   339   0.897E-05    0.597E-05
RMM:   2    -0.303942205350E+03   -0.58208E-10    0.00000E+00    18   0.514E-05
  15 F= -.30394221E+03 E0= -.30398852E+03  d E =-.123691E-09
       N       E                     dE             d eps       ncg     rms          rms(c)
DAV:   1    -0.303942205349E+03    0.71304E-09   -0.67599E-10   321   0.798E-05    0.276E-05
RMM:   2    -0.303942205350E+03   -0.58208E-09    0.00000E+00    15   0.458E-05
  16 F= -.30394221E+03 E0= -.30398852E+03  d E =0.189175E-09
       N       E                     dE             d eps       ncg     rms          rms(c)
DAV:   1    -0.303942205349E+03    0.48021E-09   -0.42678E-10   312   0.438E-05    0.654E-05
RMM:   2    -0.303942205350E+03   -0.11059E-08    0.00000E+00    14   0.267E-05
  17 F= -.30394221E+03 E0= -.30398852E+03  d E =-.436557E-10
       N       E                     dE             d eps       ncg     rms          rms(c)
DAV:   1    -0.303942205349E+03   -0.24011E-09   -0.11541E-10   312   0.552E-05    0.388E-05
RMM:   2    -0.303942205350E+03   -0.11059E-08    0.00000E+00    14   0.233E-05
  18 F= -.30394221E+03 E0= -.30398852E+03  d E =-.240107E-09
       N       E                     dE             d eps       ncg     rms          rms(c)
DAV:   1    -0.303942205349E+03   -0.12369E-09   -0.14676E-10   312   0.494E-05    0.182E-05
RMM:   2    -0.303942205350E+03   -0.57480E-09    0.00000E+00    12   0.219E-05
  19 F= -.30394221E+03 E0= -.30398852E+03  d E =0.407454E-09
       N       E                     dE             d eps       ncg     rms          rms(c)
DAV:   1    -0.303942205349E+03    0.30559E-09    0.11793E-10   312   0.226E-05    0.164E-05
RMM:   2    -0.303942205350E+03   -0.10696E-08    0.00000E+00    12   0.141E-05
  20 F= -.30394221E+03 E0= -.30398852E+03  d E =-.189175E-09
       N       E                     dE             d eps       ncg     rms          rms(c)
DAV:   1    -0.303942205349E+03   -0.47294E-09   -0.77949E-11   312   0.219E-05    0.809E-06
RMM:   2    -0.303942205350E+03   -0.23283E-09    0.00000E+00    12   0.122E-05
  21 F= -.30394221E+03 E0= -.30398852E+03  d E =0.363798E-09
       N       E                     dE             d eps       ncg     rms          rms(c)
DAV:   1    -0.303942205350E+03   -0.53114E-09   -0.69513E-11   312   0.118E-05    0.227E-05
RMM:   2    -0.303942205350E+03    0.58208E-10    0.00000E+00    12   0.826E-06
  22 F= -.30394221E+03 E0= -.30398852E+03  d E =-.240107E-09
       N       E                     dE             d eps       ncg     rms          rms(c)
DAV:   1    -0.303942205349E+03    0.13752E-08   -0.25583E-10   312   0.185E-05    0.138E-05
RMM:   2    -0.303942205350E+03   -0.12078E-08    0.00000E+00    11   0.694E-06
  23 F= -.30394221E+03 E0= -.30398852E+03  d E =0.109139E-09
       N       E                     dE             d eps       ncg     rms          rms(c)
DAV:   1    -0.303942205350E+03   -0.12442E-08   -0.17906E-10   312   0.213E-05    0.522E-06
RMM:   2    -0.303942205350E+03    0.32014E-09    0.00000E+00    12   0.613E-06
  24 F= -.30394221E+03 E0= -.30398852E+03  d E =0.283762E-09
       N       E                     dE             d eps       ncg     rms          rms(c)
DAV:   1    -0.303942205350E+03    0.32014E-09   -0.21329E-11   312   0.684E-06    0.415E-06
RMM:   2    -0.303942205350E+03   -0.31287E-09    0.00000E+00    11   0.418E-06
  25 F= -.30394221E+03 E0= -.30398852E+03  d E =-.312866E-09
       N       E                     dE             d eps       ncg     rms          rms(c)
DAV:   1    -0.303942205350E+03   -0.16735E-09   -0.85576E-11   312   0.658E-06    0.180E-06
RMM:   2    -0.303942205350E+03    0.17462E-09    0.00000E+00    11   0.375E-06
  26 F= -.30394221E+03 E0= -.30398852E+03  d E =0.320142E-09
       N       E                     dE             d eps       ncg     rms          rms(c)
DAV:   1    -0.303942205350E+03    0.12369E-09    0.20242E-10   312   0.361E-06    0.421E-06
RMM:   2    -0.303942205350E+03   -0.58208E-10    0.00000E+00     9   0.243E-06
  27 F= -.30394221E+03 E0= -.30398852E+03  d E =-.109139E-09
       N       E                     dE             d eps       ncg     rms          rms(c)
DAV:   1    -0.303942205350E+03   -0.57480E-09   -0.22472E-10   312   0.426E-06    0.212E-06
RMM:   2    -0.303942205349E+03    0.71304E-09    0.00000E+00    10   0.178E-06
  28 F= -.30394221E+03 E0= -.30398852E+03  d E =0.196451E-09
       N       E                     dE             d eps       ncg     rms          rms(c)
DAV:   1    -0.303942205351E+03   -0.32014E-09   -0.23342E-10   300   0.259E-06    0.889E-07
RMM:   2    -0.303942205350E+03    0.69122E-09    0.00000E+00     8   0.175E-06
  29 F= -.30394221E+03 E0= -.30398852E+03  d E =-.341970E-09
       N       E                     dE             d eps       ncg     rms          rms(c)
DAV:   1    -0.303942205352E+03   -0.14916E-08   -0.54031E-11   312   0.169E-06    0.260E-06
RMM:   2    -0.303942205350E+03    0.22337E-08    0.00000E+00     8   0.112E-06
  30 F= -.30394221E+03 E0= -.30398852E+03  d E =0.509317E-10
       N       E                     dE             d eps       ncg     rms          rms(c)
DAV:   1    -0.303942205350E+03    0.22192E-08    0.24012E-11   312   0.229E-06    0.165E-06
RMM:   2    -0.303942205350E+03   -0.58208E-10    0.00000E+00     6   0.994E-07
  31 F= -.30394221E+03 E0= -.30398852E+03  d E =-.727596E-10
       N       E                     dE             d eps       ncg     rms          rms(c)
DAV:   1    -0.303942205350E+03    0.24011E-09    0.19299E-10   312   0.270E-06    0.462E-07
RMM:   2    -0.303942205350E+03   -0.24011E-09    0.00000E+00     6   0.853E-07
  32 F= -.30394221E+03 E0= -.30398852E+03  d E =0.582077E-10
       N       E                     dE             d eps       ncg     rms          rms(c)
DAV:   1    -0.303942205351E+03   -0.14188E-08   -0.10050E-10   312   0.870E-07    0.509E-07
RMM:   2    -0.303942205350E+03    0.10623E-08    0.00000E+00     5   0.488E-07
  33 F= -.30394221E+03 E0= -.30398852E+03  d E =-.116415E-09
       N       E                     dE             d eps       ncg     rms          rms(c)
DAV:   1    -0.303942205350E+03    0.93860E-09    0.79010E-11   312   0.707E-07    0.224E-07
RMM:   2    -0.303942205350E+03    0.12369E-09    0.00000E+00     5   0.403E-07
  34 F= -.30394221E+03 E0= -.30398852E+03  d E =0.000000E+00
       N       E                     dE             d eps       ncg     rms          rms(c)
DAV:   1    -0.303942205349E+03    0.86584E-09   -0.87771E-12   312   0.392E-07    0.710E-07
RMM:   2    -0.303942205350E+03   -0.68394E-09    0.00000E+00     4   0.295E-07
  35 F= -.30394221E+03 E0= -.30398852E+03  d E =0.582077E-10
       N       E                     dE             d eps       ncg     rms          rms(c)
DAV:   1    -0.303942205349E+03   -0.18190E-09    0.53117E-12   312   0.618E-07    0.436E-07
RMM:   2    -0.303942205349E+03   -0.13824E-09    0.00000E+00     4   0.251E-07
  36 F= -.30394221E+03 E0= -.30398852E+03  d E =0.363798E-09
       N       E                     dE             d eps       ncg     rms          rms(c)
DAV:   1    -0.303942205349E+03   -0.16007E-09   -0.20244E-10   312   0.723E-07    0.155E-07
RMM:   2    -0.303942205350E+03   -0.65484E-10    0.00000E+00     4   0.208E-07
  37 F= -.30394221E+03 E0= -.30398852E+03  d E =-.873115E-10
       N       E                     dE             d eps       ncg     rms          rms(c)
DAV:   1    -0.303942205350E+03   -0.71304E-09    0.19600E-10   312   0.230E-07    0.124E-07
RMM:   2    -0.303942205350E+03    0.48021E-09    0.00000E+00     4   0.136E-07
  38 F= -.30394221E+03 E0= -.30398852E+03  d E =-.167347E-09
       N       E                     dE             d eps       ncg     rms          rms(c)
DAV:   1    -0.303942205349E+03    0.11933E-08    0.69229E-11   312   0.216E-07    0.487E-08
RMM:   2    -0.303942205349E+03   -0.48021E-09    0.00000E+00     3   0.119E-07
  39 F= -.30394221E+03 E0= -.30398852E+03  d E =0.232831E-09
       N       E                     dE             d eps       ncg     rms          rms(c)
DAV:   1    -0.303942205350E+03   -0.51659E-09   -0.21664E-11   312   0.116E-07    0.140E-07
RMM:   2    -0.303942205350E+03   -0.21828E-10    0.00000E+00     3   0.853E-08
  40 F= -.30394221E+03 E0= -.30398852E+03  d E =-.582077E-10
       N       E                     dE             d eps       ncg     rms          rms(c)
DAV:   1    -0.303942205350E+03   -0.16735E-09   -0.14543E-10   312   0.146E-07    0.768E-08
RMM:   2    -0.303942205350E+03    0.94587E-10    0.00000E+00     3   0.609E-08
  41 F= -.30394221E+03 E0= -.30398852E+03  d E =-.509317E-10
       N       E                     dE             d eps       ncg     rms          rms(c)
DAV:   1    -0.303942205349E+03    0.67666E-09   -0.61538E-11   312   0.115E-07    0.403E-08
RMM:   2    -0.303942205350E+03   -0.48749E-09    0.00000E+00     3   0.604E-08
  42 F= -.30394221E+03 E0= -.30398852E+03  d E =0.945874E-10
       N       E                     dE             d eps       ncg     rms          rms(c)
DAV:   1    -0.303942205349E+03    0.35652E-09   -0.42213E-11   312   0.619E-08    0.432E-08
RMM:   2    -0.303942205350E+03   -0.96770E-09    0.00000E+00     3   0.402E-08
  43 F= -.30394221E+03 E0= -.30398852E+03  d E =-.123691E-09
       N       E                     dE             d eps       ncg     rms          rms(c)
DAV:   1    -0.303942205350E+03   -0.12878E-08    0.15518E-10   312   0.703E-08    0.175E-08
RMM:   2    -0.303942205350E+03    0.39290E-09    0.00000E+00     3   0.314E-08
  44 F= -.30394221E+03 E0= -.30398852E+03  d E =0.727596E-10
       N       E                     dE             d eps       ncg     rms          rms(c)
DAV:   1    -0.303942205349E+03    0.67666E-09    0.96187E-11   312   0.317E-08    0.470E-08
RMM:   2    -0.303942205350E+03   -0.49477E-09    0.00000E+00     3   0.243E-08
  45 F= -.30394221E+03 E0= -.30398852E+03  d E =-.211003E-09
       N       E                     dE             d eps       ncg     rms          rms(c)
DAV:   1    -0.303942205348E+03    0.83674E-09    0.31414E-11   312   0.438E-08    0.309E-08
RMM:   2    -0.303942205350E+03   -0.11860E-08    0.00000E+00     3   0.188E-08
  46 F= -.30394221E+03 E0= -.30398852E+03  d E =0.145519E-09
       N       E                     dE             d eps       ncg     rms          rms(c)
DAV:   1    -0.303942205350E+03   -0.16080E-08   -0.60748E-11   312   0.541E-08    0.119E-08
RMM:   2    -0.303942205350E+03    0.38563E-09    0.00000E+00     3   0.163E-08
  47 F= -.30394221E+03 E0= -.30398852E+03  d E =-.363798E-10
       N       E                     dE             d eps       ncg     rms          rms(c)
DAV:   1    -0.303942205350E+03    0.36380E-09   -0.66380E-11   312   0.184E-08    0.966E-09
RMM:   2    -0.303942205350E+03    0.29104E-10    0.00000E+00     3   0.114E-08
  48 F= -.30394221E+03 E0= -.30398852E+03  d E =0.727596E-11
       N       E                     dE             d eps       ncg     rms          rms(c)
DAV:   1    -0.303942205351E+03   -0.12078E-08    0.89195E-12   312   0.176E-08    0.324E-09
RMM:   2    -0.303942205350E+03    0.12587E-08    0.00000E+00     3   0.102E-08
  49 F= -.30394221E+03 E0= -.30398852E+03  d E =0.218279E-10
       N       E                     dE             d eps       ncg     rms          rms(c)
DAV:   1    -0.303942205350E+03    0.11714E-08   -0.38375E-11   312   0.105E-08    0.132E-08
RMM:   2    -0.303942205350E+03    0.17462E-09    0.00000E+00     3   0.777E-09
  50 F= -.30394221E+03 E0= -.30398852E+03  d E =0.873115E-10
       N       E                     dE             d eps       ncg     rms          rms(c)
DAV:   1    -0.303942205350E+03   -0.22555E-09    0.17578E-11   312   0.139E-08    0.704E-09
RMM:   2    -0.303942205349E+03    0.50204E-09    0.00000E+00     3   0.511E-09
  51 F= -.30394221E+03 E0= -.30398852E+03  d E =0.101863E-09
       N       E                     dE             d eps       ncg     rms          rms(c)
DAV:   1    -0.303942205350E+03    0.94587E-10   -0.93093E-12   312   0.118E-08    0.284E-09
RMM:   2    -0.303942205350E+03    0.36380E-10    0.00000E+00     3   0.452E-09
  52 F= -.30394221E+03 E0= -.30398852E+03  d E =-.371074E-09
       N       E                     dE             d eps       ncg     rms          rms(c)
DAV:   1    -0.303942205350E+03   -0.21828E-10    0.92788E-11   312   0.498E-09    0.258E-09
RMM:   2    -0.303942205350E+03    0.18917E-09    0.00000E+00     2   0.336E-09
  53 F= -.30394221E+03 E0= -.30398852E+03  d E =0.130967E-09
       N       E                     dE             d eps       ncg     rms          rms(c)
DAV:   1    -0.303942205349E+03    0.11933E-08    0.24935E-11   312   0.525E-09    0.921E-10
RMM:   2    -0.303942205350E+03   -0.95315E-09    0.00000E+00     2   0.260E-09
  54 F= -.30394221E+03 E0= -.30398852E+03  d E =0.509317E-10
       N       E                     dE             d eps       ncg     rms          rms(c)
DAV:   1    -0.303942205350E+03   -0.15498E-08    0.63553E-11   306   0.263E-09    0.338E-09
RMM:   2    -0.303942205350E+03    0.50204E-09    0.00000E+00     1   0.203E-09
  55 F= -.30394221E+03 E0= -.30398852E+03  d E =-.945874E-10
       N       E                     dE             d eps       ncg     rms          rms(c)
DAV:   1    -0.303942205351E+03   -0.29831E-09    0.55323E-11   294   0.370E-09    0.210E-09
RMM:   2    -0.303942205350E+03    0.88039E-09    0.00000E+00     1   0.149E-09
  56 F= -.30394221E+03 E0= -.30398852E+03  d E =0.800355E-10
       N       E                     dE             d eps       ncg     rms          rms(c)
DAV:   1    -0.303942205350E+03    0.52387E-09    0.10973E-10   294   0.389E-09    0.656E-10
RMM:   2    -0.303942205350E+03    0.30559E-09    0.00000E+00     1   0.124E-09
  57 F= -.30394221E+03 E0= -.30398852E+03  d E =-.509317E-10
       N       E                     dE             d eps       ncg     rms          rms(c)
DAV:   1    -0.303942205350E+03    0.94587E-10    0.11278E-10   294   0.133E-09    0.846E-10
RMM:   2    -0.303942205350E+03    0.23283E-09    0.00000E+00     1   0.975E-10
  58 F= -.30394221E+03 E0= -.30398852E+03  d E =0.218279E-10
       N       E                     dE             d eps       ncg     rms          rms(c)
DAV:   1    -0.303942205349E+03    0.64028E-09   -0.35533E-11   294   0.114E-09    0.536E-10
RMM:   2    -0.303942205350E+03   -0.29831E-09    0.00000E+00     1   0.674E-10
  59 F= -.30394221E+03 E0= -.30398852E+03  d E =0.109139E-09
       N       E                     dE             d eps       ncg     rms          rms(c)
DAV:   1    -0.303942205350E+03   -0.74215E-09    0.41339E-11   294   0.819E-10    0.525E-10
RMM:   2    -0.303942205350E+03    0.34197E-09    0.00000E+00     1   0.585E-10
  60 F= -.30394221E+03 E0= -.30398852E+03  d E =-.101863E-09
       N       E                     dE             d eps       ncg     rms          rms(c)
DAV:   1    -0.303942205351E+03   -0.86584E-09    0.17291E-10   294   0.706E-10    0.453E-10
RMM:   2    -0.303942205350E+03    0.12005E-08    0.00000E+00     1   0.463E-10
  61 F= -.30394221E+03 E0= -.30398852E+03  d E =-.727596E-11
       N       E                     dE             d eps       ncg     rms          rms(c)
DAV:   1    -0.303942205350E+03    0.11423E-08    0.61150E-11   294   0.544E-10    0.464E-10
RMM:   2    -0.303942205350E+03    0.10914E-09    0.00000E+00     1   0.378E-10
  62 F= -.30394221E+03 E0= -.30398852E+03  d E =0.509317E-10
       N       E                     dE             d eps       ncg     rms          rms(c)
DAV:   1    -0.303942205350E+03   -0.27649E-09   -0.38339E-11   294   0.468E-10    0.404E-10
RMM:   2    -0.303942205350E+03    0.46566E-09    0.00000E+00     1   0.298E-10
  63 F= -.30394221E+03 E0= -.30398852E+03  d E =0.800355E-10
       N       E                     dE             d eps       ncg     rms          rms(c)
DAV:   1    -0.303942205350E+03    0.36380E-09    0.12211E-11   294   0.435E-10    0.299E-10
RMM:   2    -0.303942205350E+03    0.72760E-11    0.00000E+00     1   0.258E-10
  64 F= -.30394221E+03 E0= -.30398852E+03  d E =-.945874E-10
       N       E                     dE             d eps       ncg     rms          rms(c)
DAV:   1    -0.303942205350E+03   -0.23283E-09   -0.20384E-12   294   0.416E-10    0.207E-10
RMM:   2    -0.303942205350E+03    0.19645E-09    0.00000E+00     1   0.239E-10
  65 F= -.30394221E+03 E0= -.30398852E+03  d E =-.436557E-10
       N       E                     dE             d eps       ncg     rms          rms(c)
DAV:   1    -0.303942205350E+03    0.36380E-09    0.36615E-11   294   0.270E-10    0.361E-10
RMM:   2    -0.303942205350E+03   -0.23283E-09    0.00000E+00     1   0.193E-10
  66 F= -.30394221E+03 E0= -.30398852E+03  d E =-.654836E-10
       N       E                     dE             d eps       ncg     rms          rms(c)
DAV:   1    -0.303942205349E+03    0.29104E-09    0.11918E-10   294   0.291E-10    0.321E-10
RMM:   2    -0.303942205350E+03   -0.43656E-09    0.00000E+00     1   0.165E-10
  67 F= -.30394221E+03 E0= -.30398852E+03  d E =0.873115E-10
       N       E                     dE             d eps       ncg     rms          rms(c)
DAV:   1    -0.303942205349E+03   -0.19645E-09    0.42533E-11   294   0.300E-10    0.302E-10
RMM:   2    -0.303942205350E+03   -0.15280E-09    0.00000E+00     1   0.164E-10
  68 F= -.30394221E+03 E0= -.30398852E+03  d E =0.873115E-10
       N       E                     dE             d eps       ncg     rms          rms(c)
DAV:   1    -0.303942205348E+03    0.14625E-08   -0.16647E-10   294   0.318E-10    0.242E-10
RMM:   2    -0.303942205350E+03   -0.16735E-08    0.00000E+00     1   0.145E-10
  69 F= -.30394221E+03 E0= -.30398852E+03  d E =-.582077E-10
       N       E                     dE             d eps       ncg     rms          rms(c)
DAV:   1    -0.303942205350E+03   -0.17972E-08   -0.34808E-11   294   0.246E-10    0.317E-10
RMM:   2    -0.303942205350E+03    0.14552E-09    0.00000E+00     1   0.154E-10
  70 F= -.30394221E+03 E0= -.30398852E+03  d E =0.218279E-10
       N       E                     dE             d eps       ncg     rms          rms(c)
DAV:   1    -0.303942205350E+03   -0.34197E-09    0.76022E-12   294   0.338E-10    0.293E-10
RMM:   2    -0.303942205350E+03    0.52387E-09    0.00000E+00     1   0.150E-10
  71 F= -.30394221E+03 E0= -.30398852E+03  d E =0.363798E-10
       N       E                     dE             d eps       ncg     rms          rms(c)
DAV:   1    -0.303942205350E+03   -0.21100E-09    0.89559E-11   294   0.313E-10    0.185E-10
RMM:   2    -0.303942205350E+03    0.58208E-09    0.00000E+00     1   0.131E-10
  72 F= -.30394221E+03 E0= -.30398852E+03  d E =-.152795E-09
       N       E                     dE             d eps       ncg     rms          rms(c)
DAV:   1    -0.303942205349E+03    0.98953E-09    0.14031E-10   294   0.202E-10    0.254E-10
RMM:   2    -0.303942205350E+03   -0.33469E-09    0.00000E+00     1   0.131E-10
  73 F= -.30394221E+03 E0= -.30398852E+03  d E =0.727596E-10
       N       E                     dE             d eps       ncg     rms          rms(c)
DAV:   1    -0.303942205349E+03    0.65484E-09   -0.59095E-11   294   0.215E-10    0.285E-10
RMM:   2    -0.303942205350E+03   -0.97498E-09    0.00000E+00     1   0.110E-10
  74 F= -.30394221E+03 E0= -.30398852E+03  d E =0.145519E-10
       N       E                     dE             d eps       ncg     rms          rms(c)
DAV:   1    -0.303942205350E+03   -0.16589E-08   -0.11874E-11   294   0.222E-10    0.310E-10
RMM:   2    -0.303942205350E+03    0.71304E-09    0.00000E+00     1   0.111E-10
  75 F= -.30394221E+03 E0= -.30398852E+03  d E =0.291038E-10
       N       E                     dE             d eps       ncg     rms          rms(c)
DAV:   1    -0.303942205349E+03    0.13533E-08   -0.94059E-11   294   0.239E-10    0.317E-10
RMM:   2    -0.303942205350E+03   -0.76398E-09    0.00000E+00     1   0.127E-10
  76 F= -.30394221E+03 E0= -.30398852E+03  d E =-.123691E-09
       N       E                     dE             d eps       ncg     rms          rms(c)
DAV:   1    -0.303942205348E+03    0.93132E-09    0.97802E-12   294   0.164E-10    0.230E-10
RMM:   2    -0.303942205350E+03   -0.16735E-08    0.00000E+00     1   0.917E-11
  77 F= -.30394221E+03 E0= -.30398852E+03  d E =0.218279E-10
       N       E                     dE             d eps       ncg     rms          rms(c)
DAV:   1    -0.303942205350E+03   -0.21028E-08    0.42242E-11   294   0.182E-10    0.279E-10
RMM:   2    -0.303942205350E+03    0.50204E-09    0.00000E+00     1   0.841E-11
  78 F= -.30394221E+03 E0= -.30398852E+03  d E =0.727596E-10
       N       E                     dE             d eps       ncg     rms          rms(c)
DAV:   1    -0.303942205350E+03    0.19645E-09    0.66292E-11   294   0.193E-10    0.245E-10
RMM:   2    -0.303942205350E+03    0.35652E-09    0.00000E+00     1   0.984E-11
  79 F= -.30394221E+03 E0= -.30398852E+03  d E =0.509317E-10
       N       E                     dE             d eps       ncg     rms          rms(c)
DAV:   1    -0.303942205350E+03    0.40018E-09   -0.20463E-11   294   0.192E-10    0.437E-10
RMM:   2    -0.303942205350E+03   -0.94587E-10    0.00000E+00     1   0.109E-10
  80 F= -.30394221E+03 E0= -.30398852E+03  d E =-.509317E-10
       N       E                     dE             d eps       ncg     rms          rms(c)
DAV:   1    -0.303942205349E+03    0.24738E-09   -0.68776E-12   294   0.302E-10    0.299E-10
RMM:   2    -0.303942205350E+03   -0.34925E-09    0.00000E+00     1   0.928E-11
  81 F= -.30394221E+03 E0= -.30398852E+03  d E =-.727596E-11
       N       E                     dE             d eps       ncg     rms          rms(c)
DAV:   1    -0.303942205350E+03   -0.79308E-09    0.80250E-11   294   0.320E-10    0.318E-10
RMM:   2    -0.303942205350E+03    0.46566E-09    0.00000E+00     1   0.112E-10
  82 F= -.30394221E+03 E0= -.30398852E+03  d E =0.218279E-10
       N       E                     dE             d eps       ncg     rms          rms(c)
DAV:   1    -0.303942205350E+03    0.47294E-09    0.27583E-10   294   0.333E-10    0.270E-10
RMM:   2    -0.303942205350E+03    0.21828E-10    0.00000E+00     1   0.102E-10
  83 F= -.30394221E+03 E0= -.30398852E+03  d E =0.291038E-10
       N       E                     dE             d eps       ncg     rms          rms(c)
DAV:   1    -0.303942205349E+03    0.40745E-09   -0.21026E-11   294   0.322E-10    0.205E-10
RMM:   2    -0.303942205350E+03   -0.49477E-09    0.00000E+00     1   0.925E-11
  84 F= -.30394221E+03 E0= -.30398852E+03  d E =-.109139E-09
       N       E                     dE             d eps       ncg     rms          rms(c)
DAV:   1    -0.303942205349E+03    0.10186E-09   -0.46179E-11   294   0.240E-10    0.294E-10
RMM:   2    -0.303942205350E+03   -0.53114E-09    0.00000E+00     1   0.106E-10
  85 F= -.30394221E+03 E0= -.30398852E+03  d E =0.654836E-10
       N       E                     dE             d eps       ncg     rms          rms(c)
DAV:   1    -0.303942205350E+03   -0.50932E-09    0.11221E-10   294   0.162E-10    0.320E-10
RMM:   2    -0.303942205350E+03   -0.72760E-10    0.00000E+00     1   0.112E-10
  86 F= -.30394221E+03 E0= -.30398852E+03  d E =-.509317E-10
       N       E                     dE             d eps       ncg     rms          rms(c)
DAV:   1    -0.303942205350E+03   -0.33469E-09    0.18748E-10   294   0.315E-10    0.241E-10
RMM:   2    -0.303942205350E+03    0.28376E-09    0.00000E+00     1   0.949E-11
  87 F= -.30394221E+03 E0= -.30398852E+03  d E =0.218279E-10
       N       E                     dE             d eps       ncg     rms          rms(c)
DAV:   1    -0.303942205349E+03    0.95315E-09   -0.11192E-10   294   0.225E-10    0.209E-10
RMM:   2    -0.303942205350E+03   -0.56752E-09    0.00000E+00     1   0.936E-11
  88 F= -.30394221E+03 E0= -.30398852E+03  d E =0.101863E-09
       N       E                     dE             d eps       ncg     rms          rms(c)
DAV:   1    -0.303942205350E+03   -0.13606E-08    0.12484E-10   294   0.225E-10    0.202E-10
RMM:   2    -0.303942205350E+03    0.69849E-09    0.00000E+00     1   0.106E-10
  89 F= -.30394221E+03 E0= -.30398852E+03  d E =-.945874E-10
       N       E                     dE             d eps       ncg     rms          rms(c)
DAV:   1    -0.303942205350E+03    0.80036E-10   -0.57668E-11   294   0.204E-10    0.286E-10
RMM:   2    -0.303942205350E+03    0.63301E-09    0.00000E+00     1   0.899E-11
  90 F= -.30394221E+03 E0= -.30398852E+03  d E =0.145519E-10
       N       E                     dE             d eps       ncg     rms          rms(c)
DAV:   1    -0.303942205348E+03    0.21173E-08   -0.60748E-11   294   0.102E-10    0.325E-10
RMM:   2    -0.303942205350E+03   -0.15425E-08    0.00000E+00     1   0.830E-11
  91 F= -.30394221E+03 E0= -.30398852E+03  d E =-.582077E-10
       N       E                     dE             d eps       ncg     rms          rms(c)
DAV:   1    -0.303942205349E+03   -0.92405E-09    0.54722E-11   294   0.113E-10    0.258E-10
RMM:   2    -0.303942205350E+03   -0.56025E-09    0.00000E+00     1   0.687E-11
  92 F= -.30394221E+03 E0= -.30398852E+03  d E =0.582077E-10
       N       E                     dE             d eps       ncg     rms          rms(c)
DAV:   1    -0.303942205350E+03   -0.66939E-09   -0.71869E-11   294   0.166E-10    0.259E-10
RMM:   2    -0.303942205350E+03    0.43656E-10    0.00000E+00     1   0.829E-11
  93 F= -.30394221E+03 E0= -.30398852E+03  d E =-.654836E-10
       N       E                     dE             d eps       ncg     rms          rms(c)
DAV:   1    -0.303942205350E+03   -0.50932E-09    0.11286E-10   294   0.198E-10    0.380E-10
RMM:   2    -0.303942205350E+03    0.63301E-09    0.00000E+00     1   0.998E-11
  94 F= -.30394221E+03 E0= -.30398852E+03  d E =0.800355E-10
       N       E                     dE             d eps       ncg     rms          rms(c)
DAV:   1    -0.303942205350E+03    0.25466E-09    0.13411E-11   294   0.419E-10    0.193E-10
RMM:   2    -0.303942205350E+03    0.29831E-09    0.00000E+00     1   0.819E-11
  95 F= -.30394221E+03 E0= -.30398852E+03  d E =-.800355E-10
       N       E                     dE             d eps       ncg     rms          rms(c)
DAV:   1    -0.303942205350E+03    0.30559E-09    0.68821E-11   294   0.171E-10    0.250E-10
RMM:   2    -0.303942205350E+03    0.29104E-10    0.00000E+00     1   0.777E-11
  96 F= -.30394221E+03 E0= -.30398852E+03  d E =0.363798E-10
       N       E                     dE             d eps       ncg     rms          rms(c)
DAV:   1    -0.303942205350E+03    0.00000E+00   -0.83996E-11   294   0.180E-10    0.230E-10
RMM:   2    -0.303942205350E+03    0.29104E-10    0.00000E+00     1   0.779E-11
  97 F= -.30394221E+03 E0= -.30398852E+03  d E =0.000000E+00
       N       E                     dE             d eps       ncg     rms          rms(c)
DAV:   1    -0.303942205349E+03    0.43656E-09    0.20884E-11   294   0.199E-10    0.274E-10
RMM:   2    -0.303942205350E+03   -0.44383E-09    0.00000E+00     1   0.903E-11
  98 F= -.30394221E+03 E0= -.30398852E+03  d E =-.363798E-10
       N       E                     dE             d eps       ncg     rms          rms(c)
DAV:   1    -0.303942205349E+03    0.33469E-09   -0.48867E-11   294   0.309E-10    0.177E-10
RMM:   2    -0.303942205350E+03   -0.65484E-09    0.00000E+00     1   0.888E-11
  99 F= -.30394221E+03 E0= -.30398852E+03  d E =0.123691E-09
       N       E                     dE             d eps       ncg     rms          rms(c)
DAV:   1    -0.303942205351E+03   -0.16007E-08   -0.11703E-10   294   0.256E-10    0.286E-10
RMM:   2    -0.303942205350E+03    0.85856E-09    0.00000E+00     1   0.911E-11
 100 F= -.30394221E+03 E0= -.30398852E+03  d E =-.873115E-10
       N       E                     dE             d eps       ncg     rms          rms(c)
DAV:   1    -0.303942205350E+03    0.70577E-09   -0.10402E-10   294   0.199E-10    0.249E-10
RMM:   2    -0.303942205350E+03    0.10186E-09    0.00000E+00     1   0.919E-11
 101 F= -.30394221E+03 E0= -.30398852E+03  d E =-.509317E-10
       N       E                     dE             d eps       ncg     rms          rms(c)
DAV:   1    -0.303942205350E+03    0.27649E-09    0.40256E-11   294   0.299E-10    0.251E-10
RMM:   2    -0.303942205350E+03   -0.13824E-09    0.00000E+00     1   0.815E-11
 102 F= -.30394221E+03 E0= -.30398852E+03  d E =0.363798E-10
       N       E                     dE             d eps       ncg     rms          rms(c)
DAV:   1    -0.303942205351E+03   -0.10768E-08   -0.20924E-11   294   0.122E-10    0.321E-10
RMM:   2    -0.303942205350E+03    0.97498E-09    0.00000E+00     1   0.875E-11
 103 F= -.30394221E+03 E0= -.30398852E+03  d E =0.363798E-10
       N       E                     dE             d eps       ncg     rms          rms(c)
DAV:   1    -0.303942205349E+03    0.13169E-08    0.27318E-11   294   0.242E-10    0.219E-10
RMM:   2    -0.303942205350E+03   -0.29104E-09    0.00000E+00     1   0.859E-11
 104 F= -.30394221E+03 E0= -.30398852E+03  d E =0.509317E-10
       N       E                     dE             d eps       ncg     rms          rms(c)
DAV:   1    -0.303942205349E+03    0.37835E-09    0.48112E-11   294   0.240E-10    0.304E-10
RMM:   2    -0.303942205350E+03   -0.74215E-09    0.00000E+00     1   0.119E-10
 105 F= -.30394221E+03 E0= -.30398852E+03  d E =-.727596E-10
       N       E                     dE             d eps       ncg     rms          rms(c)
DAV:   1    -0.303942205350E+03   -0.11205E-08    0.10588E-10   294   0.407E-10    0.189E-10
RMM:   2    -0.303942205350E+03    0.38563E-09    0.00000E+00     1   0.853E-11
 106 F= -.30394221E+03 E0= -.30398852E+03  d E =0.727596E-11
       N       E                     dE             d eps       ncg     rms          rms(c)
DAV:   1    -0.303942205350E+03    0.10186E-09   -0.37651E-11   294   0.192E-10    0.200E-10
RMM:   2    -0.303942205350E+03    0.29831E-09    0.00000E+00     1   0.891E-11
 107 F= -.30394221E+03 E0= -.30398852E+03  d E =0.145519E-10
       N       E                     dE             d eps       ncg     rms          rms(c)
DAV:   1    -0.303942205349E+03    0.13606E-08   -0.10460E-10   294   0.183E-10    0.259E-10
RMM:   2    -0.303942205350E+03   -0.10405E-08    0.00000E+00     1   0.811E-11
 108 F= -.30394221E+03 E0= -.30398852E+03  d E =0.218279E-10
       N       E                     dE             d eps       ncg     rms          rms(c)
DAV:   1    -0.303942205350E+03   -0.16807E-08   -0.44491E-11   294   0.146E-10    0.309E-10
RMM:   2    -0.303942205350E+03    0.55297E-09    0.00000E+00     1   0.906E-11
 109 F= -.30394221E+03 E0= -.30398852E+03  d E =-.873115E-10
       N       E                     dE             d eps       ncg     rms          rms(c)
DAV:   1    -0.303942205350E+03   -0.43656E-10   -0.11057E-10   294   0.226E-10    0.264E-10
RMM:   2    -0.303942205350E+03    0.69849E-09    0.00000E+00     1   0.751E-11
 110 F= -.30394221E+03 E0= -.30398852E+03  d E =0.101863E-09
       N       E                     dE             d eps       ncg     rms          rms(c)
DAV:   1    -0.303942205350E+03   -0.13824E-09   -0.23819E-11   294   0.210E-10    0.248E-10
RMM:   2    -0.303942205350E+03    0.82946E-09    0.00000E+00     1   0.773E-11
 111 F= -.30394221E+03 E0= -.30398852E+03  d E =-.727596E-11
       N       E                     dE             d eps       ncg     rms          rms(c)
DAV:   1    -0.303942205348E+03    0.23501E-08   -0.32770E-11   294   0.206E-10    0.243E-10
RMM:   2    -0.303942205350E+03   -0.16007E-08    0.00000E+00     1   0.786E-11
 112 F= -.30394221E+03 E0= -.30398852E+03  d E =-.800355E-10
       N       E                     dE             d eps       ncg     rms          rms(c)
DAV:   1    -0.303942205349E+03   -0.62573E-09    0.11299E-10   294   0.275E-10    0.189E-10
RMM:   2    -0.303942205350E+03   -0.93132E-09    0.00000E+00     1   0.857E-11
 113 F= -.30394221E+03 E0= -.30398852E+03  d E =0.436557E-10
       N       E                     dE             d eps       ncg     rms          rms(c)
DAV:   1    -0.303942205350E+03   -0.85856E-09   -0.11978E-10   294   0.208E-10    0.272E-10
RMM:   2    -0.303942205350E+03   -0.11642E-09    0.00000E+00     1   0.927E-11
 114 F= -.30394221E+03 E0= -.30398852E+03  d E =-.436557E-10
       N       E                     dE             d eps       ncg     rms          rms(c)
DAV:   1    -0.303942205349E+03    0.22555E-09   -0.82413E-11   294   0.210E-10    0.334E-10
RMM:   2    -0.303942205350E+03   -0.34197E-09    0.00000E+00     1   0.108E-10
 115 F= -.30394221E+03 E0= -.30398852E+03  d E =0.000000E+00
       N       E                     dE             d eps       ncg     rms          rms(c)
DAV:   1    -0.303942205350E+03   -0.66939E-09    0.22234E-10   294   0.405E-10    0.299E-10
RMM:   2    -0.303942205350E+03    0.40745E-09    0.00000E+00     1   0.106E-10
 116 F= -.30394221E+03 E0= -.30398852E+03  d E =0.800355E-10
       N       E                     dE             d eps       ncg     rms          rms(c)
DAV:   1    -0.303942205350E+03    0.16735E-09   -0.35666E-11   294   0.352E-10    0.229E-10
RMM:   2    -0.303942205350E+03    0.20373E-09    0.00000E+00     1   0.949E-11
 117 F= -.30394221E+03 E0= -.30398852E+03  d E =-.363798E-10
       N       E                     dE             d eps       ncg     rms          rms(c)
DAV:   1    -0.303942205351E+03   -0.69849E-09   -0.69879E-11   294   0.259E-10    0.263E-10
RMM:   2    -0.303942205350E+03    0.93860E-09    0.00000E+00     1   0.914E-11
 118 F= -.30394221E+03 E0= -.30398852E+03  d E =0.363798E-10
       N       E                     dE             d eps       ncg     rms          rms(c)
DAV:   1    -0.303942205349E+03    0.11496E-08    0.11312E-10   294   0.286E-10    0.247E-10
RMM:   2    -0.303942205350E+03   -0.21828E-09    0.00000E+00     1   0.906E-11
 119 F= -.30394221E+03 E0= -.30398852E+03  d E =-.727596E-11
       N       E                     dE             d eps       ncg     rms          rms(c)
DAV:   1    -0.303942205349E+03    0.37835E-09   -0.47391E-11   294   0.162E-10    0.267E-10
RMM:   2    -0.303942205350E+03   -0.65484E-09    0.00000E+00     1   0.810E-11
 120 F= -.30394221E+03 E0= -.30398852E+03  d E =-.582077E-10
       N       E                     dE             d eps       ncg     rms          rms(c)
DAV:   1    -0.303942205350E+03   -0.12660E-08   -0.39236E-11   294   0.190E-10    0.289E-10
RMM:   2    -0.303942205350E+03    0.58208E-09    0.00000E+00     1   0.101E-10
 121 F= -.30394221E+03 E0= -.30398852E+03  d E =-.291038E-10
       N       E                     dE             d eps       ncg     rms          rms(c)
DAV:   1    -0.303942205350E+03    0.63301E-09    0.85781E-11   294   0.325E-10    0.315E-10
RMM:   2    -0.303942205350E+03    0.21828E-10    0.00000E+00     1   0.103E-10
 122 F= -.30394221E+03 E0= -.30398852E+03  d E =0.727596E-10
       N       E                     dE             d eps       ncg     rms          rms(c)
DAV:   1    -0.303942205349E+03    0.57480E-09    0.59533E-11   294   0.225E-10    0.250E-10
RMM:   2    -0.303942205350E+03   -0.48021E-09    0.00000E+00     1   0.915E-11
 123 F= -.30394221E+03 E0= -.30398852E+03  d E =0.727596E-10
       N       E                     dE             d eps       ncg     rms          rms(c)
DAV:   1    -0.303942205351E+03   -0.18845E-08   -0.37549E-11   294   0.289E-10    0.165E-10
RMM:   2    -0.303942205350E+03    0.13824E-08    0.00000E+00     1   0.886E-11
 124 F= -.30394221E+03 E0= -.30398852E+03  d E =-.218279E-10
       N       E                     dE             d eps       ncg     rms          rms(c)
DAV:   1    -0.303942205350E+03    0.10987E-08   -0.48850E-11   294   0.219E-10    0.194E-10
RMM:   2    -0.303942205350E+03    0.25466E-09    0.00000E+00     1   0.789E-11
 125 F= -.30394221E+03 E0= -.30398852E+03  d E =-.291038E-10
       N       E                     dE             d eps       ncg     rms          rms(c)
DAV:   1    -0.303942205351E+03   -0.10550E-08    0.75631E-11   294   0.152E-10    0.247E-10
RMM:   2    -0.303942205350E+03    0.12660E-08    0.00000E+00     1   0.842E-11
 126 F= -.30394221E+03 E0= -.30398852E+03  d E =-.436557E-10
       N       E                     dE             d eps       ncg     rms          rms(c)
DAV:   1    -0.303942205350E+03    0.10914E-08    0.14062E-10   294   0.968E-11    0.280E-10
RMM:   2    -0.303942205350E+03    0.18917E-09    0.00000E+00     1   0.822E-11
 127 F= -.30394221E+03 E0= -.30398852E+03  d E =0.145519E-10
       N       E                     dE             d eps       ncg     rms          rms(c)
DAV:   1    -0.303942205349E+03    0.52387E-09    0.10987E-10   294   0.208E-10    0.259E-10
RMM:   2    -0.303942205350E+03   -0.24738E-09    0.00000E+00     1   0.793E-11
 128 F= -.30394221E+03 E0= -.30398852E+03  d E =0.873115E-10
       N       E                     dE             d eps       ncg     rms          rms(c)
DAV:   1    -0.303942205349E+03    0.72760E-11    0.28579E-11   294   0.204E-10    0.233E-10
RMM:   2    -0.303942205350E+03   -0.30559E-09    0.00000E+00     1   0.755E-11
 129 F= -.30394221E+03 E0= -.30398852E+03  d E =-.509317E-10
       N       E                     dE             d eps       ncg     rms          rms(c)
DAV:   1    -0.303942205350E+03   -0.98953E-09    0.19152E-10   294   0.183E-10    0.328E-10
RMM:   2    -0.303942205350E+03    0.61846E-09    0.00000E+00     1   0.913E-11
 130 F= -.30394221E+03 E0= -.30398852E+03  d E =-.654836E-10
       N       E                     dE             d eps       ncg     rms          rms(c)
DAV:   1    -0.303942205349E+03    0.16662E-08    0.15197E-10   294   0.320E-10    0.301E-10
RMM:   2    -0.303942205350E+03   -0.92405E-09    0.00000E+00     1   0.896E-11
 131 F= -.30394221E+03 E0= -.30398852E+03  d E =0.123691E-09
       N       E                     dE             d eps       ncg     rms          rms(c)
DAV:   1    -0.303942205350E+03   -0.15280E-08   -0.83436E-11   294   0.302E-10    0.259E-10
RMM:   2    -0.303942205350E+03    0.49477E-09    0.00000E+00     1   0.114E-10
 132 F= -.30394221E+03 E0= -.30398852E+03  d E =-.109139E-09
       N       E                     dE             d eps       ncg     rms          rms(c)
DAV:   1    -0.303942205350E+03    0.17462E-09    0.73744E-11   294   0.309E-10    0.377E-10
RMM:   2    -0.303942205350E+03    0.40745E-09    0.00000E+00     1   0.111E-10
 133 F= -.30394221E+03 E0= -.30398852E+03  d E =0.873115E-10
       N       E                     dE             d eps       ncg     rms          rms(c)
DAV:   1    -0.303942205349E+03    0.84401E-09   -0.12176E-10   294   0.315E-10    0.259E-10
RMM:   2    -0.303942205350E+03   -0.48749E-09    0.00000E+00     1   0.984E-11
 134 F= -.30394221E+03 E0= -.30398852E+03  d E =-.509317E-10
       N       E                     dE             d eps       ncg     rms          rms(c)
DAV:   1    -0.303942205351E+03   -0.20736E-08    0.60939E-11   294   0.318E-10    0.263E-10
RMM:   2    -0.303942205350E+03    0.15352E-08    0.00000E+00     1   0.896E-11
 135 F= -.30394221E+03 E0= -.30398852E+03  d E =-.509317E-10
       N       E                     dE             d eps       ncg     rms          rms(c)
DAV:   1    -0.303942205351E+03    0.54570E-09   -0.67240E-11   294   0.287E-10    0.169E-10
RMM:   2    -0.303942205350E+03    0.10987E-08    0.00000E+00     1   0.842E-11
 136 F= -.30394221E+03 E0= -.30398852E+03  d E =0.109139E-09
       N       E                     dE             d eps       ncg     rms          rms(c)
DAV:   1    -0.303942205351E+03    0.13097E-09    0.78524E-12   294   0.179E-10    0.311E-10
RMM:   2    -0.303942205350E+03    0.91677E-09    0.00000E+00     1   0.847E-11
 137 F= -.30394221E+03 E0= -.30398852E+03  d E =-.509317E-10
       N       E                     dE             d eps       ncg     rms          rms(c)
DAV:   1    -0.303942205350E+03    0.16735E-09    0.14706E-11   294   0.229E-10    0.236E-10
RMM:   2    -0.303942205350E+03    0.81491E-09    0.00000E+00     1   0.954E-11
 138 F= -.30394221E+03 E0= -.30398852E+03  d E =0.654836E-10
       N       E                     dE             d eps       ncg     rms          rms(c)
DAV:   1    -0.303942205350E+03    0.13097E-09   -0.33595E-11   294   0.304E-10    0.241E-10
RMM:   2    -0.303942205350E+03    0.58935E-09    0.00000E+00     1   0.932E-11
 139 F= -.30394221E+03 E0= -.30398852E+03  d E =-.945874E-10
       N       E                     dE             d eps       ncg     rms          rms(c)
DAV:   1    -0.303942205349E+03    0.80763E-09   -0.45283E-13   294   0.222E-10    0.203E-10
RMM:   2    -0.303942205350E+03   -0.16007E-09    0.00000E+00     1   0.852E-11
 140 F= -.30394221E+03 E0= -.30398852E+03  d E =0.582077E-10
       N       E                     dE             d eps       ncg     rms          rms(c)
DAV:   1    -0.303942205350E+03   -0.56752E-09   -0.15486E-10   294   0.209E-10    0.269E-10
RMM:   2    -0.303942205350E+03    0.38563E-09    0.00000E+00     1   0.104E-10
 141 F= -.30394221E+03 E0= -.30398852E+03  d E =-.218279E-10
       N       E                     dE             d eps       ncg     rms          rms(c)
DAV:   1    -0.303942205349E+03    0.11205E-08    0.24242E-10   294   0.300E-10    0.211E-10
RMM:   2    -0.303942205350E+03   -0.77125E-09    0.00000E+00     1   0.946E-11
 142 F= -.30394221E+03 E0= -.30398852E+03  d E =-.363798E-10
       N       E                     dE             d eps       ncg     rms          rms(c)
DAV:   1    -0.303942205349E+03   -0.34197E-09    0.23042E-11   294   0.195E-10    0.210E-10
RMM:   2    -0.303942205350E+03   -0.33469E-09    0.00000E+00     1   0.779E-11
 143 F= -.30394221E+03 E0= -.30398852E+03  d E =0.945874E-10
       N       E                     dE             d eps       ncg     rms          rms(c)
DAV:   1    -0.303942205350E+03   -0.98953E-09   -0.12908E-10   294   0.211E-10    0.349E-10
RMM:   2    -0.303942205350E+03    0.56025E-09    0.00000E+00     1   0.114E-10
 144 F= -.30394221E+03 E0= -.30398852E+03  d E =-.945874E-10
       N       E                     dE             d eps       ncg     rms          rms(c)
DAV:   1    -0.303942205351E+03   -0.54570E-09   -0.11010E-10   294   0.365E-10    0.184E-10
RMM:   2    -0.303942205350E+03    0.11714E-08    0.00000E+00     1   0.680E-11
 145 F= -.30394221E+03 E0= -.30398852E+03  d E =0.654836E-10
       N       E                     dE             d eps       ncg     rms          rms(c)
DAV:   1    -0.303942205349E+03    0.15934E-08   -0.18627E-10   294   0.147E-10    0.249E-10
RMM:   2    -0.303942205350E+03   -0.48021E-09    0.00000E+00     1   0.730E-11
 146 F= -.30394221E+03 E0= -.30398852E+03  d E =-.582077E-10
       N       E                     dE             d eps       ncg     rms          rms(c)
DAV:   1    -0.303942205350E+03   -0.62573E-09    0.20148E-10   294   0.125E-10    0.214E-10
RMM:   2    -0.303942205350E+03    0.36380E-10    0.00000E+00     1   0.694E-11
 147 F= -.30394221E+03 E0= -.30398852E+03  d E =-.109139E-09
       N       E                     dE             d eps       ncg     rms          rms(c)
DAV:   1    -0.303942205349E+03    0.98953E-09    0.13738E-10   294   0.177E-10    0.206E-10
RMM:   2    -0.303942205350E+03   -0.85129E-09    0.00000E+00     1   0.760E-11
 148 F= -.30394221E+03 E0= -.30398852E+03  d E =0.101863E-09
       N       E                     dE             d eps       ncg     rms          rms(c)
DAV:   1    -0.303942205350E+03   -0.12005E-08   -0.40780E-11   294   0.173E-10    0.214E-10
RMM:   2    -0.303942205350E+03    0.32742E-09    0.00000E+00     1   0.970E-11
 149 F= -.30394221E+03 E0= -.30398852E+03  d E =-.218279E-10
       N       E                     dE             d eps       ncg     rms          rms(c)
DAV:   1    -0.303942205349E+03    0.84401E-09   -0.72750E-11   294   0.233E-10    0.159E-10
RMM:   2    -0.303942205350E+03   -0.45839E-09    0.00000E+00     1   0.647E-11
 150 F= -.30394221E+03 E0= -.30398852E+03  d E =0.582077E-10
       N       E                     dE             d eps       ncg     rms          rms(c)
DAV:   1    -0.303942205350E+03   -0.12806E-08   -0.15834E-10   294   0.128E-10    0.235E-10
RMM:   2    -0.303942205350E+03    0.84401E-09    0.00000E+00     1   0.835E-11
 151 F= -.30394221E+03 E0= -.30398852E+03  d E =0.218279E-10
       N       E                     dE             d eps       ncg     rms          rms(c)
DAV:   1    -0.303942205350E+03    0.77853E-09   -0.18143E-10   294   0.196E-10    0.245E-10
RMM:   2    -0.303942205350E+03   -0.29104E-10    0.00000E+00     1   0.718E-11
 152 F= -.30394221E+03 E0= -.30398852E+03  d E =-.945874E-10
       N       E                     dE             d eps       ncg     rms          rms(c)
DAV:   1    -0.303942205349E+03    0.38563E-09   -0.10354E-10   294   0.122E-10    0.274E-10
RMM:   2    -0.303942205350E+03   -0.34197E-09    0.00000E+00     1   0.806E-11
 153 F= -.30394221E+03 E0= -.30398852E+03  d E =0.727596E-10
       N       E                     dE             d eps       ncg     rms          rms(c)
DAV:   1    -0.303942205350E+03   -0.11933E-08   -0.23387E-12   294   0.246E-10    0.253E-10
RMM:   2    -0.303942205350E+03    0.87311E-09    0.00000E+00     1   0.890E-11
 154 F= -.30394221E+03 E0= -.30398852E+03  d E =0.218279E-10
       N       E                     dE             d eps       ncg     rms          rms(c)
DAV:   1    -0.303942205349E+03    0.12806E-08   -0.50713E-11   294   0.220E-10    0.174E-10
RMM:   2    -0.303942205350E+03   -0.53842E-09    0.00000E+00     1   0.834E-11
 155 F= -.30394221E+03 E0= -.30398852E+03  d E =-.130967E-09
       N       E                     dE             d eps       ncg     rms          rms(c)
DAV:   1    -0.303942205347E+03    0.18845E-08   -0.25077E-10   294   0.166E-10    0.244E-10
RMM:   2    -0.303942205350E+03   -0.23356E-08    0.00000E+00     1   0.100E-10
 156 F= -.30394221E+03 E0= -.30398852E+03  d E =0.873115E-10
       N       E                     dE             d eps       ncg     rms          rms(c)
DAV:   1    -0.303942205349E+03   -0.13606E-08   -0.35124E-12   294   0.284E-10    0.349E-10
RMM:   2    -0.303942205350E+03   -0.98953E-09    0.00000E+00     1   0.119E-10
 157 F= -.30394221E+03 E0= -.30398852E+03  d E =-.145519E-10
       N       E                     dE             d eps       ncg     rms          rms(c)
DAV:   1    -0.303942205350E+03   -0.15280E-08    0.29928E-12   294   0.351E-10    0.254E-10
RMM:   2    -0.303942205350E+03    0.57480E-09    0.00000E+00     1   0.883E-11
 158 F= -.30394221E+03 E0= -.30398852E+03  d E =0.363798E-10
       N       E                     dE             d eps       ncg     rms          rms(c)
DAV:   1    -0.303942205350E+03    0.53842E-09    0.38475E-11   294   0.255E-10    0.252E-10
RMM:   2    -0.303942205350E+03   -0.72760E-11    0.00000E+00     1   0.119E-10
 159 F= -.30394221E+03 E0= -.30398852E+03  d E =-.436557E-10
       N       E                     dE             d eps       ncg     rms          rms(c)
DAV:   1    -0.303942205350E+03   -0.23283E-09   -0.36427E-11   294   0.360E-10    0.233E-10
RMM:   2    -0.303942205350E+03    0.36380E-09    0.00000E+00     1   0.964E-11
 160 F= -.30394221E+03 E0= -.30398852E+03  d E =0.138243E-09
       N       E                     dE             d eps       ncg     rms          rms(c)
DAV:   1    -0.303942205351E+03   -0.91677E-09   -0.19641E-10   294   0.260E-10    0.168E-10
RMM:   2    -0.303942205350E+03    0.11278E-08    0.00000E+00     1   0.697E-11
 161 F= -.30394221E+03 E0= -.30398852E+03  d E =-.152795E-09
       N       E                     dE             d eps       ncg     rms          rms(c)
DAV:   1    -0.303942205350E+03    0.72760E-09   -0.93867E-11   294   0.143E-10    0.271E-10
RMM:   2    -0.303942205350E+03    0.38563E-09    0.00000E+00     1   0.691E-11
 162 F= -.30394221E+03 E0= -.30398852E+03  d E =-.145519E-10
       N       E                     dE             d eps       ncg     rms          rms(c)
DAV:   1    -0.303942205349E+03    0.97498E-09    0.92904E-13   294   0.129E-10    0.309E-10
RMM:   2    -0.303942205350E+03   -0.53114E-09    0.00000E+00     1   0.795E-11
 163 F= -.30394221E+03 E0= -.30398852E+03  d E =0.582077E-10
       N       E                     dE             d eps       ncg     rms          rms(c)
DAV:   1    -0.303942205349E+03   -0.16735E-09   -0.56930E-12   294   0.295E-10    0.198E-10
RMM:   2    -0.303942205350E+03   -0.37107E-09    0.00000E+00     1   0.654E-11
 164 F= -.30394221E+03 E0= -.30398852E+03  d E =-.727596E-11
       N       E                     dE             d eps       ncg     rms          rms(c)
DAV:   1    -0.303942205351E+03   -0.17608E-08    0.11269E-10   294   0.176E-10    0.243E-10
RMM:   2    -0.303942205350E+03    0.13461E-08    0.00000E+00     1   0.868E-11
 165 F= -.30394221E+03 E0= -.30398852E+03  d E =-.436557E-10
       N       E                     dE             d eps       ncg     rms          rms(c)
DAV:   1    -0.303942205351E+03    0.11642E-09   -0.36336E-11   294   0.248E-10    0.327E-10
RMM:   2    -0.303942205350E+03    0.12442E-08    0.00000E+00     1   0.112E-10
 166 F= -.30394221E+03 E0= -.30398852E+03  d E =0.145519E-10
       N       E                     dE             d eps       ncg     rms          rms(c)
DAV:   1    -0.303942205350E+03    0.14043E-08    0.80461E-11   294   0.363E-10    0.219E-10
RMM:   2    -0.303942205350E+03   -0.50932E-10    0.00000E+00     1   0.821E-11
 167 F= -.30394221E+03 E0= -.30398852E+03  d E =0.109139E-09
       N       E                     dE             d eps       ncg     rms          rms(c)
DAV:   1    -0.303942205349E+03    0.48021E-09   -0.11188E-10   294   0.229E-10    0.277E-10
RMM:   2    -0.303942205350E+03   -0.57480E-09    0.00000E+00     1   0.890E-11
 168 F= -.30394221E+03 E0= -.30398852E+03  d E =-.436557E-10
       N       E                     dE             d eps       ncg     rms          rms(c)
DAV:   1    -0.303942205350E+03   -0.95315E-09   -0.48670E-11   294   0.219E-10    0.223E-10
RMM:   2    -0.303942205350E+03    0.41473E-09    0.00000E+00     1   0.856E-11
 169 F= -.30394221E+03 E0= -.30398852E+03  d E =0.363798E-10
       N       E                     dE             d eps       ncg     rms          rms(c)
DAV:   1    -0.303942205350E+03    0.15280E-09    0.36294E-11   294   0.247E-10    0.247E-10
RMM:   2    -0.303942205350E+03    0.21828E-09    0.00000E+00     1   0.907E-11
 170 F= -.30394221E+03 E0= -.30398852E+03  d E =-.436557E-10
       N       E                     dE             d eps       ncg     rms          rms(c)
DAV:   1    -0.303942205350E+03   -0.33469E-09   -0.11219E-10   294   0.188E-10    0.291E-10
RMM:   2    -0.303942205350E+03    0.51659E-09    0.00000E+00     1   0.816E-11
 171 F= -.30394221E+03 E0= -.30398852E+03  d E =-.363798E-10
       N       E                     dE             d eps       ncg     rms          rms(c)
DAV:   1    -0.303942205350E+03    0.24738E-09   -0.18017E-10   294   0.255E-10    0.164E-10
RMM:   2    -0.303942205350E+03    0.24738E-09    0.00000E+00     1   0.702E-11
 172 F= -.30394221E+03 E0= -.30398852E+03  d E =-.218279E-10
       N       E                     dE             d eps       ncg     rms          rms(c)
DAV:   1    -0.303942205350E+03    0.43656E-10    0.17042E-11   294   0.117E-10    0.229E-10
RMM:   2    -0.303942205350E+03    0.29831E-09    0.00000E+00     1   0.657E-11
 173 F= -.30394221E+03 E0= -.30398852E+03  d E =0.945874E-10
       N       E                     dE             d eps       ncg     rms          rms(c)
DAV:   1    -0.303942205348E+03    0.16880E-08   -0.73723E-11   294   0.251E-10    0.177E-10
RMM:   2    -0.303942205350E+03   -0.14770E-08    0.00000E+00     1   0.680E-11
 174 F= -.30394221E+03 E0= -.30398852E+03  d E =-.873115E-10
       N       E                     dE             d eps       ncg     rms          rms(c)
DAV:   1    -0.303942205349E+03   -0.77853E-09   -0.58431E-12   294   0.174E-10    0.260E-10
RMM:   2    -0.303942205350E+03   -0.72760E-09    0.00000E+00     1   0.789E-11
 175 F= -.30394221E+03 E0= -.30398852E+03  d E =-.291038E-10
       N       E                     dE             d eps       ncg     rms          rms(c)
DAV:   1    -0.303942205349E+03    0.11642E-09    0.60964E-11   294   0.169E-10    0.283E-10
RMM:   2    -0.303942205350E+03   -0.82946E-09    0.00000E+00     1   0.765E-11
 176 F= -.30394221E+03 E0= -.30398852E+03  d E =0.145519E-10
       N       E                     dE             d eps       ncg     rms          rms(c)
DAV:   1    -0.303942205350E+03   -0.73487E-09    0.49942E-11   294   0.244E-10    0.210E-10
RMM:   2    -0.303942205350E+03   -0.65484E-10    0.00000E+00     1   0.744E-11
 177 F= -.30394221E+03 E0= -.30398852E+03  d E =0.291038E-10
       N       E                     dE             d eps       ncg     rms          rms(c)
DAV:   1    -0.303942205349E+03    0.23283E-09   -0.11280E-10   294   0.262E-10    0.231E-10
RMM:   2    -0.303942205350E+03   -0.34197E-09    0.00000E+00     1   0.802E-11
 178 F= -.30394221E+03 E0= -.30398852E+03  d E =-.436557E-10
       N       E                     dE             d eps       ncg     rms          rms(c)
DAV:   1    -0.303942205348E+03    0.96043E-09   -0.11346E-10   294   0.274E-10    0.143E-10
RMM:   2    -0.303942205350E+03   -0.12151E-08    0.00000E+00     1   0.726E-11
 179 F= -.30394221E+03 E0= -.30398852E+03  d E =0.873115E-10
       N       E                     dE             d eps       ncg     rms          rms(c)
DAV:   1    -0.303942205349E+03   -0.87311E-09    0.66279E-11   294   0.179E-10    0.277E-10
RMM:   2    -0.303942205350E+03   -0.48021E-09    0.00000E+00     1   0.829E-11
 180 F= -.30394221E+03 E0= -.30398852E+03  d E =-.138243E-09
       N       E                     dE             d eps       ncg     rms          rms(c)
DAV:   1    -0.303942205349E+03    0.48021E-09    0.66964E-11   294   0.176E-10    0.284E-10
RMM:   2    -0.303942205350E+03   -0.82218E-09    0.00000E+00     1   0.782E-11
 181 F= -.30394221E+03 E0= -.30398852E+03  d E =0.138243E-09
       N       E                     dE             d eps       ncg     rms          rms(c)
DAV:   1    -0.303942205351E+03   -0.20300E-08    0.20037E-11   294   0.257E-10    0.229E-10
RMM:   2    -0.303942205350E+03    0.12151E-08    0.00000E+00     1   0.785E-11
 182 F= -.30394221E+03 E0= -.30398852E+03  d E =0.727596E-11
       N       E                     dE             d eps       ncg     rms          rms(c)
DAV:   1    -0.303942205349E+03    0.17535E-08   -0.14497E-11   294   0.186E-10    0.330E-10
RMM:   2    -0.303942205350E+03   -0.61118E-09    0.00000E+00     1   0.944E-11
 183 F= -.30394221E+03 E0= -.30398852E+03  d E =-.727596E-10
       N       E                     dE             d eps       ncg     rms          rms(c)
DAV:   1    -0.303942205349E+03   -0.18190E-09    0.75362E-11   294   0.332E-10    0.303E-10
RMM:   2    -0.303942205350E+03   -0.48021E-09    0.00000E+00     1   0.842E-11
 184 F= -.30394221E+03 E0= -.30398852E+03  d E =-.509317E-10
       N       E                     dE             d eps       ncg     rms          rms(c)
DAV:   1    -0.303942205350E+03   -0.61118E-09    0.18765E-10   294   0.310E-10    0.210E-10
RMM:   2    -0.303942205350E+03    0.29831E-09    0.00000E+00     1   0.823E-11
 185 F= -.30394221E+03 E0= -.30398852E+03  d E =0.167347E-09
       N       E                     dE             d eps       ncg     rms          rms(c)
DAV:   1    -0.303942205349E+03    0.87311E-09   -0.21813E-10   294   0.224E-10    0.251E-10
RMM:   2    -0.303942205350E+03   -0.66211E-09    0.00000E+00     1   0.910E-11
 186 F= -.30394221E+03 E0= -.30398852E+03  d E =-.873115E-10
       N       E                     dE             d eps       ncg     rms          rms(c)
DAV:   1    -0.303942205350E+03   -0.10623E-08    0.82824E-11   294   0.292E-10    0.167E-10
RMM:   2    -0.303942205350E+03    0.39290E-09    0.00000E+00     1   0.885E-11
 187 F= -.30394221E+03 E0= -.30398852E+03  d E =-.727596E-11
       N       E                     dE             d eps       ncg     rms          rms(c)
DAV:   1    -0.303942205349E+03    0.10623E-08    0.19580E-10   294   0.177E-10    0.256E-10
RMM:   2    -0.303942205350E+03   -0.75670E-09    0.00000E+00     1   0.755E-11
 188 F= -.30394221E+03 E0= -.30398852E+03  d E =-.873115E-10
       N       E                     dE             d eps       ncg     rms          rms(c)
DAV:   1    -0.303942205351E+03   -0.22992E-08    0.18101E-10   294   0.158E-10    0.246E-10
RMM:   2    -0.303942205350E+03    0.16153E-08    0.00000E+00     1   0.815E-11
 189 F= -.30394221E+03 E0= -.30398852E+03  d E =0.727596E-10
       N       E                     dE             d eps       ncg     rms          rms(c)
DAV:   1    -0.303942205350E+03    0.13897E-08    0.11428E-10   294   0.230E-10    0.190E-10
RMM:   2    -0.303942205350E+03    0.30559E-09    0.00000E+00     1   0.761E-11
 190 F= -.30394221E+03 E0= -.30398852E+03  d E =0.800355E-10
       N       E                     dE             d eps       ncg     rms          rms(c)
DAV:   1    -0.303942205350E+03   -0.46566E-09    0.30109E-11   294   0.199E-10    0.157E-10
RMM:   2    -0.303942205350E+03    0.73487E-09    0.00000E+00     1   0.743E-11
 191 F= -.30394221E+03 E0= -.30398852E+03  d E =-.363798E-10
       N       E                     dE             d eps       ncg     rms          rms(c)
DAV:   1    -0.303942205350E+03    0.14552E-09   -0.68567E-11   294   0.136E-10    0.279E-10
RMM:   2    -0.303942205350E+03    0.55297E-09    0.00000E+00     1   0.860E-11
 192 F= -.30394221E+03 E0= -.30398852E+03  d E =-.363798E-10
       N       E                     dE             d eps       ncg     rms          rms(c)
DAV:   1    -0.303942205351E+03   -0.47294E-09   -0.62187E-11   294   0.288E-10    0.283E-10
RMM:   2    -0.303942205350E+03    0.10914E-08    0.00000E+00     1   0.111E-10
 193 F= -.30394221E+03 E0= -.30398852E+03  d E =0.654836E-10
       N       E                     dE             d eps       ncg     rms          rms(c)
DAV:   1    -0.303942205350E+03    0.11714E-08   -0.66089E-11   294   0.347E-10    0.250E-10
RMM:   2    -0.303942205350E+03   -0.11642E-09    0.00000E+00     1   0.728E-11
 194 F= -.30394221E+03 E0= -.30398852E+03  d E =-.363798E-10
       N       E                     dE             d eps       ncg     rms          rms(c)
DAV:   1    -0.303942205349E+03    0.33469E-09   -0.56133E-11   294   0.119E-10    0.327E-10
RMM:   2    -0.303942205350E+03   -0.46566E-09    0.00000E+00     1   0.842E-11
 195 F= -.30394221E+03 E0= -.30398852E+03  d E =-.145519E-10
       N       E                     dE             d eps       ncg     rms          rms(c)
DAV:   1    -0.303942205349E+03   -0.27649E-09   -0.24951E-13   294   0.263E-10    0.170E-10
RMM:   2    -0.303942205350E+03   -0.11642E-09    0.00000E+00     1   0.781E-11
 196 F= -.30394221E+03 E0= -.30398852E+03  d E =0.727596E-10
       N       E                     dE             d eps       ncg     rms          rms(c)
DAV:   1    -0.303942205349E+03    0.42928E-09   -0.79171E-11   294   0.185E-10    0.252E-10
RMM:   2    -0.303942205350E+03   -0.74215E-09    0.00000E+00     1   0.793E-11
 197 F= -.30394221E+03 E0= -.30398852E+03  d E =-.196451E-09
       N       E                     dE             d eps       ncg     rms          rms(c)
DAV:   1    -0.303942205349E+03   -0.44383E-09   -0.25345E-11   294   0.179E-10    0.265E-10
RMM:   2    -0.303942205350E+03   -0.15280E-09    0.00000E+00     1   0.865E-11
 198 F= -.30394221E+03 E0= -.30398852E+03  d E =0.145519E-09
       N       E                     dE             d eps       ncg     rms          rms(c)
DAV:   1    -0.303942205348E+03    0.10405E-08   -0.24124E-11   294   0.223E-10    0.189E-10
RMM:   2    -0.303942205350E+03   -0.11787E-08    0.00000E+00     1   0.818E-11
 199 F= -.30394221E+03 E0= -.30398852E+03  d E =0.145519E-10
       N       E                     dE             d eps       ncg     rms          rms(c)
DAV:   1    -0.303942205350E+03   -0.15571E-08   -0.16479E-11   294   0.211E-10    0.288E-10
RMM:   2    -0.303942205350E+03    0.42928E-09    0.00000E+00     1   0.970E-11
 200 F= -.30394221E+03 E0= -.30398852E+03  d E =0.509317E-10
       N       E                     dE             d eps       ncg     rms          rms(c)
DAV:   1    -0.303942205349E+03    0.91677E-09   -0.50294E-11   294   0.116E-10    0.323E-10
RMM:   2    -0.303942205350E+03   -0.64756E-09    0.00000E+00     1   0.814E-11
 201 F= -.30394221E+03 E0= -.30398852E+03  d E =-.160071E-09
       N       E                     dE             d eps       ncg     rms          rms(c)
DAV:   1    -0.303942205351E+03   -0.15134E-08    0.31035E-11   294   0.226E-10    0.210E-10
RMM:   2    -0.303942205350E+03    0.96770E-09    0.00000E+00     1   0.749E-11
 202 F= -.30394221E+03 E0= -.30398852E+03  d E =0.101863E-09
       N       E                     dE             d eps       ncg     rms          rms(c)
DAV:   1    -0.303942205350E+03    0.41473E-09    0.33604E-11   294   0.175E-10    0.260E-10
RMM:   2    -0.303942205350E+03    0.52387E-09    0.00000E+00     1   0.102E-10
 203 F= -.30394221E+03 E0= -.30398852E+03  d E =-.291038E-10
       N       E                     dE             d eps       ncg     rms          rms(c)
DAV:   1    -0.303942205349E+03    0.13752E-08    0.62675E-12   294   0.347E-10    0.262E-10
RMM:   2    -0.303942205350E+03   -0.87311E-09    0.00000E+00     1   0.972E-11
 204 F= -.30394221E+03 E0= -.30398852E+03  d E =-.218279E-10
       N       E                     dE             d eps       ncg     rms          rms(c)
DAV:   1    -0.303942205350E+03   -0.11787E-08   -0.36416E-11   294   0.218E-10    0.181E-10
RMM:   2    -0.303942205350E+03    0.24738E-09    0.00000E+00     0   0.728E-11
 205 F= -.30394221E+03 E0= -.30398852E+03  d E =-.582077E-10
       N       E                     dE             d eps       ncg     rms          rms(c)
DAV:   1    -0.303942205351E+03   -0.53842E-09   -0.10296E-10   294   0.196E-10    0.220E-10
RMM:   2    -0.303942205350E+03    0.77125E-09    0.00000E+00     1   0.838E-11
 206 F= -.30394221E+03 E0= -.30398852E+03  d E =-.145519E-10
       N       E                     dE             d eps       ncg     rms          rms(c)
DAV:   1    -0.303942205350E+03    0.97498E-09    0.67769E-11   294   0.110E-10    0.297E-10
RMM:   2    -0.303942205350E+03   -0.94587E-10    0.00000E+00     1   0.988E-11
 207 F= -.30394221E+03 E0= -.30398852E+03  d E =0.109139E-09
       N       E                     dE             d eps       ncg     rms          rms(c)
DAV:   1    -0.303942205349E+03    0.66939E-09    0.69864E-11   294   0.281E-10    0.199E-10
RMM:   2    -0.303942205350E+03   -0.80036E-09    0.00000E+00     0   0.781E-11
 208 F= -.30394221E+03 E0= -.30398852E+03  d E =-.363798E-10
       N       E                     dE             d eps       ncg     rms          rms(c)
DAV:   1    -0.303942205350E+03   -0.83674E-09   -0.68461E-11   294   0.187E-10    0.208E-10
RMM:   2    -0.303942205350E+03    0.36380E-10    0.00000E+00     1   0.776E-11
 209 F= -.30394221E+03 E0= -.30398852E+03  d E =0.000000E+00
       N       E                     dE             d eps       ncg     rms          rms(c)
DAV:   1    -0.303942205350E+03   -0.53114E-09   -0.30174E-11   294   0.254E-10    0.213E-10
RMM:   2    -0.303942205350E+03    0.63301E-09    0.00000E+00     1   0.857E-11
 210 F= -.30394221E+03 E0= -.30398852E+03  d E =0.654836E-10
       N       E                     dE             d eps       ncg     rms          rms(c)
DAV:   1    -0.303942205350E+03    0.24011E-09   -0.36550E-11   294   0.189E-10    0.341E-10
RMM:   2    -0.303942205350E+03    0.35652E-09    0.00000E+00     1   0.996E-11
 211 F= -.30394221E+03 E0= -.30398852E+03  d E =-.363798E-10
       N       E                     dE             d eps       ncg     rms          rms(c)
DAV:   1    -0.303942205350E+03   -0.18190E-09   -0.12027E-10   294   0.304E-10    0.271E-10
RMM:   2    -0.303942205350E+03    0.58935E-09    0.00000E+00     1   0.107E-10
 212 F= -.30394221E+03 E0= -.30398852E+03  d E =0.509317E-10
       N       E                     dE             d eps       ncg     rms          rms(c)
DAV:   1    -0.303942205350E+03    0.45839E-09   -0.39421E-11   294   0.295E-10    0.205E-10
RMM:   2    -0.303942205350E+03    0.87311E-10    0.00000E+00     1   0.762E-11
 213 F= -.30394221E+03 E0= -.30398852E+03  d E =-.436557E-10
       N       E                     dE             d eps       ncg     rms          rms(c)
DAV:   1    -0.303942205349E+03    0.67666E-09    0.26008E-11   294   0.193E-10    0.335E-10
RMM:   2    -0.303942205350E+03   -0.56752E-09    0.00000E+00     1   0.851E-11
 214 F= -.30394221E+03 E0= -.30398852E+03  d E =0.218279E-10
       N       E                     dE             d eps       ncg     rms          rms(c)
DAV:   1    -0.303942205350E+03   -0.10987E-08   -0.45914E-11   294   0.227E-10    0.253E-10
RMM:   2    -0.303942205350E+03    0.45839E-09    0.00000E+00     0   0.882E-11
 215 F= -.30394221E+03 E0= -.30398852E+03  d E =-.727596E-10
       N       E                     dE             d eps       ncg     rms          rms(c)
DAV:   1    -0.303942205350E+03    0.59663E-09    0.10076E-10   294   0.306E-10    0.384E-10
RMM:   2    -0.303942205350E+03   -0.11642E-09    0.00000E+00     1   0.101E-10
 216 F= -.30394221E+03 E0= -.30398852E+03  d E =0.218279E-10
       N       E                     dE             d eps       ncg     rms          rms(c)
DAV:   1    -0.303942205350E+03   -0.26921E-09    0.16463E-11   294   0.305E-10    0.266E-10
RMM:   2    -0.303942205350E+03    0.15280E-09    0.00000E+00     1   0.996E-11
 217 F= -.30394221E+03 E0= -.30398852E+03  d E =0.000000E+00
       N       E                     dE             d eps       ncg     rms          rms(c)
DAV:   1    -0.303942205350E+03    0.17462E-09    0.10382E-10   294   0.358E-10    0.168E-10
RMM:   2    -0.303942205350E+03   -0.65484E-10    0.00000E+00     0   0.925E-11
 218 F= -.30394221E+03 E0= -.30398852E+03  d E =-.436557E-10
       N       E                     dE             d eps       ncg     rms          rms(c)
DAV:   1    -0.303942205349E+03    0.37107E-09    0.56324E-11   294   0.238E-10    0.201E-10
RMM:   2    -0.303942205350E+03   -0.34925E-09    0.00000E+00     1   0.905E-11
 219 F= -.30394221E+03 E0= -.30398852E+03  d E =0.873115E-10
       N       E                     dE             d eps       ncg     rms          rms(c)
DAV:   1    -0.303942205350E+03   -0.33469E-09   -0.75498E-11   294   0.155E-10    0.270E-10
RMM:   2    -0.303942205350E+03    0.36380E-10    0.00000E+00     1   0.918E-11
 220 F= -.30394221E+03 E0= -.30398852E+03  d E =0.509317E-10
       N       E                     dE             d eps       ncg     rms          rms(c)
DAV:   1    -0.303942205349E+03    0.10768E-08   -0.68462E-11   294   0.211E-10    0.216E-10
RMM:   2    -0.303942205350E+03   -0.12005E-08    0.00000E+00     0   0.770E-11
 221 F= -.30394221E+03 E0= -.30398852E+03  d E =-.160071E-09
       N       E                     dE             d eps       ncg     rms          rms(c)
DAV:   1    -0.303942205350E+03   -0.13679E-08    0.11518E-11   294   0.226E-10    0.132E-10
RMM:   2    -0.303942205350E+03    0.29831E-09    0.00000E+00     1   0.817E-11
 222 F= -.30394221E+03 E0= -.30398852E+03  d E =0.130967E-09
       N       E                     dE             d eps       ncg     rms          rms(c)
DAV:   1    -0.303942205348E+03    0.20373E-08    0.76621E-11   294   0.131E-10    0.290E-10
RMM:   2    -0.303942205350E+03   -0.18117E-08    0.00000E+00     1   0.875E-11
 223 F= -.30394221E+03 E0= -.30398852E+03  d E =-.727596E-10
       N       E                     dE             d eps       ncg     rms          rms(c)
DAV:   1    -0.303942205350E+03   -0.25684E-08    0.14633E-10   294   0.202E-10    0.235E-10
RMM:   2    -0.303942205350E+03    0.79308E-09    0.00000E+00     0   0.761E-11
 224 F= -.30394221E+03 E0= -.30398852E+03  d E =0.363798E-10
       N       E                     dE             d eps       ncg     rms          rms(c)
DAV:   1    -0.303942205350E+03   -0.36380E-10   -0.13400E-10   294   0.187E-10    0.247E-10
RMM:   2    -0.303942205350E+03    0.69849E-09    0.00000E+00     1   0.806E-11
 225 F= -.30394221E+03 E0= -.30398852E+03  d E =-.130967E-09
       N       E                     dE             d eps       ncg     rms          rms(c)
DAV:   1    -0.303942205349E+03    0.17317E-08    0.15347E-10   294   0.111E-10    0.326E-10
RMM:   2    -0.303942205350E+03   -0.10405E-08    0.00000E+00     1   0.783E-11
 226 F= -.30394221E+03 E0= -.30398852E+03  d E =-.727596E-11
       N       E                     dE             d eps       ncg     rms          rms(c)
DAV:   1    -0.303942205350E+03   -0.81491E-09    0.42217E-11   294   0.262E-10    0.239E-10
RMM:   2    -0.303942205350E+03   -0.16007E-09    0.00000E+00     0   0.794E-11
 227 F= -.30394221E+03 E0= -.30398852E+03  d E =0.654836E-10
       N       E                     dE             d eps       ncg     rms          rms(c)
DAV:   1    -0.303942205349E+03    0.42201E-09    0.10002E-10   294   0.255E-10    0.337E-10
RMM:   2    -0.303942205350E+03   -0.47294E-09    0.00000E+00     0   0.901E-11
 228 F= -.30394221E+03 E0= -.30398852E+03  d E =0.109139E-09
       N       E                     dE             d eps       ncg     rms          rms(c)
DAV:   1    -0.303942205350E+03   -0.42201E-09   -0.41826E-11   294   0.236E-10    0.299E-10
RMM:   2    -0.303942205350E+03   -0.43656E-10    0.00000E+00     0   0.101E-10
 229 F= -.30394221E+03 E0= -.30398852E+03  d E =0.727596E-11
       N       E                     dE             d eps       ncg     rms          rms(c)
DAV:   1    -0.303942205350E+03   -0.55297E-09    0.98585E-12   294   0.344E-10    0.242E-10
RMM:   2    -0.303942205350E+03    0.40018E-09    0.00000E+00     0   0.891E-11
 230 F= -.30394221E+03 E0= -.30398852E+03  d E =-.109139E-09
       N       E                     dE             d eps       ncg     rms          rms(c)
DAV:   1    -0.303942205350E+03    0.35652E-09    0.10670E-10   294   0.259E-10    0.241E-10
RMM:   2    -0.303942205350E+03    0.72760E-10    0.00000E+00     0   0.999E-11
 231 F= -.30394221E+03 E0= -.30398852E+03  d E =0.291038E-10
       N       E                     dE             d eps       ncg     rms          rms(c)
DAV:   1    -0.303942205350E+03    0.21828E-10    0.56472E-11   294   0.327E-10    0.203E-10
RMM:   2    -0.303942205350E+03    0.18917E-09    0.00000E+00     0   0.937E-11
 232 F= -.30394221E+03 E0= -.30398852E+03  d E =0.138243E-09
       N       E                     dE             d eps       ncg     rms          rms(c)
DAV:   1    -0.303942205350E+03    0.18190E-09   -0.40632E-11   294   0.192E-10    0.280E-10
RMM:   2    -0.303942205350E+03   -0.65484E-10    0.00000E+00     0   0.827E-11
 233 F= -.30394221E+03 E0= -.30398852E+03  d E =-.727596E-10
       N       E                     dE             d eps       ncg     rms          rms(c)
DAV:   1    -0.303942205350E+03   -0.94587E-10   -0.12130E-10   294   0.123E-10    0.179E-10
RMM:   2    -0.303942205350E+03   -0.50932E-10    0.00000E+00     0   0.552E-11
 234 F= -.30394221E+03 E0= -.30398852E+03  d E =-.800355E-10
       N       E                     dE             d eps       ncg     rms          rms(c)
DAV:   1    -0.303942205351E+03   -0.10550E-08   -0.13240E-11   294   0.136E-10    0.192E-10
RMM:   2    -0.303942205350E+03    0.10623E-08    0.00000E+00     0   0.640E-11
 235 F= -.30394221E+03 E0= -.30398852E+03  d E =0.582077E-10
       N       E                     dE             d eps       ncg     rms          rms(c)
DAV:   1    -0.303942205351E+03   -0.72760E-10    0.20051E-11   294   0.119E-10    0.194E-10
RMM:   2    -0.303942205350E+03    0.11569E-08    0.00000E+00     0   0.631E-11
 236 F= -.30394221E+03 E0= -.30398852E+03  d E =0.218279E-10
       N       E                     dE             d eps       ncg     rms          rms(c)
DAV:   1    -0.303942205350E+03    0.92405E-09   -0.14712E-10   294   0.137E-10    0.262E-10
RMM:   2    -0.303942205350E+03    0.18190E-09    0.00000E+00     0   0.705E-11
 237 F= -.30394221E+03 E0= -.30398852E+03  d E =-.509317E-10
       N       E                     dE             d eps       ncg     rms          rms(c)
DAV:   1    -0.303942205349E+03    0.79308E-09    0.24014E-10   294   0.965E-11    0.242E-10
RMM:   2    -0.303942205350E+03   -0.53842E-09    0.00000E+00     0   0.678E-11
 238 F= -.30394221E+03 E0= -.30398852E+03  d E =0.727596E-10
       N       E                     dE             d eps       ncg     rms          rms(c)
DAV:   1    -0.303942205349E+03   -0.29104E-09    0.28813E-11   294   0.175E-10    0.250E-10
RMM:   2    -0.303942205350E+03   -0.29104E-09    0.00000E+00     0   0.669E-11
 239 F= -.30394221E+03 E0= -.30398852E+03  d E =-.436557E-10
       N       E                     dE             d eps       ncg     rms          rms(c)
DAV:   1    -0.303942205349E+03    0.26193E-09    0.30208E-11   294   0.118E-10    0.207E-10
RMM:   2    -0.303942205350E+03   -0.48749E-09    0.00000E+00     0   0.632E-11
 240 F= -.30394221E+03 E0= -.30398852E+03  d E =0.654836E-10
       N       E                     dE             d eps       ncg     rms          rms(c)
[...]
 439 F= -.30394221E+03 E0= -.30398852E+03  d E =0.436557E-10
       N       E                     dE             d eps       ncg     rms          rms(c)
DAV:   1    -0.303942205350E+03    0.80036E-10   -0.63425E-11   294   0.174E-10    0.279E-10
RMM:   2    -0.303942205350E+03   -0.22555E-09    0.00000E+00     0   0.825E-11
 440 F= -.30394221E+03 E0= -.30398852E+03  d E =-.101863E-09
       N       E                     dE             d eps       ncg     rms          rms(c)
DAV:   1    -0.303942205348E+03    0.10405E-08    0.14695E-10   294   0.128E-10    0.393E-10
RMM:   2    -0.303942205350E+03   -0.11059E-08    0.00000E+00     0   0.104E-10
 441 F= -.30394221E+03 E0= -.30398852E+03  d E =0.160071E-09
       N       E                     dE             d eps       ncg     rms          rms(c)
DAV:   1    -0.303942205350E+03   -0.17972E-08   -0.98105E-11   294   0.258E-10    0.291E-10
RMM:   2    -0.303942205350E+03    0.64756E-09    0.00000E+00     0   0.879E-11
 442 F= -.30394221E+03 E0= -.30398852E+03  d E =-.436557E-10
       N       E                     dE             d eps       ncg     rms          rms(c)
DAV:   1    -0.303942205348E+03    0.20955E-08   -0.68316E-11   294   0.322E-10    0.246E-10
RMM:   2    -0.303942205350E+03   -0.14770E-08    0.00000E+00     0   0.103E-10
 443 F= -.30394221E+03 E0= -.30398852E+03  d E =-.291038E-10
       N       E                     dE             d eps       ncg     rms          rms(c)
DAV:   1    -0.303942205350E+03   -0.14770E-08   -0.85167E-11   294   0.323E-10    0.196E-10
RMM:   2    -0.303942205350E+03   -0.29104E-10    0.00000E+00     0   0.812E-11
 444 F= -.30394221E+03 E0= -.30398852E+03  d E =-.291038E-10
       N       E                     dE             d eps       ncg     rms          rms(c)
DAV:   1    -0.303942205349E+03    0.24738E-09   -0.10827E-10   294   0.198E-10    0.262E-10
RMM:   2    -0.303942205350E+03   -0.26193E-09    0.00000E+00     0   0.679E-11
 445 F= -.30394221E+03 E0= -.30398852E+03  d E =0.145519E-10
       N       E                     dE             d eps       ncg     rms          rms(c)
DAV:   1    -0.303942205349E+03   -0.21828E-10    0.39913E-11   294   0.254E-10    0.233E-10
RMM:   2    -0.303942205350E+03   -0.34925E-09    0.00000E+00     0   0.740E-11
 446 F= -.30394221E+03 E0= -.30398852E+03  d E =-.109139E-09
       N       E                     dE             d eps       ncg     rms          rms(c)
DAV:   1    -0.303942205349E+03    0.91677E-09    0.16119E-10   294   0.144E-10    0.271E-10
RMM:   2    -0.303942205350E+03   -0.11132E-08    0.00000E+00     0   0.826E-11
 447 F= -.30394221E+03 E0= -.30398852E+03  d E =0.152795E-09
       N       E                     dE             d eps       ncg     rms          rms(c)
DAV:   1    -0.303942205350E+03   -0.17171E-08    0.52384E-11   294   0.235E-10    0.245E-10
RMM:   2    -0.303942205350E+03    0.50204E-09    0.00000E+00     0   0.825E-11
 448 F= -.30394221E+03 E0= -.30398852E+03  d E =-.101863E-09
       N       E                     dE             d eps       ncg     rms          rms(c)
DAV:   1    -0.303942205350E+03    0.36380E-09   -0.20537E-10   294   0.295E-10    0.280E-10
RMM:   2    -0.303942205350E+03    0.20373E-09    0.00000E+00     0   0.850E-11
 449 F= -.30394221E+03 E0= -.30398852E+03  d E =0.654836E-10
       N       E                     dE             d eps       ncg     rms          rms(c)
DAV:   1    -0.303942205350E+03   -0.22555E-09    0.14624E-10   294   0.240E-10    0.189E-10
RMM:   2    -0.303942205350E+03    0.39290E-09    0.00000E+00     0   0.841E-11
 450 F= -.30394221E+03 E0= -.30398852E+03  d E =-.363798E-10
       N       E                     dE             d eps       ncg     rms          rms(c)
DAV:   1    -0.303942205349E+03    0.73487E-09   -0.18124E-10   294   0.250E-10    0.276E-10
RMM:   2    -0.303942205350E+03   -0.21100E-09    0.00000E+00     0   0.962E-11
 451 F= -.30394221E+03 E0= -.30398852E+03  d E =0.130967E-09
       N       E                     dE             d eps       ncg     rms          rms(c)
DAV:   1    -0.303942205349E+03    0.37107E-09   -0.77634E-11   294   0.238E-10    0.249E-10
RMM:   2    -0.303942205350E+03   -0.66211E-09    0.00000E+00     0   0.982E-11
 452 F= -.30394221E+03 E0= -.30398852E+03  d E =-.800355E-10
       N       E                     dE             d eps       ncg     rms          rms(c)
DAV:   1    -0.303942205349E+03    0.94587E-10    0.83390E-13   294   0.329E-10    0.182E-10
RMM:   2    -0.303942205350E+03   -0.81491E-09    0.00000E+00     0   0.812E-11
 453 F= -.30394221E+03 E0= -.30398852E+03  d E =-.582077E-10
       N       E                     dE             d eps       ncg     rms          rms(c)
DAV:   1    -0.303942205349E+03   -0.31287E-09   -0.36846E-11   294   0.203E-10    0.236E-10
RMM:   2    -0.303942205350E+03   -0.46566E-09    0.00000E+00     0   0.805E-11
 454 F= -.30394221E+03 E0= -.30398852E+03  d E =0.363798E-10
       N       E                     dE             d eps       ncg     rms          rms(c)
DAV:   1    -0.303942205348E+03    0.69849E-09   -0.14234E-10   294   0.201E-10    0.309E-10
RMM:   2    -0.303942205350E+03   -0.10841E-08    0.00000E+00     0   0.898E-11
 455 F= -.30394221E+03 E0= -.30398852E+03  d E =0.800355E-10
       N       E                     dE             d eps       ncg     rms          rms(c)
DAV:   1    -0.303942205350E+03   -0.11787E-08   -0.99994E-11   294   0.321E-10    0.155E-10
RMM:   2    -0.303942205350E+03    0.29104E-10    0.00000E+00     0   0.868E-11
 456 F= -.30394221E+03 E0= -.30398852E+03  d E =-.654836E-10
       N       E                     dE             d eps       ncg     rms          rms(c)
DAV:   1    -0.303942205350E+03   -0.45839E-09   -0.12030E-11   294   0.211E-10    0.206E-10
RMM:   2    -0.303942205350E+03    0.45111E-09    0.00000E+00     0   0.934E-11
 457 F= -.30394221E+03 E0= -.30398852E+03  d E =-.363798E-10
       N       E                     dE             d eps       ncg     rms          rms(c)
DAV:   1    -0.303942205350E+03    0.34925E-09   -0.24365E-11   294   0.247E-10    0.217E-10
RMM:   2    -0.303942205350E+03    0.94587E-10    0.00000E+00     0   0.777E-11
 458 F= -.30394221E+03 E0= -.30398852E+03  d E =-.727596E-11
       N       E                     dE             d eps       ncg     rms          rms(c)
DAV:   1    -0.303942205349E+03    0.11132E-08   -0.25896E-11   294   0.119E-10    0.344E-10
RMM:   2    -0.303942205350E+03   -0.99681E-09    0.00000E+00     0   0.866E-11
 459 F= -.30394221E+03 E0= -.30398852E+03  d E =0.218279E-10
       N       E                     dE             d eps       ncg     rms          rms(c)
DAV:   1    -0.303942205350E+03   -0.13679E-08   -0.10275E-10   294   0.202E-10    0.277E-10
RMM:   2    -0.303942205350E+03    0.38563E-09    0.00000E+00     0   0.931E-11
 460 F= -.30394221E+03 E0= -.30398852E+03  d E =0.145519E-10
       N       E                     dE             d eps       ncg     rms          rms(c)
DAV:   1    -0.303942205350E+03    0.36380E-09    0.92513E-12   294   0.330E-10    0.206E-10
RMM:   2    -0.303942205350E+03    0.43656E-10    0.00000E+00     0   0.941E-11
 461 F= -.30394221E+03 E0= -.30398852E+03  d E =0.218279E-10
       N       E                     dE             d eps       ncg     rms          rms(c)
DAV:   1    -0.303942205349E+03    0.42201E-09   -0.14179E-10   294   0.234E-10    0.212E-10
RMM:   2    -0.303942205350E+03   -0.41473E-09    0.00000E+00     0   0.705E-11
 462 F= -.30394221E+03 E0= -.30398852E+03  d E =-.363798E-10
       N       E                     dE             d eps       ncg     rms          rms(c)
DAV:   1    -0.303942205348E+03    0.12151E-08    0.54786E-11   294   0.185E-10    0.173E-10
RMM:   2    -0.303942205350E+03   -0.15789E-08    0.00000E+00     0   0.700E-11
 463 F= -.30394221E+03 E0= -.30398852E+03  d E =0.509317E-10
       N       E                     dE             d eps       ncg     rms          rms(c)
DAV:   1    -0.303942205351E+03   -0.31505E-08    0.59109E-12   294   0.147E-10    0.271E-10
RMM:   2    -0.303942205350E+03    0.16153E-08    0.00000E+00     0   0.808E-11
 464 F= -.30394221E+03 E0= -.30398852E+03  d E =0.436557E-10
       N       E                     dE             d eps       ncg     rms          rms(c)
DAV:   1    -0.303942205350E+03    0.11860E-08   -0.13419E-10   294   0.269E-10    0.299E-10
RMM:   2    -0.303942205350E+03    0.37107E-09    0.00000E+00     0   0.995E-11
 465 F= -.30394221E+03 E0= -.30398852E+03  d E =-.582077E-10
       N       E                     dE             d eps       ncg     rms          rms(c)
DAV:   1    -0.303942205350E+03   -0.18190E-09   -0.76491E-11   294   0.307E-10    0.242E-10
RMM:   2    -0.303942205350E+03    0.50932E-09    0.00000E+00     0   0.932E-11
 466 F= -.30394221E+03 E0= -.30398852E+03  d E =-.436557E-10
       N       E                     dE             d eps       ncg     rms          rms(c)
DAV:   1    -0.303942205350E+03    0.29104E-10    0.50069E-11   294   0.291E-10    0.184E-10
RMM:   2    -0.303942205350E+03    0.46566E-09    0.00000E+00     0   0.995E-11
 467 F= -.30394221E+03 E0= -.30398852E+03  d E =-.145519E-10
       N       E                     dE             d eps       ncg     rms          rms(c)
DAV:   1    -0.303942205351E+03   -0.42201E-09   -0.31910E-11   294   0.268E-10    0.198E-10
RMM:   2    -0.303942205350E+03    0.94587E-09    0.00000E+00     0   0.867E-11
 468 F= -.30394221E+03 E0= -.30398852E+03  d E =0.582077E-10
       N       E                     dE             d eps       ncg     rms          rms(c)
DAV:   1    -0.303942205349E+03    0.13533E-08   -0.63643E-11   294   0.160E-10    0.298E-10
RMM:   2    -0.303942205350E+03   -0.49477E-09    0.00000E+00     0   0.101E-10
 469 F= -.30394221E+03 E0= -.30398852E+03  d E =-.873115E-10
       N       E                     dE             d eps       ncg     rms          rms(c)
DAV:   1    -0.303942205350E+03   -0.41473E-09    0.21115E-11   294   0.344E-10    0.267E-10
RMM:   2    -0.303942205350E+03   -0.14552E-10    0.00000E+00     0   0.996E-11
 470 F= -.30394221E+03 E0= -.30398852E+03  d E =0.654836E-10
       N       E                     dE             d eps       ncg     rms          rms(c)
DAV:   1    -0.303942205349E+03    0.10987E-08   -0.15712E-10   294   0.268E-10    0.343E-10
RMM:   2    -0.303942205350E+03   -0.10405E-08    0.00000E+00     0   0.943E-11
 471 F= -.30394221E+03 E0= -.30398852E+03  d E =0.727596E-10
       N       E                     dE             d eps       ncg     rms          rms(c)
DAV:   1    -0.303942205348E+03    0.66939E-09   -0.16286E-11   294   0.220E-10    0.231E-10
RMM:   2    -0.303942205350E+03   -0.16953E-08    0.00000E+00     0   0.749E-11
 472 F= -.30394221E+03 E0= -.30398852E+03  d E =0.145519E-10
       N       E                     dE             d eps       ncg     rms          rms(c)
DAV:   1    -0.303942205350E+03   -0.22992E-08    0.67418E-11   294   0.259E-10    0.270E-10
RMM:   2    -0.303942205350E+03    0.55297E-09    0.00000E+00     0   0.105E-10
 473 F= -.30394221E+03 E0= -.30398852E+03  d E =-.509317E-10
       N       E                     dE             d eps       ncg     rms          rms(c)
DAV:   1    -0.303942205349E+03    0.15352E-08   -0.61905E-11   294   0.378E-10    0.288E-10
RMM:   2    -0.303942205350E+03   -0.98225E-09    0.00000E+00     0   0.109E-10
 474 F= -.30394221E+03 E0= -.30398852E+03  d E =0.000000E+00
       N       E                     dE             d eps       ncg     rms          rms(c)
DAV:   1    -0.303942205350E+03   -0.10186E-08   -0.16156E-10   294   0.365E-10    0.185E-10
RMM:   2    -0.303942205350E+03    0.72760E-11    0.00000E+00     0   0.750E-11
 475 F= -.30394221E+03 E0= -.30398852E+03  d E =-.291038E-10
       N       E                     dE             d eps       ncg     rms          rms(c)
DAV:   1    -0.303942205349E+03    0.52387E-09   -0.12149E-10   294   0.195E-10    0.243E-10
RMM:   2    -0.303942205350E+03   -0.53114E-09    0.00000E+00     0   0.640E-11
 476 F= -.30394221E+03 E0= -.30398852E+03  d E =-.145519E-10
       N       E                     dE             d eps       ncg     rms          rms(c)
DAV:   1    -0.303942205349E+03    0.65484E-10    0.87117E-11   294   0.130E-10    0.275E-10
RMM:   2    -0.303942205350E+03   -0.58935E-09    0.00000E+00     0   0.772E-11
 477 F= -.30394221E+03 E0= -.30398852E+03  d E =0.727596E-11
       N       E                     dE             d eps       ncg     rms          rms(c)
DAV:   1    -0.303942205349E+03   -0.29104E-10   -0.86827E-12   294   0.228E-10    0.163E-10
RMM:   2    -0.303942205350E+03   -0.48021E-09    0.00000E+00     0   0.652E-11
 478 F= -.30394221E+03 E0= -.30398852E+03  d E =0.800355E-10
       N       E                     dE             d eps       ncg     rms          rms(c)
DAV:   1    -0.303942205350E+03   -0.93860E-09    0.59466E-11   294   0.126E-10    0.297E-10
RMM:   2    -0.303942205350E+03    0.50204E-09    0.00000E+00     0   0.836E-11
 479 F= -.30394221E+03 E0= -.30398852E+03  d E =0.436557E-10
       N       E                     dE             d eps       ncg     rms          rms(c)
DAV:   1    -0.303942205351E+03   -0.10623E-08   -0.56734E-11   294   0.204E-10    0.188E-10
RMM:   2    -0.303942205350E+03    0.15061E-08    0.00000E+00     0   0.682E-11
 480 F= -.30394221E+03 E0= -.30398852E+03  d E =-.582077E-10
       N       E                     dE             d eps       ncg     rms          rms(c)
DAV:   1    -0.303942205349E+03    0.20882E-08   -0.17540E-10   294   0.170E-10    0.281E-10
RMM:   2    -0.303942205350E+03   -0.67666E-09    0.00000E+00     0   0.724E-11
 481 F= -.30394221E+03 E0= -.30398852E+03  d E =-.945874E-10
       N       E                     dE             d eps       ncg     rms          rms(c)
DAV:   1    -0.303942205350E+03   -0.77853E-09    0.27557E-11   294   0.233E-10    0.191E-10
RMM:   2    -0.303942205350E+03    0.11642E-09    0.00000E+00     0   0.817E-11
 482 F= -.30394221E+03 E0= -.30398852E+03  d E =0.145519E-10
       N       E                     dE             d eps       ncg     rms          rms(c)
DAV:   1    -0.303942205350E+03   -0.24011E-09    0.26278E-11   294   0.182E-10    0.192E-10
RMM:   2    -0.303942205350E+03    0.50204E-09    0.00000E+00     0   0.756E-11
 483 F= -.30394221E+03 E0= -.30398852E+03  d E =0.145519E-09
       N       E                     dE             d eps       ncg     rms          rms(c)
DAV:   1    -0.303942205351E+03   -0.92405E-09    0.29870E-12   294   0.178E-10    0.223E-10
RMM:   2    -0.303942205350E+03    0.13315E-08    0.00000E+00     0   0.842E-11
 484 F= -.30394221E+03 E0= -.30398852E+03  d E =-.945874E-10
       N       E                     dE             d eps       ncg     rms          rms(c)
DAV:   1    -0.303942205350E+03    0.71304E-09   -0.80174E-11   294   0.172E-10    0.204E-10
RMM:   2    -0.303942205350E+03    0.56025E-09    0.00000E+00     0   0.823E-11
 485 F= -.30394221E+03 E0= -.30398852E+03  d E =-.582077E-10
       N       E                     dE             d eps       ncg     rms          rms(c)
DAV:   1    -0.303942205350E+03    0.47294E-09    0.28715E-11   294   0.169E-10    0.330E-10
RMM:   2    -0.303942205350E+03    0.43656E-10    0.00000E+00     0   0.978E-11
 486 F= -.30394221E+03 E0= -.30398852E+03  d E =-.436557E-10
       N       E                     dE             d eps       ncg     rms          rms(c)
DAV:   1    -0.303942205349E+03    0.29104E-09    0.13790E-10   294   0.246E-10    0.270E-10
RMM:   2    -0.303942205350E+03   -0.25466E-09    0.00000E+00     0   0.949E-11
 487 F= -.30394221E+03 E0= -.30398852E+03  d E =-.727596E-11
       N       E                     dE             d eps       ncg     rms          rms(c)
DAV:   1    -0.303942205351E+03   -0.12951E-08    0.63010E-11   294   0.316E-10    0.198E-10
RMM:   2    -0.303942205350E+03    0.11278E-08    0.00000E+00     0   0.857E-11
 488 F= -.30394221E+03 E0= -.30398852E+03  d E =0.873115E-10
       N       E                     dE             d eps       ncg     rms          rms(c)
DAV:   1    -0.303942205350E+03    0.71304E-09    0.20144E-11   294   0.172E-10    0.326E-10
RMM:   2    -0.303942205350E+03    0.41473E-09    0.00000E+00     0   0.117E-10
 489 F= -.30394221E+03 E0= -.30398852E+03  d E =0.000000E+00
       N       E                     dE             d eps       ncg     rms          rms(c)
DAV:   1    -0.303942205349E+03    0.14261E-08    0.19966E-10   294   0.421E-10    0.227E-10
RMM:   2    -0.303942205350E+03   -0.97498E-09    0.00000E+00     0   0.981E-11
 490 F= -.30394221E+03 E0= -.30398852E+03  d E =0.363798E-10
       N       E                     dE             d eps       ncg     rms          rms(c)
DAV:   1    -0.303942205350E+03   -0.90222E-09   -0.11114E-10   294   0.212E-10    0.263E-10
RMM:   2    -0.303942205350E+03   -0.43656E-10    0.00000E+00     0   0.885E-11
 491 F= -.30394221E+03 E0= -.30398852E+03  d E =0.291038E-10
       N       E                     dE             d eps       ncg     rms          rms(c)
DAV:   1    -0.303942205350E+03   -0.26193E-09    0.95278E-12   294   0.253E-10    0.193E-10
RMM:   2    -0.303942205350E+03    0.22555E-09    0.00000E+00     0   0.944E-11
 492 F= -.30394221E+03 E0= -.30398852E+03  d E =0.727596E-11
       N       E                     dE             d eps       ncg     rms          rms(c)
DAV:   1    -0.303942205350E+03   -0.24738E-09   -0.66489E-11   294   0.174E-10    0.238E-10
RMM:   2    -0.303942205350E+03    0.40745E-09    0.00000E+00     0   0.909E-11
 493 F= -.30394221E+03 E0= -.30398852E+03  d E =-.654836E-10
       N       E                     dE             d eps       ncg     rms          rms(c)
DAV:   1    -0.303942205348E+03    0.21464E-08   -0.40303E-11   294   0.186E-10    0.266E-10
RMM:   2    -0.303942205350E+03   -0.17972E-08    0.00000E+00     0   0.885E-11
 494 F= -.30394221E+03 E0= -.30398852E+03  d E =-.582077E-10
       N       E                     dE             d eps       ncg     rms          rms(c)
DAV:   1    -0.303942205350E+03   -0.18190E-08    0.14574E-11   294   0.278E-10    0.323E-10
RMM:   2    -0.303942205350E+03    0.72760E-10    0.00000E+00     0   0.933E-11
 495 F= -.30394221E+03 E0= -.30398852E+03  d E =0.509317E-10
       N       E                     dE             d eps       ncg     rms          rms(c)
DAV:   1    -0.303942205349E+03    0.58208E-09    0.19312E-11   294   0.232E-10    0.262E-10
RMM:   2    -0.303942205350E+03   -0.52387E-09    0.00000E+00     0   0.993E-11
 496 F= -.30394221E+03 E0= -.30398852E+03  d E =-.145519E-10
       N       E                     dE             d eps       ncg     rms          rms(c)
DAV:   1    -0.303942205349E+03    0.94587E-10   -0.14144E-10   294   0.290E-10    0.197E-10
RMM:   2    -0.303942205350E+03   -0.51659E-09    0.00000E+00     0   0.751E-11
 497 F= -.30394221E+03 E0= -.30398852E+03  d E =0.101863E-09
       N       E                     dE             d eps       ncg     rms          rms(c)
DAV:   1    -0.303942205350E+03   -0.98225E-09   -0.95932E-11   294   0.186E-10    0.280E-10
RMM:   2    -0.303942205350E+03    0.45839E-09    0.00000E+00     0   0.832E-11
 498 F= -.30394221E+03 E0= -.30398852E+03  d E =-.727596E-11
       N       E                     dE             d eps       ncg     rms          rms(c)
DAV:   1    -0.303942205351E+03   -0.10405E-08   -0.13506E-11   294   0.182E-10    0.248E-10
RMM:   2    -0.303942205350E+03    0.14043E-08    0.00000E+00     0   0.728E-11
 499 F= -.30394221E+03 E0= -.30398852E+03  d E =-.945874E-10
       N       E                     dE             d eps       ncg     rms          rms(c)
DAV:   1    -0.303942205350E+03    0.14115E-08    0.51898E-11   294   0.275E-10    0.145E-10
RMM:   2    -0.303942205350E+03    0.72760E-11    0.00000E+00     0   0.766E-11
 500 F= -.30394221E+03 E0= -.30398852E+03  d E =0.145519E-10
