 vasp.6.3.2 27Jun22 (build Mar 25 2024 10:42:18) complex                         
 executed on             LinuxGNU date 2024.03.31  16:40:57
 running on   32 total cores
 distrk:  each k-point on   32 cores,    1 groups
 distr:  one band on NCORE=   1 cores,   32 groups


--------------------------------------------------------------------------------------------------------


 INCAR:
   ISTART = 0
   ICHARG = 2
   PREC = Accurate
   IBRION = -1
   EDIFF = 0.000000001
   EDIFFG = -0.0005
   NSW = 0
   NELM = 100
   ENCUT = 520
   ISMEAR = -5
   SIGMA = 0.05
   ISPIN = 2
   ISYM = 0
   LWAVE = False
   LCHARG = False
   LASPH = True
   LORBIT = 11
   ADDGRID = TRUE

 POTCAR:    PAW_PBE S 06Sep2000                   
 -----------------------------------------------------------------------------
|                                                                             |
|           W    W    AA    RRRRR   N    N  II  N    N   GGGG   !!!           |
|           W    W   A  A   R    R  NN   N  II  NN   N  G    G  !!!           |
|           W    W  A    A  R    R  N N  N  II  N N  N  G       !!!           |
|           W WW W  AAAAAA  RRRRR   N  N N  II  N  N N  G  GGG   !            |
|           WW  WW  A    A  R   R   N   NN  II  N   NN  G    G                |
|           W    W  A    A  R    R  N    N  II  N    N   GGGG   !!!           |
|                                                                             |
|     You use a magnetic or noncollinear calculation, but did not specify     |
|     the initial magnetic moment with the MAGMOM tag. Note that a            |
|     default of 1 will be used for all atoms. This ferromagnetic setup       |
|     may break the symmetry of the crystal, in particular it may rule        |
|     out finding an antiferromagnetic solution. Thence, we recommend         |
|     setting the initial magnetic moment manually or verifying carefully     |
|     that this magnetic setup is desired.                                    |
|                                                                             |
 -----------------------------------------------------------------------------

 -----------------------------------------------------------------------------
|                                                                             |
|           W    W    AA    RRRRR   N    N  II  N    N   GGGG   !!!           |
|           W    W   A  A   R    R  NN   N  II  NN   N  G    G  !!!           |
|           W    W  A    A  R    R  N N  N  II  N N  N  G       !!!           |
|           W WW W  AAAAAA  RRRRR   N  N N  II  N  N N  G  GGG   !            |
|           WW  WW  A    A  R   R   N   NN  II  N   NN  G    G                |
|           W    W  A    A  R    R  N    N  II  N    N   GGGG   !!!           |
|                                                                             |
|     For optimal performance we recommend to set                             |
|       NCORE = 2 up to number-of-cores-per-socket                            |
|     NCORE specifies how many cores store one orbital (NPAR=cpu/NCORE).      |
|     This setting can greatly improve the performance of VASP for DFT.       |
|     The default, NCORE=1 might be grossly inefficient on modern             |
|     multi-core architectures or massively parallel machines. Do your        |
|     own testing! More info at https://www.vasp.at/wiki/index.php/NCORE      |
|     Unfortunately you need to use the default for GW and RPA                |
|     calculations (for HF NCORE is supported but not extensively tested      |
|     yet).                                                                   |
|                                                                             |
 -----------------------------------------------------------------------------

 POTCAR:    PAW_PBE S 06Sep2000                   
   SHA256 =  0fc7481fb0695f01bdc6462160264c5c84044ae9ec85a907d398b887a2bc3132 S/POTCAR              
   COPYR  = (c) Copyright 06Sep2000 Georg Kresse                                                    
   COPYR  = This file is part of the software VASP. Any use, copying, and all other rights are regul
   COPYR  = If you do not have a valid VASP license, you may not use, copy or distribute this file. 
   VRHFIN =S : s2p4                                                                                 
   LEXCH  = PE                                                                                      
   EATOM  =   276.8230 eV,   20.3459 Ry                                                             
                                                                                                    
   TITEL  = PAW_PBE S 06Sep2000                                                                     
   LULTRA =        F    use ultrasoft PP ?                                                          
   IUNSCR =        1    unscreen: 0-lin 1-nonlin 2-no                                               
   RPACOR =    1.500    partial core radius                                                         
   POMASS =   32.066; ZVAL   =    6.000    mass and valenz                                          
   RCORE  =    1.900    outmost cutoff radius                                                       
   RWIGS  =    2.200; RWIGS  =    1.164    wigner-seitz radius (au A)                               
   ENMAX  =  258.689; ENMIN  =  194.016 eV                                                          
   ICORE  =        2    local potential                                                             
   LCOR   =        T    correct aug charges                                                         
   LPAW   =        T    paw PP                                                                      
   EAUG   =  335.092                                                                                
   DEXC   =    0.000                                                                                
   RMAX   =    1.942    core radius for proj-oper                                                   
   RAUG   =    1.300    factor for augmentation sphere                                              
   RDEP   =    1.954    radius for radial grids                                                     
   RDEPT  =    1.744    core radius for aug-charge                                                  
                                                                                                    
   Atomic configuration                                                                             
    6 entries                                                                                       
     n  l   j            E        occ.                                                              
     1  0  0.50     -2405.8406   2.0000                                                             
     2  0  0.50      -211.7007   2.0000                                                             
     2  1  1.50      -156.4958   6.0000                                                             
     3  0  0.50       -17.2562   2.0000                                                             
     3  1  0.50        -7.0085   4.0000                                                             
     3  2  1.50        -6.8029   0.0000                                                             
   Description                                                                                      
     l       E           TYP  RCUT    TYP  RCUT                                                     
     0    -17.2561641     23  1.900                                                                 
     0    -15.8743224     23  1.900                                                                 
     1     -7.0085400     23  1.900                                                                 
     1     -2.7779785     23  1.900                                                                 
     2     -6.8029130     23  1.900                                                                 
  local pseudopotential read in
  partial core-charges read in
  partial kinetic energy density read in
  atomic valenz-charges read in
  non local Contribution for L=           0  read in
    real space projection operators read in
  non local Contribution for L=           0  read in
    real space projection operators read in
  non local Contribution for L=           1  read in
    real space projection operators read in
  non local Contribution for L=           1  read in
    real space projection operators read in
    PAW grid and wavefunctions read in

   number of l-projection  operators is LMAX  =           4
   number of lm-projection operators is LMMAX =           8

 -----------------------------------------------------------------------------
|                                                                             |
|               ----> ADVICE to this user running VASP <----                  |
|                                                                             |
|     You have a (more or less) 'large supercell' and for larger cells it     |
|     might be more efficient to use real-space projection operators.         |
|     Therefore, try LREAL= Auto in the INCAR file.                           |
|     Mind: For very accurate calculation, you might also keep the            |
|     reciprocal projection scheme (i.e. LREAL=.FALSE.).                      |
|                                                                             |
 -----------------------------------------------------------------------------

  PAW_PBE S 06Sep2000                   :
 energy of atom  1       EATOM= -276.8230
 kinetic energy error for atom=    0.0016 (will be added to EATOM!!)


 POSCAR: generated by phonopy
  positions in direct lattice
  No initial velocities read in
 exchange correlation table for  LEXCH =        8
   RHO(1)=    0.500       N(1)  =     2000
   RHO(2)=  100.500       N(2)  =     4000



--------------------------------------------------------------------------------------------------------


 ion  position               nearest neighbor table
   1  0.886  0.467  0.678-  45 1.98  24 2.13
   2  0.886  0.967  0.678-  46 1.98  23 2.13
   3  0.330  0.189  0.551-  41 2.05  19 2.13
   4  0.330  0.689  0.551-  42 2.05  20 2.13
   5  0.913  0.105  0.912-  51 1.98  11 2.13
   6  0.913  0.605  0.912-  52 1.98  12 2.13
   7  0.240  0.301  0.777-  19 1.98  37 2.23
   8  0.240  0.801  0.777-  20 1.98  38 2.23
   9  0.144  0.306  0.224-  31 2.05  39 2.13
  10  0.144  0.806  0.224-  32 2.05  40 2.13
  11  0.856  0.194  0.776-  47 2.05   5 2.13
  12  0.856  0.694  0.776-  48 2.05   6 2.13
  13  0.760  0.199  0.223-  27 1.98  33 2.23
  14  0.760  0.699  0.223-  28 1.98  34 2.23
  15  0.170  0.439  0.449-  31 2.05  30 2.13
  16  0.170  0.939  0.449-  32 2.05  29 2.13
  17  0.413  0.145  0.912-  37 1.98  43 2.13
  18  0.413  0.645  0.912-  38 1.98  44 2.13
  19  0.386  0.283  0.678-   7 1.98   3 2.13
  20  0.386  0.783  0.678-   8 1.98   4 2.13
  21  0.644  0.444  0.224-  53 2.05  35 2.13
  22  0.644  0.944  0.224-  54 2.05  36 2.13
  23  0.830  0.061  0.551-  47 2.05   2 2.13
  24  0.830  0.561  0.551-  48 2.05   1 2.13
  25  0.260  0.051  0.223-  29 1.98  50 2.23
  26  0.260  0.551  0.223-  30 1.98  49 2.23
  27  0.614  0.217  0.322-  13 1.98  55 2.13
  28  0.614  0.717  0.322-  14 1.98  56 2.13
  29  0.114  0.033  0.322-  25 1.98  16 2.13
  30  0.114  0.533  0.322-  26 1.98  15 2.13
  31  0.059  0.345  0.374-   9 2.05  15 2.05
  32  0.060  0.845  0.374-  10 2.05  16 2.05
  33  0.743  0.289  0.071-  35 1.98  13 2.23
  34  0.743  0.789  0.071-  36 1.98  14 2.23
  35  0.587  0.355  0.088-  33 1.98  21 2.13
  36  0.587  0.855  0.088-  34 1.98  22 2.13
  37  0.257  0.211  0.929-  17 1.98   7 2.23
  38  0.257  0.711  0.929-  18 1.98   8 2.23
  39  0.087  0.395  0.088-  49 1.98   9 2.13
  40  0.087  0.895  0.088-  50 1.98  10 2.13
  41  0.440  0.095  0.626-  43 2.05   3 2.05
  42  0.440  0.595  0.626-  44 2.05   4 2.05
  43  0.356  0.056  0.776-  41 2.05  17 2.13
  44  0.356  0.556  0.776-  42 2.05  18 2.13
  45  0.740  0.449  0.777-   1 1.98  52 2.23
  46  0.740  0.949  0.777-   2 1.98  51 2.23
  47  0.940  0.155  0.626-  11 2.05  23 2.05
  48  0.940  0.655  0.626-  12 2.05  24 2.05
  49  0.243  0.461  0.071-  39 1.98  26 2.23
  50  0.243  0.961  0.071-  40 1.98  25 2.23
  51  0.757  0.039  0.929-   5 1.98  46 2.23
  52  0.757  0.539  0.929-   6 1.98  45 2.23
  53  0.560  0.405  0.374-  21 2.05  55 2.05
  54  0.560  0.905  0.374-  22 2.05  56 2.05
  55  0.670  0.311  0.449-  53 2.05  27 2.13
  56  0.670  0.811  0.449-  54 2.05  28 2.13


IMPORTANT INFORMATION: All symmetrisations will be switched off!
NOSYMM: (Re-)initialisation of all symmetry stuff for point group C_1.


----------------------------------------------------------------------------------------

                                     Primitive cell                                     

  volume of cell :    1863.6770

  direct lattice vectors                    reciprocal lattice vectors
     0.000000000 10.307367086 -0.372855731     0.000000000  0.096453423 -0.015606996
    16.788494411  0.000000000  0.000000000     0.059564603  0.000000000  0.000000000
     0.000000000 -1.732519801-10.707215182     0.000000000 -0.003358783 -0.092851486

  length of vectors
    10.314108670 16.788494411 10.846477853     0.097707938  0.059564603  0.092912216

  position of ions in fractional coordinates (direct lattice)
     0.886423141  0.467004751  0.678126386
     0.886423141  0.967004751  0.678126386
     0.329563264  0.188743823  0.550707721
     0.329563264  0.688743823  0.550707721
     0.912671285  0.105241885  0.911960471
     0.912671285  0.605241885  0.911960471
     0.239736405  0.300831047  0.776574189
     0.239736405  0.800831047  0.776574189
     0.144417516  0.305688762  0.224396680
     0.144417516  0.805688762  0.224396680
     0.855582484  0.194311238  0.775603320
     0.855582484  0.694311238  0.775603320
     0.760263595  0.199168953  0.223425811
     0.760263595  0.699168953  0.223425811
     0.170436736  0.438743823  0.449292279
     0.170436736  0.938743823  0.449292279
     0.412671285  0.144758115  0.911960471
     0.412671285  0.644758115  0.911960471
     0.386423141  0.282995249  0.678126386
     0.386423141  0.782995249  0.678126386
     0.644417516  0.444311238  0.224396680
     0.644417516  0.944311238  0.224396680
     0.829563264  0.061256177  0.550707721
     0.829563264  0.561256177  0.550707721
     0.260263595  0.050831047  0.223425811
     0.260263595  0.550831047  0.223425811
     0.613576859  0.217004751  0.321873614
     0.613576859  0.717004751  0.321873614
     0.113576859  0.032995249  0.321873614
     0.113576859  0.532995249  0.321873614
     0.058926154  0.345087734  0.374484367
     0.059895700  0.845087734  0.374484367
     0.743425210  0.289344343  0.071165234
     0.743425210  0.789344343  0.071165234
     0.587328715  0.355241885  0.088039529
     0.587328715  0.855241885  0.088039529
     0.256574790  0.210655657  0.928834766
     0.256574790  0.710655657  0.928834766
     0.087328715  0.394758115  0.088039529
     0.087328715  0.894758115  0.088039529
     0.440104300  0.095087734  0.625515633
     0.440104300  0.595087734  0.625515633
     0.355582484  0.055688762  0.775603320
     0.355582484  0.555688762  0.775603320
     0.739736405  0.449168953  0.776574189
     0.739736405  0.949168953  0.776574189
     0.940104300  0.154912266  0.625515633
     0.940104300  0.654912266  0.625515633
     0.243425210  0.460655657  0.071165234
     0.243425210  0.960655657  0.071165234
     0.756574790  0.039344343  0.928834766
     0.756574790  0.539344343  0.928834766
     0.559895700  0.404912266  0.374484367
     0.559895700  0.904912266  0.374484367
     0.670436736  0.311256177  0.449292279
     0.670436736  0.811256177  0.449292279

  ion indices of the primitive-cell ions
   primitive index   ion index
                 1           1
                 2           2
                 3           3
                 4           4
                 5           5
                 6           6
                 7           7
                 8           8
                 9           9
                10          10
                11          11
                12          12
                13          13
                14          14
                15          15
                16          16
                17          17
                18          18
                19          19
                20          20
                21          21
                22          22
                23          23
                24          24
                25          25
                26          26
                27          27
                28          28
                29          29
                30          30
                31          31
                32          32
                33          33
                34          34
                35          35
                36          36
                37          37
                38          38
                39          39
                40          40
                41          41
                42          42
                43          43
                44          44
                45          45
                46          46
                47          47
                48          48
                49          49
                50          50
                51          51
                52          52
                53          53
                54          54
                55          55
                56          56

----------------------------------------------------------------------------------------



 KPOINTS: pymatgen with grid density = 595 / numbe

Automatic generation of k-mesh.
 Grid dimensions read from file:
 generate k-points for:    2    2    2

 Generating k-lattice:

  Cartesian coordinates                     Fractional coordinates (reciprocal lattice)
     0.000000000  0.048226712 -0.007803498     0.500000000  0.000000000 -0.000000000
     0.029782301  0.000000000  0.000000000     0.000000000  0.500000000  0.000000000
     0.000000000 -0.001679391 -0.046425743    -0.000000000  0.000000000  0.500000000

  Length of vectors
     0.048853969  0.029782301  0.046456108

  Shift w.r.t. Gamma in fractional coordinates (k-lattice)
     0.000000000  0.000000000  0.000000000

 TETIRR: Found     24 inequivalent tetrahedra from       48
 
 Subroutine IBZKPT returns following result:
 ===========================================
 
 Found      8 irreducible k-points:
 
 Following reciprocal coordinates:
            Coordinates               Weight
  0.000000  0.000000  0.000000      1.000000
  0.500000  0.000000  0.000000      1.000000
  0.000000  0.500000  0.000000      1.000000
  0.500000  0.500000  0.000000      1.000000
  0.000000  0.000000  0.500000      1.000000
  0.500000  0.000000  0.500000      1.000000
  0.000000  0.500000  0.500000      1.000000
  0.500000  0.500000  0.500000      1.000000
 
 Following cartesian coordinates:
            Coordinates               Weight
  0.000000  0.000000 -0.000000      1.000000
  0.000000  0.048227 -0.007803      1.000000
  0.029782  0.000000 -0.000000      1.000000
  0.029782  0.048227 -0.007803      1.000000
  0.000000 -0.001679 -0.046426      1.000000
  0.000000  0.046547 -0.054229      1.000000
  0.029782 -0.001679 -0.046426      1.000000
  0.029782  0.046547 -0.054229      1.000000
 


--------------------------------------------------------------------------------------------------------




 Dimension of arrays:
   k-points           NKPTS =      8   k-points in BZ     NKDIM =      8   number of bands    NBANDS=    256
   number of dos      NEDOS =    301   number of ions     NIONS =     56
   non local maximal  LDIM  =      4   non local SUM 2l+1 LMDIM =      8
   total plane-waves  NPLWV = 846720
   max r-space proj   IRMAX =      1   max aug-charges    IRDMAX= 114695
   dimension x,y,z NGX =    80 NGY =  126 NGZ =   84
   dimension x,y,z NGXF=   160 NGYF=  252 NGZF=  168
   support grid    NGXF=   320 NGYF=  504 NGZF=  336
   ions per type =              56
   NGX,Y,Z   is equivalent  to a cutoff of  12.89, 12.48, 12.87 a.u.
   NGXF,Y,Z  is equivalent  to a cutoff of  25.79, 24.95, 25.75 a.u.

 SYSTEM =  unknown system                          
 POSCAR =  generated by phonopy                    

 Startparameter for this run:
   NWRITE =      2    write-flag & timer
   PREC   = accura    normal or accurate (medium, high low for compatibility)
   ISTART =      0    job   : 0-new  1-cont  2-samecut
   ICHARG =      2    charge: 1-file 2-atom 10-const
   ISPIN  =      2    spin polarized calculation?
   LNONCOLLINEAR =      F non collinear calculations
   LSORBIT =      F    spin-orbit coupling
   INIWAV =      1    electr: 0-lowe 1-rand  2-diag
   LASPH  =      T    aspherical Exc in radial PAW
 Electronic Relaxation 1
   ENCUT  =  520.0 eV  38.22 Ry    6.18 a.u.  19.18 31.22 20.17*2*pi/ulx,y,z
   ENINI  =  520.0     initial cutoff
   ENAUG  =  335.1 eV  augmentation charge cutoff
   NELM   =    100;   NELMIN=  2; NELMDL= -5     # of ELM steps 
   EDIFF  = 0.1E-08   stopping-criterion for ELM
   LREAL  =      F    real-space projection
   NLSPLINE    = F    spline interpolate recip. space projectors
   LCOMPAT=      F    compatible to vasp.4.4
   GGA_COMPAT  = T    GGA compatible to vasp.4.4-vasp.4.6
   LMAXPAW     = -100 max onsite density
   LMAXMIX     =    2 max onsite mixed and CHGCAR
   VOSKOWN=      0    Vosko Wilk Nusair interpolation
   ROPT   =    0.00000
 Ionic relaxation
   EDIFFG = -.5E-03   stopping-criterion for IOM
   NSW    =      0    number of steps for IOM
   NBLOCK =      1;   KBLOCK =      1    inner block; outer block 
   IBRION =     -1    ionic relax: 0-MD 1-quasi-New 2-CG
   NFREE  =      0    steps in history (QN), initial steepest desc. (CG)
   ISIF   =      2    stress and relaxation
   IWAVPR =     10    prediction:  0-non 1-charg 2-wave 3-comb
   ISYM   =      0    0-nonsym 1-usesym 2-fastsym
   LCORR  =      T    Harris-Foulkes like correction to forces

   POTIM  = 0.5000    time-step for ionic-motion
   TEIN   =    0.0    initial temperature
   TEBEG  =    0.0;   TEEND  =   0.0 temperature during run
   SMASS  =  -3.00    Nose mass-parameter (am)
   estimated Nose-frequenzy (Omega)   =  0.10E-29 period in steps = 0.13E+47 mass=  -0.243E-26a.u.
   SCALEE = 1.0000    scale energy and forces
   NPACO  =    256;   APACO  = 10.0  distance and # of slots for P.C.
   PSTRESS=    0.0 pullay stress

  Mass of Ions in am
   POMASS =  32.07
  Ionic Valenz
   ZVAL   =   6.00
  Atomic Wigner-Seitz radii
   RWIGS  =  -1.00
  virtual crystal weights 
   VCA    =   1.00
   NELECT =     336.0000    total number of electrons
   NUPDOWN=      -1.0000    fix difference up-down

 DOS related values:
   EMIN   =  10.00;   EMAX   =-10.00  energy-range for DOS
   EFERMI =   0.00
   ISMEAR =    -5;   SIGMA  =   0.05  broadening in eV -4-tet -1-fermi 0-gaus

 Electronic relaxation 2 (details)
   IALGO  =     38    algorithm
   LDIAG  =      T    sub-space diagonalisation (order eigenvalues)
   LSUBROT=      F    optimize rotation matrix (better conditioning)
   TURBO    =      0    0=normal 1=particle mesh
   IRESTART =      0    0=no restart 2=restart with 2 vectors
   NREBOOT  =      0    no. of reboots
   NMIN     =      0    reboot dimension
   EREF     =   0.00    reference energy to select bands
   IMIX   =      4    mixing-type and parameters
     AMIX     =   0.40;   BMIX     =  1.00
     AMIX_MAG =   1.60;   BMIX_MAG =  1.00
     AMIN     =   0.10
     WC   =   100.;   INIMIX=   1;  MIXPRE=   1;  MAXMIX= -45

 Intra band minimization:
   WEIMIN = 0.0000     energy-eigenvalue tresh-hold
   EBREAK =  0.98E-12  absolut break condition
   DEPER  =   0.30     relativ break condition  

   TIME   =   0.40     timestep for ELM

  volume/ion in A,a.u.               =      33.28       224.58
  Fermi-wavevector in a.u.,A,eV,Ry     =   0.924835  1.747685 11.637339  0.855320
  Thomas-Fermi vector in A             =   2.050624

 Write flags
   LWAVE        =      F    write WAVECAR
   LDOWNSAMPLE  =      F    k-point downsampling of WAVECAR
   LCHARG       =      F    write CHGCAR
   LVTOT        =      F    write LOCPOT, total local potential
   LVHAR        =      F    write LOCPOT, Hartree potential only
   LELF         =      F    write electronic localiz. function (ELF)
   LORBIT       =     11    0 simple, 1 ext, 2 COOP (PROOUT), +10 PAW based schemes


 Dipole corrections
   LMONO  =      F    monopole corrections only (constant potential shift)
   LDIPOL =      F    correct potential (dipole corrections)
   IDIPOL =      0    1-x, 2-y, 3-z, 4-all directions 
   EPSILON=  1.0000000 bulk dielectric constant

 Exchange correlation treatment:
   GGA     =    --    GGA type
   LEXCH   =     8    internal setting for exchange type
   LIBXC   =     F    Libxc                    
   VOSKOWN =     0    Vosko Wilk Nusair interpolation
   LHFCALC =     F    Hartree Fock is set to
   LHFONE  =     F    Hartree Fock one center treatment
   AEXX    =    0.0000 exact exchange contribution

 Linear response parameters
   LEPSILON=     F    determine dielectric tensor
   LRPA    =     F    only Hartree local field effects (RPA)
   LNABLA  =     F    use nabla operator in PAW spheres
   LVEL    =     F    velocity operator in full k-point grid
   CSHIFT  =0.1000    complex shift for real part using Kramers Kronig
   OMEGAMAX=  -1.0    maximum frequency
   DEG_THRESHOLD= 0.2000000E-02 threshold for treating states as degnerate
   RTIME   =   -0.100 relaxation time in fs
  (WPLASMAI=    0.000 imaginary part of plasma frequency in eV, 0.658/RTIME)
   DFIELD  = 0.0000000 0.0000000 0.0000000 field for delta impulse in time

  Optional k-point grid parameters
   LKPOINTS_OPT  =     F    use optional k-point grid
   KPOINTS_OPT_MODE=     1    mode for optional k-point grid

 Orbital magnetization related:
   ORBITALMAG=     F  switch on orbital magnetization
   LCHIMAG   =     F  perturbation theory with respect to B field
   DQ        =  0.001000  dq finite difference perturbation B field
   LLRAUG    =     F  two centre corrections for induced B field



--------------------------------------------------------------------------------------------------------


 Static calculation
 charge density and potential will be updated during run
 spin polarized calculation
 Variant of blocked Davidson
 Davidson routine will perform the subspace rotation
 perform sub-space diagonalisation
    after iterative eigenvector-optimisation
 modified Broyden-mixing scheme, WC =      100.0
 initial mixing is a Kerker type mixing with AMIX =  0.4000 and BMIX =      1.0000
 Hartree-type preconditioning will be used
 using additional bands           88
 reciprocal scheme for non local part
 use partial core corrections
 calculate Harris-corrections to forces   (improved forces if not selfconsistent)
 use gradient corrections 
 use of overlap-Matrix (Vanderbilt PP)
 Fermi weights with tetrahedron method with Bloechl corrections


--------------------------------------------------------------------------------------------------------


  energy-cutoff  :      520.00
  volume of cell :     1863.68
      direct lattice vectors                 reciprocal lattice vectors
     0.000000000 10.307367086 -0.372855731     0.000000000  0.096453423 -0.015606996
    16.788494411  0.000000000  0.000000000     0.059564603  0.000000000  0.000000000
     0.000000000 -1.732519801-10.707215182     0.000000000 -0.003358783 -0.092851486

  length of vectors
    10.314108670 16.788494411 10.846477853     0.097707938  0.059564603  0.092912216



 k-points in units of 2pi/SCALE and weight: pymatgen with grid density = 595 / numbe
   0.00000000  0.00000000 -0.00000000       0.125
   0.00000000  0.04822671 -0.00780350       0.125
   0.02978230  0.00000000 -0.00000000       0.125
   0.02978230  0.04822671 -0.00780350       0.125
   0.00000000 -0.00167939 -0.04642574       0.125
   0.00000000  0.04654732 -0.05422924       0.125
   0.02978230 -0.00167939 -0.04642574       0.125
   0.02978230  0.04654732 -0.05422924       0.125

 k-points in reciprocal lattice and weights: pymatgen with grid density = 595 / numbe
   0.00000000  0.00000000  0.00000000       0.125
   0.50000000  0.00000000  0.00000000       0.125
   0.00000000  0.50000000  0.00000000       0.125
   0.50000000  0.50000000  0.00000000       0.125
   0.00000000  0.00000000  0.50000000       0.125
   0.50000000  0.00000000  0.50000000       0.125
   0.00000000  0.50000000  0.50000000       0.125
   0.50000000  0.50000000  0.50000000       0.125

 position of ions in fractional coordinates (direct lattice) 
   0.88642314  0.46700475  0.67812639
   0.88642314  0.96700475  0.67812639
   0.32956326  0.18874382  0.55070772
   0.32956326  0.68874382  0.55070772
   0.91267129  0.10524188  0.91196047
   0.91267129  0.60524188  0.91196047
   0.23973640  0.30083105  0.77657419
   0.23973640  0.80083105  0.77657419
   0.14441752  0.30568876  0.22439668
   0.14441752  0.80568876  0.22439668
   0.85558248  0.19431124  0.77560332
   0.85558248  0.69431124  0.77560332
   0.76026360  0.19916895  0.22342581
   0.76026360  0.69916895  0.22342581
   0.17043674  0.43874382  0.44929228
   0.17043674  0.93874382  0.44929228
   0.41267129  0.14475812  0.91196047
   0.41267129  0.64475812  0.91196047
   0.38642314  0.28299525  0.67812639
   0.38642314  0.78299525  0.67812639
   0.64441752  0.44431124  0.22439668
   0.64441752  0.94431124  0.22439668
   0.82956326  0.06125618  0.55070772
   0.82956326  0.56125618  0.55070772
   0.26026360  0.05083105  0.22342581
   0.26026360  0.55083105  0.22342581
   0.61357686  0.21700475  0.32187361
   0.61357686  0.71700475  0.32187361
   0.11357686  0.03299525  0.32187361
   0.11357686  0.53299525  0.32187361
   0.05892615  0.34508773  0.37448437
   0.05989570  0.84508773  0.37448437
   0.74342521  0.28934434  0.07116523
   0.74342521  0.78934434  0.07116523
   0.58732871  0.35524188  0.08803953
   0.58732871  0.85524188  0.08803953
   0.25657479  0.21065566  0.92883477
   0.25657479  0.71065566  0.92883477
   0.08732871  0.39475812  0.08803953
   0.08732871  0.89475812  0.08803953
   0.44010430  0.09508773  0.62551563
   0.44010430  0.59508773  0.62551563
   0.35558248  0.05568876  0.77560332
   0.35558248  0.55568876  0.77560332
   0.73973640  0.44916895  0.77657419
   0.73973640  0.94916895  0.77657419
   0.94010430  0.15491227  0.62551563
   0.94010430  0.65491227  0.62551563
   0.24342521  0.46065566  0.07116523
   0.24342521  0.96065566  0.07116523
   0.75657479  0.03934434  0.92883477
   0.75657479  0.53934434  0.92883477
   0.55989570  0.40491227  0.37448437
   0.55989570  0.90491227  0.37448437
   0.67043674  0.31125618  0.44929228
   0.67043674  0.81125618  0.44929228

 position of ions in cartesian coordinates  (Angst):
   7.84030666  7.96182132 -7.59135308
  16.23455387  7.96182132 -7.59135308
   3.16872461  2.44281751 -6.01942562
  11.56297182  2.44281751 -6.01942562
   1.76685280  7.82724839-10.10485172
  10.16110000  7.82724839-10.10485172
   5.05050035  1.12562097 -8.40433404
  13.44474755  1.12562097 -8.40433404
   5.13205407  1.09979266 -2.45651044
  13.52630128  1.09979266 -2.45651044
   3.26219313  7.47505463 -8.62356047
  11.65644034  7.47505463 -8.62356047
   3.34374686  7.44922632 -2.67573688
  11.73799406  7.44922632 -2.67573688
   7.36584822  0.97834624 -4.87421742
  15.76009542  0.97834624 -4.87421742
   2.43027081  2.67356485 -9.91842386
  10.82451801  2.67356485 -9.91842386
   4.75106415  2.80813777 -7.40492521
  13.14531135  2.80813777 -7.40492521
   7.45931673  6.25347620 -2.64293831
  15.85356394  6.25347620 -2.64293831
   1.02839899  7.59650105 -6.20585349
   9.42264619  7.59650105 -6.20585349
   0.85337674  2.29554277 -2.48930901
   9.24762395  2.29554277 -2.48930901
   3.64318306  5.76670951 -3.67514570
  12.03743026  5.76670951 -3.67514570
   0.55394055  0.61302597 -3.48871783
   8.94818775  0.61302597 -3.48871783
   5.79350349 -0.04142808 -4.03165565
  14.18775070 -0.03143461 -4.03201715
   4.85765589  7.53946136 -1.03917182
  13.25190310  7.53946136 -1.03917182
   5.96397640  5.90128244 -1.16164705
  14.35822361  5.90128244 -1.16164705
   3.53659131  1.03538593-10.04089909
  11.93083852  1.03538593-10.04089909
   6.62739441  0.74759889 -0.97521919
  15.02164161  0.74759889 -0.97521919
   1.59637989  3.45259836 -6.86162589
   9.99062710  3.45259836 -6.86162589
   0.93493047  2.32137108 -8.43713261
   9.32917768  2.32137108 -8.43713261
   7.54087046  6.27930451 -8.59076190
  15.93511767  6.27930451 -8.59076190
   2.60074371  8.60628190 -7.04805376
  10.99499092  8.60628190 -7.04805376
   7.73371492  2.38577782 -0.85274396
  16.12796212  2.38577782 -0.85274396
   0.66053229  6.18906947-10.22732695
   9.05477950  6.18906947-10.22732695
   6.79786731  5.12224893 -4.21844502
  15.19211452  5.12224893 -4.21844502
   5.22552259  6.13202978 -5.06064529
  13.61976980  6.13202978 -5.06064529



--------------------------------------------------------------------------------------------------------


 k-point   1 :   0.0000 0.0000 0.0000  plane waves:   50179
 k-point   2 :   0.5000 0.0000 0.0000  plane waves:   50160
 k-point   3 :   0.0000 0.5000 0.0000  plane waves:   50162
 k-point   4 :   0.5000 0.5000 0.0000  plane waves:   50192
 k-point   5 :   0.0000 0.0000 0.5000  plane waves:   50190
 k-point   6 :   0.5000 0.0000 0.5000  plane waves:   50190
 k-point   7 :   0.0000 0.5000 0.5000  plane waves:   50172
 k-point   8 :   0.5000 0.5000 0.5000  plane waves:   50200

 maximum and minimum number of plane-waves per node :     50200    50160

 maximum number of plane-waves:     50200
 maximum index in each direction: 
   IXMAX=   19   IYMAX=   31   IZMAX=   20
   IXMIN=  -19   IYMIN=  -31   IZMIN=  -20


 serial   3D FFT for wavefunctions
 parallel 3D FFT for charge:
    minimum data exchange during FFTs selected (reduces bandwidth)


 total amount of memory used by VASP MPI-rank0   322725. kBytes
=======================================================================

   base      :      30000. kBytes
   nonl-proj :      70692. kBytes
   fftplans  :      34504. kBytes
   grid      :      83442. kBytes
   one-center:        344. kBytes
   wavefun   :     103743. kBytes

     INWAV:  cpu time      0.0000: real time      0.0001
 Broyden mixing: mesh for mixing (old mesh)
   NGX = 39   NGY = 63   NGZ = 41
  (NGX  =160   NGY  =252   NGZ  =168)
  gives a total of 100737 points

 initial charge density was supplied:
 charge density of overlapping atoms calculated
 number of electron     336.0000000 magnetization      56.0000000
 keeping initial charge density in first step


--------------------------------------------------------------------------------------------------------


 Maximum index for augmentation-charges         3947 (set IRDMAX)


--------------------------------------------------------------------------------------------------------


 First call to EWALD:  gamma=   0.144
 Maximum number of real-space cells 3x 2x 3
 Maximum number of reciprocal cells 2x 4x 2

    FEWALD:  cpu time      0.0019: real time      0.0019


--------------------------------------- Iteration      1(   1)  ---------------------------------------


    POTLOK:  cpu time      0.4917: real time      0.4918
    SETDIJ:  cpu time      8.7985: real time      8.7992
     EDDAV:  cpu time     38.0684: real time     38.0737
 BZINTS: Fermi energy:   10.166329;  336.000000 electrons
         Band energy: 0.225207E+03;  BLOECHL correction:   -0.008719
       DOS:  cpu time      0.0466: real time      0.0467
    --------------------------------------------
      LOOP:  cpu time     47.4052: real time     47.4115

 eigenvalue-minimisations  :  8192
 total energy-change (2. order) : 0.2106007E+04  (-0.1333784E+05)
 number of electron     336.0000000 magnetization      56.0000000
 augmentation part      336.0000000 magnetization      56.0000000

 Free energy of the ion-electron system (eV)
  ---------------------------------------------------
  alpha Z        PSCENC =       253.99581917
  Ewald energy   TEWEN  =     -9971.96839680
  -Hartree energ DENC   =     -4764.96640205
  -exchange      EXHF   =         0.00000000
  -V(xc)+E(xc)   XCENC  =       682.49186106
  PAW double counting   =     12174.71095765   -11995.46358648
  entropy T*S    EENTRO =         0.00000000
  eigenvalues    EBANDS =       225.20725996
  atomic energy  EATOM  =     15501.99929693
  Solvation  Ediel_sol  =         0.00000000
  ---------------------------------------------------
  free energy    TOTEN  =      2106.00680944 eV

  energy without entropy =     2106.00680944  energy(sigma->0) =     2106.00680944


--------------------------------------------------------------------------------------------------------




--------------------------------------- Iteration      1(   2)  ---------------------------------------


     EDDAV:  cpu time     44.3302: real time     44.3375
 BZINTS: Fermi energy:    1.452829;  336.000000 electrons
         Band energy:-0.187455E+04;  BLOECHL correction:    0.000000
       DOS:  cpu time      0.0259: real time      0.0260
    --------------------------------------------
      LOOP:  cpu time     44.3561: real time     44.3635

 eigenvalue-minimisations  : 10272
 total energy-change (2. order) :-0.2099755E+04  (-0.2021573E+04)
 number of electron     336.0000000 magnetization      56.0000000
 augmentation part      336.0000000 magnetization      56.0000000

 Free energy of the ion-electron system (eV)
  ---------------------------------------------------
  alpha Z        PSCENC =       253.99581917
  Ewald energy   TEWEN  =     -9971.96839680
  -Hartree energ DENC   =     -4764.96640205
  -exchange      EXHF   =         0.00000000
  -V(xc)+E(xc)   XCENC  =       682.49186106
  PAW double counting   =     12174.71095765   -11995.46358648
  entropy T*S    EENTRO =         0.00000000
  eigenvalues    EBANDS =     -1874.54730196
  atomic energy  EATOM  =     15501.99929693
  Solvation  Ediel_sol  =         0.00000000
  ---------------------------------------------------
  free energy    TOTEN  =         6.25224753 eV

  energy without entropy =        6.25224753  energy(sigma->0) =        6.25224753


--------------------------------------------------------------------------------------------------------




--------------------------------------- Iteration      1(   3)  ---------------------------------------


     EDDAV:  cpu time     46.5270: real time     46.5344
 BZINTS: Fermi energy:    0.220246;  336.000000 electrons
         Band energy:-0.209438E+04;  BLOECHL correction:    0.000000
       DOS:  cpu time      0.0258: real time      0.0259
    --------------------------------------------
      LOOP:  cpu time     46.5528: real time     46.5602

 eigenvalue-minimisations  : 10240
 total energy-change (2. order) :-0.2198316E+03  (-0.2171445E+03)
 number of electron     336.0000000 magnetization      56.0000000
 augmentation part      336.0000000 magnetization      56.0000000

 Free energy of the ion-electron system (eV)
  ---------------------------------------------------
  alpha Z        PSCENC =       253.99581917
  Ewald energy   TEWEN  =     -9971.96839680
  -Hartree energ DENC   =     -4764.96640205
  -exchange      EXHF   =         0.00000000
  -V(xc)+E(xc)   XCENC  =       682.49186106
  PAW double counting   =     12174.71095765   -11995.46358648
  entropy T*S    EENTRO =         0.00000000
  eigenvalues    EBANDS =     -2094.37889134
  atomic energy  EATOM  =     15501.99929693
  Solvation  Ediel_sol  =         0.00000000
  ---------------------------------------------------
  free energy    TOTEN  =      -213.57934185 eV

  energy without entropy =     -213.57934185  energy(sigma->0) =     -213.57934185


--------------------------------------------------------------------------------------------------------




--------------------------------------- Iteration      1(   4)  ---------------------------------------


     EDDAV:  cpu time     45.3401: real time     45.3515
 BZINTS: Fermi energy:    0.192334;  336.000000 electrons
         Band energy:-0.209928E+04;  BLOECHL correction:    0.000000
       DOS:  cpu time      0.0274: real time      0.0275
    --------------------------------------------
      LOOP:  cpu time     45.3675: real time     45.3790

 eigenvalue-minimisations  : 10368
 total energy-change (2. order) :-0.4900237E+01  (-0.4881909E+01)
 number of electron     336.0000000 magnetization      56.0000000
 augmentation part      336.0000000 magnetization      56.0000000

 Free energy of the ion-electron system (eV)
  ---------------------------------------------------
  alpha Z        PSCENC =       253.99581917
  Ewald energy   TEWEN  =     -9971.96839680
  -Hartree energ DENC   =     -4764.96640205
  -exchange      EXHF   =         0.00000000
  -V(xc)+E(xc)   XCENC  =       682.49186106
  PAW double counting   =     12174.71095765   -11995.46358648
  entropy T*S    EENTRO =         0.00000000
  eigenvalues    EBANDS =     -2099.27912881
  atomic energy  EATOM  =     15501.99929693
  Solvation  Ediel_sol  =         0.00000000
  ---------------------------------------------------
  free energy    TOTEN  =      -218.47957932 eV

  energy without entropy =     -218.47957932  energy(sigma->0) =     -218.47957932


--------------------------------------------------------------------------------------------------------




--------------------------------------- Iteration      1(   5)  ---------------------------------------


     EDDAV:  cpu time     49.1670: real time     49.1783
 BZINTS: Fermi energy:    0.192317;  336.000000 electrons
         Band energy:-0.209941E+04;  BLOECHL correction:    0.000000
       DOS:  cpu time      0.0266: real time      0.0267
    CHARGE:  cpu time      7.3797: real time      7.3810
    MIXING:  cpu time      0.0090: real time      0.0090
    --------------------------------------------
      LOOP:  cpu time     56.5823: real time     56.5951

 eigenvalue-minimisations  : 10080
 total energy-change (2. order) :-0.1329245E+00  (-0.1328585E+00)
 number of electron     335.9999997 magnetization      44.9918631
 augmentation part      -47.3227850 magnetization      44.8837142

 Broyden mixing:
  rms(total) = 0.82808E+01    rms(broyden)= 0.82808E+01
  rms(prec ) = 0.83008E+01
  weight for this iteration     100.00

 Free energy of the ion-electron system (eV)
  ---------------------------------------------------
  alpha Z        PSCENC =       253.99581917
  Ewald energy   TEWEN  =     -9971.96839680
  -Hartree energ DENC   =     -4764.96640205
  -exchange      EXHF   =         0.00000000
  -V(xc)+E(xc)   XCENC  =       682.49186106
  PAW double counting   =     12174.71095765   -11995.46358648
  entropy T*S    EENTRO =         0.00000000
  eigenvalues    EBANDS =     -2099.41205334
  atomic energy  EATOM  =     15501.99929693
  Solvation  Ediel_sol  =         0.00000000
  ---------------------------------------------------
  free energy    TOTEN  =      -218.61250386 eV

  energy without entropy =     -218.61250386  energy(sigma->0) =     -218.61250386


--------------------------------------------------------------------------------------------------------




--------------------------------------- Iteration      1(   6)  ---------------------------------------


    POTLOK:  cpu time      0.4081: real time      0.4088
    SETDIJ:  cpu time      6.7129: real time      6.7135
     EDDAV:  cpu time     44.4265: real time     44.4331
 BZINTS: Fermi energy:    0.410243;  336.000000 electrons
         Band energy:-0.201395E+04;  BLOECHL correction:    0.000000
       DOS:  cpu time      0.0258: real time      0.0259
    CHARGE:  cpu time      7.1175: real time      7.1182
    MIXING:  cpu time      0.0112: real time      0.0112
    --------------------------------------------
      LOOP:  cpu time     58.7020: real time     58.7107

 eigenvalue-minimisations  :  9632
 total energy-change (2. order) : 0.1022801E+03  (-0.2668139E+02)
 number of electron     335.9999997 magnetization      26.4855193
 augmentation part      -47.6489497 magnetization      27.5440486

 Broyden mixing:
  rms(total) = 0.49339E+01    rms(broyden)= 0.49339E+01
  rms(prec ) = 0.49562E+01
  weight for this iteration     100.00

 eigenvalues of (default mixing * dielectric matrix)
  average eigenvalue GAMMA=   1.6659
  1.6659

 Free energy of the ion-electron system (eV)
  ---------------------------------------------------
  alpha Z        PSCENC =       253.99581917
  Ewald energy   TEWEN  =     -9971.96839680
  -Hartree energ DENC   =     -4809.25417491
  -exchange      EXHF   =         0.00000000
  -V(xc)+E(xc)   XCENC  =       746.06406961
  PAW double counting   =     20721.33149216   -20544.54980706
  entropy T*S    EENTRO =         0.00000000
  eigenvalues    EBANDS =     -2013.95069394
  atomic energy  EATOM  =     15501.99929693
  Solvation  Ediel_sol  =         0.00000000
  ---------------------------------------------------
  free energy    TOTEN  =      -116.33239484 eV

  energy without entropy =     -116.33239484  energy(sigma->0) =     -116.33239484


--------------------------------------------------------------------------------------------------------




--------------------------------------- Iteration      1(   7)  ---------------------------------------


    POTLOK:  cpu time      0.4039: real time      0.4069
    SETDIJ:  cpu time      7.7675: real time      7.7682
     EDDAV:  cpu time     45.8500: real time     45.8570
 BZINTS: Fermi energy:    0.738682;  336.000000 electrons
         Band energy:-0.186756E+04;  BLOECHL correction:    0.000000
       DOS:  cpu time      0.0289: real time      0.0289
    CHARGE:  cpu time      5.0620: real time      5.0625
    MIXING:  cpu time      1.1301: real time      1.1302
    --------------------------------------------
      LOOP:  cpu time     60.2424: real time     60.2537

 eigenvalue-minimisations  : 10112
 total energy-change (2. order) :-0.1114242E+02  (-0.2697155E+01)
 number of electron     335.9999997 magnetization      19.7152039
 augmentation part      -47.3165096 magnetization      20.9207899

 Broyden mixing:
  rms(total) = 0.14004E+01    rms(broyden)= 0.14004E+01
  rms(prec ) = 0.14040E+01
  weight for this iteration     100.00

 eigenvalues of (default mixing * dielectric matrix)
  average eigenvalue GAMMA=   1.4851
  0.7897  2.1805

 Free energy of the ion-electron system (eV)
  ---------------------------------------------------
  alpha Z        PSCENC =       253.99581917
  Ewald energy   TEWEN  =     -9971.96839680
  -Hartree energ DENC   =     -4968.71417219
  -exchange      EXHF   =         0.00000000
  -V(xc)+E(xc)   XCENC  =       751.40303485
  PAW double counting   =     37016.40448979   -36843.03275299
  entropy T*S    EENTRO =         0.00000000
  eigenvalues    EBANDS =     -1867.56213240
  atomic energy  EATOM  =     15501.99929693
  Solvation  Ediel_sol  =         0.00000000
  ---------------------------------------------------
  free energy    TOTEN  =      -127.47481364 eV

  energy without entropy =     -127.47481364  energy(sigma->0) =     -127.47481364


--------------------------------------------------------------------------------------------------------




--------------------------------------- Iteration      1(   8)  ---------------------------------------


    POTLOK:  cpu time      0.4080: real time      0.4090
    SETDIJ:  cpu time      4.7410: real time      4.7430
     EDDAV:  cpu time     43.6690: real time     43.6752
 BZINTS: Fermi energy:    0.706673;  336.000000 electrons
         Band energy:-0.185507E+04;  BLOECHL correction:    0.000000
       DOS:  cpu time      0.0258: real time      0.0258
    CHARGE:  cpu time      7.0553: real time      7.0563
    MIXING:  cpu time      0.0076: real time      0.0076
    --------------------------------------------
      LOOP:  cpu time     55.9066: real time     55.9168

 eigenvalue-minimisations  :  9312
 total energy-change (2. order) :-0.4274469E+02  (-0.1978451E+01)
 number of electron     335.9999997 magnetization      16.0521632
 augmentation part      -47.0118249 magnetization      17.0966151

 Broyden mixing:
  rms(total) = 0.78325E+00    rms(broyden)= 0.78325E+00
  rms(prec ) = 0.78840E+00
  weight for this iteration     100.00

 eigenvalues of (default mixing * dielectric matrix)
  average eigenvalue GAMMA=   1.3391
  2.4917  0.9424  0.5832

 Free energy of the ion-electron system (eV)
  ---------------------------------------------------
  alpha Z        PSCENC =       253.99581917
  Ewald energy   TEWEN  =     -9971.96839680
  -Hartree energ DENC   =     -4998.29585557
  -exchange      EXHF   =         0.00000000
  -V(xc)+E(xc)   XCENC  =       726.51193524
  PAW double counting   =     40160.28741888   -39987.68258177
  entropy T*S    EENTRO =         0.00000000
  eigenvalues    EBANDS =     -1855.06714430
  atomic energy  EATOM  =     15501.99929693
  Solvation  Ediel_sol  =         0.00000000
  ---------------------------------------------------
  free energy    TOTEN  =      -170.21950822 eV

  energy without entropy =     -170.21950822  energy(sigma->0) =     -170.21950822


--------------------------------------------------------------------------------------------------------




--------------------------------------- Iteration      1(   9)  ---------------------------------------


    POTLOK:  cpu time      0.4014: real time      0.4024
    SETDIJ:  cpu time      9.2306: real time      9.2315
     EDDAV:  cpu time     46.3912: real time     46.3983
 BZINTS: Fermi energy:    0.628749;  336.000000 electrons
         Band energy:-0.186633E+04;  BLOECHL correction:    0.000000
       DOS:  cpu time      0.0266: real time      0.0267
    CHARGE:  cpu time      6.8301: real time      6.8308
    MIXING:  cpu time      0.0108: real time      0.0108
    --------------------------------------------
      LOOP:  cpu time     62.8908: real time     62.9004

 eigenvalue-minimisations  : 10240
 total energy-change (2. order) :-0.1676791E+02  (-0.6430147E+00)
 number of electron     335.9999997 magnetization      11.5244663
 augmentation part      -46.9152696 magnetization      12.3619356

 Broyden mixing:
  rms(total) = 0.43627E+00    rms(broyden)= 0.43627E+00
  rms(prec ) = 0.44836E+00
  weight for this iteration     100.00

 eigenvalues of (default mixing * dielectric matrix)
  average eigenvalue GAMMA=   1.3248
  2.5764  1.3006  0.7112  0.7112

 Free energy of the ion-electron system (eV)
  ---------------------------------------------------
  alpha Z        PSCENC =       253.99581917
  Ewald energy   TEWEN  =     -9971.96839680
  -Hartree energ DENC   =     -4994.49363495
  -exchange      EXHF   =         0.00000000
  -V(xc)+E(xc)   XCENC  =       717.18185216
  PAW double counting   =     40941.85375890   -40769.23014402
  entropy T*S    EENTRO =         0.00000000
  eigenvalues    EBANDS =     -1866.32597273
  atomic energy  EATOM  =     15501.99929693
  Solvation  Ediel_sol  =         0.00000000
  ---------------------------------------------------
  free energy    TOTEN  =      -186.98742134 eV

  energy without entropy =     -186.98742134  energy(sigma->0) =     -186.98742134


--------------------------------------------------------------------------------------------------------




--------------------------------------- Iteration      1(  10)  ---------------------------------------


    POTLOK:  cpu time      0.4381: real time      0.4393
    SETDIJ:  cpu time      6.1921: real time      6.1927
     EDDAV:  cpu time     45.6678: real time     45.6800
 BZINTS: Fermi energy:    0.475571;  336.000000 electrons
         Band energy:-0.190086E+04;  BLOECHL correction:    0.000000
       DOS:  cpu time      0.0265: real time      0.0266
    CHARGE:  cpu time      7.2947: real time      7.2955
    MIXING:  cpu time      0.0125: real time      0.0125
    --------------------------------------------
      LOOP:  cpu time     59.6318: real time     59.6465

 eigenvalue-minimisations  :  9984
 total energy-change (2. order) :-0.2006206E+02  (-0.1303397E+01)
 number of electron     335.9999997 magnetization       5.3109549
 augmentation part      -46.8735010 magnetization       5.8452311

 Broyden mixing:
  rms(total) = 0.32414E+00    rms(broyden)= 0.32414E+00
  rms(prec ) = 0.33713E+00
  weight for this iteration     100.00

 eigenvalues of (default mixing * dielectric matrix)
  average eigenvalue GAMMA=   1.4488
  2.4861  2.4861  0.9416  0.7284  0.6020

 Free energy of the ion-electron system (eV)
  ---------------------------------------------------
  alpha Z        PSCENC =       253.99581917
  Ewald energy   TEWEN  =     -9971.96839680
  -Hartree energ DENC   =     -4969.09797158
  -exchange      EXHF   =         0.00000000
  -V(xc)+E(xc)   XCENC  =       705.60529708
  PAW double counting   =     40952.02058783   -40778.74219480
  entropy T*S    EENTRO =         0.00000000
  eigenvalues    EBANDS =     -1900.86191964
  atomic energy  EATOM  =     15501.99929693
  Solvation  Ediel_sol  =         0.00000000
  ---------------------------------------------------
  free energy    TOTEN  =      -207.04948180 eV

  energy without entropy =     -207.04948180  energy(sigma->0) =     -207.04948180


--------------------------------------------------------------------------------------------------------




--------------------------------------- Iteration      1(  11)  ---------------------------------------


    POTLOK:  cpu time      0.4060: real time      0.4070
    SETDIJ:  cpu time      4.2526: real time      4.2529
     EDDAV:  cpu time     44.0349: real time     44.0412
 BZINTS: Fermi energy:    0.257951;  336.000000 electrons
         Band energy:-0.195821E+04;  BLOECHL correction:    0.000000
       DOS:  cpu time      0.0267: real time      0.0268
    CHARGE:  cpu time      5.8029: real time      5.8038
    MIXING:  cpu time      0.0095: real time      0.0095
    --------------------------------------------
      LOOP:  cpu time     54.5326: real time     54.5412

 eigenvalue-minimisations  :  9952
 total energy-change (2. order) :-0.1782132E+02  (-0.2161039E+01)
 number of electron     335.9999997 magnetization       3.5763590
 augmentation part      -46.9053502 magnetization       3.7597462

 Broyden mixing:
  rms(total) = 0.18663E+00    rms(broyden)= 0.18663E+00
  rms(prec ) = 0.20032E+00
  weight for this iteration     100.00

 eigenvalues of (default mixing * dielectric matrix)
  average eigenvalue GAMMA=   1.4665
  2.7968  2.7968  1.0271  0.8892  0.6992  0.5900

 Free energy of the ion-electron system (eV)
  ---------------------------------------------------
  alpha Z        PSCENC =       253.99581917
  Ewald energy   TEWEN  =     -9971.96839680
  -Hartree energ DENC   =     -4919.53065896
  -exchange      EXHF   =         0.00000000
  -V(xc)+E(xc)   XCENC  =       694.50954379
  PAW double counting   =     40379.75795874   -40205.42079704
  entropy T*S    EENTRO =         0.00000000
  eigenvalues    EBANDS =     -1958.21356406
  atomic energy  EATOM  =     15501.99929693
  Solvation  Ediel_sol  =         0.00000000
  ---------------------------------------------------
  free energy    TOTEN  =      -224.87079824 eV

  energy without entropy =     -224.87079824  energy(sigma->0) =     -224.87079824


--------------------------------------------------------------------------------------------------------




--------------------------------------- Iteration      1(  12)  ---------------------------------------


    POTLOK:  cpu time      0.4087: real time      0.4095
    SETDIJ:  cpu time      5.9312: real time      5.9318
     EDDAV:  cpu time     44.0020: real time     44.0151
 BZINTS: Fermi energy:    0.184597;  336.000000 electrons
         Band energy:-0.197888E+04;  BLOECHL correction:    0.000000
       DOS:  cpu time      0.0275: real time      0.0276
    CHARGE:  cpu time      4.5563: real time      4.5568
    MIXING:  cpu time      0.0095: real time      0.0095
    --------------------------------------------
      LOOP:  cpu time     54.9352: real time     54.9502

 eigenvalue-minimisations  : 10048
 total energy-change (2. order) :-0.3389787E+01  (-0.3880229E+00)
 number of electron     335.9999997 magnetization       2.3940094
 augmentation part      -46.9155403 magnetization       2.4771982

 Broyden mixing:
  rms(total) = 0.15962E+00    rms(broyden)= 0.15962E+00
  rms(prec ) = 0.17216E+00
  weight for this iteration     100.00

 eigenvalues of (default mixing * dielectric matrix)
  average eigenvalue GAMMA=   1.4917
  3.1006  3.1006  1.0555  1.0555  0.7808  0.7808  0.5680

 Free energy of the ion-electron system (eV)
  ---------------------------------------------------
  alpha Z        PSCENC =       253.99581917
  Ewald energy   TEWEN  =     -9971.96839680
  -Hartree energ DENC   =     -4900.03301895
  -exchange      EXHF   =         0.00000000
  -V(xc)+E(xc)   XCENC  =       692.05417306
  PAW double counting   =     39946.41353801   -39771.83925451
  entropy T*S    EENTRO =         0.00000000
  eigenvalues    EBANDS =     -1978.88274232
  atomic energy  EATOM  =     15501.99929693
  Solvation  Ediel_sol  =         0.00000000
  ---------------------------------------------------
  free energy    TOTEN  =      -228.26058542 eV

  energy without entropy =     -228.26058542  energy(sigma->0) =     -228.26058542


--------------------------------------------------------------------------------------------------------




--------------------------------------- Iteration      1(  13)  ---------------------------------------


    POTLOK:  cpu time      0.4073: real time      0.4083
    SETDIJ:  cpu time      4.5025: real time      4.5033
     EDDAV:  cpu time     42.5384: real time     42.5443
 BZINTS: Fermi energy:    0.116586;  336.000000 electrons
         Band energy:-0.200133E+04;  BLOECHL correction:    0.000000
       DOS:  cpu time      0.0274: real time      0.0275
    CHARGE:  cpu time      3.5654: real time      3.5658
    MIXING:  cpu time      0.0101: real time      0.0101
    --------------------------------------------
      LOOP:  cpu time     51.0512: real time     51.0592

 eigenvalue-minimisations  :  9568
 total energy-change (2. order) :-0.1054232E+01  (-0.1337518E+00)
 number of electron     335.9999997 magnetization       0.8882913
 augmentation part      -46.9737434 magnetization       0.9143371

 Broyden mixing:
  rms(total) = 0.93069E-01    rms(broyden)= 0.93069E-01
  rms(prec ) = 0.99880E-01
  weight for this iteration     100.00

 eigenvalues of (default mixing * dielectric matrix)
  average eigenvalue GAMMA=   1.5515
  3.3220  3.3220  1.5846  1.2843  0.9272  0.6997  0.6997  0.5724

 Free energy of the ion-electron system (eV)
  ---------------------------------------------------
  alpha Z        PSCENC =       253.99581917
  Ewald energy   TEWEN  =     -9971.96839680
  -Hartree energ DENC   =     -4876.89592272
  -exchange      EXHF   =         0.00000000
  -V(xc)+E(xc)   XCENC  =       690.07053593
  PAW double counting   =     39126.30775585   -38951.49410811
  entropy T*S    EENTRO =         0.00000000
  eigenvalues    EBANDS =     -2001.32979790
  atomic energy  EATOM  =     15501.99929693
  Solvation  Ediel_sol  =         0.00000000
  ---------------------------------------------------
  free energy    TOTEN  =      -229.31481765 eV

  energy without entropy =     -229.31481765  energy(sigma->0) =     -229.31481765


--------------------------------------------------------------------------------------------------------




--------------------------------------- Iteration      1(  14)  ---------------------------------------


    POTLOK:  cpu time      0.4030: real time      0.4039
    SETDIJ:  cpu time      9.5446: real time      9.5454
     EDDAV:  cpu time     40.2335: real time     40.2415
 BZINTS: Fermi energy:    0.081267;  336.000000 electrons
         Band energy:-0.201180E+04;  BLOECHL correction:    0.000000
       DOS:  cpu time      0.0257: real time      0.0258
    CHARGE:  cpu time     15.1924: real time     15.1936
    MIXING:  cpu time      0.0093: real time      0.0093
    --------------------------------------------
      LOOP:  cpu time     65.4085: real time     65.4195

 eigenvalue-minimisations  :  8992
 total energy-change (2. order) :-0.6499321E-01  (-0.1626573E-01)
 number of electron     335.9999997 magnetization       0.4189267
 augmentation part      -47.0008279 magnetization       0.4259291

 Broyden mixing:
  rms(total) = 0.43638E-01    rms(broyden)= 0.43638E-01
  rms(prec ) = 0.46346E-01
  weight for this iteration     100.00

 eigenvalues of (default mixing * dielectric matrix)
  average eigenvalue GAMMA=   1.5784
  4.1291  2.5575  2.5575  1.0965  1.0965  0.7712  0.7712  0.5748  0.6517

 Free energy of the ion-electron system (eV)
  ---------------------------------------------------
  alpha Z        PSCENC =       253.99581917
  Ewald energy   TEWEN  =     -9971.96839680
  -Hartree energ DENC   =     -4865.53382613
  -exchange      EXHF   =         0.00000000
  -V(xc)+E(xc)   XCENC  =       689.15805245
  PAW double counting   =     39065.91910824   -38891.15059494
  entropy T*S    EENTRO =         0.00000000
  eigenvalues    EBANDS =     -2011.79926979
  atomic energy  EATOM  =     15501.99929693
  Solvation  Ediel_sol  =         0.00000000
  ---------------------------------------------------
  free energy    TOTEN  =      -229.37981087 eV

  energy without entropy =     -229.37981087  energy(sigma->0) =     -229.37981087


--------------------------------------------------------------------------------------------------------




--------------------------------------- Iteration      1(  15)  ---------------------------------------


    POTLOK:  cpu time      0.4091: real time      0.4098
    SETDIJ:  cpu time      6.3488: real time      6.3498
     EDDAV:  cpu time     42.5333: real time     42.5393
 BZINTS: Fermi energy:    0.079337;  336.000000 electrons
         Band energy:-0.201149E+04;  BLOECHL correction:    0.000000
       DOS:  cpu time      0.0258: real time      0.0259
    CHARGE:  cpu time     13.3151: real time     13.3161
    MIXING:  cpu time      0.0105: real time      0.0105
    --------------------------------------------
      LOOP:  cpu time     62.6426: real time     62.6513

 eigenvalue-minimisations  :  9600
 total energy-change (2. order) : 0.1302910E-02  (-0.2079094E-02)
 number of electron     335.9999997 magnetization       0.1729857
 augmentation part      -46.9946658 magnetization       0.1772952

 Broyden mixing:
  rms(total) = 0.20228E-01    rms(broyden)= 0.20228E-01
  rms(prec ) = 0.21803E-01
  weight for this iteration     100.00

 eigenvalues of (default mixing * dielectric matrix)
  average eigenvalue GAMMA=   1.5646
  4.5514  2.5277  2.5277  1.3348  0.9969  0.9969  0.7586  0.7586  0.6240  0.5693

 Free energy of the ion-electron system (eV)
  ---------------------------------------------------
  alpha Z        PSCENC =       253.99581917
  Ewald energy   TEWEN  =     -9971.96839680
  -Hartree energ DENC   =     -4865.71767592
  -exchange      EXHF   =         0.00000000
  -V(xc)+E(xc)   XCENC  =       689.12062246
  PAW double counting   =     39151.32211890   -38976.64071358
  entropy T*S    EENTRO =         0.00000000
  eigenvalues    EBANDS =     -2011.48957911
  atomic energy  EATOM  =     15501.99929693
  Solvation  Ediel_sol  =         0.00000000
  ---------------------------------------------------
  free energy    TOTEN  =      -229.37850796 eV

  energy without entropy =     -229.37850796  energy(sigma->0) =     -229.37850796


--------------------------------------------------------------------------------------------------------




--------------------------------------- Iteration      1(  16)  ---------------------------------------


    POTLOK:  cpu time      0.3943: real time      0.3952
    SETDIJ:  cpu time      7.0885: real time      7.0894
     EDDAV:  cpu time     42.7767: real time     42.7827
 BZINTS: Fermi energy:    0.077410;  336.000000 electrons
         Band energy:-0.201196E+04;  BLOECHL correction:    0.000000
       DOS:  cpu time      0.0274: real time      0.0274
    CHARGE:  cpu time      5.4117: real time      5.4123
    MIXING:  cpu time      0.0108: real time      0.0108
    --------------------------------------------
      LOOP:  cpu time     55.7094: real time     55.7179

 eigenvalue-minimisations  :  9152
 total energy-change (2. order) : 0.3086113E-02  (-0.5506867E-03)
 number of electron     335.9999997 magnetization       0.0700106
 augmentation part      -46.9935435 magnetization       0.0708156

 Broyden mixing:
  rms(total) = 0.12352E-01    rms(broyden)= 0.12352E-01
  rms(prec ) = 0.13364E-01
  weight for this iteration     100.00

 eigenvalues of (default mixing * dielectric matrix)
  average eigenvalue GAMMA=   1.5466
  4.7561  2.4277  2.4277  1.8418  0.9965  0.9965  0.9220  0.7282  0.7282  0.5808
  0.6066

 Free energy of the ion-electron system (eV)
  ---------------------------------------------------
  alpha Z        PSCENC =       253.99581917
  Ewald energy   TEWEN  =     -9971.96839680
  -Hartree energ DENC   =     -4865.15075698
  -exchange      EXHF   =         0.00000000
  -V(xc)+E(xc)   XCENC  =       689.05194351
  PAW double counting   =     39120.99348203   -38946.33581121
  entropy T*S    EENTRO =         0.00000000
  eigenvalues    EBANDS =     -2011.96099849
  atomic energy  EATOM  =     15501.99929693
  Solvation  Ediel_sol  =         0.00000000
  ---------------------------------------------------
  free energy    TOTEN  =      -229.37542184 eV

  energy without entropy =     -229.37542184  energy(sigma->0) =     -229.37542184


--------------------------------------------------------------------------------------------------------




--------------------------------------- Iteration      1(  17)  ---------------------------------------


    POTLOK:  cpu time      0.3931: real time      0.3940
    SETDIJ:  cpu time      9.1380: real time      9.1391
     EDDAV:  cpu time     41.9006: real time     41.9063
 BZINTS: Fermi energy:    0.079352;  336.000000 electrons
         Band energy:-0.201103E+04;  BLOECHL correction:    0.000000
       DOS:  cpu time      0.0258: real time      0.0258
    CHARGE:  cpu time      3.6191: real time      3.6195
    MIXING:  cpu time      0.0103: real time      0.0103
    --------------------------------------------
      LOOP:  cpu time     55.0867: real time     55.0949

 eigenvalue-minimisations  :  9472
 total energy-change (2. order) :-0.5025913E-03  (-0.1197666E-03)
 number of electron     335.9999997 magnetization       0.0179739
 augmentation part      -46.9884699 magnetization       0.0183766

 Broyden mixing:
  rms(total) = 0.49364E-02    rms(broyden)= 0.49364E-02
  rms(prec ) = 0.55351E-02
  weight for this iteration     100.00

 eigenvalues of (default mixing * dielectric matrix)
  average eigenvalue GAMMA=   1.5760
  4.9473  2.6017  2.6017  2.2023  1.1778  0.9959  0.9959  0.7615  0.7615  0.6816
  0.5876  0.5973

 Free energy of the ion-electron system (eV)
  ---------------------------------------------------
  alpha Z        PSCENC =       253.99581917
  Ewald energy   TEWEN  =     -9971.96839680
  -Hartree energ DENC   =     -4866.11499248
  -exchange      EXHF   =         0.00000000
  -V(xc)+E(xc)   XCENC  =       689.11204880
  PAW double counting   =     39162.04395537   -38987.41058492
  entropy T*S    EENTRO =         0.00000000
  eigenvalues    EBANDS =     -2011.03307051
  atomic energy  EATOM  =     15501.99929693
  Solvation  Ediel_sol  =         0.00000000
  ---------------------------------------------------
  free energy    TOTEN  =      -229.37592443 eV

  energy without entropy =     -229.37592443  energy(sigma->0) =     -229.37592443


--------------------------------------------------------------------------------------------------------




--------------------------------------- Iteration      1(  18)  ---------------------------------------


    POTLOK:  cpu time      0.4001: real time      0.4009
    SETDIJ:  cpu time      9.5176: real time      9.5185
     EDDAV:  cpu time     44.1155: real time     44.1220
 BZINTS: Fermi energy:    0.080393;  336.000000 electrons
         Band energy:-0.201051E+04;  BLOECHL correction:    0.000000
       DOS:  cpu time      0.0275: real time      0.0275
    CHARGE:  cpu time     11.9035: real time     11.9046
    MIXING:  cpu time      0.0099: real time      0.0099
    --------------------------------------------
      LOOP:  cpu time     65.9741: real time     65.9834

 eigenvalue-minimisations  :  9568
 total energy-change (2. order) :-0.1145943E-03  (-0.3961383E-04)
 number of electron     335.9999997 magnetization       0.0052769
 augmentation part      -46.9851337 magnetization       0.0058201

 Broyden mixing:
  rms(total) = 0.44663E-02    rms(broyden)= 0.44663E-02
  rms(prec ) = 0.47180E-02
  weight for this iteration     100.00

 eigenvalues of (default mixing * dielectric matrix)
  average eigenvalue GAMMA=   1.5444
  5.0013  2.6453  2.6453  2.2648  1.1298  1.1298  0.9910  0.9910  0.7249  0.7249
  0.5785  0.6446  0.6065

 Free energy of the ion-electron system (eV)
  ---------------------------------------------------
  alpha Z        PSCENC =       253.99581917
  Ewald energy   TEWEN  =     -9971.96839680
  -Hartree energ DENC   =     -4866.65974664
  -exchange      EXHF   =         0.00000000
  -V(xc)+E(xc)   XCENC  =       689.14747446
  PAW double counting   =     39190.85845294   -39016.23990420
  entropy T*S    EENTRO =         0.00000000
  eigenvalues    EBANDS =     -2010.50903488
  atomic energy  EATOM  =     15501.99929693
  Solvation  Ediel_sol  =         0.00000000
  ---------------------------------------------------
  free energy    TOTEN  =      -229.37603903 eV

  energy without entropy =     -229.37603903  energy(sigma->0) =     -229.37603903


--------------------------------------------------------------------------------------------------------




--------------------------------------- Iteration      1(  19)  ---------------------------------------


    POTLOK:  cpu time      0.3906: real time      0.3916
    SETDIJ:  cpu time     10.4696: real time     10.4708
     EDDAV:  cpu time     42.7957: real time     42.8017
 BZINTS: Fermi energy:    0.079608;  336.000000 electrons
         Band energy:-0.201077E+04;  BLOECHL correction:    0.000000
       DOS:  cpu time      0.0258: real time      0.0258
    CHARGE:  cpu time      4.8748: real time      4.8753
    MIXING:  cpu time      1.9385: real time      1.9387
    --------------------------------------------
      LOOP:  cpu time     60.4949: real time     60.5040

 eigenvalue-minimisations  :  9728
 total energy-change (2. order) :-0.6016424E-05  (-0.6216668E-05)
 number of electron     335.9999997 magnetization      -0.0004848
 augmentation part      -46.9859641 magnetization      -0.0002408

 Broyden mixing:
  rms(total) = 0.20297E-02    rms(broyden)= 0.20297E-02
  rms(prec ) = 0.22038E-02
  weight for this iteration     100.00

 eigenvalues of (default mixing * dielectric matrix)
  average eigenvalue GAMMA=   1.5456
  5.0448  2.7071  2.7071  2.1106  1.4086  1.4086  1.0329  1.0329  0.8584  0.7537
  0.7537  0.5799  0.6093  0.6310

 Free energy of the ion-electron system (eV)
  ---------------------------------------------------
  alpha Z        PSCENC =       253.99581917
  Ewald energy   TEWEN  =     -9971.96839680
  -Hartree energ DENC   =     -4866.38625553
  -exchange      EXHF   =         0.00000000
  -V(xc)+E(xc)   XCENC  =       689.13062293
  PAW double counting   =     39189.49361698   -39014.87193356
  entropy T*S    EENTRO =         0.00000000
  eigenvalues    EBANDS =     -2010.76881517
  atomic energy  EATOM  =     15501.99929693
  Solvation  Ediel_sol  =         0.00000000
  ---------------------------------------------------
  free energy    TOTEN  =      -229.37604505 eV

  energy without entropy =     -229.37604505  energy(sigma->0) =     -229.37604505


--------------------------------------------------------------------------------------------------------




--------------------------------------- Iteration      1(  20)  ---------------------------------------


    POTLOK:  cpu time      0.3870: real time      0.3941
    SETDIJ:  cpu time      5.6804: real time      5.6809
     EDDAV:  cpu time     41.0588: real time     41.0655
 BZINTS: Fermi energy:    0.079226;  336.000000 electrons
         Band energy:-0.201091E+04;  BLOECHL correction:    0.000000
       DOS:  cpu time      0.0258: real time      0.0259
    CHARGE:  cpu time      7.7998: real time      7.8005
    MIXING:  cpu time      0.0127: real time      0.0127
    --------------------------------------------
      LOOP:  cpu time     54.9645: real time     54.9795

 eigenvalue-minimisations  :  9216
 total energy-change (2. order) :-0.1045669E-04  (-0.3474788E-05)
 number of electron     335.9999997 magnetization      -0.0016151
 augmentation part      -46.9864944 magnetization      -0.0015359

 Broyden mixing:
  rms(total) = 0.95237E-03    rms(broyden)= 0.95225E-03
  rms(prec ) = 0.10113E-02
  weight for this iteration     100.00

 eigenvalues of (default mixing * dielectric matrix)
  average eigenvalue GAMMA=   1.5470
  5.0949  2.7082  2.7082  2.0986  2.0986  1.2307  1.2307  0.9902  0.9902  0.7801
  0.7328  0.7328  0.5779  0.6158  0.6158

 Free energy of the ion-electron system (eV)
  ---------------------------------------------------
  alpha Z        PSCENC =       253.99581917
  Ewald energy   TEWEN  =     -9971.96839680
  -Hartree energ DENC   =     -4866.24329810
  -exchange      EXHF   =         0.00000000
  -V(xc)+E(xc)   XCENC  =       689.12361239
  PAW double counting   =     39194.64655352   -39020.02294784
  entropy T*S    EENTRO =         0.00000000
  eigenvalues    EBANDS =     -2010.90669477
  atomic energy  EATOM  =     15501.99929693
  Solvation  Ediel_sol  =         0.00000000
  ---------------------------------------------------
  free energy    TOTEN  =      -229.37605550 eV

  energy without entropy =     -229.37605550  energy(sigma->0) =     -229.37605550


--------------------------------------------------------------------------------------------------------




--------------------------------------- Iteration      1(  21)  ---------------------------------------


    POTLOK:  cpu time      0.3872: real time      0.3881
    SETDIJ:  cpu time      7.6162: real time      7.6168
     EDDAV:  cpu time     41.3520: real time     41.3583
 BZINTS: Fermi energy:    0.079333;  336.000000 electrons
         Band energy:-0.201096E+04;  BLOECHL correction:    0.000000
       DOS:  cpu time      0.0258: real time      0.0258
    CHARGE:  cpu time      7.1703: real time      7.1709
    MIXING:  cpu time      0.0093: real time      0.0093
    --------------------------------------------
      LOOP:  cpu time     56.5607: real time     56.5694

 eigenvalue-minimisations  :  9280
 total energy-change (2. order) : 0.1194978E-05  (-0.8887570E-06)
 number of electron     335.9999997 magnetization      -0.0013375
 augmentation part      -46.9866896 magnetization      -0.0013412

 Broyden mixing:
  rms(total) = 0.42533E-03    rms(broyden)= 0.42506E-03
  rms(prec ) = 0.44743E-03
  weight for this iteration     100.00

 eigenvalues of (default mixing * dielectric matrix)
  average eigenvalue GAMMA=   1.5119
  5.0968  2.6683  2.6683  2.5719  1.6075  1.4048  1.1554  1.1554  0.9282  0.9282
  0.7391  0.7391  0.7252  0.5776  0.6125  0.6125

 Free energy of the ion-electron system (eV)
  ---------------------------------------------------
  alpha Z        PSCENC =       253.99581917
  Ewald energy   TEWEN  =     -9971.96839680
  -Hartree energ DENC   =     -4866.18417208
  -exchange      EXHF   =         0.00000000
  -V(xc)+E(xc)   XCENC  =       689.11999408
  PAW double counting   =     39194.07871834   -39019.45429477
  entropy T*S    EENTRO =         0.00000000
  eigenvalues    EBANDS =     -2010.96301918
  atomic energy  EATOM  =     15501.99929693
  Solvation  Ediel_sol  =         0.00000000
  ---------------------------------------------------
  free energy    TOTEN  =      -229.37605431 eV

  energy without entropy =     -229.37605431  energy(sigma->0) =     -229.37605431


--------------------------------------------------------------------------------------------------------




--------------------------------------- Iteration      1(  22)  ---------------------------------------


    POTLOK:  cpu time      0.3897: real time      0.3933
    SETDIJ:  cpu time      7.9309: real time      7.9313
     EDDAV:  cpu time     41.3242: real time     41.3290
 BZINTS: Fermi energy:    0.079135;  336.000000 electrons
         Band energy:-0.201098E+04;  BLOECHL correction:    0.000000
       DOS:  cpu time      0.0256: real time      0.0257
    CHARGE:  cpu time      7.5535: real time      7.5539
    MIXING:  cpu time      0.0126: real time      0.0126
    --------------------------------------------
      LOOP:  cpu time     57.2365: real time     57.2458

 eigenvalue-minimisations  :  9824
 total energy-change (2. order) : 0.4519788E-06  (-0.1415696E-06)
 number of electron     335.9999997 magnetization      -0.0004721
 augmentation part      -46.9867580 magnetization      -0.0004935

 Broyden mixing:
  rms(total) = 0.23099E-03    rms(broyden)= 0.23049E-03
  rms(prec ) = 0.24519E-03
  weight for this iteration     100.00

 eigenvalues of (default mixing * dielectric matrix)
  average eigenvalue GAMMA=   1.5006
  5.0911  2.6574  2.6574  2.6242  1.6689  1.4404  1.4404  1.0836  1.0836  0.9004
  0.9004  0.7422  0.7422  0.6733  0.5787  0.6126  0.6126

 Free energy of the ion-electron system (eV)
  ---------------------------------------------------
  alpha Z        PSCENC =       253.99581917
  Ewald energy   TEWEN  =     -9971.96839680
  -Hartree energ DENC   =     -4866.16265796
  -exchange      EXHF   =         0.00000000
  -V(xc)+E(xc)   XCENC  =       689.11842221
  PAW double counting   =     39192.67019473   -39018.04546697
  entropy T*S    EENTRO =         0.00000000
  eigenvalues    EBANDS =     -2010.98326516
  atomic energy  EATOM  =     15501.99929693
  Solvation  Ediel_sol  =         0.00000000
  ---------------------------------------------------
  free energy    TOTEN  =      -229.37605386 eV

  energy without entropy =     -229.37605386  energy(sigma->0) =     -229.37605386


--------------------------------------------------------------------------------------------------------




--------------------------------------- Iteration      1(  23)  ---------------------------------------


    POTLOK:  cpu time      0.3892: real time      0.3901
    SETDIJ:  cpu time      7.6191: real time      7.6197
     EDDAV:  cpu time     41.0805: real time     41.0868
 BZINTS: Fermi energy:    0.079157;  336.000000 electrons
         Band energy:-0.201098E+04;  BLOECHL correction:    0.000000
       DOS:  cpu time      0.0257: real time      0.0258
    CHARGE:  cpu time      8.6359: real time      8.6366
    MIXING:  cpu time      0.0122: real time      0.0122
    --------------------------------------------
      LOOP:  cpu time     57.7627: real time     57.7711

 eigenvalue-minimisations  :  9216
 total energy-change (2. order) :-0.2240486E-06  (-0.5736243E-07)
 number of electron     335.9999997 magnetization      -0.0002598
 augmentation part      -46.9867314 magnetization      -0.0002560

 Broyden mixing:
[...]

  length of vectors
    10.314108670 16.788494411 10.846477853     0.097707938  0.059564603  0.092912216


 FORCES acting on ions
    electron-ion (+dipol)            ewald-force                    non-local-force                 convergence-correction
 -----------------------------------------------------------------------------------------------
   0.986E+02 -.105E+03 -.125E+02   -.104E+03 0.113E+03 0.112E+02   0.495E+01 -.888E+01 0.132E+01   0.175E-05 -.391E-06 0.929E-06
   0.987E+02 -.105E+03 -.125E+02   -.104E+03 0.113E+03 0.112E+02   0.495E+01 -.888E+01 0.132E+01   0.161E-05 -.442E-06 0.880E-06
   -.124E+02 0.420E+02 -.127E+03   0.127E+02 -.472E+02 0.134E+03   -.246E+00 0.519E+01 -.705E+01   0.282E-06 0.105E-06 -.871E-06
   -.123E+02 0.420E+02 -.127E+03   0.126E+02 -.472E+02 0.134E+03   -.246E+00 0.519E+01 -.705E+01   -.115E-07 0.625E-07 -.113E-05
   -.211E+02 -.902E+02 0.981E+02   0.198E+02 0.989E+02 -.103E+03   0.134E+01 -.874E+01 0.530E+01   0.393E-07 -.285E-06 0.165E-05
   -.211E+02 -.902E+02 0.981E+02   0.198E+02 0.989E+02 -.103E+03   0.134E+01 -.874E+01 0.530E+01   -.161E-06 -.155E-06 0.177E-05
   -.108E+03 0.950E+02 0.622E+01   0.114E+03 -.101E+03 -.411E+01   -.534E+01 0.592E+01 -.212E+01   -.150E-05 -.135E-06 0.618E-06
   -.108E+03 0.950E+02 0.625E+01   0.114E+03 -.101E+03 -.414E+01   -.534E+01 0.592E+01 -.212E+01   -.188E-05 -.490E-07 0.669E-06
   0.136E+03 -.540E+02 -.180E+02   -.143E+03 0.595E+02 0.185E+02   0.680E+01 -.559E+01 -.588E+00   0.181E-05 -.166E-06 -.104E-05
   0.136E+03 -.540E+02 -.187E+02   -.143E+03 0.595E+02 0.193E+02   0.680E+01 -.552E+01 -.558E+00   0.145E-05 -.579E-07 -.100E-05
   -.136E+03 0.540E+02 0.187E+02   0.143E+03 -.595E+02 -.193E+02   -.680E+01 0.552E+01 0.558E+00   -.147E-05 -.105E-06 0.971E-06
   -.136E+03 0.540E+02 0.187E+02   0.143E+03 -.595E+02 -.193E+02   -.680E+01 0.552E+01 0.558E+00   -.170E-05 -.686E-07 0.101E-05
   0.109E+03 -.950E+02 -.631E+01   -.114E+03 0.101E+03 0.419E+01   0.534E+01 -.592E+01 0.212E+01   0.189E-05 0.461E-07 -.749E-06
   0.108E+03 -.950E+02 -.626E+01   -.114E+03 0.101E+03 0.414E+01   0.534E+01 -.592E+01 0.212E+01   0.152E-05 0.477E-08 -.685E-06
   -.117E+02 -.421E+02 0.127E+03   0.119E+02 0.473E+02 -.134E+03   -.277E+00 -.526E+01 0.706E+01   0.149E-06 -.961E-07 0.157E-05
   -.124E+02 -.420E+02 0.127E+03   0.126E+02 0.472E+02 -.134E+03   -.246E+00 -.519E+01 0.705E+01   0.249E-07 -.531E-07 0.134E-05
   0.211E+02 -.902E+02 0.981E+02   -.198E+02 0.989E+02 -.103E+03   -.134E+01 -.874E+01 0.530E+01   0.171E-06 0.156E-06 0.150E-05
   0.211E+02 -.902E+02 0.981E+02   -.198E+02 0.989E+02 -.103E+03   -.134E+01 -.874E+01 0.530E+01   -.870E-08 0.759E-07 0.168E-05
   -.987E+02 -.105E+03 -.126E+02   0.104E+03 0.113E+03 0.113E+02   -.495E+01 -.888E+01 0.132E+01   -.150E-05 -.829E-07 0.958E-06
   -.986E+02 -.105E+03 -.125E+02   0.104E+03 0.113E+03 0.112E+02   -.495E+01 -.888E+01 0.132E+01   -.181E-05 -.107E-06 0.780E-06
   -.136E+03 -.539E+02 -.187E+02   0.143E+03 0.594E+02 0.193E+02   -.680E+01 -.552E+01 -.558E+00   -.169E-05 0.825E-07 -.108E-05
   -.136E+03 -.539E+02 -.187E+02   0.143E+03 0.595E+02 0.193E+02   -.680E+01 -.552E+01 -.558E+00   -.154E-05 0.795E-07 -.106E-05
   0.124E+02 0.420E+02 -.127E+03   -.126E+02 -.472E+02 0.134E+03   0.245E+00 0.519E+01 -.705E+01   -.360E-07 -.109E-06 -.935E-06
   0.123E+02 0.420E+02 -.127E+03   -.126E+02 -.472E+02 0.134E+03   0.246E+00 0.519E+01 -.705E+01   -.214E-06 -.495E-07 -.103E-05
   -.108E+03 -.950E+02 -.625E+01   0.114E+03 0.101E+03 0.413E+01   -.534E+01 -.592E+01 0.212E+01   -.160E-05 0.123E-06 -.729E-06
   -.108E+03 -.950E+02 -.622E+01   0.114E+03 0.101E+03 0.411E+01   -.533E+01 -.592E+01 0.212E+01   -.189E-05 0.929E-07 -.712E-06
   0.987E+02 0.105E+03 0.125E+02   -.104E+03 -.114E+03 -.112E+02   0.495E+01 0.888E+01 -.132E+01   0.190E-05 0.489E-06 -.648E-06
   0.986E+02 0.105E+03 0.125E+02   -.104E+03 -.113E+03 -.112E+02   0.495E+01 0.888E+01 -.132E+01   0.156E-05 0.349E-06 -.763E-06
   -.987E+02 0.105E+03 0.125E+02   0.104E+03 -.113E+03 -.112E+02   -.495E+01 0.888E+01 -.132E+01   -.157E-05 0.468E-07 -.654E-06
   -.986E+02 0.104E+03 0.126E+02   0.104E+03 -.113E+03 -.112E+02   -.497E+01 0.888E+01 -.133E+01   -.185E-05 0.129E-06 -.664E-06
   0.723E+02 0.959E+02 0.629E+02   -.750E+02 -.105E+03 -.649E+02   0.273E+01 0.973E+01 0.207E+01   0.981E-06 0.178E-06 0.849E-06
   0.728E+02 0.961E+02 0.633E+02   -.755E+02 -.106E+03 -.653E+02   0.274E+01 0.971E+01 0.207E+01   0.765E-06 0.240E-06 0.598E-06
   0.218E+02 -.937E+02 -.890E+02   -.205E+02 0.100E+03 0.941E+02   -.133E+01 -.628E+01 -.509E+01   0.434E-06 0.144E-06 -.182E-05
   0.218E+02 -.938E+02 -.889E+02   -.205E+02 0.100E+03 0.940E+02   -.133E+01 -.628E+01 -.509E+01   0.199E-06 0.469E-07 -.151E-05
   -.211E+02 0.903E+02 -.981E+02   0.198E+02 -.990E+02 0.103E+03   0.134E+01 0.874E+01 -.530E+01   0.260E-07 0.216E-06 -.222E-05
   -.211E+02 0.902E+02 -.981E+02   0.198E+02 -.989E+02 0.103E+03   0.134E+01 0.874E+01 -.530E+01   -.140E-06 0.194E-06 -.197E-05
   -.218E+02 0.938E+02 0.889E+02   0.205E+02 -.100E+03 -.940E+02   0.133E+01 0.628E+01 0.508E+01   -.950E-07 -.150E-06 0.113E-05
   -.218E+02 0.938E+02 0.889E+02   0.205E+02 -.100E+03 -.940E+02   0.133E+01 0.628E+01 0.509E+01   -.428E-06 -.110E-06 0.140E-05
   0.211E+02 0.901E+02 -.980E+02   -.198E+02 -.988E+02 0.103E+03   -.134E+01 0.874E+01 -.532E+01   0.140E-06 -.173E-06 -.209E-05
   0.211E+02 0.902E+02 -.981E+02   -.198E+02 -.989E+02 0.103E+03   -.134E+01 0.874E+01 -.530E+01   -.221E-08 -.111E-06 -.187E-05
   0.728E+02 -.961E+02 -.633E+02   -.755E+02 0.106E+03 0.653E+02   0.274E+01 -.971E+01 -.207E+01   0.870E-06 -.197E-06 -.357E-06
   0.728E+02 -.961E+02 -.633E+02   -.755E+02 0.106E+03 0.653E+02   0.274E+01 -.971E+01 -.207E+01   0.836E-06 -.268E-06 -.425E-06
   0.136E+03 0.540E+02 0.187E+02   -.143E+03 -.595E+02 -.193E+02   0.680E+01 0.552E+01 0.558E+00   0.152E-05 0.124E-06 0.961E-06
   0.136E+03 0.540E+02 0.187E+02   -.143E+03 -.595E+02 -.192E+02   0.680E+01 0.552E+01 0.558E+00   0.167E-05 0.505E-07 0.946E-06
   0.108E+03 0.950E+02 0.626E+01   -.114E+03 -.101E+03 -.415E+01   0.534E+01 0.592E+01 -.212E+01   0.175E-05 0.531E-07 0.610E-06
   0.108E+03 0.950E+02 0.625E+01   -.114E+03 -.101E+03 -.414E+01   0.534E+01 0.592E+01 -.212E+01   0.155E-05 -.111E-07 0.664E-06
   -.727E+02 -.962E+02 -.632E+02   0.755E+02 0.106E+03 0.653E+02   -.274E+01 -.971E+01 -.207E+01   -.751E-06 -.693E-06 -.266E-06
   -.728E+02 -.962E+02 -.632E+02   0.755E+02 0.106E+03 0.653E+02   -.274E+01 -.971E+01 -.207E+01   -.976E-06 -.579E-06 -.482E-06
   -.218E+02 -.938E+02 -.888E+02   0.204E+02 0.100E+03 0.939E+02   0.133E+01 -.627E+01 -.508E+01   -.296E-06 0.838E-07 -.177E-05
   -.218E+02 -.938E+02 -.889E+02   0.205E+02 0.100E+03 0.940E+02   0.133E+01 -.628E+01 -.509E+01   -.364E-06 0.144E-06 -.162E-05
   0.218E+02 0.938E+02 0.889E+02   -.205E+02 -.100E+03 -.940E+02   -.133E+01 0.628E+01 0.509E+01   0.306E-06 -.890E-07 0.122E-05
   0.218E+02 0.938E+02 0.889E+02   -.205E+02 -.100E+03 -.940E+02   -.133E+01 0.628E+01 0.509E+01   0.201E-06 -.595E-07 0.127E-05
   -.728E+02 0.963E+02 0.632E+02   0.755E+02 -.106E+03 -.653E+02   -.274E+01 0.971E+01 0.207E+01   -.868E-06 0.605E-06 0.778E-06
   -.728E+02 0.962E+02 0.633E+02   0.755E+02 -.106E+03 -.653E+02   -.274E+01 0.971E+01 0.207E+01   -.915E-06 0.629E-06 0.622E-06
   0.124E+02 -.418E+02 0.127E+03   -.126E+02 0.470E+02 -.134E+03   0.246E+00 -.519E+01 0.705E+01   0.274E-07 0.178E-06 0.157E-05
   0.124E+02 -.420E+02 0.127E+03   -.126E+02 0.472E+02 -.134E+03   0.246E+00 -.519E+01 0.705E+01   -.188E-06 0.525E-07 0.128E-05
 -----------------------------------------------------------------------------------------------
   0.569E-01 0.906E-01 0.476E-01   0.782E-13 0.156E-12 0.142E-12   -.569E-01 -.907E-01 -.476E-01   -.195E-07 -.104E-07 0.492E-07


 POSITION                                       TOTAL-FORCE (eV/Angst)
 -----------------------------------------------------------------------------------
      7.84031      7.96182     -7.59135         0.002567     -0.000831      0.001024
     16.23455      7.96182     -7.59135         0.002462     -0.001283      0.000924
      3.16872      2.44282     -6.01943         0.002169     -0.000836     -0.002449
     11.56297      2.44282     -6.01943         0.002314     -0.000962     -0.002391
      1.76685      7.82725    -10.10485        -0.000035     -0.000024     -0.000537
     10.16110      7.82725    -10.10485         0.000018      0.000092     -0.000448
      5.05050      1.12562     -8.40433         0.001657     -0.000612     -0.000673
     13.44475      1.12562     -8.40433         0.001570     -0.000635     -0.000685
      5.13205      1.09979     -2.45651         0.022803     -0.061558     -0.040379
     13.52630      1.09979     -2.45651        -0.000124      0.000455     -0.000279
      3.26219      7.47505     -8.62356         0.000036     -0.000467      0.000245
     11.65644      7.47505     -8.62356         0.000077     -0.000482      0.000297
      3.34375      7.44923     -2.67574        -0.001519      0.000995      0.000670
     11.73799      7.44923     -2.67574        -0.001564      0.000640      0.000691
      7.36585      0.97835     -4.87422        -0.038188     -0.056435      0.030992
     15.76010      0.97835     -4.87422         0.002169      0.000890      0.002537
      2.43027      2.67356     -9.91842        -0.000033      0.000223     -0.000486
     10.82452      2.67356     -9.91842         0.000028      0.000088     -0.000400
      4.75106      2.80814     -7.40493        -0.002480     -0.001402      0.000987
     13.14531      2.80814     -7.40493        -0.002553     -0.001244      0.000977
      7.45932      6.25348     -2.64294         0.000121      0.000260     -0.000298
     15.85356      6.25348     -2.64294         0.000086      0.000468     -0.000288
      1.02840      7.59650     -6.20585        -0.002189     -0.000908     -0.002542
      9.42265      7.59650     -6.20585        -0.001945     -0.001030     -0.002585
      0.85338      2.29554     -2.48931         0.001515      0.000605      0.000647
      9.24762      2.29554     -2.48931         0.003649      0.001438      0.001104
      3.64318      5.76671     -3.67515         0.002404      0.001074     -0.001133
     12.03743      5.76671     -3.67515         0.002470      0.001230     -0.000961
      0.55394      0.61303     -3.48872        -0.002418      0.001317     -0.000937
      8.94819      0.61303     -3.48872        -0.010601      0.007067     -0.010750
      5.79350     -0.04143     -4.03166         0.031852      0.108334      0.027365
     14.18775     -0.03143     -4.03202        -0.001222      0.001774      0.000228
      4.85766      7.53946     -1.03917        -0.003810      0.001968     -0.000049
     13.25190      7.53946     -1.03917        -0.003913      0.002051     -0.000258
      5.96398      5.90128     -1.16165        -0.000141     -0.000113      0.000444
     14.35822      5.90128     -1.16165        -0.000085     -0.000007      0.000465
      3.53659      1.03539    -10.04090         0.004031     -0.002315      0.000062
     11.93084      1.03539    -10.04090         0.003904     -0.002048      0.000266
      6.62739      0.74760     -0.97522        -0.010340      0.006058     -0.007721
     15.02164      0.74760     -0.97522         0.000081     -0.000005      0.000462
      1.59638      3.45260     -6.86163        -0.001105     -0.001866     -0.000193
      9.99063      3.45260     -6.86163        -0.001415     -0.001864     -0.000115
      0.93493      2.32137     -8.43713        -0.000065     -0.000470      0.000245
      9.32918      2.32137     -8.43713        -0.000132     -0.000643      0.000087
      7.54087      6.27930     -8.59076        -0.001671     -0.000930     -0.000715
     15.93512      6.27930     -8.59076        -0.001617     -0.000657     -0.000666
      2.60074      8.60628     -7.04805         0.001285     -0.001757     -0.000165
     10.99499      8.60628     -7.04805         0.001080     -0.001782     -0.000222
      7.73371      2.38578     -0.85274         0.004618      0.002921      0.001663
     16.12796      2.38578     -0.85274         0.003937      0.002062     -0.000255
      0.66053      6.18907    -10.22733        -0.003924     -0.001999      0.000317
      9.05478      6.18907    -10.22733        -0.003984     -0.002030      0.000275
      6.79787      5.12225     -4.21845         0.001399      0.001892      0.000433
     15.19211      5.12225     -4.21845         0.001204      0.001761      0.000232
      5.22552      6.13203     -5.06065        -0.002285      0.000625      0.002416
     13.61977      6.13203     -5.06065        -0.002149      0.000907      0.002525
 -----------------------------------------------------------------------------------
    total drift:                                0.000001     -0.000015      0.000002


--------------------------------------------------------------------------------------------------------



  FREE ENERGIE OF THE ION-ELECTRON SYSTEM (eV)
  ---------------------------------------------------
  free  energy   TOTEN  =      -229.37605388 eV

  energy  without entropy=     -229.37605388  energy(sigma->0) =     -229.37605388



--------------------------------------------------------------------------------------------------------


    POTLOK:  cpu time      3.1868: real time      3.1951


--------------------------------------------------------------------------------------------------------


     LOOP+:  cpu time   1998.6437: real time   1998.9916
    4ORBIT:  cpu time      0.0000: real time      0.0000



 total charge

# of ion       s       p       d       tot
------------------------------------------
    1        1.376   2.247   0.000   3.623
    2        1.376   2.247   0.000   3.623
    3        1.376   2.258   0.000   3.635
    4        1.376   2.258   0.000   3.635
    5        1.376   2.247   0.000   3.622
    6        1.376   2.247   0.000   3.623
    7        1.375   2.262   0.000   3.638
    8        1.375   2.262   0.000   3.638
    9        1.377   2.255   0.000   3.632
   10        1.377   2.257   0.000   3.634
   11        1.377   2.257   0.000   3.634
   12        1.377   2.257   0.000   3.634
   13        1.375   2.262   0.000   3.638
   14        1.375   2.262   0.000   3.638
   15        1.377   2.256   0.000   3.633
   16        1.376   2.258   0.000   3.635
   17        1.376   2.247   0.000   3.623
   18        1.376   2.247   0.000   3.623
   19        1.376   2.247   0.000   3.623
   20        1.376   2.247   0.000   3.623
   21        1.377   2.257   0.000   3.634
   22        1.377   2.257   0.000   3.634
   23        1.376   2.258   0.000   3.635
   24        1.376   2.258   0.000   3.635
   25        1.375   2.262   0.000   3.638
   26        1.375   2.262   0.000   3.638
   27        1.376   2.247   0.000   3.623
   28        1.376   2.247   0.000   3.623
   29        1.376   2.247   0.000   3.623
   30        1.376   2.247   0.000   3.622
   31        1.376   2.251   0.000   3.627
   32        1.376   2.254   0.000   3.630
   33        1.375   2.263   0.000   3.638
   34        1.375   2.263   0.000   3.638
   35        1.376   2.247   0.000   3.622
   36        1.376   2.247   0.000   3.623
   37        1.375   2.263   0.000   3.638
   38        1.375   2.263   0.000   3.638
   39        1.376   2.246   0.000   3.622
   40        1.376   2.247   0.000   3.623
   41        1.376   2.254   0.000   3.630
   42        1.376   2.254   0.000   3.630
   43        1.377   2.257   0.000   3.634
   44        1.377   2.257   0.000   3.634
   45        1.375   2.262   0.000   3.638
   46        1.375   2.262   0.000   3.638
   47        1.376   2.254   0.000   3.630
   48        1.376   2.254   0.000   3.630
   49        1.375   2.263   0.000   3.638
   50        1.375   2.263   0.000   3.638
   51        1.375   2.263   0.000   3.638
   52        1.375   2.263   0.000   3.638
   53        1.376   2.254   0.000   3.630
   54        1.376   2.254   0.000   3.630
   55        1.376   2.258   0.000   3.635
   56        1.376   2.258   0.000   3.635
--------------------------------------------------
tot         77.050 126.304   0.000 203.354



 magnetization (x)

# of ion       s       p       d       tot
------------------------------------------
    1        0.000   0.000   0.000   0.000
    2        0.000   0.000   0.000   0.000
    3        0.000   0.000   0.000   0.000
    4        0.000   0.000   0.000   0.000
    5        0.000   0.000   0.000   0.000
    6        0.000   0.000   0.000   0.000
    7        0.000   0.000   0.000   0.000
    8        0.000   0.000   0.000   0.000
    9        0.000   0.000   0.000   0.000
   10        0.000   0.000   0.000   0.000
   11        0.000   0.000   0.000   0.000
   12        0.000   0.000   0.000   0.000
   13        0.000   0.000   0.000   0.000
   14        0.000   0.000   0.000   0.000
   15        0.000   0.000   0.000   0.000
   16        0.000   0.000   0.000   0.000
   17        0.000   0.000   0.000   0.000
   18        0.000   0.000   0.000   0.000
   19        0.000   0.000   0.000   0.000
   20        0.000   0.000   0.000   0.000
   21        0.000   0.000   0.000   0.000
   22        0.000   0.000   0.000   0.000
   23        0.000   0.000   0.000   0.000
   24        0.000   0.000   0.000   0.000
   25        0.000   0.000   0.000   0.000
   26        0.000   0.000   0.000   0.000
   27        0.000   0.000   0.000   0.000
   28        0.000   0.000   0.000   0.000
   29        0.000   0.000   0.000   0.000
   30        0.000   0.000   0.000   0.000
   31        0.000   0.000   0.000   0.000
   32        0.000   0.000   0.000   0.000
   33        0.000   0.000   0.000   0.000
   34        0.000   0.000   0.000   0.000
   35        0.000   0.000   0.000   0.000
   36        0.000   0.000   0.000   0.000
   37        0.000   0.000   0.000   0.000
   38        0.000   0.000   0.000   0.000
   39        0.000   0.000   0.000   0.000
   40        0.000   0.000   0.000   0.000
   41        0.000   0.000   0.000   0.000
   42        0.000   0.000   0.000   0.000
   43        0.000   0.000   0.000   0.000
   44        0.000   0.000   0.000   0.000
   45        0.000   0.000   0.000   0.000
   46        0.000   0.000   0.000   0.000
   47        0.000   0.000   0.000   0.000
   48        0.000   0.000   0.000   0.000
   49        0.000   0.000   0.000   0.000
   50        0.000   0.000   0.000   0.000
   51        0.000   0.000   0.000   0.000
   52        0.000   0.000   0.000   0.000
   53        0.000   0.000   0.000   0.000
   54        0.000   0.000   0.000   0.000
   55        0.000   0.000   0.000   0.000
   56        0.000   0.000   0.000   0.000
--------------------------------------------------
tot          0.000   0.000   0.000   0.000

 BZINTS: Fermi energy:    0.079037;  336.000000 electrons
         Band energy:-0.201099E+04;  BLOECHL correction:    0.000000

 total amount of memory used by VASP MPI-rank0   322725. kBytes
=======================================================================

   base      :      30000. kBytes
   nonl-proj :      70692. kBytes
   fftplans  :      34504. kBytes
   grid      :      83442. kBytes
   one-center:        344. kBytes
   wavefun   :     103743. kBytes

  
  
 General timing and accounting informations for this job:
 ========================================================
  
                  Total CPU time used (sec):     2037.735
                            User time (sec):     2036.102
                          System time (sec):        1.633
                         Elapsed time (sec):     2038.365
  
                   Maximum memory used (kb):      606992.
                   Average memory used (kb):          N/A
  
                          Minor page faults:       779149
                          Major page faults:          133
                 Voluntary context switches:         2558
