  55  55   0   0
  0.2301251E+02  0.1218282E-08  0.7661564E-09  0.1373046E-08  0.0000000E+00
   1.0000000000000000E-004
  CAR 
 NEB_refined                             
      9.30474877    -23.65562249  301      1.29228779      1.00000000
    -23.656  0.0000E+00  0.0000E+00
    -23.546  0.0000E+00  0.0000E+00
    -23.436  0.0000E+00  0.0000E+00
    -23.326 -0.4354E-31 -0.4784E-32
    -23.216 -0.2924E-27 -0.3213E-28
    -23.106 -0.1066E-23 -0.1171E-24
    -22.996 -0.2116E-20 -0.2326E-21
    -22.887 -0.2288E-17 -0.2516E-18
    -22.777 -0.1308E-14 -0.1439E-15
    -22.667 -0.4167E-12 -0.4593E-13
    -22.557 -0.7246E-10 -0.8007E-11
    -22.447 -0.6880E-08 -0.7639E-09
    -22.337 -0.3577E-06 -0.4007E-07
    -22.227 -0.1021E-04 -0.1162E-05
    -22.117 -0.1598E-03 -0.1872E-04
    -22.008 -0.1349E-02 -0.1669E-03
    -21.898 -0.5727E-02 -0.7962E-03
    -21.788 -0.8503E-02 -0.1730E-02
    -21.678  0.2055E-01  0.5275E-03
    -21.568  0.1251E+00  0.1428E-01
    -21.458  0.3231E+00  0.4977E-01
    -21.348  0.5526E+00  0.1105E+00
    -21.239  0.6482E+00  0.1817E+00
    -21.129  0.5267E+00  0.2396E+00
    -21.019  0.2814E+00  0.2705E+00
    -20.909  0.7366E-01  0.2786E+00
    -20.799 -0.8340E-02  0.2777E+00
    -20.689 -0.1156E-01  0.2764E+00
    -20.579 -0.3217E-02  0.2760E+00
    -20.469 -0.4239E-03  0.2760E+00
    -20.360 -0.2938E-04  0.2760E+00
    -20.250 -0.1101E-05  0.2760E+00
    -20.140 -0.2252E-07  0.2760E+00
    -20.030 -0.2518E-09  0.2760E+00
    -19.920 -0.1538E-11  0.2760E+00
    -19.810 -0.5133E-14  0.2760E+00
    -19.700 -0.8084E-17  0.2760E+00
    -19.591  0.0000E+00  0.2760E+00
    -19.481  0.0000E+00  0.2760E+00
    -19.371  0.0000E+00  0.2760E+00
    -19.261  0.0000E+00  0.2760E+00
    -19.151  0.0000E+00  0.2760E+00
    -19.041  0.0000E+00  0.2760E+00
    -18.931  0.0000E+00  0.2760E+00
    -18.821  0.0000E+00  0.2760E+00
    -18.712  0.0000E+00  0.2760E+00
    -18.602  0.0000E+00  0.2760E+00
    -18.492  0.0000E+00  0.2760E+00
    -18.382  0.0000E+00  0.2760E+00
    -18.272  0.0000E+00  0.2760E+00
    -18.162  0.0000E+00  0.2760E+00
    -18.052  0.0000E+00  0.2760E+00
    -17.942  0.0000E+00  0.2760E+00
    -17.833  0.0000E+00  0.2760E+00
    -17.723  0.0000E+00  0.2760E+00
    -17.613  0.0000E+00  0.2760E+00
    -17.503  0.0000E+00  0.2760E+00
    -17.393  0.0000E+00  0.2760E+00
    -17.283  0.0000E+00  0.2760E+00
    -17.173  0.0000E+00  0.2760E+00
    -17.064  0.0000E+00  0.2760E+00
    -16.954  0.0000E+00  0.2760E+00
    -16.844  0.0000E+00  0.2760E+00
    -16.734  0.0000E+00  0.2760E+00
    -16.624  0.0000E+00  0.2760E+00
    -16.514  0.0000E+00  0.2760E+00
    -16.404  0.0000E+00  0.2760E+00
    -16.294  0.0000E+00  0.2760E+00
    -16.185  0.0000E+00  0.2760E+00
    -16.075  0.0000E+00  0.2760E+00
    -15.965  0.0000E+00  0.2760E+00
    -15.855  0.0000E+00  0.2760E+00
    -15.745  0.0000E+00  0.2760E+00
    -15.635  0.0000E+00  0.2760E+00
    -15.525  0.0000E+00  0.2760E+00
    -15.416  0.0000E+00  0.2760E+00
    -15.306  0.0000E+00  0.2760E+00
    -15.196  0.0000E+00  0.2760E+00
    -15.086  0.0000E+00  0.2760E+00
    -14.976  0.0000E+00  0.2760E+00
    -14.866  0.0000E+00  0.2760E+00
    -14.756  0.0000E+00  0.2760E+00
    -14.646  0.0000E+00  0.2760E+00
    -14.537  0.0000E+00  0.2760E+00
    -14.427  0.0000E+00  0.2760E+00
    -14.317  0.0000E+00  0.2760E+00
    -14.207  0.0000E+00  0.2760E+00
    -14.097  0.0000E+00  0.2760E+00
    -13.987  0.0000E+00  0.2760E+00
    -13.877  0.0000E+00  0.2760E+00
    -13.768  0.0000E+00  0.2760E+00
    -13.658  0.0000E+00  0.2760E+00
    -13.548  0.0000E+00  0.2760E+00
    -13.438  0.0000E+00  0.2760E+00
    -13.328  0.0000E+00  0.2760E+00
    -13.218  0.0000E+00  0.2760E+00
    -13.108  0.0000E+00  0.2760E+00
    -12.998  0.0000E+00  0.2760E+00
    -12.889  0.0000E+00  0.2760E+00
    -12.779  0.0000E+00  0.2760E+00
    -12.669  0.0000E+00  0.2760E+00
    -12.559 -0.6323E-31  0.2760E+00
    -12.449 -0.4126E-27  0.2760E+00
    -12.339 -0.1464E-23  0.2760E+00
    -12.229 -0.2826E-20  0.2760E+00
    -12.119 -0.2966E-17  0.2760E+00
    -12.010 -0.1639E-14  0.2760E+00
    -11.900 -0.5038E-12  0.2760E+00
    -11.790 -0.8380E-10  0.2760E+00
    -11.680 -0.7523E-08  0.2760E+00
    -11.570 -0.3630E-06  0.2760E+00
    -11.460 -0.9335E-05  0.2760E+00
    -11.350 -0.1256E-03  0.2760E+00
    -11.241 -0.8376E-03  0.2759E+00
    -11.131 -0.2213E-02  0.2756E+00
    -11.021  0.2107E-02  0.2759E+00
    -10.911  0.2467E-01  0.2786E+00
    -10.801  0.5365E-01  0.2845E+00
    -10.691  0.5096E-01  0.2901E+00
    -10.581  0.2014E-01  0.2923E+00
    -10.471  0.7026E-04  0.2923E+00
    -10.362 -0.2948E-02  0.2920E+00
    -10.252 -0.2787E-02  0.2917E+00
    -10.142  0.7188E-03  0.2918E+00
    -10.032  0.1912E-01  0.2939E+00
     -9.922  0.5049E-01  0.2994E+00
     -9.812  0.7552E-01  0.3077E+00
     -9.702  0.8396E-01  0.3169E+00
     -9.593  0.8584E-01  0.3264E+00
     -9.483  0.1053E+00  0.3379E+00
     -9.373  0.1319E+00  0.3524E+00
     -9.263  0.1182E+00  0.3654E+00
     -9.153  0.5889E-01  0.3719E+00
     -9.043  0.8578E-02  0.3728E+00
     -8.933 -0.4731E-02  0.3723E+00
     -8.823 -0.2275E-02  0.3720E+00
     -8.714 -0.3872E-03  0.3720E+00
     -8.604 -0.3163E-04  0.3720E+00
     -8.494 -0.1330E-05  0.3720E+00
     -8.384 -0.2957E-07  0.3720E+00
     -8.274 -0.3518E-09  0.3720E+00
     -8.164 -0.2255E-11  0.3720E+00
     -8.054 -0.7833E-14  0.3720E+00
     -7.945 -0.1617E-16  0.3720E+00
     -7.835  0.0000E+00  0.3720E+00
     -7.725  0.0000E+00  0.3720E+00
     -7.615  0.0000E+00  0.3720E+00
     -7.505  0.0000E+00  0.3720E+00
     -7.395  0.0000E+00  0.3720E+00
     -7.285  0.0000E+00  0.3720E+00
     -7.175  0.0000E+00  0.3720E+00
     -7.066  0.0000E+00  0.3720E+00
     -6.956  0.0000E+00  0.3720E+00
     -6.846  0.0000E+00  0.3720E+00
     -6.736  0.0000E+00  0.3720E+00
     -6.626  0.0000E+00  0.3720E+00
     -6.516  0.0000E+00  0.3720E+00
     -6.406  0.0000E+00  0.3720E+00
     -6.296  0.0000E+00  0.3720E+00
     -6.187  0.0000E+00  0.3720E+00
     -6.077  0.0000E+00  0.3720E+00
     -5.967  0.0000E+00  0.3720E+00
     -5.857  0.0000E+00  0.3720E+00
     -5.747  0.0000E+00  0.3720E+00
     -5.637  0.0000E+00  0.3720E+00
     -5.527  0.0000E+00  0.3720E+00
     -5.418  0.0000E+00  0.3720E+00
     -5.308  0.0000E+00  0.3720E+00
     -5.198  0.0000E+00  0.3720E+00
     -5.088  0.0000E+00  0.3720E+00
     -4.978  0.0000E+00  0.3720E+00
     -4.868 -0.1220E-31  0.3720E+00
     -4.758 -0.9100E-28  0.3720E+00
     -4.648 -0.3625E-24  0.3720E+00
     -4.539 -0.7869E-21  0.3720E+00
     -4.429 -0.9304E-18  0.3720E+00
     -4.319 -0.5808E-15  0.3720E+00
     -4.209 -0.2020E-12  0.3720E+00
     -4.099 -0.3808E-10  0.3720E+00
     -3.989 -0.3878E-08  0.3720E+00
     -3.879 -0.2123E-06  0.3720E+00
     -3.770 -0.6180E-05  0.3720E+00
     -3.660 -0.9383E-04  0.3720E+00
     -3.550 -0.7085E-03  0.3719E+00
     -3.440 -0.2276E-02  0.3717E+00
     -3.330 -0.1379E-03  0.3716E+00
     -3.220  0.1803E-01  0.3736E+00
     -3.110  0.5377E-01  0.3795E+00
     -3.000  0.8621E-01  0.3890E+00
     -2.891  0.8547E-01  0.3984E+00
     -2.781  0.4674E-01  0.4035E+00
     -2.671  0.9216E-02  0.4045E+00
     -2.561 -0.2738E-02  0.4042E+00
     -2.451 -0.1806E-02  0.4040E+00
     -2.341 -0.4009E-03  0.4040E+00
     -2.231 -0.3028E-03  0.4040E+00
     -2.122 -0.1341E-02  0.4038E+00
     -2.012 -0.2156E-02  0.4036E+00
     -1.902  0.6390E-02  0.4043E+00
     -1.792  0.3308E-01  0.4079E+00
     -1.682  0.6100E-01  0.4146E+00
     -1.572  0.6909E-01  0.4222E+00
     -1.462  0.6928E-01  0.4298E+00
     -1.352  0.7124E-01  0.4377E+00
     -1.243  0.6225E-01  0.4445E+00
     -1.133  0.4501E-01  0.4494E+00
     -1.023  0.4074E-01  0.4539E+00
     -0.913  0.5190E-01  0.4596E+00
     -0.803  0.5585E-01  0.4658E+00
     -0.693  0.4209E-01  0.4704E+00
     -0.583  0.3927E-01  0.4747E+00
     -0.473  0.7462E-01  0.4829E+00
     -0.364  0.1238E+00  0.4965E+00
     -0.254  0.1381E+00  0.5117E+00
     -0.144  0.1090E+00  0.5236E+00
     -0.034  0.7442E-01  0.5318E+00
      0.076  0.6890E-01  0.5394E+00
      0.186  0.8553E-01  0.5488E+00
      0.296  0.8570E-01  0.5582E+00
      0.405  0.6860E-01  0.5657E+00
      0.515  0.7201E-01  0.5736E+00
      0.625  0.1084E+00  0.5856E+00
      0.735  0.1455E+00  0.6015E+00
      0.845  0.1494E+00  0.6180E+00
      0.955  0.1272E+00  0.6319E+00
      1.065  0.9805E-01  0.6427E+00
      1.175  0.7781E-01  0.6513E+00
      1.284  0.5840E-01  0.6577E+00
      1.394  0.2438E-01  0.6604E+00
      1.504  0.6194E-03  0.6604E+00
      1.614 -0.2828E-02  0.6601E+00
      1.724 -0.8823E-03  0.6600E+00
      1.834 -0.1135E-03  0.6600E+00
      1.944 -0.7244E-05  0.6600E+00
      2.053 -0.2417E-06  0.6600E+00
      2.163 -0.4310E-08  0.6600E+00
      2.273 -0.4147E-10  0.6600E+00
      2.383 -0.2164E-12  0.6600E+00
      2.493 -0.6144E-15  0.6600E+00
      2.603 -0.1869E-29  0.6600E+00
      2.713 -0.9672E-26  0.6600E+00
      2.823 -0.2723E-22  0.6600E+00
      2.932 -0.4165E-19  0.6600E+00
      3.042 -0.3459E-16  0.6600E+00
      3.152 -0.1503E-13  0.6600E+00
      3.262 -0.3628E-11  0.6600E+00
      3.372 -0.4701E-09  0.6600E+00
      3.482 -0.3248E-07  0.6600E+00
      3.592 -0.1181E-05  0.6600E+00
      3.701 -0.2206E-04  0.6600E+00
      3.811 -0.2001E-03  0.6600E+00
      3.921 -0.7340E-03  0.6599E+00
      4.031  0.1199E-03  0.6599E+00
      4.141  0.7024E-02  0.6607E+00
      4.251  0.1563E-01  0.6624E+00
      4.361  0.1270E-01  0.6638E+00
      4.471  0.3185E-02  0.6641E+00
      4.580 -0.7164E-03  0.6641E+00
      4.690 -0.4825E-03  0.6640E+00
      4.800 -0.1025E-03  0.6640E+00
      4.910 -0.2104E-03  0.6640E+00
      5.020 -0.1141E-02  0.6639E+00
      5.130 -0.2138E-02  0.6636E+00
      5.240  0.4931E-02  0.6642E+00
      5.350  0.2920E-01  0.6674E+00
      5.459  0.5563E-01  0.6735E+00
      5.569  0.5747E-01  0.6798E+00
      5.679  0.4273E-01  0.6845E+00
      5.789  0.4249E-01  0.6892E+00
      5.899  0.4824E-01  0.6945E+00
      6.009  0.4274E-01  0.6992E+00
      6.119  0.4862E-01  0.7045E+00
      6.228  0.6675E-01  0.7118E+00
      6.338  0.6826E-01  0.7193E+00
      6.448  0.5812E-01  0.7257E+00
      6.558  0.5991E-01  0.7323E+00
      6.668  0.6888E-01  0.7399E+00
      6.778  0.6823E-01  0.7474E+00
      6.888  0.7081E-01  0.7551E+00
      6.998  0.9269E-01  0.7653E+00
      7.107  0.1059E+00  0.7770E+00
      7.217  0.8166E-01  0.7859E+00
      7.327  0.4282E-01  0.7906E+00
      7.437  0.1442E-01  0.7922E+00
      7.547  0.5774E-03  0.7923E+00
      7.657 -0.1801E-02  0.7921E+00
      7.767 -0.6763E-03  0.7920E+00
      7.876 -0.1036E-03  0.7920E+00
      7.986 -0.7780E-05  0.7920E+00
      8.096 -0.3018E-06  0.7920E+00
      8.206 -0.6189E-08  0.7920E+00
      8.316 -0.6782E-10  0.7920E+00
      8.426 -0.3997E-12  0.7920E+00
      8.536 -0.1277E-14  0.7920E+00
      8.646  0.0000E+00  0.7920E+00
      8.755  0.0000E+00  0.7920E+00
      8.865  0.0000E+00  0.7920E+00
      8.975  0.0000E+00  0.7920E+00
      9.085  0.0000E+00  0.7920E+00
      9.195  0.0000E+00  0.7920E+00
      9.305  0.0000E+00  0.7920E+00
