       N       E                     dE             d eps       ncg     rms          rms(c)
DAV:   1     0.300210831964E+04    0.30021E+04   -0.13252E+05   432   0.137E+03
DAV:   2     0.191107970158E+03   -0.28110E+04   -0.27073E+04   432   0.384E+02
DAV:   3    -0.213346709143E+03   -0.40445E+03   -0.40064E+03   468   0.159E+02
DAV:   4    -0.234338940192E+03   -0.20992E+02   -0.20824E+02   459   0.349E+01
DAV:   5    -0.235230582653E+03   -0.89164E+00   -0.89060E+00   567   0.753E+00    0.250E+01
RMM:   6    -0.223772926453E+03    0.11458E+02   -0.20504E+01   425   0.597E+00    0.166E+01
RMM:   7    -0.223189179550E+03    0.58375E+00   -0.27320E+01   419   0.590E+00    0.875E+00
RMM:   8    -0.222884653578E+03    0.30453E+00   -0.19063E+00   440   0.298E+00    0.338E+00
RMM:   9    -0.222894005531E+03   -0.93520E-02   -0.11738E+00   463   0.189E+00    0.229E+00
RMM:  10    -0.222829301990E+03    0.64704E-01   -0.18636E-01   473   0.103E+00    0.620E-01
RMM:  11    -0.222840121674E+03   -0.10820E-01   -0.93774E-02   525   0.447E-01    0.516E-01
RMM:  12    -0.222839981338E+03    0.14034E-03   -0.22346E-02   436   0.257E-01    0.927E-02
RMM:  13    -0.222840652855E+03   -0.67152E-03   -0.52165E-03   564   0.146E-01    0.138E-01
RMM:  14    -0.222840692484E+03   -0.39629E-04   -0.70485E-04   380   0.492E-02    0.129E-01
RMM:  15    -0.222840810467E+03   -0.11798E-03   -0.84179E-04   334   0.440E-02    0.857E-02
RMM:  16    -0.222840785708E+03    0.24759E-04   -0.88618E-05   406   0.222E-02    0.251E-02
RMM:  17    -0.222840781923E+03    0.37857E-05   -0.49511E-05   354   0.134E-02
   1 F= -.22284078E+03 E0= -.22284254E+03  d E =-.222841E+03
       N       E                     dE             d eps       ncg     rms          rms(c)
DAV:   1    -0.222840781408E+03    0.43004E-05   -0.75860E-06   252   0.103E-02    0.865E-03
RMM:   2    -0.222840781880E+03   -0.47203E-06   -0.48266E-06   231   0.578E-03
   2 F= -.22284078E+03 E0= -.22284257E+03  d E =0.427099E-07
       N       E                     dE             d eps       ncg     rms          rms(c)
DAV:   1    -0.222840782027E+03   -0.61873E-06   -0.13293E-06   279   0.490E-03    0.521E-03
RMM:   2    -0.222840782118E+03   -0.91572E-07   -0.37113E-07   165   0.223E-03
   3 F= -.22284078E+03 E0= -.22284257E+03  d E =-.238273E-06
       N       E                     dE             d eps       ncg     rms          rms(c)
DAV:   1    -0.222840782262E+03   -0.23562E-06   -0.43954E-07   288   0.246E-03    0.141E-03
RMM:   2    -0.222840782261E+03    0.15498E-08   -0.35939E-08    69   0.140E-03
   4 F= -.22284078E+03 E0= -.22284257E+03  d E =-.142496E-06
       N       E                     dE             d eps       ncg     rms          rms(c)
DAV:   1    -0.222840782259E+03    0.26994E-08   -0.14666E-07   270   0.157E-03    0.849E-04
RMM:   2    -0.222840782265E+03   -0.59081E-08    0.11581-186    47   0.921E-04
   5 F= -.22284078E+03 E0= -.22284257E+03  d E =-.475848E-08
       N       E                     dE             d eps       ncg     rms          rms(c)
DAV:   1    -0.222840782280E+03   -0.20413E-07   -0.82730E-08   252   0.114E-03    0.509E-04
RMM:   2    -0.222840782274E+03    0.63192E-08    0.50107-199    36   0.719E-04
   6 F= -.22284078E+03 E0= -.22284257E+03  d E =-.818545E-08
       N       E                     dE             d eps       ncg     rms          rms(c)
DAV:   1    -0.222840782272E+03    0.82109E-08   -0.31183E-08   252   0.882E-04    0.218E-04
RMM:   2    -0.222840782272E+03    0.11278E-09    0.48271-187    31   0.455E-04
   7 F= -.22284078E+03 E0= -.22284257E+03  d E =0.200453E-08
       N       E                     dE             d eps       ncg     rms          rms(c)
DAV:   1    -0.222840782273E+03   -0.13206E-08   -0.15079E-08   234   0.510E-04    0.161E-04
RMM:   2    -0.222840782270E+03    0.33542E-08    0.15805-199    24   0.377E-04
   8 F= -.22284078E+03 E0= -.22284257E+03  d E =0.192085E-08
       N       E                     dE             d eps       ncg     rms          rms(c)
DAV:   1    -0.222840782269E+03    0.44638E-08   -0.92945E-09   225   0.485E-04    0.921E-05
RMM:   2    -0.222840782269E+03    0.36380E-11    0.15135-276    19   0.269E-04
   9 F= -.22284078E+03 E0= -.22284257E+03  d E =0.111322E-08
       N       E                     dE             d eps       ncg     rms          rms(c)
DAV:   1    -0.222840782271E+03   -0.27212E-08   -0.51710E-09   225   0.329E-04    0.615E-05
RMM:   2    -0.222840782269E+03    0.27248E-08    0.95698-269    17   0.213E-04
  10 F= -.22284078E+03 E0= -.22284257E+03  d E =0.000000E+00
       N       E                     dE             d eps       ncg     rms          rms(c)
DAV:   1    -0.222840782269E+03    0.24957E-08   -0.31127E-09   225   0.263E-04    0.485E-05
RMM:   2    -0.222840782269E+03    0.13097E-09    0.00000E+00     9   0.166E-04
  11 F= -.22284078E+03 E0= -.22284257E+03  d E =-.982254E-10
       N       E                     dE             d eps       ncg     rms          rms(c)
DAV:   1    -0.222840782269E+03   -0.43292E-09   -0.22213E-09   225   0.214E-04    0.332E-05
RMM:   2    -0.222840782269E+03    0.54933E-09    0.00000E+00     9   0.130E-04
  12 F= -.22284078E+03 E0= -.22284257E+03  d E =-.145519E-10
       N       E                     dE             d eps       ncg     rms          rms(c)
DAV:   1    -0.222840782268E+03    0.13752E-08   -0.11205E-09   225   0.164E-04    0.254E-05
RMM:   2    -0.222840782268E+03   -0.35652E-09    0.00000E+00     5   0.103E-04
  13 F= -.22284078E+03 E0= -.22284257E+03  d E =0.469299E-09
       N       E                     dE             d eps       ncg     rms          rms(c)
DAV:   1    -0.222840782268E+03   -0.57844E-09   -0.87017E-10   225   0.132E-04    0.196E-05
RMM:   2    -0.222840782269E+03   -0.13824E-09    0.00000E+00     4   0.822E-05
  14 F= -.22284078E+03 E0= -.22284257E+03  d E =-.360160E-09
       N       E                     dE             d eps       ncg     rms          rms(c)
DAV:   1    -0.222840782268E+03   -0.10914E-10   -0.63164E-10   225   0.108E-04    0.149E-05
RMM:   2    -0.222840782268E+03    0.10914E-10    0.00000E+00     3   0.649E-05
  15 F= -.22284078E+03 E0= -.22284257E+03  d E =0.138243E-09
       N       E                     dE             d eps       ncg     rms          rms(c)
DAV:   1    -0.222840782269E+03   -0.66211E-09   -0.39594E-10   225   0.846E-05    0.117E-05
RMM:   2    -0.222840782268E+03    0.10186E-08    0.00000E+00     3   0.525E-05
  16 F= -.22284078E+03 E0= -.22284257E+03  d E =0.345608E-09
       N       E                     dE             d eps       ncg     rms          rms(c)
DAV:   1    -0.222840782268E+03    0.73123E-09   -0.27712E-10   216   0.694E-05    0.937E-06
RMM:   2    -0.222840782268E+03    0.17099E-09    0.00000E+00     1   0.418E-05
  17 F= -.22284078E+03 E0= -.22284257E+03  d E =-.116415E-09
       N       E                     dE             d eps       ncg     rms          rms(c)
DAV:   1    -0.222840782268E+03    0.22919E-09   -0.20932E-10   198   0.558E-05    0.748E-06
RMM:   2    -0.222840782268E+03    0.16007E-09    0.00000E+00     1   0.338E-05
  18 F= -.22284078E+03 E0= -.22284257E+03  d E =0.218279E-09
       N       E                     dE             d eps       ncg     rms          rms(c)
DAV:   1    -0.222840782268E+03    0.90949E-10   -0.18571E-10   198   0.452E-05    0.596E-06
RMM:   2    -0.222840782268E+03   -0.16735E-09    0.00000E+00     1   0.272E-05
  19 F= -.22284078E+03 E0= -.22284257E+03  d E =-.236469E-09
       N       E                     dE             d eps       ncg     rms          rms(c)
DAV:   1    -0.222840782268E+03   -0.31650E-09   -0.22445E-11   198   0.365E-05    0.486E-06
RMM:   2    -0.222840782268E+03    0.34197E-09    0.00000E+00     1   0.221E-05
  20 F= -.22284078E+03 E0= -.22284257E+03  d E =0.192813E-09
       N       E                     dE             d eps       ncg     rms          rms(c)
DAV:   1    -0.222840782268E+03    0.20009E-09    0.61130E-12   198   0.299E-05    0.391E-06
RMM:   2    -0.222840782268E+03    0.15643E-09    0.00000E+00     1   0.178E-05
  21 F= -.22284078E+03 E0= -.22284257E+03  d E =0.145519E-10
       N       E                     dE             d eps       ncg     rms          rms(c)
DAV:   1    -0.222840782268E+03    0.34561E-09    0.61775E-11   198   0.242E-05    0.319E-06
RMM:   2    -0.222840782268E+03   -0.18917E-09    0.00000E+00     1   0.145E-05
  22 F= -.22284078E+03 E0= -.22284257E+03  d E =0.000000E+00
       N       E                     dE             d eps       ncg     rms          rms(c)
DAV:   1    -0.222840782269E+03   -0.88403E-09   -0.66908E-11   198   0.198E-05    0.259E-06
RMM:   2    -0.222840782268E+03    0.58571E-09    0.00000E+00     1   0.117E-05
  23 F= -.22284078E+03 E0= -.22284257E+03  d E =-.109139E-09
       N       E                     dE             d eps       ncg     rms          rms(c)
DAV:   1    -0.222840782269E+03    0.13097E-09    0.29373E-11   198   0.161E-05    0.213E-06
RMM:   2    -0.222840782268E+03    0.46930E-09    0.00000E+00     1   0.957E-06
  24 F= -.22284078E+03 E0= -.22284257E+03  d E =0.145519E-10
       N       E                     dE             d eps       ncg     rms          rms(c)
DAV:   1    -0.222840782269E+03   -0.18554E-09    0.27737E-12   198   0.132E-05    0.173E-06
RMM:   2    -0.222840782268E+03    0.73851E-09    0.00000E+00     1   0.777E-06
  25 F= -.22284078E+03 E0= -.22284257E+03  d E =0.836735E-10
       N       E                     dE             d eps       ncg     rms          rms(c)
DAV:   1    -0.222840782268E+03    0.70941E-09   -0.88867E-11   198   0.107E-05    0.142E-06
RMM:   2    -0.222840782268E+03    0.98225E-10    0.00000E+00     1   0.635E-06
  26 F= -.22284078E+03 E0= -.22284257E+03  d E =0.691216E-10
       N       E                     dE             d eps       ncg     rms          rms(c)
DAV:   1    -0.222840782268E+03   -0.23647E-09   -0.96622E-11   198   0.882E-06    0.116E-06
RMM:   2    -0.222840782268E+03    0.31287E-09    0.00000E+00     1   0.517E-06
  27 F= -.22284078E+03 E0= -.22284257E+03  d E =-.218279E-10
       N       E                     dE             d eps       ncg     rms          rms(c)
DAV:   1    -0.222840782269E+03   -0.81491E-09    0.16725E-10   198   0.718E-06    0.959E-07
RMM:   2    -0.222840782268E+03    0.86584E-09    0.00000E+00     1   0.423E-06
  28 F= -.22284078E+03 E0= -.22284257E+03  d E =-.261934E-09
       N       E                     dE             d eps       ncg     rms          rms(c)
DAV:   1    -0.222840782268E+03    0.15280E-08    0.45844E-11   198   0.592E-06    0.784E-07
RMM:   2    -0.222840782268E+03   -0.66575E-09    0.00000E+00     1   0.345E-06
  29 F= -.22284078E+03 E0= -.22284257E+03  d E =-.363798E-11
       N       E                     dE             d eps       ncg     rms          rms(c)
DAV:   1    -0.222840782270E+03   -0.20809E-08   -0.16902E-10   198   0.483E-06    0.649E-07
RMM:   2    -0.222840782268E+03    0.14770E-08    0.00000E+00     1   0.283E-06
  30 F= -.22284078E+03 E0= -.22284257E+03  d E =0.618456E-10
       N       E                     dE             d eps       ncg     rms          rms(c)
DAV:   1    -0.222840782268E+03    0.16844E-08   -0.23342E-11   198   0.398E-06    0.531E-07
RMM:   2    -0.222840782268E+03   -0.16371E-09    0.00000E+00     1   0.231E-06
  31 F= -.22284078E+03 E0= -.22284257E+03  d E =0.436557E-10
       N       E                     dE             d eps       ncg     rms          rms(c)
DAV:   1    -0.222840782268E+03   -0.28740E-09    0.69643E-11   198   0.326E-06    0.441E-07
RMM:   2    -0.222840782268E+03    0.22192E-09    0.00000E+00     1   0.190E-06
  32 F= -.22284078E+03 E0= -.22284257E+03  d E =0.982254E-10
       N       E                     dE             d eps       ncg     rms          rms(c)
DAV:   1    -0.222840782267E+03    0.81491E-09   -0.25268E-11   198   0.269E-06    0.361E-07
RMM:   2    -0.222840782268E+03   -0.80036E-09    0.00000E+00     1   0.155E-06
  33 F= -.22284078E+03 E0= -.22284257E+03  d E =-.207365E-09
       N       E                     dE             d eps       ncg     rms          rms(c)
DAV:   1    -0.222840782268E+03   -0.99681E-09    0.14498E-10   198   0.220E-06    0.301E-07
RMM:   2    -0.222840782268E+03    0.33833E-09    0.00000E+00     1   0.128E-06
  34 F= -.22284078E+03 E0= -.22284257E+03  d E =0.141881E-09
       N       E                     dE             d eps       ncg     rms          rms(c)
DAV:   1    -0.222840782268E+03    0.44383E-09    0.10670E-10   198   0.182E-06    0.247E-07
RMM:   2    -0.222840782268E+03   -0.21828E-10    0.00000E+00     1   0.105E-06
  35 F= -.22284078E+03 E0= -.22284257E+03  d E =0.836735E-10
       N       E                     dE             d eps       ncg     rms          rms(c)
DAV:   1    -0.222840782268E+03   -0.32014E-09   -0.55301E-11   198   0.149E-06    0.205E-07
RMM:   2    -0.222840782268E+03    0.18190E-09    0.00000E+00     1   0.862E-07
  36 F= -.22284078E+03 E0= -.22284257E+03  d E =-.116415E-09
       N       E                     dE             d eps       ncg     rms          rms(c)
DAV:   1    -0.222840782268E+03    0.73851E-09   -0.17287E-11   198   0.123E-06    0.169E-07
RMM:   2    -0.222840782268E+03   -0.54206E-09    0.00000E+00     1   0.707E-07
  37 F= -.22284078E+03 E0= -.22284257E+03  d E =0.145519E-10
       N       E                     dE             d eps       ncg     rms          rms(c)
DAV:   1    -0.222840782268E+03   -0.85856E-09   -0.34711E-11   198   0.101E-06    0.141E-07
RMM:   2    -0.222840782268E+03    0.43656E-09    0.00000E+00     1   0.583E-07
  38 F= -.22284078E+03 E0= -.22284257E+03  d E =0.120053E-09
       N       E                     dE             d eps       ncg     rms          rms(c)
DAV:   1    -0.222840782267E+03    0.16043E-08    0.52180E-11   198   0.841E-07    0.116E-07
RMM:   2    -0.222840782268E+03   -0.12915E-08    0.00000E+00     1   0.478E-07
  39 F= -.22284078E+03 E0= -.22284257E+03  d E =-.123691E-09
       N       E                     dE             d eps       ncg     rms          rms(c)
DAV:   1    -0.222840782268E+03   -0.95315E-09   -0.11348E-10   198   0.688E-07    0.962E-08
RMM:   2    -0.222840782268E+03   -0.39290E-09    0.00000E+00     1   0.394E-07
  40 F= -.22284078E+03 E0= -.22284257E+03  d E =-.545697E-10
       N       E                     dE             d eps       ncg     rms          rms(c)
DAV:   1    -0.222840782268E+03   -0.46202E-09   -0.40347E-11   198   0.570E-07    0.797E-08
RMM:   2    -0.222840782268E+03    0.21828E-09    0.00000E+00     1   0.324E-07
  41 F= -.22284078E+03 E0= -.22284257E+03  d E =0.149157E-09
       N       E                     dE             d eps       ncg     rms          rms(c)
DAV:   1    -0.222840782268E+03   -0.16371E-09   -0.22703E-10   198   0.470E-07    0.665E-08
RMM:   2    -0.222840782268E+03    0.38199E-09    0.00000E+00     1   0.268E-07
  42 F= -.22284078E+03 E0= -.22284257E+03  d E =0.000000E+00
       N       E                     dE             d eps       ncg     rms          rms(c)
DAV:   1    -0.222840782268E+03    0.14552E-10   -0.36762E-11   198   0.391E-07    0.550E-08
RMM:   2    -0.222840782268E+03    0.37835E-09    0.00000E+00     0   0.220E-07
  43 F= -.22284078E+03 E0= -.22284257E+03  d E =0.109139E-10
       N       E                     dE             d eps       ncg     rms          rms(c)
DAV:   1    -0.222840782267E+03    0.10659E-08   -0.10073E-10   198   0.322E-07    0.460E-08
RMM:   2    -0.222840782268E+03   -0.64756E-09    0.00000E+00     0   0.182E-07
  44 F= -.22284078E+03 E0= -.22284257E+03  d E =0.400178E-10
       N       E                     dE             d eps       ncg     rms          rms(c)
DAV:   1    -0.222840782267E+03   -0.18554E-09   -0.17452E-10   198   0.264E-07    0.373E-08
RMM:   2    -0.222840782268E+03   -0.67666E-09    0.00000E+00     0   0.150E-07
  45 F= -.22284078E+03 E0= -.22284257E+03  d E =-.214641E-09
       N       E                     dE             d eps       ncg     rms          rms(c)
DAV:   1    -0.222840782268E+03   -0.76761E-09   -0.81177E-11   198   0.219E-07    0.320E-08
RMM:   2    -0.222840782268E+03    0.13824E-09    0.00000E+00     0   0.124E-07
  46 F= -.22284078E+03 E0= -.22284257E+03  d E =0.472937E-10
       N       E                     dE             d eps       ncg     rms          rms(c)
DAV:   1    -0.222840782267E+03    0.88403E-09   -0.33556E-12   198   0.183E-07    0.261E-08
RMM:   2    -0.222840782268E+03   -0.75670E-09    0.00000E+00     0   0.102E-07
  47 F= -.22284078E+03 E0= -.22284257E+03  d E =-.109139E-10
       N       E                     dE             d eps       ncg     rms          rms(c)
DAV:   1    -0.222840782268E+03   -0.79672E-09   -0.10273E-10   198   0.147E-07    0.214E-08
RMM:   2    -0.222840782268E+03    0.16007E-09    0.00000E+00     0   0.844E-08
  48 F= -.22284078E+03 E0= -.22284257E+03  d E =0.120053E-09
       N       E                     dE             d eps       ncg     rms          rms(c)
DAV:   1    -0.222840782269E+03   -0.49477E-09   -0.18987E-10   198   0.125E-07    0.184E-08
RMM:   2    -0.222840782268E+03    0.68758E-09    0.00000E+00     0   0.697E-08
  49 F= -.22284078E+03 E0= -.22284257E+03  d E =0.327418E-10
       N       E                     dE             d eps       ncg     rms          rms(c)
DAV:   1    -0.222840782268E+03    0.99317E-09   -0.11483E-10   198   0.107E-07    0.157E-08
RMM:   2    -0.222840782268E+03   -0.37835E-09    0.00000E+00     0   0.578E-08
  50 F= -.22284078E+03 E0= -.22284257E+03  d E =-.727596E-10
       N       E                     dE             d eps       ncg     rms          rms(c)
DAV:   1    -0.222840782268E+03   -0.46930E-09   -0.18394E-10   198   0.849E-08    0.121E-08
RMM:   2    -0.222840782268E+03    0.54570E-10    0.00000E+00     0   0.475E-08
  51 F= -.22284078E+03 E0= -.22284257E+03  d E =-.363798E-10
       N       E                     dE             d eps       ncg     rms          rms(c)
DAV:   1    -0.222840782268E+03    0.24738E-09   -0.23284E-10   198   0.662E-08    0.101E-08
RMM:   2    -0.222840782268E+03   -0.13461E-09    0.00000E+00     0   0.395E-08
  52 F= -.22284078E+03 E0= -.22284257E+03  d E =0.582077E-10
       N       E                     dE             d eps       ncg     rms          rms(c)
DAV:   1    -0.222840782269E+03   -0.10587E-08   -0.18495E-10   198   0.619E-08    0.949E-09
RMM:   2    -0.222840782268E+03    0.79308E-09    0.00000E+00     0   0.328E-08
  53 F= -.22284078E+03 E0= -.22284257E+03  d E =-.130967E-09
       N       E                     dE             d eps       ncg     rms          rms(c)
DAV:   1    -0.222840782268E+03    0.50932E-09   -0.20610E-10   198   0.514E-08    0.719E-09
RMM:   2    -0.222840782268E+03    0.26921E-09    0.00000E+00     0   0.268E-08
  54 F= -.22284078E+03 E0= -.22284257E+03  d E =-.145519E-10
       N       E                     dE             d eps       ncg     rms          rms(c)
DAV:   1    -0.222840782269E+03   -0.44747E-09   -0.12149E-10   198   0.395E-08    0.594E-09
RMM:   2    -0.222840782268E+03    0.80399E-09    0.00000E+00     0   0.226E-08
  55 F= -.22284078E+03 E0= -.22284257E+03  d E =0.873115E-10
       N       E                     dE             d eps       ncg     rms          rms(c)
DAV:   1    -0.222840782267E+03    0.22010E-08   -0.11730E-11   198   0.341E-08    0.525E-09
RMM:   2    -0.222840782268E+03   -0.12697E-08    0.00000E+00     0   0.187E-08
  56 F= -.22284078E+03 E0= -.22284257E+03  d E =0.127329E-09
       N       E                     dE             d eps       ncg     rms          rms(c)
DAV:   1    -0.222840782268E+03   -0.13861E-08   -0.74159E-11   198   0.288E-08    0.425E-09
RMM:   2    -0.222840782268E+03   -0.36380E-10    0.00000E+00     0   0.154E-08
  57 F= -.22284078E+03 E0= -.22284257E+03  d E =-.152795E-09
       N       E                     dE             d eps       ncg     rms          rms(c)
DAV:   1    -0.222840782268E+03    0.31650E-09   -0.33352E-11   198   0.221E-08    0.336E-09
RMM:   2    -0.222840782268E+03   -0.37471E-09    0.00000E+00     0   0.128E-08
  58 F= -.22284078E+03 E0= -.22284257E+03  d E =-.218279E-10
       N       E                     dE             d eps       ncg     rms          rms(c)
DAV:   1    -0.222840782268E+03   -0.39290E-09   -0.22387E-11   198   0.179E-08    0.283E-09
RMM:   2    -0.222840782268E+03    0.11278E-09    0.00000E+00     0   0.105E-08
  59 F= -.22284078E+03 E0= -.22284257E+03  d E =0.945874E-10
       N       E                     dE             d eps       ncg     rms          rms(c)
DAV:   1    -0.222840782268E+03    0.24374E-09    0.74766E-11   198   0.164E-08    0.264E-09
RMM:   2    -0.222840782268E+03   -0.19281E-09    0.00000E+00     0   0.876E-09
  60 F= -.22284078E+03 E0= -.22284257E+03  d E =-.618456E-10
       N       E                     dE             d eps       ncg     rms          rms(c)
DAV:   1    -0.222840782268E+03   -0.52387E-09   -0.10619E-10   198   0.126E-08    0.182E-09
RMM:   2    -0.222840782268E+03    0.37471E-09    0.00000E+00     0   0.708E-09
  61 F= -.22284078E+03 E0= -.22284257E+03  d E =0.436557E-10
       N       E                     dE             d eps       ncg     rms          rms(c)
DAV:   1    -0.222840782269E+03   -0.62573E-09   -0.11838E-10   198   0.942E-09    0.160E-09
RMM:   2    -0.222840782268E+03    0.93496E-09    0.00000E+00     0   0.597E-09
  62 F= -.22284078E+03 E0= -.22284257E+03  d E =-.654836E-10
       N       E                     dE             d eps       ncg     rms          rms(c)
DAV:   1    -0.222840782268E+03    0.10186E-08    0.22735E-11   198   0.105E-08    0.173E-09
RMM:   2    -0.222840782268E+03   -0.98225E-10    0.00000E+00     0   0.498E-09
  63 F= -.22284078E+03 E0= -.22284257E+03  d E =-.145519E-10
       N       E                     dE             d eps       ncg     rms          rms(c)
DAV:   1    -0.222840782269E+03   -0.62209E-09   -0.72622E-11   198   0.906E-09    0.123E-09
RMM:   2    -0.222840782268E+03    0.46566E-09    0.00000E+00     0   0.405E-09
  64 F= -.22284078E+03 E0= -.22284257E+03  d E =-.582077E-10
       N       E                     dE             d eps       ncg     rms          rms(c)
DAV:   1    -0.222840782268E+03    0.34561E-09    0.11649E-11   198   0.601E-09    0.929E-10
RMM:   2    -0.222840782268E+03    0.23647E-09    0.00000E+00     0   0.346E-09
  65 F= -.22284078E+03 E0= -.22284257E+03  d E =0.116415E-09
       N       E                     dE             d eps       ncg     rms          rms(c)
DAV:   1    -0.222840782269E+03   -0.89858E-09   -0.48777E-11   198   0.497E-09    0.866E-10
RMM:   2    -0.222840782268E+03    0.11278E-08    0.00000E+00     0   0.288E-09
  66 F= -.22284078E+03 E0= -.22284257E+03  d E =-.727596E-11
       N       E                     dE             d eps       ncg     rms          rms(c)
DAV:   1    -0.222840782267E+03    0.17317E-08   -0.55698E-11   198   0.407E-09    0.670E-10
RMM:   2    -0.222840782268E+03   -0.57480E-09    0.00000E+00     0   0.231E-09
  67 F= -.22284078E+03 E0= -.22284257E+03  d E =0.291038E-10
       N       E                     dE             d eps       ncg     rms          rms(c)
DAV:   1    -0.222840782268E+03   -0.80763E-09    0.36634E-11   198   0.292E-09    0.506E-10
RMM:   2    -0.222840782268E+03    0.80036E-10    0.00000E+00     0   0.190E-09
  68 F= -.22284078E+03 E0= -.22284257E+03  d E =-.152795E-09
       N       E                     dE             d eps       ncg     rms          rms(c)
DAV:   1    -0.222840782268E+03   -0.17462E-09    0.84188E-11   198   0.263E-09    0.523E-10
RMM:   2    -0.222840782268E+03    0.44747E-09    0.00000E+00     0   0.157E-09
  69 F= -.22284078E+03 E0= -.22284257E+03  d E =0.192813E-09
       N       E                     dE             d eps       ncg     rms          rms(c)
DAV:   1    -0.222840782269E+03   -0.20373E-09   -0.53791E-11   198   0.236E-09    0.534E-10
RMM:   2    -0.222840782268E+03    0.61482E-09    0.00000E+00     0   0.131E-09
  70 F= -.22284078E+03 E0= -.22284257E+03  d E =-.363798E-10
       N       E                     dE             d eps       ncg     rms          rms(c)
DAV:   1    -0.222840782267E+03    0.13097E-08   -0.10083E-10   198   0.156E-09    0.416E-10
RMM:   2    -0.222840782268E+03   -0.81855E-09    0.00000E+00     0   0.106E-09
  71 F= -.22284078E+03 E0= -.22284257E+03  d E =-.123691E-09
       N       E                     dE             d eps       ncg     rms          rms(c)
DAV:   1    -0.222840782269E+03   -0.11751E-08   -0.85156E-11   198   0.124E-09    0.408E-10
RMM:   2    -0.222840782268E+03    0.32378E-09    0.00000E+00     0   0.859E-10
  72 F= -.22284078E+03 E0= -.22284257E+03  d E =-.327418E-10
       N       E                     dE             d eps       ncg     rms          rms(c)
DAV:   1    -0.222840782268E+03    0.72396E-09    0.13695E-11   198   0.105E-09    0.326E-10
RMM:   2    -0.222840782268E+03   -0.30923E-09    0.00000E+00     0   0.683E-10
  73 F= -.22284078E+03 E0= -.22284257E+03  d E =0.909495E-10
       N       E                     dE             d eps       ncg     rms          rms(c)
DAV:   1    -0.222840782268E+03   -0.52387E-09   -0.57284E-11   198   0.808E-10    0.286E-10
RMM:   2    -0.222840782268E+03    0.33106E-09    0.00000E+00     0   0.556E-10
  74 F= -.22284078E+03 E0= -.22284257E+03  d E =0.116415E-09
       N       E                     dE             d eps       ncg     rms          rms(c)
DAV:   1    -0.222840782268E+03    0.22555E-09   -0.13370E-10   198   0.693E-10    0.259E-10
RMM:   2    -0.222840782268E+03    0.94587E-10    0.00000E+00     0   0.452E-10
  75 F= -.22284078E+03 E0= -.22284257E+03  d E =-.109139E-10
       N       E                     dE             d eps       ncg     rms          rms(c)
DAV:   1    -0.222840782268E+03    0.54570E-10   -0.10050E-10   198   0.545E-10    0.277E-10
RMM:   2    -0.222840782268E+03   -0.40018E-10    0.00000E+00     0   0.386E-10
  76 F= -.22284078E+03 E0= -.22284257E+03  d E =-.800355E-10
       N       E                     dE             d eps       ncg     rms          rms(c)
DAV:   1    -0.222840782268E+03   -0.42201E-09   -0.28810E-10   198   0.462E-10    0.424E-10
RMM:   2    -0.222840782268E+03    0.45111E-09    0.00000E+00     0   0.371E-10
  77 F= -.22284078E+03 E0= -.22284257E+03  d E =0.691216E-10
       N       E                     dE             d eps       ncg     rms          rms(c)
DAV:   1    -0.222840782267E+03    0.11023E-08   -0.44434E-11   198   0.475E-10    0.228E-10
RMM:   2    -0.222840782268E+03   -0.72396E-09    0.00000E+00     0   0.272E-10
  78 F= -.22284078E+03 E0= -.22284257E+03  d E =-.727596E-10
       N       E                     dE             d eps       ncg     rms          rms(c)
DAV:   1    -0.222840782268E+03   -0.60754E-09   -0.13423E-10   198   0.332E-10    0.261E-10
RMM:   2    -0.222840782268E+03   -0.13461E-09    0.00000E+00     0   0.228E-10
  79 F= -.22284078E+03 E0= -.22284257E+03  d E =-.181899E-10
       N       E                     dE             d eps       ncg     rms          rms(c)
DAV:   1    -0.222840782268E+03   -0.20373E-09   -0.47103E-11   198   0.274E-10    0.359E-10
RMM:   2    -0.222840782268E+03    0.47294E-10    0.00000E+00     0   0.242E-10
  80 F= -.22284078E+03 E0= -.22284257E+03  d E =-.218279E-10
       N       E                     dE             d eps       ncg     rms          rms(c)
DAV:   1    -0.222840782269E+03   -0.61118E-09   -0.20998E-11   198   0.284E-10    0.253E-10
RMM:   2    -0.222840782268E+03    0.55297E-09    0.00000E+00     0   0.192E-10
  81 F= -.22284078E+03 E0= -.22284257E+03  d E =-.105501E-09
       N       E                     dE             d eps       ncg     rms          rms(c)
DAV:   1    -0.222840782268E+03    0.10405E-08   -0.88645E-12   198   0.255E-10    0.338E-10
RMM:   2    -0.222840782268E+03   -0.29831E-09    0.00000E+00     0   0.194E-10
  82 F= -.22284078E+03 E0= -.22284257E+03  d E =0.189175E-09
       N       E                     dE             d eps       ncg     rms          rms(c)
DAV:   1    -0.222840782267E+03    0.41109E-09   -0.10240E-10   198   0.260E-10    0.186E-10
RMM:   2    -0.222840782268E+03   -0.66575E-09    0.00000E+00     0   0.134E-10
  83 F= -.22284078E+03 E0= -.22284257E+03  d E =0.436557E-10
       N       E                     dE             d eps       ncg     rms          rms(c)
DAV:   1    -0.222840782268E+03   -0.10004E-08   -0.20658E-11   198   0.157E-10    0.344E-10
RMM:   2    -0.222840782268E+03    0.21828E-09    0.00000E+00     0   0.142E-10
  84 F= -.22284078E+03 E0= -.22284257E+03  d E =-.116415E-09
       N       E                     dE             d eps       ncg     rms          rms(c)
DAV:   1    -0.222840782268E+03    0.55297E-09    0.30160E-11   198   0.177E-10    0.220E-10
RMM:   2    -0.222840782268E+03   -0.34925E-09    0.00000E+00     0   0.107E-10
  85 F= -.22284078E+03 E0= -.22284257E+03  d E =-.145519E-10
       N       E                     dE             d eps       ncg     rms          rms(c)
DAV:   1    -0.222840782268E+03   -0.72760E-10   -0.15117E-10   198   0.129E-10    0.222E-10
RMM:   2    -0.222840782268E+03   -0.34197E-09    0.00000E+00     0   0.957E-11
  86 F= -.22284078E+03 E0= -.22284257E+03  d E =-.654836E-10
       N       E                     dE             d eps       ncg     rms          rms(c)
DAV:   1    -0.222840782269E+03   -0.90222E-09   -0.12425E-10   198   0.122E-10    0.249E-10
RMM:   2    -0.222840782268E+03    0.60027E-09    0.00000E+00     0   0.103E-10
  87 F= -.22284078E+03 E0= -.22284257E+03  d E =0.400178E-10
       N       E                     dE             d eps       ncg     rms          rms(c)
DAV:   1    -0.222840782268E+03    0.96043E-09   -0.50368E-11   198   0.140E-10    0.233E-10
RMM:   2    -0.222840782268E+03   -0.38199E-09    0.00000E+00     0   0.970E-11
  88 F= -.22284078E+03 E0= -.22284257E+03  d E =-.218279E-10
       N       E                     dE             d eps       ncg     rms          rms(c)
DAV:   1    -0.222840782269E+03   -0.80036E-09   -0.14014E-10   198   0.123E-10    0.271E-10
RMM:   2    -0.222840782268E+03    0.44383E-09    0.00000E+00     0   0.110E-10
  89 F= -.22284078E+03 E0= -.22284257E+03  d E =0.254659E-10
       N       E                     dE             d eps       ncg     rms          rms(c)
DAV:   1    -0.222840782267E+03    0.13097E-08   -0.69772E-11   198   0.153E-10    0.278E-10
RMM:   2    -0.222840782268E+03   -0.85493E-09    0.00000E+00     0   0.988E-11
  90 F= -.22284078E+03 E0= -.22284257E+03  d E =0.109139E-10
       N       E                     dE             d eps       ncg     rms          rms(c)
DAV:   1    -0.222840782268E+03   -0.45475E-09   -0.28571E-11   198   0.126E-10    0.296E-10
RMM:   2    -0.222840782268E+03   -0.43656E-09    0.00000E+00     0   0.101E-10
  91 F= -.22284078E+03 E0= -.22284257E+03  d E =-.363798E-10
       N       E                     dE             d eps       ncg     rms          rms(c)
DAV:   1    -0.222840782268E+03   -0.12733E-09   -0.58508E-11   198   0.112E-10    0.378E-10
RMM:   2    -0.222840782268E+03   -0.22919E-09    0.00000E+00     0   0.129E-10
  92 F= -.22284078E+03 E0= -.22284257E+03  d E =0.800355E-10
       N       E                     dE             d eps       ncg     rms          rms(c)
DAV:   1    -0.222840782269E+03   -0.11169E-08   -0.10931E-10   198   0.212E-10    0.430E-10
RMM:   2    -0.222840782268E+03    0.82582E-09    0.00000E+00     0   0.178E-10
  93 F= -.22284078E+03 E0= -.22284257E+03  d E =-.618456E-10
       N       E                     dE             d eps       ncg     rms          rms(c)
DAV:   1    -0.222840782268E+03    0.98953E-09   -0.11503E-10   198   0.258E-10    0.208E-10
RMM:   2    -0.222840782268E+03   -0.80036E-10    0.00000E+00     0   0.880E-11
  94 F= -.22284078E+03 E0= -.22284257E+03  d E =0.836735E-10
       N       E                     dE             d eps       ncg     rms          rms(c)
DAV:   1    -0.222840782268E+03   -0.26193E-09   -0.66347E-11   198   0.111E-10    0.362E-10
RMM:   2    -0.222840782268E+03    0.18917E-09    0.00000E+00     0   0.117E-10
  95 F= -.22284078E+03 E0= -.22284257E+03  d E =0.727596E-11
       N       E                     dE             d eps       ncg     rms          rms(c)
DAV:   1    -0.222840782268E+03    0.46566E-09   -0.20007E-10   198   0.211E-10    0.167E-10
RMM:   2    -0.222840782268E+03   -0.33469E-09    0.00000E+00     0   0.800E-11
  96 F= -.22284078E+03 E0= -.22284257E+03  d E =-.582077E-10
       N       E                     dE             d eps       ncg     rms          rms(c)
DAV:   1    -0.222840782268E+03   -0.42201E-09   -0.65633E-11   198   0.103E-10    0.447E-10
RMM:   2    -0.222840782268E+03    0.23647E-09    0.00000E+00     0   0.989E-11
  97 F= -.22284078E+03 E0= -.22284257E+03  d E =0.149157E-09
       N       E                     dE             d eps       ncg     rms          rms(c)
DAV:   1    -0.222840782268E+03    0.55297E-09   -0.48411E-11   198   0.149E-10    0.230E-10
RMM:   2    -0.222840782268E+03   -0.58208E-09    0.00000E+00     0   0.947E-11
  98 F= -.22284078E+03 E0= -.22284257E+03  d E =-.265572E-09
       N       E                     dE             d eps       ncg     rms          rms(c)
DAV:   1    -0.222840782268E+03   -0.57844E-09   -0.15351E-10   198   0.125E-10    0.361E-10
RMM:   2    -0.222840782268E+03    0.12005E-09    0.00000E+00     0   0.112E-10
  99 F= -.22284078E+03 E0= -.22284257E+03  d E =0.123691E-09
       N       E                     dE             d eps       ncg     rms          rms(c)
DAV:   1    -0.222840782268E+03   -0.40018E-10   -0.53354E-11   198   0.143E-10    0.244E-10
RMM:   2    -0.222840782268E+03    0.13461E-09    0.00000E+00     0   0.963E-11
 100 F= -.22284078E+03 E0= -.22284257E+03  d E =-.254659E-10
       N       E                     dE             d eps       ncg     rms          rms(c)
DAV:   1    -0.222840782268E+03    0.60027E-09   -0.49353E-11   198   0.164E-10    0.433E-10
RMM:   2    -0.222840782268E+03   -0.54570E-09    0.00000E+00     0   0.142E-10
 101 F= -.22284078E+03 E0= -.22284257E+03  d E =-.800355E-10
       N       E                     dE             d eps       ncg     rms          rms(c)
DAV:   1    -0.222840782268E+03   -0.45475E-09   -0.72806E-11   198   0.258E-10    0.274E-10
RMM:   2    -0.222840782268E+03    0.58208E-10    0.00000E+00     0   0.115E-10
 102 F= -.22284078E+03 E0= -.22284257E+03  d E =0.149157E-09
       N       E                     dE             d eps       ncg     rms          rms(c)
DAV:   1    -0.222840782267E+03    0.62937E-09    0.60491E-12   198   0.178E-10    0.290E-10
RMM:   2    -0.222840782268E+03   -0.57844E-09    0.00000E+00     0   0.110E-10
 103 F= -.22284078E+03 E0= -.22284257E+03  d E =-.727596E-11
       N       E                     dE             d eps       ncg     rms          rms(c)
DAV:   1    -0.222840782268E+03   -0.13824E-09   -0.44138E-11   198   0.143E-10    0.216E-10
RMM:   2    -0.222840782268E+03   -0.50932E-09    0.00000E+00     0   0.103E-10
 104 F= -.22284078E+03 E0= -.22284257E+03  d E =-.691216E-10
       N       E                     dE             d eps       ncg     rms          rms(c)
DAV:   1    -0.222840782269E+03   -0.87311E-09   -0.15585E-10   198   0.146E-10    0.249E-10
RMM:   2    -0.222840782268E+03    0.37107E-09    0.00000E+00     0   0.111E-10
 105 F= -.22284078E+03 E0= -.22284257E+03  d E =0.727596E-11
       N       E                     dE             d eps       ncg     rms          rms(c)
DAV:   1    -0.222840782268E+03    0.47294E-09   -0.76409E-11   198   0.145E-10    0.295E-10
RMM:   2    -0.222840782268E+03   -0.14552E-10    0.00000E+00     0   0.963E-11
 106 F= -.22284078E+03 E0= -.22284257E+03  d E =0.873115E-10
       N       E                     dE             d eps       ncg     rms          rms(c)
DAV:   1    -0.222840782268E+03   -0.25466E-09    0.62582E-11   198   0.130E-10    0.341E-10
RMM:   2    -0.222840782268E+03    0.12005E-09    0.00000E+00     0   0.114E-10
 107 F= -.22284078E+03 E0= -.22284257E+03  d E =-.120053E-09
       N       E                     dE             d eps       ncg     rms          rms(c)
DAV:   1    -0.222840782268E+03    0.61118E-09   -0.57063E-11   198   0.158E-10    0.273E-10
RMM:   2    -0.222840782268E+03   -0.36016E-09    0.00000E+00     0   0.107E-10
 108 F= -.22284078E+03 E0= -.22284257E+03  d E =0.130967E-09
       N       E                     dE             d eps       ncg     rms          rms(c)
DAV:   1    -0.222840782268E+03   -0.21828E-09   -0.63143E-11   198   0.161E-10    0.213E-10
RMM:   2    -0.222840782268E+03   -0.25830E-09    0.00000E+00     0   0.932E-11
 109 F= -.22284078E+03 E0= -.22284257E+03  d E =-.116415E-09
       N       E                     dE             d eps       ncg     rms          rms(c)
DAV:   1    -0.222840782268E+03   -0.17826E-09   -0.53274E-11   198   0.140E-10    0.597E-10
RMM:   2    -0.222840782268E+03    0.10914E-10    0.00000E+00     0   0.236E-10
 110 F= -.22284078E+03 E0= -.22284257E+03  d E =0.909495E-10
       N       E                     dE             d eps       ncg     rms          rms(c)
DAV:   1    -0.222840782267E+03    0.11278E-08   -0.91025E-11   198   0.407E-10    0.326E-10
RMM:   2    -0.222840782268E+03   -0.10623E-08    0.00000E+00     0   0.137E-10
 111 F= -.22284078E+03 E0= -.22284257E+03  d E =0.545697E-10
       N       E                     dE             d eps       ncg     rms          rms(c)
DAV:   1    -0.222840782268E+03   -0.64392E-09   -0.41383E-11   198   0.180E-10    0.236E-10
RMM:   2    -0.222840782268E+03   -0.54206E-09    0.00000E+00     0   0.848E-11
 112 F= -.22284078E+03 E0= -.22284257E+03  d E =-.123691E-09
       N       E                     dE             d eps       ncg     rms          rms(c)
DAV:   1    -0.222840782268E+03   -0.62573E-09   -0.65125E-11   198   0.120E-10    0.296E-10
RMM:   2    -0.222840782268E+03    0.72760E-11    0.00000E+00     0   0.950E-11
 113 F= -.22284078E+03 E0= -.22284257E+03  d E =-.763976E-10
       N       E                     dE             d eps       ncg     rms          rms(c)
DAV:   1    -0.222840782269E+03   -0.12442E-08   -0.69300E-11   198   0.145E-10    0.221E-10
RMM:   2    -0.222840782268E+03    0.12878E-08    0.00000E+00     0   0.879E-11
 114 F= -.22284078E+03 E0= -.22284257E+03  d E =0.363798E-10
       N       E                     dE             d eps       ncg     rms          rms(c)
DAV:   1    -0.222840782270E+03   -0.21100E-09   -0.46199E-11   198   0.145E-10    0.301E-10
RMM:   2    -0.222840782268E+03    0.15061E-08    0.00000E+00     0   0.105E-10
 115 F= -.22284078E+03 E0= -.22284257E+03  d E =0.727596E-11
       N       E                     dE             d eps       ncg     rms          rms(c)
DAV:   1    -0.222840782268E+03    0.21028E-08   -0.10465E-10   198   0.183E-10    0.397E-10
RMM:   2    -0.222840782268E+03   -0.55661E-09    0.00000E+00     0   0.158E-10
 116 F= -.22284078E+03 E0= -.22284257E+03  d E =0.400178E-10
       N       E                     dE             d eps       ncg     rms          rms(c)
DAV:   1    -0.222840782269E+03   -0.14807E-08    0.61157E-12   198   0.226E-10    0.221E-10
RMM:   2    -0.222840782268E+03    0.86584E-09    0.00000E+00     0   0.952E-11
 117 F= -.22284078E+03 E0= -.22284257E+03  d E =-.582077E-10
       N       E                     dE             d eps       ncg     rms          rms(c)
DAV:   1    -0.222840782268E+03    0.64756E-09   -0.60763E-11   198   0.133E-10    0.237E-10
RMM:   2    -0.222840782268E+03    0.26557E-09    0.00000E+00     0   0.878E-11
 118 F= -.22284078E+03 E0= -.22284257E+03  d E =0.472937E-10
       N       E                     dE             d eps       ncg     rms          rms(c)
DAV:   1    -0.222840782268E+03    0.51296E-09   -0.32214E-11   198   0.153E-10    0.358E-10
RMM:   2    -0.222840782268E+03   -0.13097E-09    0.00000E+00     0   0.141E-10
 119 F= -.22284078E+03 E0= -.22284257E+03  d E =0.116415E-09
       N       E                     dE             d eps       ncg     rms          rms(c)
DAV:   1    -0.222840782268E+03   -0.60027E-09   -0.11816E-10   198   0.252E-10    0.377E-10
RMM:   2    -0.222840782268E+03    0.46202E-09    0.00000E+00     0   0.145E-10
 120 F= -.22284078E+03 E0= -.22284257E+03  d E =-.727596E-11
       N       E                     dE             d eps       ncg     rms          rms(c)
DAV:   1    -0.222840782268E+03    0.52023E-09   -0.36524E-11   198   0.251E-10    0.388E-10
RMM:   2    -0.222840782268E+03    0.00000E+00    0.00000E+00     0   0.128E-10
 121 F= -.22284078E+03 E0= -.22284257E+03  d E =0.582077E-10
       N       E                     dE             d eps       ncg     rms          rms(c)
DAV:   1    -0.222840782268E+03    0.18554E-09   -0.11392E-10   198   0.208E-10    0.237E-10
RMM:   2    -0.222840782268E+03   -0.33469E-09    0.00000E+00     0   0.102E-10
 122 F= -.22284078E+03 E0= -.22284257E+03  d E =-.149157E-09
       N       E                     dE             d eps       ncg     rms          rms(c)
DAV:   1    -0.222840782269E+03   -0.87311E-09   -0.97447E-11   198   0.166E-10    0.277E-10
RMM:   2    -0.222840782268E+03    0.54933E-09    0.00000E+00     0   0.101E-10
 123 F= -.22284078E+03 E0= -.22284257E+03  d E =0.109139E-10
       N       E                     dE             d eps       ncg     rms          rms(c)
DAV:   1    -0.222840782268E+03    0.64756E-09   -0.65310E-11   198   0.130E-10    0.281E-10
RMM:   2    -0.222840782268E+03   -0.11278E-09    0.00000E+00     0   0.107E-10
 124 F= -.22284078E+03 E0= -.22284257E+03  d E =-.145519E-10
       N       E                     dE             d eps       ncg     rms          rms(c)
DAV:   1    -0.222840782268E+03   -0.22919E-09   -0.54942E-11   198   0.152E-10    0.166E-10
RMM:   2    -0.222840782268E+03    0.24011E-09    0.00000E+00     0   0.934E-11
 125 F= -.22284078E+03 E0= -.22284257E+03  d E =0.123691E-09
       N       E                     dE             d eps       ncg     rms          rms(c)
DAV:   1    -0.222840782268E+03    0.52387E-09   -0.47717E-11   198   0.106E-10    0.345E-10
RMM:   2    -0.222840782268E+03   -0.28376E-09    0.00000E+00     0   0.123E-10
 126 F= -.22284078E+03 E0= -.22284257E+03  d E =0.000000E+00
       N       E                     dE             d eps       ncg     rms          rms(c)
DAV:   1    -0.222840782269E+03   -0.16116E-08   -0.97643E-11   198   0.189E-10    0.292E-10
RMM:   2    -0.222840782268E+03    0.11605E-08    0.00000E+00     0   0.110E-10
 127 F= -.22284078E+03 E0= -.22284257E+03  d E =-.167347E-09
       N       E                     dE             d eps       ncg     rms          rms(c)
DAV:   1    -0.222840782267E+03    0.18808E-08   -0.18926E-10   198   0.186E-10    0.371E-10
RMM:   2    -0.222840782268E+03   -0.69122E-09    0.00000E+00     0   0.147E-10
 128 F= -.22284078E+03 E0= -.22284257E+03  d E =0.291038E-10
       N       E                     dE             d eps       ncg     rms          rms(c)
DAV:   1    -0.222840782268E+03   -0.40382E-09   -0.20145E-10   198   0.198E-10    0.296E-10
RMM:   2    -0.222840782268E+03   -0.15643E-09    0.00000E+00     0   0.130E-10
 129 F= -.22284078E+03 E0= -.22284257E+03  d E =0.130967E-09
       N       E                     dE             d eps       ncg     rms          rms(c)
DAV:   1    -0.222840782266E+03    0.13897E-08   -0.13107E-10   198   0.196E-10    0.260E-10
RMM:   2    -0.222840782268E+03   -0.15752E-08    0.00000E+00     0   0.111E-10
 130 F= -.22284078E+03 E0= -.22284257E+03  d E =-.291038E-10
       N       E                     dE             d eps       ncg     rms          rms(c)
DAV:   1    -0.222840782268E+03   -0.10587E-08   -0.13824E-10   198   0.159E-10    0.239E-10
RMM:   2    -0.222840782268E+03   -0.57844E-09    0.00000E+00     0   0.880E-11
 131 F= -.22284078E+03 E0= -.22284257E+03  d E =-.618456E-10
       N       E                     dE             d eps       ncg     rms          rms(c)
DAV:   1    -0.222840782267E+03    0.73851E-09    0.35579E-11   198   0.126E-10    0.327E-10
RMM:   2    -0.222840782268E+03   -0.13679E-08    0.00000E+00     0   0.915E-11
 132 F= -.22284078E+03 E0= -.22284257E+03  d E =-.509317E-10
       N       E                     dE             d eps       ncg     rms          rms(c)
DAV:   1    -0.222840782268E+03   -0.76761E-09   -0.13439E-10   198   0.135E-10    0.330E-10
RMM:   2    -0.222840782268E+03   -0.49840E-09    0.00000E+00     0   0.125E-10
 133 F= -.22284078E+03 E0= -.22284257E+03  d E =0.101863E-09
       N       E                     dE             d eps       ncg     rms          rms(c)
DAV:   1    -0.222840782268E+03   -0.87675E-09   -0.15081E-10   198   0.185E-10    0.226E-10
RMM:   2    -0.222840782268E+03    0.38926E-09    0.00000E+00     0   0.838E-11
 134 F= -.22284078E+03 E0= -.22284257E+03  d E =0.109139E-10
       N       E                     dE             d eps       ncg     rms          rms(c)
DAV:   1    -0.222840782268E+03    0.64392E-09   -0.34443E-11   198   0.123E-10    0.436E-10
RMM:   2    -0.222840782268E+03   -0.40382E-09    0.00000E+00     0   0.144E-10
 135 F= -.22284078E+03 E0= -.22284257E+03  d E =-.149157E-09
       N       E                     dE             d eps       ncg     rms          rms(c)
DAV:   1    -0.222840782268E+03   -0.33469E-09   -0.32566E-11   198   0.195E-10    0.292E-10
RMM:   2    -0.222840782268E+03    0.94587E-10    0.00000E+00     0   0.109E-10
 136 F= -.22284078E+03 E0= -.22284257E+03  d E =0.163709E-09
       N       E                     dE             d eps       ncg     rms          rms(c)
DAV:   1    -0.222840782268E+03    0.36380E-10    0.18017E-11   198   0.166E-10    0.207E-10
RMM:   2    -0.222840782268E+03   -0.47294E-10    0.00000E+00     0   0.961E-11
 137 F= -.22284078E+03 E0= -.22284257E+03  d E =-.105501E-09
       N       E                     dE             d eps       ncg     rms          rms(c)
DAV:   1    -0.222840782269E+03   -0.10223E-08   -0.10331E-10   198   0.137E-10    0.252E-10
RMM:   2    -0.222840782268E+03    0.10878E-08    0.00000E+00     0   0.874E-11
 138 F= -.22284078E+03 E0= -.22284257E+03  d E =0.112777E-09
       N       E                     dE             d eps       ncg     rms          rms(c)
DAV:   1    -0.222840782268E+03    0.12660E-08    0.98938E-12   198   0.150E-10    0.287E-10
RMM:   2    -0.222840782268E+03   -0.28740E-09    0.00000E+00     0   0.938E-11
 139 F= -.22284078E+03 E0= -.22284257E+03  d E =-.109139E-09
       N       E                     dE             d eps       ncg     rms          rms(c)
DAV:   1    -0.222840782269E+03   -0.12915E-08    0.40216E-11   198   0.129E-10    0.316E-10
RMM:   2    -0.222840782268E+03    0.10150E-08    0.00000E+00     0   0.967E-11
 140 F= -.22284078E+03 E0= -.22284257E+03  d E =0.109139E-10
       N       E                     dE             d eps       ncg     rms          rms(c)
DAV:   1    -0.222840782269E+03    0.27649E-09   -0.94745E-11   198   0.157E-10    0.270E-10
RMM:   2    -0.222840782268E+03    0.81127E-09    0.00000E+00     0   0.124E-10
 141 F= -.22284078E+03 E0= -.22284257E+03  d E =0.727596E-10
       N       E                     dE             d eps       ncg     rms          rms(c)
DAV:   1    -0.222840782269E+03   -0.32014E-09   -0.80416E-11   198   0.169E-10    0.306E-10
RMM:   2    -0.222840782268E+03    0.11532E-08    0.00000E+00     0   0.977E-11
 142 F= -.22284078E+03 E0= -.22284257E+03  d E =0.218279E-10
       N       E                     dE             d eps       ncg     rms          rms(c)
DAV:   1    -0.222840782267E+03    0.18445E-08   -0.92936E-11   198   0.131E-10    0.228E-10
RMM:   2    -0.222840782268E+03   -0.65120E-09    0.00000E+00     0   0.841E-11
 143 F= -.22284078E+03 E0= -.22284257E+03  d E =0.400178E-10
       N       E                     dE             d eps       ncg     rms          rms(c)
DAV:   1    -0.222840782268E+03   -0.27649E-09   -0.22583E-11   198   0.134E-10    0.319E-10
RMM:   2    -0.222840782268E+03   -0.54933E-09    0.00000E+00     0   0.106E-10
 144 F= -.22284078E+03 E0= -.22284257E+03  d E =-.174623E-09
       N       E                     dE             d eps       ncg     rms          rms(c)
DAV:   1    -0.222840782268E+03   -0.60754E-09    0.51252E-12   198   0.140E-10    0.309E-10
RMM:   2    -0.222840782268E+03   -0.36380E-11    0.00000E+00     0   0.103E-10
 145 F= -.22284078E+03 E0= -.22284257E+03  d E =-.618456E-10
       N       E                     dE             d eps       ncg     rms          rms(c)
DAV:   1    -0.222840782268E+03    0.23283E-09   -0.75584E-11   198   0.159E-10    0.332E-10
RMM:   2    -0.222840782268E+03   -0.26193E-09    0.00000E+00     0   0.116E-10
 146 F= -.22284078E+03 E0= -.22284257E+03  d E =-.254659E-10
       N       E                     dE             d eps       ncg     rms          rms(c)
DAV:   1    -0.222840782267E+03    0.60027E-09   -0.68079E-11   198   0.171E-10    0.393E-10
RMM:   2    -0.222840782268E+03   -0.64392E-09    0.00000E+00     0   0.146E-10
 147 F= -.22284078E+03 E0= -.22284257E+03  d E =0.218279E-09
       N       E                     dE             d eps       ncg     rms          rms(c)
DAV:   1    -0.222840782269E+03   -0.12114E-08   -0.90627E-11   198   0.266E-10    0.218E-10
RMM:   2    -0.222840782268E+03    0.40382E-09    0.00000E+00     0   0.101E-10
 148 F= -.22284078E+03 E0= -.22284257E+03  d E =-.163709E-09
       N       E                     dE             d eps       ncg     rms          rms(c)
DAV:   1    -0.222840782268E+03    0.39654E-09   -0.10936E-10   198   0.123E-10    0.292E-10
RMM:   2    -0.222840782268E+03    0.29104E-10    0.00000E+00     0   0.955E-11
 149 F= -.22284078E+03 E0= -.22284257E+03  d E =0.218279E-10
       N       E                     dE             d eps       ncg     rms          rms(c)
DAV:   1    -0.222840782268E+03   -0.27649E-09   -0.20531E-10   198   0.139E-10    0.258E-10
RMM:   2    -0.222840782268E+03    0.42564E-09    0.00000E+00     0   0.105E-10
 150 F= -.22284078E+03 E0= -.22284257E+03  d E =0.120053E-09
       N       E                     dE             d eps       ncg     rms          rms(c)
DAV:   1    -0.222840782269E+03   -0.92041E-09    0.17430E-11   198   0.161E-10    0.296E-10
RMM:   2    -0.222840782268E+03    0.12915E-08    0.00000E+00     0   0.110E-10
 151 F= -.22284078E+03 E0= -.22284257E+03  d E =-.545697E-10
       N       E                     dE             d eps       ncg     rms          rms(c)
DAV:   1    -0.222840782267E+03    0.20773E-08   -0.93042E-11   198   0.178E-10    0.274E-10
RMM:   2    -0.222840782268E+03   -0.80036E-09    0.00000E+00     0   0.957E-11
 152 F= -.22284078E+03 E0= -.22284257E+03  d E =-.145519E-10
       N       E                     dE             d eps       ncg     rms          rms(c)
DAV:   1    -0.222840782269E+03   -0.18117E-08   -0.12604E-10   198   0.162E-10    0.294E-10
RMM:   2    -0.222840782268E+03    0.10805E-08    0.00000E+00     0   0.138E-10
 153 F= -.22284078E+03 E0= -.22284257E+03  d E =0.691216E-10
       N       E                     dE             d eps       ncg     rms          rms(c)
DAV:   1    -0.222840782268E+03    0.69122E-09   -0.10532E-10   198   0.171E-10    0.234E-10
RMM:   2    -0.222840782268E+03    0.29468E-09    0.00000E+00     0   0.848E-11
 154 F= -.22284078E+03 E0= -.22284257E+03  d E =-.945874E-10
       N       E                     dE             d eps       ncg     rms          rms(c)
DAV:   1    -0.222840782268E+03    0.76398E-09   -0.27158E-11   198   0.114E-10    0.314E-10
RMM:   2    -0.222840782268E+03   -0.48749E-09    0.00000E+00     0   0.121E-10
 155 F= -.22284078E+03 E0= -.22284257E+03  d E =-.181899E-10
       N       E                     dE             d eps       ncg     rms          rms(c)
DAV:   1    -0.222840782267E+03    0.95315E-09   -0.75036E-11   198   0.188E-10    0.209E-10
RMM:   2    -0.222840782268E+03   -0.13533E-08    0.00000E+00     0   0.109E-10
 156 F= -.22284078E+03 E0= -.22284257E+03  d E =0.873115E-10
       N       E                     dE             d eps       ncg     rms          rms(c)
DAV:   1    -0.222840782269E+03   -0.21682E-08   -0.86556E-11   198   0.121E-10    0.265E-10
RMM:   2    -0.222840782268E+03    0.80036E-09    0.00000E+00     0   0.107E-10
 157 F= -.22284078E+03 E0= -.22284257E+03  d E =-.145519E-10
       N       E                     dE             d eps       ncg     rms          rms(c)
DAV:   1    -0.222840782268E+03    0.11787E-08   -0.11156E-10   198   0.151E-10    0.276E-10
RMM:   2    -0.222840782268E+03   -0.42201E-09    0.00000E+00     0   0.937E-11
 158 F= -.22284078E+03 E0= -.22284257E+03  d E =-.436557E-10
       N       E                     dE             d eps       ncg     rms          rms(c)
DAV:   1    -0.222840782268E+03   -0.39654E-09   -0.41364E-11   198   0.154E-10    0.283E-10
RMM:   2    -0.222840782268E+03    0.54570E-10    0.00000E+00     0   0.116E-10
 159 F= -.22284078E+03 E0= -.22284257E+03  d E =0.800355E-10
       N       E                     dE             d eps       ncg     rms          rms(c)
DAV:   1    -0.222840782269E+03   -0.83674E-09   -0.69346E-12   198   0.180E-10    0.268E-10
RMM:   2    -0.222840782268E+03    0.77853E-09    0.00000E+00     0   0.878E-11
 160 F= -.22284078E+03 E0= -.22284257E+03  d E =-.112777E-09
       N       E                     dE             d eps       ncg     rms          rms(c)
DAV:   1    -0.222840782268E+03    0.86584E-09   -0.12481E-10   198   0.112E-10    0.209E-10
RMM:   2    -0.222840782268E+03   -0.10550E-09    0.00000E+00     0   0.740E-11
 161 F= -.22284078E+03 E0= -.22284257E+03  d E =-.181899E-10
       N       E                     dE             d eps       ncg     rms          rms(c)
DAV:   1    -0.222840782268E+03    0.41473E-09   -0.28835E-12   198   0.723E-11    0.211E-10
RMM:   2    -0.222840782268E+03   -0.33106E-09    0.00000E+00     0   0.815E-11
 162 F= -.22284078E+03 E0= -.22284257E+03  d E =0.189175E-09
       N       E                     dE             d eps       ncg     rms          rms(c)
DAV:   1    -0.222840782268E+03   -0.17099E-09   -0.34738E-12   198   0.112E-10    0.259E-10
RMM:   2    -0.222840782268E+03   -0.22555E-09    0.00000E+00     0   0.115E-10
 163 F= -.22284078E+03 E0= -.22284257E+03  d E =-.654836E-10
       N       E                     dE             d eps       ncg     rms          rms(c)
DAV:   1    -0.222840782268E+03   -0.48021E-09    0.48211E-11   198   0.147E-10    0.218E-10
RMM:   2    -0.222840782268E+03    0.20373E-09    0.00000E+00     0   0.791E-11
 164 F= -.22284078E+03 E0= -.22284257E+03  d E =-.509317E-10
       N       E                     dE             d eps       ncg     rms          rms(c)
DAV:   1    -0.222840782269E+03   -0.54206E-09   -0.46647E-11   198   0.101E-10    0.337E-10
RMM:   2    -0.222840782268E+03    0.81855E-09    0.00000E+00     0   0.126E-10
 165 F= -.22284078E+03 E0= -.22284257E+03  d E =0.727596E-10
       N       E                     dE             d eps       ncg     rms          rms(c)
DAV:   1    -0.222840782268E+03    0.11387E-08   -0.46634E-11   198   0.201E-10    0.450E-10
RMM:   2    -0.222840782268E+03   -0.44383E-09    0.00000E+00     0   0.151E-10
 166 F= -.22284078E+03 E0= -.22284257E+03  d E =-.123691E-09
       N       E                     dE             d eps       ncg     rms          rms(c)
DAV:   1    -0.222840782268E+03   -0.79308E-09   -0.76462E-12   198   0.260E-10    0.261E-10
RMM:   2    -0.222840782268E+03    0.34197E-09    0.00000E+00     0   0.116E-10
 167 F= -.22284078E+03 E0= -.22284257E+03  d E =-.727596E-11
       N       E                     dE             d eps       ncg     rms          rms(c)
DAV:   1    -0.222840782268E+03    0.33106E-09   -0.35475E-11   198   0.178E-10    0.242E-10
RMM:   2    -0.222840782268E+03    0.72760E-10    0.00000E+00     0   0.784E-11
 168 F= -.22284078E+03 E0= -.22284257E+03  d E =0.618456E-10
       N       E                     dE             d eps       ncg     rms          rms(c)
DAV:   1    -0.222840782267E+03    0.10150E-08    0.15116E-11   198   0.107E-10    0.230E-10
RMM:   2    -0.222840782268E+03   -0.88403E-09    0.00000E+00     0   0.804E-11
 169 F= -.22284078E+03 E0= -.22284257E+03  d E =0.582077E-10
       N       E                     dE             d eps       ncg     rms          rms(c)
DAV:   1    -0.222840782270E+03   -0.27248E-08   -0.17503E-11   198   0.107E-10    0.319E-10
RMM:   2    -0.222840782268E+03    0.18517E-08    0.00000E+00     0   0.101E-10
 170 F= -.22284078E+03 E0= -.22284257E+03  d E =0.109139E-10
       N       E                     dE             d eps       ncg     rms          rms(c)
DAV:   1    -0.222840782268E+03    0.13824E-08   -0.62815E-11   198   0.124E-10    0.284E-10
RMM:   2    -0.222840782268E+03    0.31650E-09    0.00000E+00     0   0.105E-10
 171 F= -.22284078E+03 E0= -.22284257E+03  d E =-.152795E-09
       N       E                     dE             d eps       ncg     rms          rms(c)
DAV:   1    -0.222840782267E+03    0.99681E-09   -0.23403E-11   198   0.132E-10    0.301E-10
RMM:   2    -0.222840782268E+03   -0.71304E-09    0.00000E+00     0   0.119E-10
 172 F= -.22284078E+03 E0= -.22284257E+03  d E =-.327418E-10
       N       E                     dE             d eps       ncg     rms          rms(c)
DAV:   1    -0.222840782268E+03   -0.72032E-09    0.31327E-11   198   0.165E-10    0.210E-10
RMM:   2    -0.222840782268E+03    0.10550E-09    0.00000E+00     0   0.914E-11
 173 F= -.22284078E+03 E0= -.22284257E+03  d E =0.982254E-10
       N       E                     dE             d eps       ncg     rms          rms(c)
DAV:   1    -0.222840782268E+03    0.42201E-09   -0.15378E-10   198   0.115E-10    0.280E-10
RMM:   2    -0.222840782268E+03   -0.16007E-09    0.00000E+00     0   0.919E-11
 174 F= -.22284078E+03 E0= -.22284257E+03  d E =0.156433E-09
       N       E                     dE             d eps       ncg     rms          rms(c)
DAV:   1    -0.222840782268E+03   -0.70213E-09   -0.15137E-10   198   0.136E-10    0.259E-10
RMM:   2    -0.222840782268E+03    0.33106E-09    0.00000E+00     0   0.976E-11
 175 F= -.22284078E+03 E0= -.22284257E+03  d E =-.211003E-09
       N       E                     dE             d eps       ncg     rms          rms(c)
DAV:   1    -0.222840782269E+03   -0.47658E-09    0.21578E-11   198   0.124E-10    0.213E-10
RMM:   2    -0.222840782268E+03    0.79308E-09    0.00000E+00     0   0.788E-11
 176 F= -.22284078E+03 E0= -.22284257E+03  d E =-.145519E-10
       N       E                     dE             d eps       ncg     rms          rms(c)
DAV:   1    -0.222840782269E+03   -0.18190E-10   -0.10508E-11   198   0.968E-11    0.283E-10
RMM:   2    -0.222840782268E+03    0.94951E-09    0.00000E+00     0   0.891E-11
 177 F= -.22284078E+03 E0= -.22284257E+03  d E =0.138243E-09
       N       E                     dE             d eps       ncg     rms          rms(c)
DAV:   1    -0.222840782267E+03    0.20445E-08   -0.55592E-11   198   0.148E-10    0.264E-10
RMM:   2    -0.222840782268E+03   -0.12296E-08    0.00000E+00     0   0.910E-11
 178 F= -.22284078E+03 E0= -.22284257E+03  d E =-.134605E-09
       N       E                     dE             d eps       ncg     rms          rms(c)
DAV:   1    -0.222840782268E+03   -0.76761E-09   -0.19397E-11   198   0.145E-10    0.316E-10
RMM:   2    -0.222840782268E+03   -0.49113E-09    0.00000E+00     0   0.121E-10
 179 F= -.22284078E+03 E0= -.22284257E+03  d E =-.291038E-10
       N       E                     dE             d eps       ncg     rms          rms(c)
DAV:   1    -0.222840782268E+03    0.17099E-09    0.83231E-12   198   0.142E-10    0.263E-10
RMM:   2    -0.222840782268E+03   -0.62937E-09    0.00000E+00     0   0.986E-11
 180 F= -.22284078E+03 E0= -.22284257E+03  d E =0.327418E-10
       N       E                     dE             d eps       ncg     rms          rms(c)
DAV:   1    -0.222840782268E+03   -0.73123E-09   -0.19576E-11   198   0.158E-10    0.272E-10
RMM:   2    -0.222840782268E+03    0.20009E-09    0.00000E+00     0   0.980E-11
 181 F= -.22284078E+03 E0= -.22284257E+03  d E =0.982254E-10
       N       E                     dE             d eps       ncg     rms          rms(c)
DAV:   1    -0.222840782268E+03    0.18917E-09   -0.60281E-11   198   0.169E-10    0.231E-10
RMM:   2    -0.222840782268E+03   -0.47294E-10    0.00000E+00     0   0.940E-11
 182 F= -.22284078E+03 E0= -.22284257E+03  d E =-.582077E-10
       N       E                     dE             d eps       ncg     rms          rms(c)
DAV:   1    -0.222840782267E+03    0.11023E-08    0.39416E-11   198   0.149E-10    0.387E-10
RMM:   2    -0.222840782268E+03   -0.11751E-08    0.00000E+00     0   0.152E-10
 183 F= -.22284078E+03 E0= -.22284257E+03  d E =-.254659E-10
       N       E                     dE             d eps       ncg     rms          rms(c)
DAV:   1    -0.222840782267E+03   -0.18554E-09   -0.19827E-10   198   0.269E-10    0.288E-10
RMM:   2    -0.222840782268E+03   -0.80763E-09    0.00000E+00     0   0.125E-10
 184 F= -.22284078E+03 E0= -.22284257E+03  d E =0.181899E-09
       N       E                     dE             d eps       ncg     rms          rms(c)
DAV:   1    -0.222840782268E+03   -0.94951E-09   -0.21256E-11   198   0.177E-10    0.332E-10
RMM:   2    -0.222840782268E+03    0.13461E-09    0.00000E+00     0   0.117E-10
 185 F= -.22284078E+03 E0= -.22284257E+03  d E =-.727596E-11
       N       E                     dE             d eps       ncg     rms          rms(c)
DAV:   1    -0.222840782268E+03   -0.32742E-10   -0.88210E-11   198   0.190E-10    0.206E-10
RMM:   2    -0.222840782268E+03    0.13097E-09    0.00000E+00     0   0.898E-11
 186 F= -.22284078E+03 E0= -.22284257E+03  d E =-.363798E-10
       N       E                     dE             d eps       ncg     rms          rms(c)
DAV:   1    -0.222840782268E+03   -0.16007E-09   -0.14582E-10   198   0.103E-10    0.250E-10
RMM:   2    -0.222840782268E+03    0.13461E-09    0.00000E+00     0   0.944E-11
 187 F= -.22284078E+03 E0= -.22284257E+03  d E =-.156433E-09
       N       E                     dE             d eps       ncg     rms          rms(c)
DAV:   1    -0.222840782269E+03   -0.44020E-09   -0.14120E-11   198   0.157E-10    0.207E-10
RMM:   2    -0.222840782268E+03    0.62573E-09    0.00000E+00     0   0.920E-11
 188 F= -.22284078E+03 E0= -.22284257E+03  d E =0.509317E-10
       N       E                     dE             d eps       ncg     rms          rms(c)
DAV:   1    -0.222840782267E+03    0.18299E-08   -0.63882E-11   198   0.921E-11    0.250E-10
RMM:   2    -0.222840782268E+03   -0.12697E-08    0.00000E+00     0   0.844E-11
 189 F= -.22284078E+03 E0= -.22284257E+03  d E =-.654836E-10
       N       E                     dE             d eps       ncg     rms          rms(c)
DAV:   1    -0.222840782267E+03   -0.57116E-09   -0.26630E-11   198   0.112E-10    0.286E-10
RMM:   2    -0.222840782268E+03   -0.55661E-09    0.00000E+00     0   0.954E-11
 190 F= -.22284078E+03 E0= -.22284257E+03  d E =0.141881E-09
       N       E                     dE             d eps       ncg     rms          rms(c)
DAV:   1    -0.222840782267E+03    0.16735E-09   -0.23877E-11   198   0.150E-10    0.225E-10
RMM:   2    -0.222840782268E+03   -0.89494E-09    0.00000E+00     0   0.879E-11
 191 F= -.22284078E+03 E0= -.22284257E+03  d E =-.170985E-09
       N       E                     dE             d eps       ncg     rms          rms(c)
DAV:   1    -0.222840782269E+03   -0.12369E-08   -0.99590E-11   198   0.110E-10    0.158E-10
RMM:   2    -0.222840782268E+03    0.40382E-09    0.00000E+00     0   0.873E-11
 192 F= -.22284078E+03 E0= -.22284257E+03  d E =0.618456E-10
       N       E                     dE             d eps       ncg     rms          rms(c)
DAV:   1    -0.222840782268E+03    0.15280E-09   -0.65247E-11   198   0.964E-11    0.370E-10
RMM:   2    -0.222840782268E+03    0.22192E-09    0.00000E+00     0   0.109E-10
 193 F= -.22284078E+03 E0= -.22284257E+03  d E =-.291038E-10
       N       E                     dE             d eps       ncg     rms          rms(c)
DAV:   1    -0.222840782268E+03    0.20373E-09   -0.35703E-11   198   0.174E-10    0.222E-10
RMM:   2    -0.222840782268E+03    0.21464E-09    0.00000E+00     0   0.985E-11
 194 F= -.22284078E+03 E0= -.22284257E+03  d E =0.196451E-09
       N       E                     dE             d eps       ncg     rms          rms(c)
DAV:   1    -0.222840782269E+03   -0.64392E-09   -0.54397E-11   198   0.140E-10    0.227E-10
RMM:   2    -0.222840782268E+03    0.78217E-09    0.00000E+00     0   0.770E-11
 195 F= -.22284078E+03 E0= -.22284257E+03  d E =-.763976E-10
       N       E                     dE             d eps       ncg     rms          rms(c)
DAV:   1    -0.222840782268E+03    0.72396E-09   -0.25267E-11   198   0.105E-10    0.318E-10
RMM:   2    -0.222840782268E+03    0.10186E-09    0.00000E+00     0   0.996E-11
 196 F= -.22284078E+03 E0= -.22284257E+03  d E =0.436557E-10
       N       E                     dE             d eps       ncg     rms          rms(c)
DAV:   1    -0.222840782268E+03    0.44020E-09   -0.27557E-11   198   0.170E-10    0.332E-10
RMM:   2    -0.222840782268E+03   -0.39654E-09    0.00000E+00     0   0.135E-10
 197 F= -.22284078E+03 E0= -.22284257E+03  d E =-.582077E-10
       N       E                     dE             d eps       ncg     rms          rms(c)
DAV:   1    -0.222840782268E+03   -0.22555E-09   -0.88859E-11   198   0.224E-10    0.376E-10
RMM:   2    -0.222840782268E+03   -0.21100E-09    0.00000E+00     0   0.138E-10
 198 F= -.22284078E+03 E0= -.22284257E+03  d E =-.400178E-10
       N       E                     dE             d eps       ncg     rms          rms(c)
DAV:   1    -0.222840782267E+03    0.89858E-09    0.19020E-11   198   0.226E-10    0.251E-10
RMM:   2    -0.222840782268E+03   -0.10768E-08    0.00000E+00     0   0.114E-10
 199 F= -.22284078E+03 E0= -.22284257E+03  d E =0.327418E-10
       N       E                     dE             d eps       ncg     rms          rms(c)
DAV:   1    -0.222840782268E+03   -0.52751E-09   -0.14210E-10   198   0.180E-10    0.387E-10
RMM:   2    -0.222840782268E+03   -0.45839E-09    0.00000E+00     0   0.148E-10
 200 F= -.22284078E+03 E0= -.22284257E+03  d E =0.909495E-10
       N       E                     dE             d eps       ncg     rms          rms(c)
DAV:   1    -0.222840782269E+03   -0.11350E-08   -0.28992E-11   198   0.258E-10    0.252E-10
RMM:   2    -0.222840782268E+03    0.46566E-09    0.00000E+00     0   0.938E-11
 201 F= -.22284078E+03 E0= -.22284257E+03  d E =-.211003E-09
       N       E                     dE             d eps       ncg     rms          rms(c)
DAV:   1    -0.222840782267E+03    0.11896E-08   -0.54264E-11   198   0.138E-10    0.251E-10
RMM:   2    -0.222840782268E+03   -0.48749E-09    0.00000E+00     0   0.836E-11
 202 F= -.22284078E+03 E0= -.22284257E+03  d E =0.236469E-09
       N       E                     dE             d eps       ncg     rms          rms(c)
DAV:   1    -0.222840782269E+03   -0.19209E-08   -0.59437E-12   198   0.113E-10    0.348E-10
RMM:   2    -0.222840782268E+03    0.13497E-08    0.00000E+00     0   0.134E-10
 203 F= -.22284078E+03 E0= -.22284257E+03  d E =-.836735E-10
       N       E                     dE             d eps       ncg     rms          rms(c)
DAV:   1    -0.222840782268E+03    0.13533E-08   -0.12280E-10   198   0.218E-10    0.340E-10
RMM:   2    -0.222840782268E+03    0.10914E-10    0.00000E+00     0   0.138E-10
 204 F= -.22284078E+03 E0= -.22284257E+03  d E =0.145519E-10
       N       E                     dE             d eps       ncg     rms          rms(c)
DAV:   1    -0.222840782267E+03    0.69485E-09   -0.11829E-10   198   0.199E-10    0.175E-10
RMM:   2    -0.222840782268E+03   -0.69122E-09    0.00000E+00     0   0.792E-11
 205 F= -.22284078E+03 E0= -.22284257E+03  d E =-.727596E-11
       N       E                     dE             d eps       ncg     rms          rms(c)
DAV:   1    -0.222840782268E+03   -0.71668E-09   -0.14881E-10   198   0.105E-10    0.300E-10
RMM:   2    -0.222840782268E+03    0.72760E-11    0.00000E+00     0   0.944E-11
 206 F= -.22284078E+03 E0= -.22284257E+03  d E =-.181899E-10
       N       E                     dE             d eps       ncg     rms          rms(c)
DAV:   1    -0.222840782269E+03   -0.51296E-09    0.49975E-11   198   0.136E-10    0.408E-10
RMM:   2    -0.222840782268E+03    0.44383E-09    0.00000E+00     0   0.147E-10
 207 F= -.22284078E+03 E0= -.22284257E+03  d E =-.763976E-10
       N       E                     dE             d eps       ncg     rms          rms(c)
DAV:   1    -0.222840782268E+03    0.24374E-09   -0.23763E-10   198   0.244E-10    0.212E-10
RMM:   2    -0.222840782268E+03    0.22919E-09    0.00000E+00     0   0.900E-11
 208 F= -.22284078E+03 E0= -.22284257E+03  d E =0.291038E-10
       N       E                     dE             d eps       ncg     rms          rms(c)
DAV:   1    -0.222840782268E+03    0.14552E-09   -0.56150E-11   198   0.133E-10    0.316E-10
RMM:   2    -0.222840782268E+03    0.36380E-10    0.00000E+00     0   0.132E-10
 209 F= -.22284078E+03 E0= -.22284257E+03  d E =-.472937E-10
       N       E                     dE             d eps       ncg     rms          rms(c)
DAV:   1    -0.222840782269E+03   -0.79672E-09    0.88613E-11   198   0.189E-10    0.202E-10
RMM:   2    -0.222840782268E+03    0.84401E-09    0.00000E+00     0   0.877E-11
 210 F= -.22284078E+03 E0= -.22284257E+03  d E =0.109139E-10
       N       E                     dE             d eps       ncg     rms          rms(c)
DAV:   1    -0.222840782268E+03    0.11569E-08   -0.41475E-11   198   0.111E-10    0.279E-10
RMM:   2    -0.222840782268E+03   -0.31287E-09    0.00000E+00     0   0.980E-11
 211 F= -.22284078E+03 E0= -.22284257E+03  d E =0.000000E+00
       N       E                     dE             d eps       ncg     rms          rms(c)
DAV:   1    -0.222840782268E+03   -0.62209E-09   -0.31276E-11   198   0.158E-10    0.368E-10
RMM:   2    -0.222840782268E+03    0.46930E-09    0.00000E+00     0   0.148E-10
 212 F= -.22284078E+03 E0= -.22284257E+03  d E =0.160071E-09
       N       E                     dE             d eps       ncg     rms          rms(c)
DAV:   1    -0.222840782269E+03   -0.35288E-09    0.32611E-11   198   0.247E-10    0.246E-10
RMM:   2    -0.222840782268E+03    0.79308E-09    0.00000E+00     0   0.103E-10
 213 F= -.22284078E+03 E0= -.22284257E+03  d E =-.291038E-10
       N       E                     dE             d eps       ncg     rms          rms(c)
DAV:   1    -0.222840782268E+03    0.93132E-09   -0.14946E-11   198   0.132E-10    0.228E-10
RMM:   2    -0.222840782268E+03   -0.10186E-09    0.00000E+00     0   0.867E-11
 214 F= -.22284078E+03 E0= -.22284257E+03  d E =0.363798E-10
       N       E                     dE             d eps       ncg     rms          rms(c)
DAV:   1    -0.222840782267E+03    0.53114E-09   -0.69303E-11   198   0.129E-10    0.230E-10
RMM:   2    -0.222840782268E+03   -0.75670E-09    0.00000E+00     0   0.886E-11
 215 F= -.22284078E+03 E0= -.22284257E+03  d E =-.123691E-09
       N       E                     dE             d eps       ncg     rms          rms(c)
DAV:   1    -0.222840782268E+03   -0.55297E-09   -0.55189E-11   198   0.118E-10    0.231E-10
RMM:   2    -0.222840782268E+03   -0.21828E-09    0.00000E+00     0   0.833E-11
 216 F= -.22284078E+03 E0= -.22284257E+03  d E =-.145519E-10
       N       E                     dE             d eps       ncg     rms          rms(c)
DAV:   1    -0.222840782269E+03   -0.71304E-09   -0.54616E-11   198   0.981E-11    0.227E-10
RMM:   2    -0.222840782268E+03    0.44383E-09    0.00000E+00     0   0.727E-11
 217 F= -.22284078E+03 E0= -.22284257E+03  d E =-.509317E-10
       N       E                     dE             d eps       ncg     rms          rms(c)
DAV:   1    -0.222840782268E+03    0.99317E-09   -0.12890E-10   198   0.112E-10    0.253E-10
RMM:   2    -0.222840782268E+03   -0.49477E-09    0.00000E+00     0   0.760E-11
 218 F= -.22284078E+03 E0= -.22284257E+03  d E =0.545697E-10
       N       E                     dE             d eps       ncg     rms          rms(c)
DAV:   1    -0.222840782269E+03   -0.97498E-09    0.40654E-11   198   0.995E-11    0.364E-10
RMM:   2    -0.222840782268E+03    0.53478E-09    0.00000E+00     0   0.125E-10
 219 F= -.22284078E+03 E0= -.22284257E+03  d E =0.545697E-10
       N       E                     dE             d eps       ncg     rms          rms(c)
DAV:   1    -0.222840782267E+03    0.14406E-08   -0.24187E-11   198   0.226E-10    0.215E-10
RMM:   2    -0.222840782268E+03   -0.10477E-08    0.00000E+00     0   0.992E-11
 220 F= -.22284078E+03 E0= -.22284257E+03  d E =-.141881E-09
       N       E                     dE             d eps       ncg     rms          rms(c)
DAV:   1    -0.222840782268E+03   -0.69122E-09   -0.10998E-11   198   0.134E-10    0.252E-10
RMM:   2    -0.222840782268E+03   -0.26557E-09    0.00000E+00     0   0.980E-11
 221 F= -.22284078E+03 E0= -.22284257E+03  d E =0.909495E-10
       N       E                     dE             d eps       ncg     rms          rms(c)
DAV:   1    -0.222840782268E+03   -0.17826E-09   -0.54830E-11   198   0.118E-10    0.274E-10
RMM:   2    -0.222840782268E+03    0.61846E-10    0.00000E+00     0   0.819E-11
 222 F= -.22284078E+03 E0= -.22284257E+03  d E =0.149157E-09
       N       E                     dE             d eps       ncg     rms          rms(c)
DAV:   1    -0.222840782267E+03    0.12005E-08   -0.88200E-11   198   0.111E-10    0.384E-10
RMM:   2    -0.222840782268E+03   -0.11933E-08    0.00000E+00     0   0.104E-10
 223 F= -.22284078E+03 E0= -.22284257E+03  d E =-.545697E-10
       N       E                     dE             d eps       ncg     rms          rms(c)
DAV:   1    -0.222840782268E+03   -0.15607E-08   -0.60494E-11   198   0.142E-10    0.300E-10
RMM:   2    -0.222840782268E+03    0.20736E-09    0.00000E+00     0   0.110E-10
 224 F= -.22284078E+03 E0= -.22284257E+03  d E =-.160071E-09
       N       E                     dE             d eps       ncg     rms          rms(c)
DAV:   1    -0.222840782268E+03    0.15643E-09   -0.15211E-10   198   0.189E-10    0.270E-10
RMM:   2    -0.222840782268E+03    0.24011E-09    0.00000E+00     0   0.119E-10
 225 F= -.22284078E+03 E0= -.22284257E+03  d E =0.189175E-09
       N       E                     dE             d eps       ncg     rms          rms(c)
DAV:   1    -0.222840782267E+03    0.77853E-09   -0.33573E-11   198   0.144E-10    0.387E-10
RMM:   2    -0.222840782268E+03   -0.55661E-09    0.00000E+00     0   0.123E-10
 226 F= -.22284078E+03 E0= -.22284257E+03  d E =-.181899E-10
       N       E                     dE             d eps       ncg     rms          rms(c)
DAV:   1    -0.222840782268E+03   -0.61846E-10   -0.98612E-11   198   0.194E-10    0.268E-10
RMM:   2    -0.222840782268E+03   -0.65484E-09    0.00000E+00     0   0.112E-10
 227 F= -.22284078E+03 E0= -.22284257E+03  d E =-.160071E-09
       N       E                     dE             d eps       ncg     rms          rms(c)
DAV:   1    -0.222840782268E+03   -0.12369E-09   -0.38929E-11   198   0.178E-10    0.313E-10
RMM:   2    -0.222840782268E+03   -0.34197E-09    0.00000E+00     0   0.129E-10
 228 F= -.22284078E+03 E0= -.22284257E+03  d E =0.189175E-09
       N       E                     dE             d eps       ncg     rms          rms(c)
DAV:   1    -0.222840782267E+03    0.16735E-09    0.22890E-11   198   0.215E-10    0.239E-10
RMM:   2    -0.222840782268E+03   -0.54933E-09    0.00000E+00     0   0.930E-11
 229 F= -.22284078E+03 E0= -.22284257E+03  d E =-.400178E-10
       N       E                     dE             d eps       ncg     rms          rms(c)
DAV:   1    -0.222840782267E+03    0.17462E-09   -0.51503E-11   198   0.131E-10    0.164E-10
RMM:   2    -0.222840782268E+03   -0.82218E-09    0.00000E+00     0   0.754E-11
 230 F= -.22284078E+03 E0= -.22284257E+03  d E =-.982254E-10
       N       E                     dE             d eps       ncg     rms          rms(c)
DAV:   1    -0.222840782269E+03   -0.14370E-08    0.61058E-11   198   0.992E-11    0.393E-10
RMM:   2    -0.222840782268E+03    0.53114E-09    0.00000E+00     0   0.138E-10
 231 F= -.22284078E+03 E0= -.22284257E+03  d E =-.836735E-10
       N       E                     dE             d eps       ncg     rms          rms(c)
DAV:   1    -0.222840782268E+03    0.12296E-08   -0.50614E-11   198   0.214E-10    0.211E-10
RMM:   2    -0.222840782268E+03   -0.63301E-09    0.00000E+00     0   0.101E-10
 232 F= -.22284078E+03 E0= -.22284257E+03  d E =0.654836E-10
       N       E                     dE             d eps       ncg     rms          rms(c)
DAV:   1    -0.222840782269E+03   -0.13606E-08   -0.11519E-10   198   0.108E-10    0.180E-10
RMM:   2    -0.222840782268E+03    0.73851E-09    0.00000E+00     0   0.807E-11
 233 F= -.22284078E+03 E0= -.22284257E+03  d E =0.109139E-10
       N       E                     dE             d eps       ncg     rms          rms(c)
DAV:   1    -0.222840782268E+03    0.48385E-09   -0.19141E-11   198   0.915E-11    0.253E-10
RMM:   2    -0.222840782268E+03    0.25466E-09    0.00000E+00     0   0.794E-11
 234 F= -.22284078E+03 E0= -.22284257E+03  d E =0.000000E+00
       N       E                     dE             d eps       ncg     rms          rms(c)
DAV:   1    -0.222840782268E+03    0.73487E-09   -0.12099E-10   198   0.111E-10    0.288E-10
RMM:   2    -0.222840782268E+03   -0.34925E-09    0.00000E+00     0   0.101E-10
 235 F= -.22284078E+03 E0= -.22284257E+03  d E =0.130967E-09
       N       E                     dE             d eps       ncg     rms          rms(c)
DAV:   1    -0.222840782269E+03   -0.12442E-08   -0.23540E-12   198   0.129E-10    0.317E-10
RMM:   2    -0.222840782268E+03    0.72032E-09    0.00000E+00     0   0.109E-10
 236 F= -.22284078E+03 E0= -.22284257E+03  d E =-.174623E-09
       N       E                     dE             d eps       ncg     rms          rms(c)
DAV:   1    -0.222840782269E+03    0.34197E-09   -0.76856E-11   198   0.167E-10    0.209E-10
RMM:   2    -0.222840782268E+03    0.50204E-09    0.00000E+00     0   0.106E-10
 237 F= -.22284078E+03 E0= -.22284257E+03  d E =0.123691E-09
       N       E                     dE             d eps       ncg     rms          rms(c)
DAV:   1    -0.222840782268E+03    0.13097E-09   -0.99781E-11   198   0.146E-10    0.300E-10
RMM:   2    -0.222840782268E+03    0.25830E-09    0.00000E+00     0   0.111E-10
 238 F= -.22284078E+03 E0= -.22284257E+03  d E =-.112777E-09
       N       E                     dE             d eps       ncg     rms          rms(c)
DAV:   1    -0.222840782269E+03   -0.49840E-09    0.64230E-12   198   0.138E-10    0.209E-10
RMM:   2    -0.222840782268E+03    0.87675E-09    0.00000E+00     0   0.884E-11
 239 F= -.22284078E+03 E0= -.22284257E+03  d E =0.120053E-09
       N       E                     dE             d eps       ncg     rms          rms(c)
DAV:   1    -0.222840782267E+03    0.18044E-08    0.33655E-11   198   0.109E-10    0.331E-10
RMM:   2    -0.222840782268E+03   -0.10004E-08    0.00000E+00     0   0.973E-11
 240 F= -.22284078E+03 E0= -.22284257E+03  d E =-.727596E-10
       N       E                     dE             d eps       ncg     rms          rms(c)
DAV:   1    -0.222840782269E+03   -0.14406E-08   -0.53576E-11   198   0.152E-10    0.227E-10
RMM:   2    -0.222840782268E+03    0.38926E-09    0.00000E+00     0   0.880E-11
 241 F= -.22284078E+03 E0= -.22284257E+03  d E =-.509317E-10
[...]
 439 F= -.22284078E+03 E0= -.22284257E+03  d E =-.582077E-10
       N       E                     dE             d eps       ncg     rms          rms(c)
DAV:   1    -0.222840782269E+03   -0.84401E-09   -0.13561E-10   198   0.264E-10    0.289E-10
RMM:   2    -0.222840782268E+03    0.83310E-09    0.00000E+00     0   0.115E-10
 440 F= -.22284078E+03 E0= -.22284257E+03  d E =-.909495E-10
       N       E                     dE             d eps       ncg     rms          rms(c)
DAV:   1    -0.222840782268E+03    0.64756E-09   -0.93611E-11   198   0.131E-10    0.254E-10
RMM:   2    -0.222840782268E+03    0.10914E-09    0.00000E+00     0   0.803E-11
 441 F= -.22284078E+03 E0= -.22284257E+03  d E =-.763976E-10
       N       E                     dE             d eps       ncg     rms          rms(c)
DAV:   1    -0.222840782267E+03    0.13570E-08    0.71045E-12   198   0.992E-11    0.321E-10
RMM:   2    -0.222840782268E+03   -0.11169E-08    0.00000E+00     0   0.118E-10
 442 F= -.22284078E+03 E0= -.22284257E+03  d E =0.130967E-09
       N       E                     dE             d eps       ncg     rms          rms(c)
DAV:   1    -0.222840782268E+03   -0.10514E-08   -0.61261E-11   198   0.172E-10    0.216E-10
RMM:   2    -0.222840782268E+03   -0.22555E-09    0.00000E+00     0   0.943E-11
 443 F= -.22284078E+03 E0= -.22284257E+03  d E =-.160071E-09
       N       E                     dE             d eps       ncg     rms          rms(c)
DAV:   1    -0.222840782268E+03    0.21828E-10    0.81457E-11   198   0.133E-10    0.211E-10
RMM:   2    -0.222840782268E+03   -0.16371E-09    0.00000E+00     0   0.100E-10
 444 F= -.22284078E+03 E0= -.22284257E+03  d E =0.836735E-10
       N       E                     dE             d eps       ncg     rms          rms(c)
DAV:   1    -0.222840782267E+03    0.64392E-09   -0.95338E-11   198   0.103E-10    0.245E-10
RMM:   2    -0.222840782268E+03   -0.80399E-09    0.00000E+00     0   0.101E-10
 445 F= -.22284078E+03 E0= -.22284257E+03  d E =0.363798E-11
       N       E                     dE             d eps       ncg     rms          rms(c)
DAV:   1    -0.222840782268E+03   -0.61482E-09   -0.14536E-10   198   0.144E-10    0.327E-10
RMM:   2    -0.222840782268E+03   -0.19281E-09    0.00000E+00     0   0.944E-11
 446 F= -.22284078E+03 E0= -.22284257E+03  d E =-.363798E-11
       N       E                     dE             d eps       ncg     rms          rms(c)
DAV:   1    -0.222840782268E+03    0.27649E-09   -0.84644E-11   198   0.147E-10    0.245E-10
RMM:   2    -0.222840782268E+03   -0.37471E-09    0.00000E+00     0   0.820E-11
 447 F= -.22284078E+03 E0= -.22284257E+03  d E =0.945874E-10
       N       E                     dE             d eps       ncg     rms          rms(c)
DAV:   1    -0.222840782268E+03   -0.24011E-09    0.72653E-11   198   0.108E-10    0.319E-10
RMM:   2    -0.222840782268E+03   -0.18190E-09    0.00000E+00     0   0.104E-10
 448 F= -.22284078E+03 E0= -.22284257E+03  d E =-.472937E-10
       N       E                     dE             d eps       ncg     rms          rms(c)
DAV:   1    -0.222840782269E+03   -0.98953E-09   -0.11314E-10   198   0.154E-10    0.258E-10
RMM:   2    -0.222840782268E+03    0.72032E-09    0.00000E+00     0   0.102E-10
 449 F= -.22284078E+03 E0= -.22284257E+03  d E =-.873115E-10
       N       E                     dE             d eps       ncg     rms          rms(c)
DAV:   1    -0.222840782267E+03    0.16480E-08    0.54356E-11   198   0.182E-10    0.313E-10
RMM:   2    -0.222840782268E+03   -0.80399E-09    0.00000E+00     0   0.123E-10
 450 F= -.22284078E+03 E0= -.22284257E+03  d E =0.123691E-09
       N       E                     dE             d eps       ncg     rms          rms(c)
DAV:   1    -0.222840782268E+03   -0.11059E-08   -0.57257E-11   198   0.155E-10    0.338E-10
RMM:   2    -0.222840782268E+03    0.16735E-09    0.00000E+00     0   0.111E-10
 451 F= -.22284078E+03 E0= -.22284257E+03  d E =-.134605E-09
       N       E                     dE             d eps       ncg     rms          rms(c)
DAV:   1    -0.222840782268E+03   -0.16007E-09   -0.11139E-10   198   0.142E-10    0.280E-10
RMM:   2    -0.222840782268E+03    0.35652E-09    0.00000E+00     0   0.903E-11
 452 F= -.22284078E+03 E0= -.22284257E+03  d E =0.291038E-10
       N       E                     dE             d eps       ncg     rms          rms(c)
DAV:   1    -0.222840782269E+03   -0.34197E-09   -0.25757E-11   198   0.123E-10    0.329E-10
RMM:   2    -0.222840782268E+03    0.65847E-09    0.00000E+00     0   0.103E-10
 453 F= -.22284078E+03 E0= -.22284257E+03  d E =-.400178E-10
       N       E                     dE             d eps       ncg     rms          rms(c)
DAV:   1    -0.222840782268E+03    0.42928E-09   -0.26669E-12   198   0.178E-10    0.231E-10
RMM:   2    -0.222840782268E+03    0.37471E-09    0.00000E+00     0   0.801E-11
 454 F= -.22284078E+03 E0= -.22284257E+03  d E =0.145519E-09
       N       E                     dE             d eps       ncg     rms          rms(c)
DAV:   1    -0.222840782269E+03   -0.16007E-09   -0.17944E-11   198   0.101E-10    0.311E-10
RMM:   2    -0.222840782268E+03    0.36744E-09    0.00000E+00     0   0.113E-10
 455 F= -.22284078E+03 E0= -.22284257E+03  d E =-.167347E-09
       N       E                     dE             d eps       ncg     rms          rms(c)
DAV:   1    -0.222840782268E+03    0.80399E-09   -0.50195E-11   198   0.174E-10    0.276E-10
RMM:   2    -0.222840782268E+03   -0.28012E-09    0.00000E+00     0   0.843E-11
 456 F= -.22284078E+03 E0= -.22284257E+03  d E =0.156433E-09
       N       E                     dE             d eps       ncg     rms          rms(c)
DAV:   1    -0.222840782269E+03   -0.10223E-08    0.29980E-11   198   0.150E-10    0.437E-10
RMM:   2    -0.222840782268E+03    0.77853E-09    0.00000E+00     0   0.177E-10
 457 F= -.22284078E+03 E0= -.22284257E+03  d E =0.363798E-10
       N       E                     dE             d eps       ncg     rms          rms(c)
DAV:   1    -0.222840782269E+03   -0.14916E-09   -0.19811E-10   198   0.298E-10    0.319E-10
RMM:   2    -0.222840782268E+03    0.78580E-09    0.00000E+00     0   0.114E-10
 458 F= -.22284078E+03 E0= -.22284257E+03  d E =-.141881E-09
       N       E                     dE             d eps       ncg     rms          rms(c)
DAV:   1    -0.222840782268E+03    0.13388E-08   -0.12210E-10   198   0.163E-10    0.310E-10
RMM:   2    -0.222840782268E+03   -0.60754E-09    0.00000E+00     0   0.109E-10
 459 F= -.22284078E+03 E0= -.22284257E+03  d E =-.545697E-10
       N       E                     dE             d eps       ncg     rms          rms(c)
DAV:   1    -0.222840782269E+03   -0.15680E-08   -0.10257E-10   198   0.165E-10    0.400E-10
RMM:   2    -0.222840782268E+03    0.11532E-08    0.00000E+00     0   0.167E-10
 460 F= -.22284078E+03 E0= -.22284257E+03  d E =0.192813E-09
       N       E                     dE             d eps       ncg     rms          rms(c)
DAV:   1    -0.222840782268E+03    0.14370E-08   -0.58435E-11   198   0.254E-10    0.283E-10
RMM:   2    -0.222840782268E+03   -0.37107E-09    0.00000E+00     0   0.116E-10
 461 F= -.22284078E+03 E0= -.22284257E+03  d E =-.873115E-10
       N       E                     dE             d eps       ncg     rms          rms(c)
DAV:   1    -0.222840782269E+03   -0.90586E-09   -0.82790E-12   198   0.148E-10    0.244E-10
RMM:   2    -0.222840782268E+03    0.61482E-09    0.00000E+00     0   0.109E-10
 462 F= -.22284078E+03 E0= -.22284257E+03  d E =0.800355E-10
       N       E                     dE             d eps       ncg     rms          rms(c)
DAV:   1    -0.222840782269E+03   -0.44020E-09    0.10130E-10   198   0.173E-10    0.263E-10
RMM:   2    -0.222840782268E+03    0.11023E-08    0.00000E+00     0   0.987E-11
 463 F= -.22284078E+03 E0= -.22284257E+03  d E =0.472937E-10
       N       E                     dE             d eps       ncg     rms          rms(c)
DAV:   1    -0.222840782268E+03    0.15534E-08   -0.54027E-11   198   0.148E-10    0.247E-10
RMM:   2    -0.222840782268E+03   -0.49477E-09    0.00000E+00     0   0.113E-10
 464 F= -.22284078E+03 E0= -.22284257E+03  d E =-.436557E-10
       N       E                     dE             d eps       ncg     rms          rms(c)
DAV:   1    -0.222840782268E+03   -0.94951E-09   -0.64542E-11   198   0.134E-10    0.376E-10
RMM:   2    -0.222840782268E+03    0.36744E-09    0.00000E+00     0   0.121E-10
 465 F= -.22284078E+03 E0= -.22284257E+03  d E =-.873115E-10
       N       E                     dE             d eps       ncg     rms          rms(c)
DAV:   1    -0.222840782267E+03    0.18117E-08    0.68226E-12   198   0.202E-10    0.315E-10
RMM:   2    -0.222840782268E+03   -0.15207E-08    0.00000E+00     0   0.122E-10
 466 F= -.22284078E+03 E0= -.22284257E+03  d E =-.763976E-10
       N       E                     dE             d eps       ncg     rms          rms(c)
DAV:   1    -0.222840782267E+03   -0.57844E-09   -0.69719E-11   198   0.175E-10    0.324E-10
RMM:   2    -0.222840782268E+03   -0.74579E-09    0.00000E+00     0   0.118E-10
 467 F= -.22284078E+03 E0= -.22284257E+03  d E =0.196451E-09
       N       E                     dE             d eps       ncg     rms          rms(c)
DAV:   1    -0.222840782269E+03   -0.14297E-08   -0.17492E-11   198   0.171E-10    0.363E-10
RMM:   2    -0.222840782268E+03    0.68758E-09    0.00000E+00     0   0.131E-10
 468 F= -.22284078E+03 E0= -.22284257E+03  d E =0.363798E-11
       N       E                     dE             d eps       ncg     rms          rms(c)
DAV:   1    -0.222840782269E+03    0.13461E-09   -0.26111E-10   198   0.249E-10    0.403E-10
RMM:   2    -0.222840782268E+03    0.52023E-09    0.00000E+00     0   0.165E-10
 469 F= -.22284078E+03 E0= -.22284257E+03  d E =-.327418E-10
       N       E                     dE             d eps       ncg     rms          rms(c)
DAV:   1    -0.222840782268E+03    0.68394E-09   -0.96655E-11   198   0.243E-10    0.427E-10
RMM:   2    -0.222840782268E+03   -0.33469E-09    0.00000E+00     0   0.170E-10
 470 F= -.22284078E+03 E0= -.22284257E+03  d E =-.170985E-09
       N       E                     dE             d eps       ncg     rms          rms(c)
DAV:   1    -0.222840782268E+03   -0.22555E-09   -0.96768E-11   198   0.268E-10    0.515E-10
RMM:   2    -0.222840782268E+03   -0.72760E-11    0.00000E+00     0   0.199E-10
 471 F= -.22284078E+03 E0= -.22284257E+03  d E =0.101863E-09
       N       E                     dE             d eps       ncg     rms          rms(c)
DAV:   1    -0.222840782268E+03   -0.23647E-09   -0.76629E-11   198   0.338E-10    0.304E-10
RMM:   2    -0.222840782268E+03    0.24374E-09    0.00000E+00     0   0.126E-10
 472 F= -.22284078E+03 E0= -.22284257E+03  d E =0.145519E-10
       N       E                     dE             d eps       ncg     rms          rms(c)
DAV:   1    -0.222840782269E+03   -0.41837E-09   -0.23027E-11   198   0.161E-10    0.285E-10
RMM:   2    -0.222840782268E+03    0.65484E-09    0.00000E+00     0   0.110E-10
 473 F= -.22284078E+03 E0= -.22284257E+03  d E =-.727596E-11
       N       E                     dE             d eps       ncg     rms          rms(c)
DAV:   1    -0.222840782268E+03    0.88039E-09   -0.59924E-11   198   0.160E-10    0.330E-10
RMM:   2    -0.222840782268E+03   -0.36016E-09    0.00000E+00     0   0.138E-10
 474 F= -.22284078E+03 E0= -.22284257E+03  d E =-.134605E-09
       N       E                     dE             d eps       ncg     rms          rms(c)
DAV:   1    -0.222840782268E+03   -0.37471E-09   -0.88754E-11   198   0.238E-10    0.411E-10
RMM:   2    -0.222840782268E+03    0.80036E-10    0.00000E+00     0   0.167E-10
 475 F= -.22284078E+03 E0= -.22284257E+03  d E =0.654836E-10
       N       E                     dE             d eps       ncg     rms          rms(c)
DAV:   1    -0.222840782268E+03    0.29104E-09   -0.63436E-11   198   0.284E-10    0.162E-10
RMM:   2    -0.222840782268E+03   -0.29104E-09    0.00000E+00     0   0.803E-11
 476 F= -.22284078E+03 E0= -.22284257E+03  d E =-.800355E-10
       N       E                     dE             d eps       ncg     rms          rms(c)
DAV:   1    -0.222840782269E+03   -0.86220E-09   -0.45149E-11   198   0.102E-10    0.383E-10
RMM:   2    -0.222840782268E+03    0.66939E-09    0.00000E+00     0   0.151E-10
 477 F= -.22284078E+03 E0= -.22284257E+03  d E =0.982254E-10
       N       E                     dE             d eps       ncg     rms          rms(c)
DAV:   1    -0.222840782269E+03   -0.36380E-11   -0.13403E-10   198   0.241E-10    0.239E-10
RMM:   2    -0.222840782268E+03    0.78580E-09    0.00000E+00     0   0.828E-11
 478 F= -.22284078E+03 E0= -.22284257E+03  d E =0.112777E-09
       N       E                     dE             d eps       ncg     rms          rms(c)
DAV:   1    -0.222840782269E+03   -0.80036E-10   -0.91561E-11   198   0.118E-10    0.271E-10
RMM:   2    -0.222840782268E+03    0.87311E-09    0.00000E+00     0   0.828E-11
 479 F= -.22284078E+03 E0= -.22284257E+03  d E =0.727596E-11
       N       E                     dE             d eps       ncg     rms          rms(c)
DAV:   1    -0.222840782268E+03    0.10659E-08   -0.41936E-11   198   0.142E-10    0.257E-10
RMM:   2    -0.222840782268E+03   -0.29104E-09    0.00000E+00     0   0.723E-11
 480 F= -.22284078E+03 E0= -.22284257E+03  d E =-.982254E-10
       N       E                     dE             d eps       ncg     rms          rms(c)
DAV:   1    -0.222840782269E+03   -0.85129E-09   -0.90925E-11   198   0.124E-10    0.322E-10
RMM:   2    -0.222840782268E+03    0.50204E-09    0.00000E+00     0   0.121E-10
 481 F= -.22284078E+03 E0= -.22284257E+03  d E =-.582077E-10
       N       E                     dE             d eps       ncg     rms          rms(c)
DAV:   1    -0.222840782268E+03    0.33469E-09    0.24542E-11   198   0.197E-10    0.252E-10
RMM:   2    -0.222840782268E+03    0.30195E-09    0.00000E+00     0   0.973E-11
 482 F= -.22284078E+03 E0= -.22284257E+03  d E =0.134605E-09
       N       E                     dE             d eps       ncg     rms          rms(c)
DAV:   1    -0.222840782267E+03    0.13933E-08   -0.20679E-10   198   0.137E-10    0.288E-10
RMM:   2    -0.222840782268E+03   -0.11096E-08    0.00000E+00     0   0.909E-11
 483 F= -.22284078E+03 E0= -.22284257E+03  d E =-.181899E-10
       N       E                     dE             d eps       ncg     rms          rms(c)
DAV:   1    -0.222840782268E+03   -0.10477E-08    0.28108E-11   198   0.127E-10    0.294E-10
RMM:   2    -0.222840782268E+03   -0.32742E-10    0.00000E+00     0   0.105E-10
 484 F= -.22284078E+03 E0= -.22284257E+03  d E =0.291038E-10
       N       E                     dE             d eps       ncg     rms          rms(c)
DAV:   1    -0.222840782269E+03   -0.65120E-09   -0.36415E-11   198   0.151E-10    0.364E-10
RMM:   2    -0.222840782268E+03    0.64028E-09    0.00000E+00     0   0.120E-10
 485 F= -.22284078E+03 E0= -.22284257E+03  d E =0.218279E-10
       N       E                     dE             d eps       ncg     rms          rms(c)
DAV:   1    -0.222840782267E+03    0.14734E-08   -0.13926E-10   198   0.162E-10    0.279E-10
RMM:   2    -0.222840782268E+03   -0.96043E-09    0.00000E+00     0   0.967E-11
 486 F= -.22284078E+03 E0= -.22284257E+03  d E =-.127329E-09
       N       E                     dE             d eps       ncg     rms          rms(c)
DAV:   1    -0.222840782268E+03   -0.58935E-09   -0.63083E-11   198   0.138E-10    0.308E-10
RMM:   2    -0.222840782268E+03   -0.28012E-09    0.00000E+00     0   0.939E-11
 487 F= -.22284078E+03 E0= -.22284257E+03  d E =0.909495E-10
       N       E                     dE             d eps       ncg     rms          rms(c)
DAV:   1    -0.222840782268E+03    0.80036E-10   -0.20984E-11   198   0.123E-10    0.248E-10
RMM:   2    -0.222840782268E+03   -0.41473E-09    0.00000E+00     0   0.943E-11
 488 F= -.22284078E+03 E0= -.22284257E+03  d E =-.545697E-10
       N       E                     dE             d eps       ncg     rms          rms(c)
DAV:   1    -0.222840782268E+03   -0.37471E-09   -0.58434E-11   198   0.138E-10    0.310E-10
RMM:   2    -0.222840782268E+03   -0.14552E-09    0.00000E+00     0   0.877E-11
 489 F= -.22284078E+03 E0= -.22284257E+03  d E =-.105501E-09
       N       E                     dE             d eps       ncg     rms          rms(c)
DAV:   1    -0.222840782269E+03   -0.85493E-09   -0.36802E-11   198   0.117E-10    0.315E-10
RMM:   2    -0.222840782268E+03    0.81855E-09    0.00000E+00     0   0.106E-10
 490 F= -.22284078E+03 E0= -.22284257E+03  d E =0.109139E-09
       N       E                     dE             d eps       ncg     rms          rms(c)
DAV:   1    -0.222840782268E+03    0.51659E-09   -0.10013E-10   198   0.178E-10    0.244E-10
RMM:   2    -0.222840782268E+03    0.24011E-09    0.00000E+00     0   0.982E-11
 491 F= -.22284078E+03 E0= -.22284257E+03  d E =-.618456E-10
       N       E                     dE             d eps       ncg     rms          rms(c)
DAV:   1    -0.222840782266E+03    0.19463E-08   -0.13584E-10   198   0.156E-10    0.373E-10
RMM:   2    -0.222840782268E+03   -0.16407E-08    0.00000E+00     0   0.141E-10
 492 F= -.22284078E+03 E0= -.22284257E+03  d E =0.654836E-10
       N       E                     dE             d eps       ncg     rms          rms(c)
DAV:   1    -0.222840782267E+03   -0.10332E-08   -0.17264E-10   198   0.190E-10    0.266E-10
RMM:   2    -0.222840782268E+03   -0.60390E-09    0.00000E+00     0   0.960E-11
 493 F= -.22284078E+03 E0= -.22284257E+03  d E =0.363798E-11
       N       E                     dE             d eps       ncg     rms          rms(c)
DAV:   1    -0.222840782268E+03   -0.93496E-09   -0.87035E-11   198   0.113E-10    0.343E-10
RMM:   2    -0.222840782268E+03    0.37471E-09    0.00000E+00     0   0.114E-10
 494 F= -.22284078E+03 E0= -.22284257E+03  d E =0.436557E-10
       N       E                     dE             d eps       ncg     rms          rms(c)
DAV:   1    -0.222840782267E+03    0.15316E-08   -0.51374E-11   198   0.170E-10    0.315E-10
RMM:   2    -0.222840782268E+03   -0.11169E-08    0.00000E+00     0   0.125E-10
 495 F= -.22284078E+03 E0= -.22284257E+03  d E =0.400178E-10
       N       E                     dE             d eps       ncg     rms          rms(c)
DAV:   1    -0.222840782267E+03   -0.57116E-09   -0.87545E-11   198   0.220E-10    0.252E-10
RMM:   2    -0.222840782268E+03   -0.55297E-09    0.00000E+00     0   0.998E-11
 496 F= -.22284078E+03 E0= -.22284257E+03  d E =-.727596E-11
       N       E                     dE             d eps       ncg     rms          rms(c)
DAV:   1    -0.222840782268E+03   -0.11642E-09    0.63186E-11   198   0.124E-10    0.317E-10
RMM:   2    -0.222840782268E+03   -0.44020E-09    0.00000E+00     0   0.125E-10
 497 F= -.22284078E+03 E0= -.22284257E+03  d E =-.363798E-11
       N       E                     dE             d eps       ncg     rms          rms(c)
DAV:   1    -0.222840782268E+03   -0.62573E-09   -0.82929E-11   198   0.200E-10    0.224E-10
RMM:   2    -0.222840782268E+03    0.72760E-11    0.00000E+00     0   0.855E-11
 498 F= -.22284078E+03 E0= -.22284257E+03  d E =-.178261E-09
       N       E                     dE             d eps       ncg     rms          rms(c)
DAV:   1    -0.222840782270E+03   -0.14588E-08   -0.64150E-11   198   0.101E-10    0.295E-10
RMM:   2    -0.222840782268E+03    0.14807E-08    0.00000E+00     0   0.927E-11
 499 F= -.22284078E+03 E0= -.22284257E+03  d E =0.145519E-10
       N       E                     dE             d eps       ncg     rms          rms(c)
DAV:   1    -0.222840782268E+03    0.12151E-08   -0.46663E-11   198   0.127E-10    0.370E-10
RMM:   2    -0.222840782268E+03    0.40382E-09    0.00000E+00     0   0.136E-10
 500 F= -.22284078E+03 E0= -.22284257E+03  d E =0.138243E-09
