   3   3   0   0
  0.2564941E+02  0.7018701E-09  0.4110428E-09  0.3287884E-09  0.5000000E-15
   1.0000000000000000E-004
  CAR 
 unknown system                          
     26.26590017    -24.61019511  301      1.90643521      1.00000000
    -24.610  0.0000E+00  0.0000E+00
    -24.441  0.0000E+00  0.0000E+00
    -24.271  0.0000E+00  0.0000E+00
    -24.101  0.0000E+00  0.0000E+00
    -23.932  0.0000E+00  0.0000E+00
    -23.762  0.0000E+00  0.0000E+00
    -23.593  0.0000E+00  0.0000E+00
    -23.423  0.0000E+00  0.0000E+00
    -23.253  0.0000E+00  0.0000E+00
    -23.084  0.0000E+00  0.0000E+00
    -22.914  0.0000E+00  0.0000E+00
    -22.745  0.0000E+00  0.0000E+00
    -22.575  0.6640E-16  0.1126E-16
    -22.406  0.4450E-04  0.7547E-05
    -22.236  0.1441E+00  0.2445E-01
    -22.066  0.2094E+00  0.5997E-01
    -21.897  0.2042E-03  0.6000E-01
    -21.727  0.0000E+00  0.6000E-01
    -21.558  0.0000E+00  0.6000E-01
    -21.388  0.0000E+00  0.6000E-01
    -21.218  0.0000E+00  0.6000E-01
    -21.049  0.0000E+00  0.6000E-01
    -20.879  0.0000E+00  0.6000E-01
    -20.710  0.0000E+00  0.6000E-01
    -20.540  0.0000E+00  0.6000E-01
    -20.371  0.0000E+00  0.6000E-01
    -20.201  0.0000E+00  0.6000E-01
    -20.031  0.0000E+00  0.6000E-01
    -19.862  0.0000E+00  0.6000E-01
    -19.692  0.0000E+00  0.6000E-01
    -19.523  0.0000E+00  0.6000E-01
    -19.353  0.0000E+00  0.6000E-01
    -19.183  0.0000E+00  0.6000E-01
    -19.014  0.0000E+00  0.6000E-01
    -18.844  0.0000E+00  0.6000E-01
    -18.675  0.0000E+00  0.6000E-01
    -18.505  0.0000E+00  0.6000E-01
    -18.335  0.0000E+00  0.6000E-01
    -18.166  0.0000E+00  0.6000E-01
    -17.996  0.0000E+00  0.6000E-01
    -17.827  0.0000E+00  0.6000E-01
    -17.657  0.0000E+00  0.6000E-01
    -17.488  0.0000E+00  0.6000E-01
    -17.318  0.0000E+00  0.6000E-01
    -17.148  0.0000E+00  0.6000E-01
    -16.979  0.0000E+00  0.6000E-01
    -16.809  0.0000E+00  0.6000E-01
    -16.640  0.0000E+00  0.6000E-01
    -16.470  0.0000E+00  0.6000E-01
    -16.300  0.0000E+00  0.6000E-01
    -16.131  0.0000E+00  0.6000E-01
    -15.961  0.0000E+00  0.6000E-01
    -15.792  0.0000E+00  0.6000E-01
    -15.622  0.0000E+00  0.6000E-01
    -15.452  0.0000E+00  0.6000E-01
    -15.283  0.0000E+00  0.6000E-01
    -15.113  0.0000E+00  0.6000E-01
    -14.944  0.0000E+00  0.6000E-01
    -14.774  0.0000E+00  0.6000E-01
    -14.605  0.0000E+00  0.6000E-01
    -14.435  0.0000E+00  0.6000E-01
    -14.265  0.0000E+00  0.6000E-01
    -14.096  0.0000E+00  0.6000E-01
    -13.926  0.0000E+00  0.6000E-01
    -13.757  0.0000E+00  0.6000E-01
    -13.587  0.0000E+00  0.6000E-01
    -13.417  0.0000E+00  0.6000E-01
    -13.248  0.0000E+00  0.6000E-01
    -13.078  0.0000E+00  0.6000E-01
    -12.909  0.0000E+00  0.6000E-01
    -12.739  0.0000E+00  0.6000E-01
    -12.570  0.1503E-07  0.6000E-01
    -12.400  0.2309E-02  0.6039E-01
    -12.230  0.3483E-01  0.6630E-01
    -12.061  0.2564E-01  0.7065E-01
    -11.891  0.3072E-01  0.7586E-01
    -11.722  0.2438E-01  0.7999E-01
    -11.552  0.5145E-04  0.8000E-01
    -11.382  0.0000E+00  0.8000E-01
    -11.213  0.0000E+00  0.8000E-01
    -11.043  0.0000E+00  0.8000E-01
    -10.874  0.0000E+00  0.8000E-01
    -10.704  0.0000E+00  0.8000E-01
    -10.534  0.0000E+00  0.8000E-01
    -10.365  0.0000E+00  0.8000E-01
    -10.195  0.0000E+00  0.8000E-01
    -10.026  0.0000E+00  0.8000E-01
     -9.856  0.0000E+00  0.8000E-01
     -9.687  0.0000E+00  0.8000E-01
     -9.517  0.0000E+00  0.8000E-01
     -9.347  0.0000E+00  0.8000E-01
     -9.178  0.0000E+00  0.8000E-01
     -9.008  0.0000E+00  0.8000E-01
     -8.839  0.0000E+00  0.8000E-01
     -8.669  0.0000E+00  0.8000E-01
     -8.499  0.0000E+00  0.8000E-01
     -8.330  0.0000E+00  0.8000E-01
     -8.160  0.0000E+00  0.8000E-01
     -7.991  0.0000E+00  0.8000E-01
     -7.821  0.0000E+00  0.8000E-01
     -7.651  0.8003E-13  0.8000E-01
     -7.482  0.8606E-04  0.8001E-01
     -7.312  0.4599E-02  0.8079E-01
     -7.143  0.1071E-01  0.8261E-01
     -6.973  0.1589E-01  0.8531E-01
     -6.804  0.1977E-01  0.8866E-01
     -6.634  0.2105E-01  0.9223E-01
     -6.464  0.1692E-01  0.9510E-01
     -6.295  0.1780E-01  0.9812E-01
     -6.125  0.9396E-02  0.9971E-01
     -5.956  0.1711E-02  0.1000E+00
     -5.786  0.1310E-08  0.1000E+00
     -5.616  0.0000E+00  0.1000E+00
     -5.447  0.0000E+00  0.1000E+00
     -5.277  0.0000E+00  0.1000E+00
     -5.108  0.0000E+00  0.1000E+00
     -4.938  0.0000E+00  0.1000E+00
     -4.769  0.0000E+00  0.1000E+00
     -4.599  0.0000E+00  0.1000E+00
     -4.429  0.0000E+00  0.1000E+00
     -4.260  0.0000E+00  0.1000E+00
     -4.090  0.0000E+00  0.1000E+00
     -3.921  0.0000E+00  0.1000E+00
     -3.751  0.0000E+00  0.1000E+00
     -3.581  0.0000E+00  0.1000E+00
     -3.412  0.1613E-07  0.1000E+00
     -3.242  0.7074E-03  0.1001E+00
     -3.073  0.2201E-02  0.1005E+00
     -2.903  0.5532E-02  0.1014E+00
     -2.733  0.1253E-01  0.1036E+00
     -2.564  0.1155E-01  0.1055E+00
     -2.394  0.2510E-01  0.1098E+00
     -2.225  0.2665E-01  0.1143E+00
     -2.055  0.3128E-01  0.1196E+00
     -1.886  0.2456E-01  0.1238E+00
     -1.716  0.2222E-01  0.1275E+00
     -1.546  0.2058E-01  0.1310E+00
     -1.377  0.2966E-01  0.1360E+00
     -1.207  0.3893E-01  0.1427E+00
     -1.038  0.1785E-01  0.1457E+00
     -0.868  0.1327E-01  0.1479E+00
     -0.698  0.1405E-01  0.1503E+00
     -0.529  0.4811E-02  0.1511E+00
     -0.359  0.1775E-02  0.1514E+00
     -0.190  0.1020E-02  0.1516E+00
     -0.020  0.2385E-01  0.1556E+00
      0.150  0.9591E-02  0.1573E+00
      0.319  0.1496E-02  0.1575E+00
      0.489  0.6167E-02  0.1586E+00
      0.658  0.7894E-02  0.1599E+00
      0.828  0.2858E-01  0.1648E+00
      0.997  0.1807E-01  0.1678E+00
      1.167  0.3717E-02  0.1685E+00
      1.337  0.1784E-01  0.1715E+00
      1.506  0.1142E-01  0.1734E+00
      1.676  0.8423E-02  0.1748E+00
      1.845  0.2231E-01  0.1786E+00
      2.015  0.2102E-01  0.1822E+00
      2.185  0.1201E-01  0.1842E+00
      2.354  0.1688E-01  0.1871E+00
      2.524  0.5672E-02  0.1881E+00
      2.693  0.1236E-01  0.1902E+00
      2.863  0.3827E-02  0.1908E+00
      3.032  0.3186E-02  0.1913E+00
      3.202  0.7841E-02  0.1927E+00
      3.372  0.3584E-02  0.1933E+00
      3.541  0.1627E-01  0.1960E+00
      3.711  0.7887E-02  0.1974E+00
      3.880  0.6103E-02  0.1984E+00
      4.050  0.3871E-03  0.1985E+00
      4.220  0.4982E-02  0.1993E+00
      4.389  0.1350E-01  0.2016E+00
      4.559  0.1140E-01  0.2035E+00
      4.728  0.1183E-01  0.2056E+00
      4.898  0.3300E-02  0.2061E+00
      5.068  0.8570E-02  0.2076E+00
      5.237  0.2580E-01  0.2119E+00
      5.407  0.1577E-01  0.2146E+00
      5.576  0.2447E-01  0.2188E+00
      5.746  0.9983E-02  0.2205E+00
      5.915  0.6966E-02  0.2216E+00
      6.085  0.9685E-02  0.2233E+00
      6.255  0.1181E-01  0.2253E+00
      6.424  0.4475E-02  0.2260E+00
      6.594  0.2328E-01  0.2300E+00
      6.763  0.2539E-01  0.2343E+00
      6.933  0.1514E-01  0.2369E+00
      7.103  0.8164E-02  0.2382E+00
      7.272  0.2239E-01  0.2420E+00
      7.442  0.1304E-01  0.2443E+00
      7.611  0.1170E-01  0.2462E+00
      7.781  0.1934E-01  0.2495E+00
      7.951  0.2223E-01  0.2533E+00
      8.120  0.2305E-01  0.2572E+00
      8.290  0.1795E-01  0.2602E+00
      8.459  0.2246E-01  0.2641E+00
      8.629  0.8277E-02  0.2655E+00
      8.798  0.1641E-01  0.2682E+00
      8.968  0.2185E-01  0.2719E+00
      9.138  0.1058E-01  0.2737E+00
      9.307  0.2355E-01  0.2777E+00
      9.477  0.3141E-01  0.2831E+00
      9.646  0.3861E-01  0.2896E+00
      9.816  0.1572E-01  0.2923E+00
      9.986  0.4321E-01  0.2996E+00
     10.155  0.2993E-01  0.3047E+00
     10.325  0.1710E-01  0.3076E+00
     10.494  0.1452E-01  0.3100E+00
     10.664  0.2068E-01  0.3135E+00
     10.833  0.2615E-01  0.3180E+00
     11.003  0.2915E-01  0.3229E+00
     11.173  0.2397E-01  0.3270E+00
     11.342  0.2587E-01  0.3314E+00
     11.512  0.2555E-01  0.3357E+00
     11.681  0.1421E-01  0.3381E+00
     11.851  0.1480E-01  0.3406E+00
     12.021  0.2566E-01  0.3450E+00
     12.190  0.2647E-01  0.3495E+00
     12.360  0.3493E-01  0.3554E+00
     12.529  0.3863E-01  0.3619E+00
     12.699  0.9546E-02  0.3636E+00
     12.869  0.2342E-01  0.3675E+00
     13.038  0.2568E-01  0.3719E+00
     13.208  0.2906E-01  0.3768E+00
     13.377  0.3466E-01  0.3827E+00
     13.547  0.1754E-01  0.3857E+00
     13.716  0.4153E-01  0.3927E+00
     13.886  0.3001E-01  0.3978E+00
     14.056  0.1085E-01  0.3996E+00
     14.225  0.1047E-01  0.4014E+00
     14.395  0.3519E-01  0.4074E+00
     14.564  0.3946E-01  0.4141E+00
     14.734  0.1147E-01  0.4160E+00
     14.904  0.2113E-01  0.4196E+00
     15.073  0.1858E-01  0.4228E+00
     15.243  0.1256E-01  0.4249E+00
     15.412  0.3078E-01  0.4301E+00
     15.582  0.1527E-01  0.4327E+00
     15.752  0.1457E-01  0.4352E+00
     15.921  0.1816E-01  0.4382E+00
     16.091  0.4216E-01  0.4454E+00
     16.260  0.2097E-01  0.4490E+00
     16.430  0.2261E-01  0.4528E+00
     16.599  0.3447E-01  0.4586E+00
     16.769  0.3031E-01  0.4638E+00
     16.939  0.2414E-01  0.4679E+00
     17.108  0.3540E-01  0.4739E+00
     17.278  0.4160E-01  0.4809E+00
     17.447  0.2831E-01  0.4857E+00
     17.617  0.1967E-01  0.4891E+00
     17.787  0.2172E-01  0.4927E+00
     17.956  0.2078E-01  0.4963E+00
     18.126  0.2098E-01  0.4998E+00
     18.295  0.4562E-01  0.5076E+00
     18.465  0.3917E-01  0.5142E+00
     18.634  0.2543E-01  0.5185E+00
     18.804  0.3145E-01  0.5239E+00
     18.974  0.1949E-01  0.5272E+00
     19.143  0.2001E-01  0.5306E+00
     19.313  0.3528E-01  0.5365E+00
     19.482  0.2792E-01  0.5413E+00
     19.652  0.1440E-01  0.5437E+00
     19.822  0.1745E-01  0.5467E+00
     19.991  0.3069E-01  0.5519E+00
     20.161  0.2798E-01  0.5566E+00
     20.330  0.3218E-01  0.5621E+00
     20.500  0.5422E-01  0.5713E+00
     20.670  0.3074E-01  0.5765E+00
     20.839  0.1518E-01  0.5791E+00
     21.009  0.1696E-01  0.5819E+00
     21.178  0.2349E-01  0.5859E+00
     21.348  0.3531E-01  0.5919E+00
     21.517  0.4040E-01  0.5988E+00
     21.687  0.2750E-01  0.6034E+00
     21.857  0.1581E-01  0.6061E+00
     22.026  0.3486E-01  0.6120E+00
     22.196  0.3020E-01  0.6171E+00
     22.365  0.2963E-01  0.6222E+00
     22.535  0.1663E-01  0.6250E+00
     22.705  0.3005E-01  0.6301E+00
     22.874  0.5638E-02  0.6310E+00
     23.044  0.2893E-02  0.6315E+00
     23.213  0.1736E-01  0.6345E+00
     23.383  0.2231E-01  0.6383E+00
     23.553  0.6541E-02  0.6394E+00
     23.722  0.1205E-02  0.6396E+00
     23.892  0.7440E-03  0.6397E+00
     24.061  0.1794E-02  0.6400E+00
     24.231  0.2125E-05  0.6400E+00
     24.400  0.0000E+00  0.6400E+00
     24.570  0.0000E+00  0.6400E+00
     24.740  0.0000E+00  0.6400E+00
     24.909  0.0000E+00  0.6400E+00
     25.079  0.0000E+00  0.6400E+00
     25.248  0.0000E+00  0.6400E+00
     25.418  0.0000E+00  0.6400E+00
     25.588  0.0000E+00  0.6400E+00
     25.757  0.0000E+00  0.6400E+00
     25.927  0.0000E+00  0.6400E+00
     26.096  0.0000E+00  0.6400E+00
     26.266  0.0000E+00  0.6400E+00
