       N       E                     dE             d eps       ncg     rms          rms(c)
DAV:   1     0.238154704333E+02    0.23815E+02   -0.85866E+03  2560   0.434E+02
DAV:   2    -0.110894588395E+02   -0.34905E+02   -0.34796E+02  3808   0.561E+01
DAV:   3    -0.113895075277E+02   -0.30005E+00   -0.29998E+00  2560   0.702E+00
DAV:   4    -0.113905910750E+02   -0.10835E-02   -0.10835E-02  5120   0.471E-01
DAV:   5    -0.113905911024E+02   -0.27372E-07   -0.27429E-07  2560   0.253E-03    0.867E+00
DAV:   6    -0.111439841191E+02    0.24661E+00   -0.99615E-01  3936   0.174E+00    0.551E+00
DAV:   7    -0.111090533306E+02    0.34931E-01   -0.23360E-01  4224   0.101E+00    0.162E+00
DAV:   8    -0.111085949493E+02    0.45838E-03   -0.31030E-02  4160   0.404E-01    0.304E-01
DAV:   9    -0.111090965455E+02   -0.50160E-03   -0.44075E-03  3552   0.164E-01    0.111E-01
DAV:  10    -0.111093960596E+02   -0.29951E-03   -0.39898E-04  3680   0.573E-02    0.558E-02
DAV:  11    -0.111095640256E+02   -0.16797E-03   -0.19077E-04  3392   0.389E-02    0.166E-02
DAV:  12    -0.111095841745E+02   -0.20149E-04   -0.41634E-05  3808   0.186E-02    0.810E-03
DAV:  13    -0.111095853910E+02   -0.12165E-05   -0.13481E-06  3392   0.328E-03
   1 F= -.11109585E+02 E0= -.11108362E+02  d E =-.111096E+02
       N       E                     dE             d eps       ncg     rms          rms(c)
DAV:   1    -0.111343160566E+02   -0.24732E-01   -0.11160E+00  3744   0.379E+00    0.911E-01
DAV:   2    -0.111163425485E+02    0.17974E-01   -0.41030E-02  3712   0.693E-01    0.447E-01
DAV:   3    -0.111111817370E+02    0.51608E-02   -0.13856E-02  4096   0.375E-01    0.227E-01
DAV:   4    -0.111109193813E+02    0.26236E-03   -0.48274E-04  3264   0.645E-02    0.171E-01
DAV:   5    -0.111108378549E+02    0.81526E-04   -0.16351E-04  4096   0.331E-02    0.409E-02
DAV:   6    -0.111108358368E+02    0.20181E-05   -0.14713E-05  3360   0.113E-02
   2 F= -.11110836E+02 E0= -.11109625E+02  d E =-.125045E-02
       N       E                     dE             d eps       ncg     rms          rms(c)
DAV:   1    -0.111176790319E+02   -0.68412E-02   -0.21737E-01  3680   0.166E+00    0.404E-01
DAV:   2    -0.111142032612E+02    0.34758E-02   -0.79917E-03  3744   0.304E-01    0.199E-01
DAV:   3    -0.111131937699E+02    0.10095E-02   -0.26452E-03  4032   0.164E-01    0.103E-01
DAV:   4    -0.111131449649E+02    0.48805E-04   -0.98956E-05  3424   0.289E-02    0.771E-02
DAV:   5    -0.111131336238E+02    0.11341E-04   -0.32626E-05  4064   0.147E-02    0.185E-02
DAV:   6    -0.111131340386E+02   -0.41479E-06   -0.30933E-06  1920   0.497E-03
   3 F= -.11113134E+02 E0= -.11111921E+02  d E =-.354865E-02
       N       E                     dE             d eps       ncg     rms          rms(c)
DAV:   1    -0.111374444006E+02   -0.24311E-01   -0.59762E-01  2560   0.376E+00    0.856E-01
DAV:   2    -0.111222385661E+02    0.15206E-01   -0.34278E-02  3552   0.707E-01    0.436E-01
DAV:   3    -0.111181421191E+02    0.40964E-02   -0.10711E-02  3808   0.391E-01    0.140E-01
DAV:   4    -0.111178725836E+02    0.26954E-03   -0.37185E-04  3328   0.547E-02    0.110E-01
DAV:   5    -0.111177956833E+02    0.76900E-04   -0.46133E-05  3968   0.256E-02    0.595E-02
DAV:   6    -0.111177678237E+02    0.27860E-04   -0.11866E-05  3296   0.125E-02    0.631E-03
DAV:   7    -0.111177681933E+02   -0.36964E-06   -0.69464E-07  1504   0.309E-03
   4 F= -.11117768E+02 E0= -.11116532E+02  d E =-.463415E-02
       N       E                     dE             d eps       ncg     rms          rms(c)
DAV:   1    -0.111482692721E+02   -0.30501E-01   -0.85442E-01  2560   0.449E+00    0.102E+00
DAV:   2    -0.111263798161E+02    0.21889E-01   -0.49584E-02  3520   0.843E-01    0.519E-01
DAV:   3    -0.111205353596E+02    0.58445E-02   -0.15450E-02  3776   0.465E-01    0.167E-01
DAV:   4    -0.111201477244E+02    0.38764E-03   -0.55056E-04  3392   0.662E-02    0.131E-01
DAV:   5    -0.111200394304E+02    0.10829E-03   -0.67080E-05  4000   0.306E-02    0.708E-02
DAV:   6    -0.111200010130E+02    0.38417E-04   -0.17184E-05  3200   0.150E-02    0.760E-03
DAV:   7    -0.111200015403E+02   -0.52726E-06   -0.10162E-06  2016   0.365E-03
   5 F= -.11120002E+02 E0= -.11118732E+02  d E =-.686750E-02
