 vasp.6.3.2 27Jun22 (build Jun 14 2024 17:29:11) complex                         
 executed on             LinuxGNU date 2026.03.29  20:00:02
 running on   32 total cores
 distrk:  each k-point on   32 cores,    1 groups
 distr:  one band on NCORE=   1 cores,   32 groups


--------------------------------------------------------------------------------------------------------


 INCAR:
   EDIFF = 1e-05
   EDIFFG = -0.05
   ENCUT = 400.0
   IBRION = 2
   ISIF = 3
   ISMEAR = 0
   LCHARG = False
   LREAL = Auto
   LWAVE = False
   NSW = 100
   SIGMA = 0.05

 POTCAR:    PAW_PBE Na_pv 19Sep2006               
 POTCAR:    PAW_PBE P 06Sep2000                   
 POTCAR:    PAW_PBE S 06Sep2000                   
 -----------------------------------------------------------------------------
|                                                                             |
|           W    W    AA    RRRRR   N    N  II  N    N   GGGG   !!!           |
|           W    W   A  A   R    R  NN   N  II  NN   N  G    G  !!!           |
|           W    W  A    A  R    R  N N  N  II  N N  N  G       !!!           |
|           W WW W  AAAAAA  RRRRR   N  N N  II  N  N N  G  GGG   !            |
|           WW  WW  A    A  R   R   N   NN  II  N   NN  G    G                |
|           W    W  A    A  R    R  N    N  II  N    N   GGGG   !!!           |
|                                                                             |
|     For optimal performance we recommend to set                             |
|       NCORE = 2 up to number-of-cores-per-socket                            |
|     NCORE specifies how many cores store one orbital (NPAR=cpu/NCORE).      |
|     This setting can greatly improve the performance of VASP for DFT.       |
|     The default, NCORE=1 might be grossly inefficient on modern             |
|     multi-core architectures or massively parallel machines. Do your        |
|     own testing! More info at https://www.vasp.at/wiki/index.php/NCORE      |
|     Unfortunately you need to use the default for GW and RPA                |
|     calculations (for HF NCORE is supported but not extensively tested      |
|     yet).                                                                   |
|                                                                             |
 -----------------------------------------------------------------------------

 POTCAR:    PAW_PBE Na_pv 19Sep2006               
   SHA256 =  6a2f546d9e11350984debacf3dc457d8cffc0868e817d445faca461816a32b94 Na_pv/POTCAR          
   COPYR  = (c) Copyright 19Sep2006 Georg Kresse                                                    
   COPYR  = This file is part of the software VASP. Any use, copying, and all other rights are regul
   COPYR  = If you do not have a valid VASP license, you may not use, copy or distribute this file. 
   VRHFIN =Na: p6s1                                                                                 
   LEXCH  = PE                                                                                      
   EATOM  =   766.0439 eV,   56.3026 Ry                                                             
                                                                                                    
   TITEL  = PAW_PBE Na_pv 19Sep2006                                                                 
   LULTRA =        F    use ultrasoft PP ?                                                          
   IUNSCR =        1    unscreen: 0-lin 1-nonlin 2-no                                               
   RPACOR =    1.800    partial core radius                                                         
   POMASS =   22.990; ZVAL   =    7.000    mass and valenz                                          
   RCORE  =    2.200    outmost cutoff radius                                                       
   RWIGS  =    2.200; RWIGS  =    1.164    wigner-seitz radius (au A)                               
   ENMAX  =  259.561; ENMIN  =  194.671 eV                                                          
   ICORE  =        2    local potential                                                             
   LCOR   =        T    correct aug charges                                                         
   LPAW   =        T    paw PP                                                                      
   EAUG   =  368.056                                                                                
   DEXC   =    0.000                                                                                
   RMAX   =    2.245    core radius for proj-oper                                                   
   RAUG   =    1.300    factor for augmentation sphere                                              
   RDEP   =    2.259    radius for radial grids                                                     
   RDEPT  =    1.738    core radius for aug-charge                                                  
                                                                                                    
   Atomic configuration                                                                             
    5 entries                                                                                       
     n  l   j            E        occ.                                                              
     1  0  0.50     -1033.6933   2.0000                                                             
     2  0  0.50       -56.7526   2.0000                                                             
     2  1  1.50       -28.6721   6.0000                                                             
     3  0  0.50        -2.7440   1.0000                                                             
     3  2  1.50        -1.3606   0.0000                                                             
   Description                                                                                      
     l       E           TYP  RCUT    TYP  RCUT                                                     
     1    -28.6720912     23  2.000                                                                 
     1      6.8029130     23  2.000                                                                 
     0     -2.7439560     23  2.200                                                                 
     0     34.0145650     23  2.200                                                                 
     2     -1.3605826     23  2.200                                                                 
  local pseudopotential read in
  partial core-charges read in
  partial kinetic energy density read in
  atomic valenz-charges read in
  non local Contribution for L=           1  read in
    real space projection operators read in
  non local Contribution for L=           1  read in
    real space projection operators read in
  non local Contribution for L=           0  read in
    real space projection operators read in
  non local Contribution for L=           0  read in
    real space projection operators read in
    PAW grid and wavefunctions read in

   number of l-projection  operators is LMAX  =           4
   number of lm-projection operators is LMMAX =           8

 POTCAR:    PAW_PBE P 06Sep2000                   
   SHA256 =  df60c54a93efe35c9e85ae94c010c75e9f6960a95d5595d7cdba4096d109af88 P/POTCAR              
   COPYR  = (c) Copyright 06Sep2000 Georg Kresse                                                    
   COPYR  = This file is part of the software VASP. Any use, copying, and all other rights are regul
   COPYR  = If you do not have a valid VASP license, you may not use, copy or distribute this file. 
   VRHFIN =P : s2p3                                                                                 
   LEXCH  = PE                                                                                      
   EATOM  =   176.0430 eV,   12.9388 Ry                                                             
                                                                                                    
   TITEL  = PAW_PBE P 06Sep2000                                                                     
   LULTRA =        F    use ultrasoft PP ?                                                          
   IUNSCR =        1    unscreen: 0-lin 1-nonlin 2-no                                               
   RPACOR =    1.500    partial core radius                                                         
   POMASS =   30.974; ZVAL   =    5.000    mass and valenz                                          
   RCORE  =    1.900    outmost cutoff radius                                                       
   RWIGS  =    2.330; RWIGS  =    1.233    wigner-seitz radius (au A)                               
   ENMAX  =  255.040; ENMIN  =  191.280 eV                                                          
   ICORE  =        2    local potential                                                             
   LCOR   =        T    correct aug charges                                                         
   LPAW   =        T    paw PP                                                                      
   EAUG   =  342.924                                                                                
   DEXC   =    0.000                                                                                
   RMAX   =    1.935    core radius for proj-oper                                                   
   RAUG   =    1.300    factor for augmentation sphere                                              
   RDEP   =    1.931    radius for radial grids                                                     
   RDEPT  =    1.794    core radius for aug-charge                                                  
                                                                                                    
   Atomic configuration                                                                             
    6 entries                                                                                       
     n  l   j            E        occ.                                                              
     1  0  0.50     -2084.0982   2.0000                                                             
     2  0  0.50      -173.9859   2.0000                                                             
     2  1  1.50      -124.4865   6.0000                                                             
     3  0  0.50       -13.9692   2.0000                                                             
     3  1  0.50        -5.5067   3.0000                                                             
     3  2  1.50        -5.4423   0.0000                                                             
   Description                                                                                      
     l       E           TYP  RCUT    TYP  RCUT                                                     
     0    -13.9691527     23  1.900                                                                 
     0    -11.7794650     23  1.900                                                                 
     1     -5.5066937     23  1.900                                                                 
     1     -0.2556953     23  1.900                                                                 
     2     -5.4423304     23  1.900                                                                 
  local pseudopotential read in
  partial core-charges read in
  partial kinetic energy density read in
  atomic valenz-charges read in
  non local Contribution for L=           0  read in
    real space projection operators read in
  non local Contribution for L=           0  read in
    real space projection operators read in
  non local Contribution for L=           1  read in
    real space projection operators read in
  non local Contribution for L=           1  read in
    real space projection operators read in
    PAW grid and wavefunctions read in

   number of l-projection  operators is LMAX  =           4
   number of lm-projection operators is LMMAX =           8

 POTCAR:    PAW_PBE S 06Sep2000                   
   SHA256 =  0fc7481fb0695f01bdc6462160264c5c84044ae9ec85a907d398b887a2bc3132 S/POTCAR              
   COPYR  = (c) Copyright 06Sep2000 Georg Kresse                                                    
   COPYR  = This file is part of the software VASP. Any use, copying, and all other rights are regul
   COPYR  = If you do not have a valid VASP license, you may not use, copy or distribute this file. 
   VRHFIN =S : s2p4                                                                                 
   LEXCH  = PE                                                                                      
   EATOM  =   276.8230 eV,   20.3459 Ry                                                             
                                                                                                    
   TITEL  = PAW_PBE S 06Sep2000                                                                     
   LULTRA =        F    use ultrasoft PP ?                                                          
   IUNSCR =        1    unscreen: 0-lin 1-nonlin 2-no                                               
   RPACOR =    1.500    partial core radius                                                         
   POMASS =   32.066; ZVAL   =    6.000    mass and valenz                                          
   RCORE  =    1.900    outmost cutoff radius                                                       
   RWIGS  =    2.200; RWIGS  =    1.164    wigner-seitz radius (au A)                               
   ENMAX  =  258.689; ENMIN  =  194.016 eV                                                          
   ICORE  =        2    local potential                                                             
   LCOR   =        T    correct aug charges                                                         
   LPAW   =        T    paw PP                                                                      
   EAUG   =  335.092                                                                                
   DEXC   =    0.000                                                                                
   RMAX   =    1.942    core radius for proj-oper                                                   
   RAUG   =    1.300    factor for augmentation sphere                                              
   RDEP   =    1.954    radius for radial grids                                                     
   RDEPT  =    1.744    core radius for aug-charge                                                  
                                                                                                    
   Atomic configuration                                                                             
    6 entries                                                                                       
     n  l   j            E        occ.                                                              
     1  0  0.50     -2405.8406   2.0000                                                             
     2  0  0.50      -211.7007   2.0000                                                             
     2  1  1.50      -156.4958   6.0000                                                             
     3  0  0.50       -17.2562   2.0000                                                             
     3  1  0.50        -7.0085   4.0000                                                             
     3  2  1.50        -6.8029   0.0000                                                             
   Description                                                                                      
     l       E           TYP  RCUT    TYP  RCUT                                                     
     0    -17.2561641     23  1.900                                                                 
     0    -15.8743224     23  1.900                                                                 
     1     -7.0085400     23  1.900                                                                 
     1     -2.7779785     23  1.900                                                                 
     2     -6.8029130     23  1.900                                                                 
  local pseudopotential read in
  partial core-charges read in
  partial kinetic energy density read in
  atomic valenz-charges read in
  non local Contribution for L=           0  read in
    real space projection operators read in
  non local Contribution for L=           0  read in
    real space projection operators read in
  non local Contribution for L=           1  read in
    real space projection operators read in
  non local Contribution for L=           1  read in
    real space projection operators read in
    PAW grid and wavefunctions read in

   number of l-projection  operators is LMAX  =           4
   number of lm-projection operators is LMMAX =           8

 -----------------------------------------------------------------------------
|                                                                             |
|               ----> ADVICE to this user running VASP <----                  |
|                                                                             |
|     You have a (more or less) 'small supercell' and for smaller cells       |
|     it is recommended to use the reciprocal-space projection scheme!        |
|     The real-space optimization is not efficient for small cells and it     |
|     is also less accurate ...                                               |
|     Therefore, set LREAL=.FALSE. in the INCAR file.                         |
|                                                                             |
 -----------------------------------------------------------------------------

 Optimization of the real space projectors (new method)

 maximal supplied QI-value         = 17.01
 optimisation between [QCUT,QGAM] = [ 10.20, 20.41] = [ 29.16,116.64] Ry 
 Optimized for a Real-space Cutoff    1.30 Angstroem

   l    n(q)    QCUT    max X(q) W(low)/X(q) W(high)/X(q)  e(spline) 
   1      7    10.205     4.940    0.23E-03    0.84E-03    0.11E-06
   1      7    10.205     6.253    0.40E-03    0.13E-02    0.18E-06
   0      8    10.205    37.438    0.23E-03    0.37E-03    0.42E-07
   0      8    10.205     9.606    0.16E-03    0.26E-03    0.31E-07
 Optimization of the real space projectors (new method)

 maximal supplied QI-value         = 19.84
 optimisation between [QCUT,QGAM] = [ 10.12, 20.44] = [ 28.68,116.96] Ry 
 Optimized for a Real-space Cutoff    1.23 Angstroem

   l    n(q)    QCUT    max X(q) W(low)/X(q) W(high)/X(q)  e(spline) 
   0      7    10.119   160.924    0.70E-04    0.27E-03    0.49E-07
   0      7    10.119   130.086    0.69E-04    0.27E-03    0.48E-07
   1      7    10.119    74.434    0.43E-03    0.59E-03    0.12E-06
   1      7    10.119    49.120    0.42E-03    0.58E-03    0.12E-06
 Optimization of the real space projectors (new method)

 maximal supplied QI-value         = 19.84
 optimisation between [QCUT,QGAM] = [ 10.12, 20.44] = [ 28.68,116.96] Ry 
 Optimized for a Real-space Cutoff    1.23 Angstroem

   l    n(q)    QCUT    max X(q) W(low)/X(q) W(high)/X(q)  e(spline) 
   0      7    10.119   187.594    0.62E-04    0.28E-03    0.52E-07
   0      7    10.119   164.243    0.61E-04    0.28E-03    0.52E-07
   1      7    10.119    67.533    0.45E-03    0.63E-03    0.13E-06
   1      7    10.119    50.729    0.44E-03    0.62E-03    0.12E-06
  PAW_PBE Na_pv 19Sep2006               :
 energy of atom  1       EATOM= -766.0439
 kinetic energy error for atom=    0.0103 (will be added to EATOM!!)
  PAW_PBE P 06Sep2000                   :
 energy of atom  2       EATOM= -176.0430
 kinetic energy error for atom=    0.0023 (will be added to EATOM!!)
  PAW_PBE S 06Sep2000                   :
 energy of atom  3       EATOM= -276.8230
 kinetic energy error for atom=    0.0046 (will be added to EATOM!!)


 POSCAR: Na1 P1 S1
  positions in direct lattice
  No initial velocities read in
 exchange correlation table for  LEXCH =        8
   RHO(1)=    0.500       N(1)  =     2000
   RHO(2)=  100.500       N(2)  =     4000



--------------------------------------------------------------------------------------------------------


 ion  position               nearest neighbor table
   1  0.771  0.077  0.000-   3 2.70   3 2.70   2 2.85   2 2.85
   2  0.424  0.924  0.000-   3 1.97   1 2.85   1 2.85
   3  0.078  0.271  0.000-   2 1.97   1 2.70   1 2.70

  LATTYP: Found a simple monoclinic cell.
 ALAT       =     4.1104280292
 B/A-ratio  =     0.7998884859
 C/A-ratio  =     1.3851867762
 COS(beta)  =    -0.0011066945
  
  Lattice vectors:
  
 A1 = (   1.8971903323,   3.6464074685,   0.0000000000)
 A2 = (   0.0000000000,   0.0000000000,   3.2878840526)
 A3 = (   5.0480439606,  -2.6335512156,   0.0000000000)


Analysis of symmetry for initial positions (statically):
=====================================================================
 Subroutine PRICEL returns:
 Original cell was already a primitive cell.
 

 Routine SETGRP: Setting up the symmetry group for a 
 simple monoclinic supercell.


 Subroutine GETGRP returns: Found  2 space group operations
 (whereof  2 operations were pure point group operations)
 out of a pool of  4 trial point group operations.


The static configuration has the point symmetry C_1h.


Analysis of symmetry for dynamics (positions and initial velocities):
=====================================================================
 Subroutine PRICEL returns:
 Original cell was already a primitive cell.
 

 Routine SETGRP: Setting up the symmetry group for a 
 simple monoclinic supercell.


 Subroutine GETGRP returns: Found  2 space group operations
 (whereof  2 operations were pure point group operations)
 out of a pool of  4 trial point group operations.


The dynamic configuration has the point symmetry C_1h.


 Subroutine INISYM returns: Found  2 space group operations
 (whereof  2 operations are pure point group operations),
 and found     1 'primitive' translations


----------------------------------------------------------------------------------------

                                     Primitive cell                                     

  volume of cell :      76.9482

  direct lattice vectors                    reciprocal lattice vectors
     6.945234293  1.012856253  0.000000000     0.155805588 -0.081064132  0.000000000
     1.897190332  3.646407468  0.000000000    -0.043277847  0.296759570  0.000000000
     0.000000000  0.000000000  3.287884053     0.000000000  0.000000000  0.304146978

  length of vectors
     7.018700533  4.110428029  3.287884053     0.175632499  0.299898674  0.304146978

  position of ions in fractional coordinates (direct lattice)
     0.770664913  0.077362577  0.000000000
     0.423736666  0.924112701  0.000000000
     0.077625601  0.270551902  0.000000000

  ion indices of the primitive-cell ions
   primitive index   ion index
                 1           1
                 2           2
                 3           3

----------------------------------------------------------------------------------------



 KPOINTS: pymatgen with grid density = 500 / numbe

Automatic generation of k-mesh.
 Grid dimensions read from file:
 generate k-points for:    3    6    7

 Generating k-lattice:

  Cartesian coordinates                     Fractional coordinates (reciprocal lattice)
     0.051935196 -0.027021377  0.000000000     0.333333333  0.000000000  0.000000000
    -0.007212974  0.049459928  0.000000000     0.000000000  0.166666667  0.000000000
     0.000000000  0.000000000  0.043449568     0.000000000  0.000000000  0.142857143

  Length of vectors
     0.058544166  0.049983112  0.043449568

  Shift w.r.t. Gamma in fractional coordinates (k-lattice)
     0.000000000  0.000000000  0.000000000

 
 Subroutine IBZKPT returns following result:
 ===========================================
 
 Found     40 irreducible k-points:
 
 Following reciprocal coordinates:
            Coordinates               Weight
  0.000000  0.000000  0.000000      1.000000
  0.333333  0.000000  0.000000      2.000000
  0.000000  0.166667  0.000000      2.000000
  0.333333  0.166667  0.000000      2.000000
 -0.333333  0.166667  0.000000      2.000000
  0.000000  0.333333  0.000000      2.000000
  0.333333  0.333333  0.000000      2.000000
 -0.333333  0.333333  0.000000      2.000000
  0.000000  0.500000  0.000000      1.000000
  0.333333  0.500000  0.000000      2.000000
  0.000000  0.000000  0.142857      2.000000
  0.333333  0.000000  0.142857      4.000000
  0.000000  0.166667  0.142857      4.000000
  0.333333  0.166667  0.142857      4.000000
 -0.333333  0.166667  0.142857      4.000000
  0.000000  0.333333  0.142857      4.000000
  0.333333  0.333333  0.142857      4.000000
 -0.333333  0.333333  0.142857      4.000000
  0.000000  0.500000  0.142857      2.000000
  0.333333  0.500000  0.142857      4.000000
  0.000000  0.000000  0.285714      2.000000
  0.333333  0.000000  0.285714      4.000000
  0.000000  0.166667  0.285714      4.000000
  0.333333  0.166667  0.285714      4.000000
 -0.333333  0.166667  0.285714      4.000000
  0.000000  0.333333  0.285714      4.000000
  0.333333  0.333333  0.285714      4.000000
 -0.333333  0.333333  0.285714      4.000000
  0.000000  0.500000  0.285714      2.000000
  0.333333  0.500000  0.285714      4.000000
  0.000000  0.000000  0.428571      2.000000
  0.333333  0.000000  0.428571      4.000000
  0.000000  0.166667  0.428571      4.000000
  0.333333  0.166667  0.428571      4.000000
 -0.333333  0.166667  0.428571      4.000000
  0.000000  0.333333  0.428571      4.000000
  0.333333  0.333333  0.428571      4.000000
 -0.333333  0.333333  0.428571      4.000000
  0.000000  0.500000  0.428571      2.000000
  0.333333  0.500000  0.428571      4.000000
 
 Following cartesian coordinates:
            Coordinates               Weight
  0.000000  0.000000  0.000000      1.000000
  0.051935 -0.027021  0.000000      2.000000
 -0.007213  0.049460  0.000000      2.000000
  0.044722  0.022439  0.000000      2.000000
 -0.059148  0.076481  0.000000      2.000000
 -0.014426  0.098920  0.000000      2.000000
  0.037509  0.071898  0.000000      2.000000
 -0.066361  0.125941  0.000000      2.000000
 -0.021639  0.148380  0.000000      1.000000
  0.030296  0.121358  0.000000      2.000000
  0.000000  0.000000  0.043450      2.000000
  0.051935 -0.027021  0.043450      4.000000
 -0.007213  0.049460  0.043450      4.000000
  0.044722  0.022439  0.043450      4.000000
 -0.059148  0.076481  0.043450      4.000000
 -0.014426  0.098920  0.043450      4.000000
  0.037509  0.071898  0.043450      4.000000
 -0.066361  0.125941  0.043450      4.000000
 -0.021639  0.148380  0.043450      2.000000
  0.030296  0.121358  0.043450      4.000000
  0.000000  0.000000  0.086899      2.000000
  0.051935 -0.027021  0.086899      4.000000
 -0.007213  0.049460  0.086899      4.000000
  0.044722  0.022439  0.086899      4.000000
 -0.059148  0.076481  0.086899      4.000000
 -0.014426  0.098920  0.086899      4.000000
  0.037509  0.071898  0.086899      4.000000
 -0.066361  0.125941  0.086899      4.000000
 -0.021639  0.148380  0.086899      2.000000
  0.030296  0.121358  0.086899      4.000000
  0.000000  0.000000  0.130349      2.000000
  0.051935 -0.027021  0.130349      4.000000
 -0.007213  0.049460  0.130349      4.000000
  0.044722  0.022439  0.130349      4.000000
 -0.059148  0.076481  0.130349      4.000000
 -0.014426  0.098920  0.130349      4.000000
  0.037509  0.071898  0.130349      4.000000
 -0.066361  0.125941  0.130349      4.000000
 -0.021639  0.148380  0.130349      2.000000
  0.030296  0.121358  0.130349      4.000000
 


--------------------------------------------------------------------------------------------------------




 Dimension of arrays:
   k-points           NKPTS =     40   k-points in BZ     NKDIM =     40   number of bands    NBANDS=     32
   number of dos      NEDOS =    301   number of ions     NIONS =      3
   non local maximal  LDIM  =      4   non local SUM 2l+1 LMDIM =      8
   total plane-waves  NPLWV =  11520
   max r-space proj   IRMAX =   1431   max aug-charges    IRDMAX=   4916
   dimension x,y,z NGX =    36 NGY =   20 NGZ =   16
   dimension x,y,z NGXF=    72 NGYF=   40 NGZF=   32
   support grid    NGXF=    72 NGYF=   40 NGZF=   32
   ions per type =               1   1   1
   NGX,Y,Z   is equivalent  to a cutoff of   8.53,  8.09,  8.09 a.u.
   NGXF,Y,Z  is equivalent  to a cutoff of  17.05, 16.18, 16.18 a.u.

 SYSTEM =  unknown system                          
 POSCAR =  Na1 P1 S1                               

 Startparameter for this run:
   NWRITE =      2    write-flag & timer
   PREC   = normal    normal or accurate (medium, high low for compatibility)
   ISTART =      0    job   : 0-new  1-cont  2-samecut
   ICHARG =      2    charge: 1-file 2-atom 10-const
   ISPIN  =      1    spin polarized calculation?
   LNONCOLLINEAR =      F non collinear calculations
   LSORBIT =      F    spin-orbit coupling
   INIWAV =      1    electr: 0-lowe 1-rand  2-diag
   LASPH  =      F    aspherical Exc in radial PAW
 Electronic Relaxation 1
   ENCUT  =  400.0 eV  29.40 Ry    5.42 a.u.  11.45  6.70  5.36*2*pi/ulx,y,z
   ENINI  =  400.0     initial cutoff
   ENAUG  =  368.1 eV  augmentation charge cutoff
   NELM   =     60;   NELMIN=  2; NELMDL= -5     # of ELM steps 
   EDIFF  = 0.1E-04   stopping-criterion for ELM
   LREAL  =      T    real-space projection
   NLSPLINE    = F    spline interpolate recip. space projectors
   LCOMPAT=      F    compatible to vasp.4.4
   GGA_COMPAT  = T    GGA compatible to vasp.4.4-vasp.4.6
   LMAXPAW     = -100 max onsite density
   LMAXMIX     =    2 max onsite mixed and CHGCAR
   VOSKOWN=      0    Vosko Wilk Nusair interpolation
   ROPT   =   -0.00050  -0.00050  -0.00050
 Ionic relaxation
   EDIFFG = -.5E-01   stopping-criterion for IOM
   NSW    =    100    number of steps for IOM
   NBLOCK =      1;   KBLOCK =    100    inner block; outer block 
   IBRION =      2    ionic relax: 0-MD 1-quasi-New 2-CG
   NFREE  =      1    steps in history (QN), initial steepest desc. (CG)
   ISIF   =      3    stress and relaxation
   IWAVPR =     11    prediction:  0-non 1-charg 2-wave 3-comb
   ISYM   =      2    0-nonsym 1-usesym 2-fastsym
   LCORR  =      T    Harris-Foulkes like correction to forces

   POTIM  = 0.5000    time-step for ionic-motion
   TEIN   =    0.0    initial temperature
   TEBEG  =    0.0;   TEEND  =   0.0 temperature during run
   SMASS  =  -3.00    Nose mass-parameter (am)
   estimated Nose-frequenzy (Omega)   =  0.10E-29 period in steps = 0.13E+47 mass=  -0.113E-26a.u.
   SCALEE = 1.0000    scale energy and forces
   NPACO  =    256;   APACO  = 10.0  distance and # of slots for P.C.
   PSTRESS=    0.0 pullay stress

  Mass of Ions in am
   POMASS =  22.99 30.97 32.07
  Ionic Valenz
   ZVAL   =   7.00  5.00  6.00
  Atomic Wigner-Seitz radii
   RWIGS  =  -1.00 -1.00 -1.00
  virtual crystal weights 
   VCA    =   1.00  1.00  1.00
   NELECT =      18.0000    total number of electrons
   NUPDOWN=      -1.0000    fix difference up-down

 DOS related values:
   EMIN   =  10.00;   EMAX   =-10.00  energy-range for DOS
   EFERMI =   0.00
   ISMEAR =     0;   SIGMA  =   0.05  broadening in eV -4-tet -1-fermi 0-gaus

 Electronic relaxation 2 (details)
   IALGO  =     38    algorithm
   LDIAG  =      T    sub-space diagonalisation (order eigenvalues)
   LSUBROT=      F    optimize rotation matrix (better conditioning)
   TURBO    =      0    0=normal 1=particle mesh
   IRESTART =      0    0=no restart 2=restart with 2 vectors
   NREBOOT  =      0    no. of reboots
   NMIN     =      0    reboot dimension
   EREF     =   0.00    reference energy to select bands
   IMIX   =      4    mixing-type and parameters
     AMIX     =   0.40;   BMIX     =  1.00
     AMIX_MAG =   1.60;   BMIX_MAG =  1.00
     AMIN     =   0.10
     WC   =   100.;   INIMIX=   1;  MIXPRE=   1;  MAXMIX= -45

 Intra band minimization:
   WEIMIN = 0.0010     energy-eigenvalue tresh-hold
   EBREAK =  0.78E-07  absolut break condition
   DEPER  =   0.30     relativ break condition  

   TIME   =   0.40     timestep for ELM

  volume/ion in A,a.u.               =      25.65       173.09
  Fermi-wavevector in a.u.,A,eV,Ry     =   1.008710  1.906185 13.843858  1.017495
  Thomas-Fermi vector in A             =   2.141593

 Write flags
   LWAVE        =      F    write WAVECAR
   LDOWNSAMPLE  =      F    k-point downsampling of WAVECAR
   LCHARG       =      F    write CHGCAR
   LVTOT        =      F    write LOCPOT, total local potential
   LVHAR        =      F    write LOCPOT, Hartree potential only
   LELF         =      F    write electronic localiz. function (ELF)
   LORBIT       =      0    0 simple, 1 ext, 2 COOP (PROOUT), +10 PAW based schemes


 Dipole corrections
   LMONO  =      F    monopole corrections only (constant potential shift)
   LDIPOL =      F    correct potential (dipole corrections)
   IDIPOL =      0    1-x, 2-y, 3-z, 4-all directions 
   EPSILON=  1.0000000 bulk dielectric constant

 Exchange correlation treatment:
   GGA     =    --    GGA type
   LEXCH   =     8    internal setting for exchange type
   LIBXC   =     F    Libxc                    
   VOSKOWN =     0    Vosko Wilk Nusair interpolation
   LHFCALC =     F    Hartree Fock is set to
   LHFONE  =     F    Hartree Fock one center treatment
   AEXX    =    0.0000 exact exchange contribution

 Linear response parameters
   LEPSILON=     F    determine dielectric tensor
   LRPA    =     F    only Hartree local field effects (RPA)
   LNABLA  =     F    use nabla operator in PAW spheres
   LVEL    =     F    velocity operator in full k-point grid
   CSHIFT  =0.1000    complex shift for real part using Kramers Kronig
   OMEGAMAX=  -1.0    maximum frequency
   DEG_THRESHOLD= 0.2000000E-02 threshold for treating states as degnerate
   RTIME   =   -0.100 relaxation time in fs
  (WPLASMAI=    0.000 imaginary part of plasma frequency in eV, 0.658/RTIME)
   DFIELD  = 0.0000000 0.0000000 0.0000000 field for delta impulse in time

  Optional k-point grid parameters
   LKPOINTS_OPT  =     F    use optional k-point grid
   KPOINTS_OPT_MODE=     1    mode for optional k-point grid

 Orbital magnetization related:
   ORBITALMAG=     F  switch on orbital magnetization
   LCHIMAG   =     F  perturbation theory with respect to B field
   DQ        =  0.001000  dq finite difference perturbation B field
   LLRAUG    =     F  two centre corrections for induced B field



--------------------------------------------------------------------------------------------------------


 conjugate gradient relaxation of ions
 charge density and potential will be updated during run
 non-spin polarized calculation
 Variant of blocked Davidson
 Davidson routine will perform the subspace rotation
 perform sub-space diagonalisation
    after iterative eigenvector-optimisation
 modified Broyden-mixing scheme, WC =      100.0
 initial mixing is a Kerker type mixing with AMIX =  0.4000 and BMIX =      1.0000
 Hartree-type preconditioning will be used
 using additional bands           23
 real space projection scheme for non local part
 use partial core corrections
 calculate Harris-corrections to forces   (improved forces if not selfconsistent)
 use gradient corrections 
 use of overlap-Matrix (Vanderbilt PP)
 Gauss-broadening in eV      SIGMA  =   0.05


--------------------------------------------------------------------------------------------------------


  energy-cutoff  :      400.00
  volume of cell :       76.95
      direct lattice vectors                 reciprocal lattice vectors
     6.945234293  1.012856253  0.000000000     0.155805588 -0.081064132  0.000000000
     1.897190332  3.646407468  0.000000000    -0.043277847  0.296759570  0.000000000
     0.000000000  0.000000000  3.287884053     0.000000000  0.000000000  0.304146978

  length of vectors
     7.018700533  4.110428029  3.287884053     0.175632499  0.299898674  0.304146978



 k-points in units of 2pi/SCALE and weight: pymatgen with grid density = 500 / numbe
   0.00000000  0.00000000  0.00000000       0.008
   0.05193520 -0.02702138  0.00000000       0.016
  -0.00721297  0.04945993  0.00000000       0.016
   0.04472222  0.02243855  0.00000000       0.016
  -0.05914817  0.07648131  0.00000000       0.016
  -0.01442595  0.09891986  0.00000000       0.016
   0.03750925  0.07189848  0.00000000       0.016
  -0.06636114  0.12594123  0.00000000       0.016
  -0.02163892  0.14837979  0.00000000       0.008
   0.03029627  0.12135841  0.00000000       0.016
   0.00000000  0.00000000  0.04344957       0.016
   0.05193520 -0.02702138  0.04344957       0.032
  -0.00721297  0.04945993  0.04344957       0.032
   0.04472222  0.02243855  0.04344957       0.032
  -0.05914817  0.07648131  0.04344957       0.032
  -0.01442595  0.09891986  0.04344957       0.032
   0.03750925  0.07189848  0.04344957       0.032
  -0.06636114  0.12594123  0.04344957       0.032
  -0.02163892  0.14837979  0.04344957       0.016
   0.03029627  0.12135841  0.04344957       0.032
   0.00000000  0.00000000  0.08689914       0.016
   0.05193520 -0.02702138  0.08689914       0.032
  -0.00721297  0.04945993  0.08689914       0.032
   0.04472222  0.02243855  0.08689914       0.032
  -0.05914817  0.07648131  0.08689914       0.032
  -0.01442595  0.09891986  0.08689914       0.032
   0.03750925  0.07189848  0.08689914       0.032
  -0.06636114  0.12594123  0.08689914       0.032
  -0.02163892  0.14837979  0.08689914       0.016
   0.03029627  0.12135841  0.08689914       0.032
   0.00000000  0.00000000  0.13034871       0.016
   0.05193520 -0.02702138  0.13034871       0.032
  -0.00721297  0.04945993  0.13034871       0.032
   0.04472222  0.02243855  0.13034871       0.032
  -0.05914817  0.07648131  0.13034871       0.032
  -0.01442595  0.09891986  0.13034871       0.032
   0.03750925  0.07189848  0.13034871       0.032
  -0.06636114  0.12594123  0.13034871       0.032
  -0.02163892  0.14837979  0.13034871       0.016
   0.03029627  0.12135841  0.13034871       0.032

 k-points in reciprocal lattice and weights: pymatgen with grid density = 500 / numbe
   0.00000000  0.00000000  0.00000000       0.008
   0.33333333  0.00000000  0.00000000       0.016
   0.00000000  0.16666667  0.00000000       0.016
   0.33333333  0.16666667  0.00000000       0.016
  -0.33333333  0.16666667  0.00000000       0.016
   0.00000000  0.33333333  0.00000000       0.016
   0.33333333  0.33333333  0.00000000       0.016
  -0.33333333  0.33333333  0.00000000       0.016
   0.00000000  0.50000000  0.00000000       0.008
   0.33333333  0.50000000  0.00000000       0.016
   0.00000000  0.00000000  0.14285714       0.016
   0.33333333  0.00000000  0.14285714       0.032
   0.00000000  0.16666667  0.14285714       0.032
   0.33333333  0.16666667  0.14285714       0.032
  -0.33333333  0.16666667  0.14285714       0.032
   0.00000000  0.33333333  0.14285714       0.032
   0.33333333  0.33333333  0.14285714       0.032
  -0.33333333  0.33333333  0.14285714       0.032
   0.00000000  0.50000000  0.14285714       0.016
   0.33333333  0.50000000  0.14285714       0.032
   0.00000000  0.00000000  0.28571429       0.016
   0.33333333  0.00000000  0.28571429       0.032
   0.00000000  0.16666667  0.28571429       0.032
   0.33333333  0.16666667  0.28571429       0.032
  -0.33333333  0.16666667  0.28571429       0.032
   0.00000000  0.33333333  0.28571429       0.032
   0.33333333  0.33333333  0.28571429       0.032
  -0.33333333  0.33333333  0.28571429       0.032
   0.00000000  0.50000000  0.28571429       0.016
   0.33333333  0.50000000  0.28571429       0.032
   0.00000000  0.00000000  0.42857143       0.016
   0.33333333  0.00000000  0.42857143       0.032
   0.00000000  0.16666667  0.42857143       0.032
   0.33333333  0.16666667  0.42857143       0.032
  -0.33333333  0.16666667  0.42857143       0.032
   0.00000000  0.33333333  0.42857143       0.032
   0.33333333  0.33333333  0.42857143       0.032
  -0.33333333  0.33333333  0.42857143       0.032
   0.00000000  0.50000000  0.42857143       0.016
   0.33333333  0.50000000  0.42857143       0.032

 position of ions in fractional coordinates (direct lattice) 
   0.77066491  0.07736258  0.00000000
   0.42373667  0.92411270  0.00000000
   0.07762560  0.27055190  0.00000000

 position of ions in cartesian coordinates  (Angst):
   5.49921992  1.06266826  0.00000000
   4.69616810  3.79887579  0.00000000
   1.05241644  1.06516605  0.00000000



--------------------------------------------------------------------------------------------------------


 k-point   1 :   0.0000 0.0000 0.0000  plane waves:    1433
 k-point   2 :   0.3333 0.0000 0.0000  plane waves:    1408
 k-point   3 :   0.0000 0.1667 0.0000  plane waves:    1408
 k-point   4 :   0.3333 0.1667 0.0000  plane waves:    1412
 k-point   5 :  -0.3333 0.1667 0.0000  plane waves:    1402
 k-point   6 :   0.0000 0.3333 0.0000  plane waves:    1400
 k-point   7 :   0.3333 0.3333 0.0000  plane waves:    1392
 k-point   8 :  -0.3333 0.3333 0.0000  plane waves:    1399
 k-point   9 :   0.0000 0.5000 0.0000  plane waves:    1396
 k-point  10 :   0.3333 0.5000 0.0000  plane waves:    1390
 k-point  11 :   0.0000 0.0000 0.1429  plane waves:    1405
 k-point  12 :   0.3333 0.0000 0.1429  plane waves:    1401
 k-point  13 :   0.0000 0.1667 0.1429  plane waves:    1402
 k-point  14 :   0.3333 0.1667 0.1429  plane waves:    1402
 k-point  15 :  -0.3333 0.1667 0.1429  plane waves:    1404
 k-point  16 :   0.0000 0.3333 0.1429  plane waves:    1397
 k-point  17 :   0.3333 0.3333 0.1429  plane waves:    1393
 k-point  18 :  -0.3333 0.3333 0.1429  plane waves:    1397
 k-point  19 :   0.0000 0.5000 0.1429  plane waves:    1404
 k-point  20 :   0.3333 0.5000 0.1429  plane waves:    1400
 k-point  21 :   0.0000 0.0000 0.2857  plane waves:    1401
 k-point  22 :   0.3333 0.0000 0.2857  plane waves:    1403
 k-point  23 :   0.0000 0.1667 0.2857  plane waves:    1400
 k-point  24 :   0.3333 0.1667 0.2857  plane waves:    1397
 k-point  25 :  -0.3333 0.1667 0.2857  plane waves:    1392
 k-point  26 :   0.0000 0.3333 0.2857  plane waves:    1396
 k-point  27 :   0.3333 0.3333 0.2857  plane waves:    1395
 k-point  28 :  -0.3333 0.3333 0.2857  plane waves:    1396
 k-point  29 :   0.0000 0.5000 0.2857  plane waves:    1400
 k-point  30 :   0.3333 0.5000 0.2857  plane waves:    1401
 k-point  31 :   0.0000 0.0000 0.4286  plane waves:    1400
 k-point  32 :   0.3333 0.0000 0.4286  plane waves:    1383
 k-point  33 :   0.0000 0.1667 0.4286  plane waves:    1391
 k-point  34 :   0.3333 0.1667 0.4286  plane waves:    1392
 k-point  35 :  -0.3333 0.1667 0.4286  plane waves:    1395
 k-point  36 :   0.0000 0.3333 0.4286  plane waves:    1396
 k-point  37 :   0.3333 0.3333 0.4286  plane waves:    1396
 k-point  38 :  -0.3333 0.3333 0.4286  plane waves:    1397
 k-point  39 :   0.0000 0.5000 0.4286  plane waves:    1392
 k-point  40 :   0.3333 0.5000 0.4286  plane waves:    1404

 maximum and minimum number of plane-waves per node :      1433     1383

 maximum number of plane-waves:      1433
 maximum index in each direction: 
   IXMAX=   11   IYMAX=    6   IZMAX=    5
   IXMIN=  -11   IYMIN=   -7   IZMIN=   -5


 serial   3D FFT for wavefunctions
 parallel 3D FFT for charge:
    minimum data exchange during FFTs selected (reduces bandwidth)


 total amount of memory used by VASP MPI-rank0    32191. kBytes
=======================================================================

   base      :      30000. kBytes
   nonlr-proj:        322. kBytes
   fftplans  :        189. kBytes
   grid      :        729. kBytes
   one-center:          9. kBytes
   wavefun   :        942. kBytes

     INWAV:  cpu time      0.0000: real time      0.0000
 Broyden mixing: mesh for mixing (old mesh)
   NGX = 23   NGY = 13   NGZ = 11
  (NGX  = 72   NGY  = 40   NGZ  = 32)
  gives a total of   3289 points

 initial charge density was supplied:
 charge density of overlapping atoms calculated
 number of electron      18.0000000 magnetization 
 keeping initial charge density in first step


--------------------------------------------------------------------------------------------------------


 Maximum index for non-local projection operator         1349
 Maximum index for augmentation-charges          271 (set IRDMAX)


--------------------------------------------------------------------------------------------------------


 First call to EWALD:  gamma=   0.417
 Maximum number of real-space cells 2x 3x 3
 Maximum number of reciprocal cells 4x 3x 2

    FEWALD:  cpu time      0.0007: real time      0.0009


--------------------------------------- Iteration      1(   1)  ---------------------------------------


    POTLOK:  cpu time      0.0055: real time      0.0056
    SETDIJ:  cpu time      0.0017: real time      0.0018
     EDDAV:  cpu time      0.5446: real time      0.5451
       DOS:  cpu time      0.0006: real time      0.0008
    --------------------------------------------
      LOOP:  cpu time      0.5525: real time      0.5534

 eigenvalue-minimisations  :  2560
 total energy-change (2. order) : 0.2381547E+02  (-0.8586630E+03)
 number of electron      18.0000000 magnetization 
 augmentation part       18.0000000 magnetization 

 Free energy of the ion-electron system (eV)
  ---------------------------------------------------
  alpha Z        PSCENC =        20.76465177
  Ewald energy   TEWEN  =      -716.95557735
  -Hartree energ DENC   =      -319.54537865
  -exchange      EXHF   =         0.00000000
  -V(xc)+E(xc)   XCENC  =        39.63117676
  PAW double counting   =       859.59202053     -936.81309528
  entropy T*S    EENTRO =        -0.00119208
  eigenvalues    EBANDS =      -141.74983576
  atomic energy  EATOM  =      1218.89270049
  Solvation  Ediel_sol  =         0.00000000
  ---------------------------------------------------
  free energy    TOTEN  =        23.81547043 eV

  energy without entropy =       23.81666252  energy(sigma->0) =       23.81606648


--------------------------------------------------------------------------------------------------------




--------------------------------------- Iteration      1(   2)  ---------------------------------------


     EDDAV:  cpu time      1.1034: real time      1.1118
       DOS:  cpu time      0.0005: real time      0.0006
    --------------------------------------------
      LOOP:  cpu time      1.1039: real time      1.1124

 eigenvalue-minimisations  :  3808
 total energy-change (2. order) :-0.3490493E+02  (-0.3479649E+02)
 number of electron      18.0000000 magnetization 
 augmentation part       18.0000000 magnetization 

 Free energy of the ion-electron system (eV)
  ---------------------------------------------------
  alpha Z        PSCENC =        20.76465177
  Ewald energy   TEWEN  =      -716.95557735
  -Hartree energ DENC   =      -319.54537865
  -exchange      EXHF   =         0.00000000
  -V(xc)+E(xc)   XCENC  =        39.63117676
  PAW double counting   =       859.59202053     -936.81309528
  entropy T*S    EENTRO =        -0.00360894
  eigenvalues    EBANDS =      -176.65234818
  atomic energy  EATOM  =      1218.89270049
  Solvation  Ediel_sol  =         0.00000000
  ---------------------------------------------------
  free energy    TOTEN  =       -11.08945884 eV

  energy without entropy =      -11.08584990  energy(sigma->0) =      -11.08765437


--------------------------------------------------------------------------------------------------------




--------------------------------------- Iteration      1(   3)  ---------------------------------------


     EDDAV:  cpu time      0.5363: real time      0.5368
       DOS:  cpu time      0.0003: real time      0.0005
    --------------------------------------------
      LOOP:  cpu time      0.5367: real time      0.5373

 eigenvalue-minimisations  :  2560
 total energy-change (2. order) :-0.3000487E+00  (-0.2999750E+00)
 number of electron      18.0000000 magnetization 
 augmentation part       18.0000000 magnetization 

 Free energy of the ion-electron system (eV)
  ---------------------------------------------------
  alpha Z        PSCENC =        20.76465177
  Ewald energy   TEWEN  =      -716.95557735
  -Hartree energ DENC   =      -319.54537865
  -exchange      EXHF   =         0.00000000
  -V(xc)+E(xc)   XCENC  =        39.63117676
  PAW double counting   =       859.59202053     -936.81309528
  entropy T*S    EENTRO =        -0.00358342
  eigenvalues    EBANDS =      -176.95242238
  atomic energy  EATOM  =      1218.89270049
  Solvation  Ediel_sol  =         0.00000000
  ---------------------------------------------------
  free energy    TOTEN  =       -11.38950753 eV

  energy without entropy =      -11.38592410  energy(sigma->0) =      -11.38771582


--------------------------------------------------------------------------------------------------------




--------------------------------------- Iteration      1(   4)  ---------------------------------------


     EDDAV:  cpu time      2.0452: real time      2.0471
       DOS:  cpu time      0.0005: real time      0.0006
    --------------------------------------------
      LOOP:  cpu time      2.0458: real time      2.0477

 eigenvalue-minimisations  :  5120
 total energy-change (2. order) :-0.1083547E-02  (-0.1083546E-02)
 number of electron      18.0000000 magnetization 
 augmentation part       18.0000000 magnetization 

 Free energy of the ion-electron system (eV)
  ---------------------------------------------------
  alpha Z        PSCENC =        20.76465177
  Ewald energy   TEWEN  =      -716.95557735
  -Hartree energ DENC   =      -319.54537865
  -exchange      EXHF   =         0.00000000
  -V(xc)+E(xc)   XCENC  =        39.63117676
  PAW double counting   =       859.59202053     -936.81309528
  entropy T*S    EENTRO =        -0.00358329
  eigenvalues    EBANDS =      -176.95350606
  atomic energy  EATOM  =      1218.89270049
  Solvation  Ediel_sol  =         0.00000000
  ---------------------------------------------------
  free energy    TOTEN  =       -11.39059108 eV

  energy without entropy =      -11.38700778  energy(sigma->0) =      -11.38879943


--------------------------------------------------------------------------------------------------------




--------------------------------------- Iteration      1(   5)  ---------------------------------------


     EDDAV:  cpu time      0.5369: real time      0.5373
       DOS:  cpu time      0.0004: real time      0.0004
    CHARGE:  cpu time      0.0088: real time      0.0089
    MIXING:  cpu time      0.0010: real time      0.0011
    --------------------------------------------
      LOOP:  cpu time      0.5471: real time      0.5477

 eigenvalue-minimisations  :  2560
 total energy-change (2. order) :-0.2737215E-07  (-0.2742947E-07)
 number of electron      18.0000044 magnetization 
 augmentation part        3.0641544 magnetization 

 Broyden mixing:
  rms(total) = 0.86676E+00    rms(broyden)= 0.86675E+00
  rms(prec ) = 0.10076E+01
  weight for this iteration     100.00

 Free energy of the ion-electron system (eV)
  ---------------------------------------------------
  alpha Z        PSCENC =        20.76465177
  Ewald energy   TEWEN  =      -716.95557735
  -Hartree energ DENC   =      -319.54537865
  -exchange      EXHF   =         0.00000000
  -V(xc)+E(xc)   XCENC  =        39.63117676
  PAW double counting   =       859.59202053     -936.81309528
  entropy T*S    EENTRO =        -0.00358329
  eigenvalues    EBANDS =      -176.95350609
  atomic energy  EATOM  =      1218.89270049
  Solvation  Ediel_sol  =         0.00000000
  ---------------------------------------------------
  free energy    TOTEN  =       -11.39059110 eV

  energy without entropy =      -11.38700781  energy(sigma->0) =      -11.38879946


--------------------------------------------------------------------------------------------------------




--------------------------------------- Iteration      1(   6)  ---------------------------------------


    POTLOK:  cpu time      0.0043: real time      0.0045
    SETDIJ:  cpu time      0.0011: real time      0.0011
     EDDAV:  cpu time      1.1847: real time      1.1856
       DOS:  cpu time      0.0004: real time      0.0006
    CHARGE:  cpu time      0.0078: real time      0.0079
    MIXING:  cpu time      0.0004: real time      0.0004
    --------------------------------------------
      LOOP:  cpu time      1.1987: real time      1.2000

 eigenvalue-minimisations  :  3936
 total energy-change (2. order) : 0.2466070E+00  (-0.9961542E-01)
 number of electron      18.0000044 magnetization 
 augmentation part        3.0961213 magnetization 

 Broyden mixing:
  rms(total) = 0.55142E+00    rms(broyden)= 0.55141E+00
  rms(prec ) = 0.59452E+00
  weight for this iteration     100.00

 eigenvalues of (default mixing * dielectric matrix)
  average eigenvalue GAMMA=   2.3999
  2.3999

 Free energy of the ion-electron system (eV)
  ---------------------------------------------------
  alpha Z        PSCENC =        20.76465177
  Ewald energy   TEWEN  =      -716.95557735
  -Hartree energ DENC   =      -322.30950697
  -exchange      EXHF   =         0.00000000
  -V(xc)+E(xc)   XCENC  =        39.96882674
  PAW double counting   =      1067.54702837    -1144.83557069
  entropy T*S    EENTRO =        -0.00265747
  eigenvalues    EBANDS =      -174.21387902
  atomic energy  EATOM  =      1218.89270049
  Solvation  Ediel_sol  =         0.00000000
  ---------------------------------------------------
  free energy    TOTEN  =       -11.14398412 eV

  energy without entropy =      -11.14132664  energy(sigma->0) =      -11.14265538


--------------------------------------------------------------------------------------------------------




--------------------------------------- Iteration      1(   7)  ---------------------------------------


    POTLOK:  cpu time      0.0041: real time      0.0042
    SETDIJ:  cpu time      0.0010: real time      0.0010
     EDDAV:  cpu time      1.3829: real time      1.3840
       DOS:  cpu time      0.0004: real time      0.0005
    CHARGE:  cpu time      0.0079: real time      0.0079
    MIXING:  cpu time      0.0002: real time      0.0002
    --------------------------------------------
      LOOP:  cpu time      1.3965: real time      1.3979

 eigenvalue-minimisations  :  4224
 total energy-change (2. order) : 0.3493079E-01  (-0.2335962E-01)
 number of electron      18.0000044 magnetization 
 augmentation part        3.1101274 magnetization 

 Broyden mixing:
  rms(total) = 0.16194E+00    rms(broyden)= 0.16194E+00
  rms(prec ) = 0.18469E+00
  weight for this iteration     100.00

 eigenvalues of (default mixing * dielectric matrix)
  average eigenvalue GAMMA=   1.6699
  0.9543  2.3856

 Free energy of the ion-electron system (eV)
  ---------------------------------------------------
  alpha Z        PSCENC =        20.76465177
  Ewald energy   TEWEN  =      -716.95557735
  -Hartree energ DENC   =      -323.22606968
  -exchange      EXHF   =         0.00000000
  -V(xc)+E(xc)   XCENC  =        40.22261271
  PAW double counting   =      1371.04861481    -1448.56187605
  entropy T*S    EENTRO =        -0.00248029
  eigenvalues    EBANDS =      -173.29162976
  atomic energy  EATOM  =      1218.89270049
  Solvation  Ediel_sol  =         0.00000000
  ---------------------------------------------------
  free energy    TOTEN  =       -11.10905333 eV

  energy without entropy =      -11.10657304  energy(sigma->0) =      -11.10781319


--------------------------------------------------------------------------------------------------------




--------------------------------------- Iteration      1(   8)  ---------------------------------------


    POTLOK:  cpu time      0.0041: real time      0.0042
    SETDIJ:  cpu time      0.0010: real time      0.0010
     EDDAV:  cpu time      1.3858: real time      1.3864
       DOS:  cpu time      0.0004: real time      0.0005
    CHARGE:  cpu time      0.0078: real time      0.0078
    MIXING:  cpu time      0.0002: real time      0.0002
    --------------------------------------------
      LOOP:  cpu time      1.3993: real time      1.4002

 eigenvalue-minimisations  :  4160
 total energy-change (2. order) : 0.4583812E-03  (-0.3102954E-02)
 number of electron      18.0000044 magnetization 
 augmentation part        3.1125852 magnetization 

 Broyden mixing:
  rms(total) = 0.30420E-01    rms(broyden)= 0.30420E-01
  rms(prec ) = 0.44285E-01
  weight for this iteration     100.00

 eigenvalues of (default mixing * dielectric matrix)
  average eigenvalue GAMMA=   1.5565
  2.4512  1.3814  0.8371

 Free energy of the ion-electron system (eV)
  ---------------------------------------------------
  alpha Z        PSCENC =        20.76465177
  Ewald energy   TEWEN  =      -716.95557735
  -Hartree energ DENC   =      -323.42743827
  -exchange      EXHF   =         0.00000000
  -V(xc)+E(xc)   XCENC  =        40.31386896
  PAW double counting   =      1514.04971322    -1591.71299575
  entropy T*S    EENTRO =        -0.00244108
  eigenvalues    EBANDS =      -173.03107694
  atomic energy  EATOM  =      1218.89270049
  Solvation  Ediel_sol  =         0.00000000
  ---------------------------------------------------
  free energy    TOTEN  =       -11.10859495 eV

  energy without entropy =      -11.10615387  energy(sigma->0) =      -11.10737441


--------------------------------------------------------------------------------------------------------




--------------------------------------- Iteration      1(   9)  ---------------------------------------


    POTLOK:  cpu time      0.0041: real time      0.0043
    SETDIJ:  cpu time      0.0010: real time      0.0010
     EDDAV:  cpu time      1.1006: real time      1.1015
       DOS:  cpu time      0.0004: real time      0.0005
    CHARGE:  cpu time      0.0084: real time      0.0084
    MIXING:  cpu time      0.0002: real time      0.0002
    --------------------------------------------
      LOOP:  cpu time      1.1148: real time      1.1160

 eigenvalue-minimisations  :  3552
 total energy-change (2. order) :-0.5015962E-03  (-0.4407462E-03)
 number of electron      18.0000044 magnetization 
 augmentation part        3.1101689 magnetization 

 Broyden mixing:
  rms(total) = 0.11143E-01    rms(broyden)= 0.11143E-01
  rms(prec ) = 0.16648E-01
  weight for this iteration     100.00

 eigenvalues of (default mixing * dielectric matrix)
  average eigenvalue GAMMA=   1.4352
  2.3269  1.5825  0.8535  0.9779

 Free energy of the ion-electron system (eV)
  ---------------------------------------------------
  alpha Z        PSCENC =        20.76465177
  Ewald energy   TEWEN  =      -716.95557735
  -Hartree energ DENC   =      -323.13749749
  -exchange      EXHF   =         0.00000000
  -V(xc)+E(xc)   XCENC  =        40.31376126
  PAW double counting   =      1540.41880961    -1618.13387425
  entropy T*S    EENTRO =        -0.00245331
  eigenvalues    EBANDS =      -173.26961729
  atomic energy  EATOM  =      1218.89270049
  Solvation  Ediel_sol  =         0.00000000
  ---------------------------------------------------
  free energy    TOTEN  =       -11.10909655 eV

  energy without entropy =      -11.10664324  energy(sigma->0) =      -11.10786989


--------------------------------------------------------------------------------------------------------




--------------------------------------- Iteration      1(  10)  ---------------------------------------


    POTLOK:  cpu time      0.0044: real time      0.0044
    SETDIJ:  cpu time      0.0010: real time      0.0010
     EDDAV:  cpu time      1.1001: real time      1.1007
       DOS:  cpu time      0.0004: real time      0.0005
    CHARGE:  cpu time      0.0079: real time      0.0079
    MIXING:  cpu time      0.0003: real time      0.0003
    --------------------------------------------
      LOOP:  cpu time      1.1142: real time      1.1148

 eigenvalue-minimisations  :  3680
 total energy-change (2. order) :-0.2995141E-03  (-0.3989837E-04)
 number of electron      18.0000044 magnetization 
 augmentation part        3.1098616 magnetization 

 Broyden mixing:
  rms(total) = 0.55816E-02    rms(broyden)= 0.55816E-02
  rms(prec ) = 0.90357E-02
  weight for this iteration     100.00

 eigenvalues of (default mixing * dielectric matrix)
  average eigenvalue GAMMA=   1.6266
  2.4383  2.4383  0.8267  1.0107  1.4190

 Free energy of the ion-electron system (eV)
  ---------------------------------------------------
  alpha Z        PSCENC =        20.76465177
  Ewald energy   TEWEN  =      -716.95557735
  -Hartree energ DENC   =      -323.06203293
  -exchange      EXHF   =         0.00000000
  -V(xc)+E(xc)   XCENC  =        40.31204521
  PAW double counting   =      1533.31628951    -1611.03456362
  entropy T*S    EENTRO =        -0.00244945
  eigenvalues    EBANDS =      -173.34045970
  atomic energy  EATOM  =      1218.89270049
  Solvation  Ediel_sol  =         0.00000000
  ---------------------------------------------------
  free energy    TOTEN  =       -11.10939606 eV

  energy without entropy =      -11.10694661  energy(sigma->0) =      -11.10817134


--------------------------------------------------------------------------------------------------------




--------------------------------------- Iteration      1(  11)  ---------------------------------------


    POTLOK:  cpu time      0.0042: real time      0.0044
    SETDIJ:  cpu time      0.0010: real time      0.0010
     EDDAV:  cpu time      0.9953: real time      0.9962
       DOS:  cpu time      0.0004: real time      0.0005
    CHARGE:  cpu time      0.0079: real time      0.0079
    MIXING:  cpu time      0.0003: real time      0.0003
    --------------------------------------------
      LOOP:  cpu time      1.0090: real time      1.0102

 eigenvalue-minimisations  :  3392
 total energy-change (2. order) :-0.1679660E-03  (-0.1907734E-04)
 number of electron      18.0000044 magnetization 
 augmentation part        3.1098981 magnetization 

 Broyden mixing:
  rms(total) = 0.16592E-02    rms(broyden)= 0.16592E-02
  rms(prec ) = 0.31531E-02
  weight for this iteration     100.00

 eigenvalues of (default mixing * dielectric matrix)
  average eigenvalue GAMMA=   1.6819
  3.0474  2.3492  1.6759  0.8237  0.9941  1.2007

 Free energy of the ion-electron system (eV)
  ---------------------------------------------------
  alpha Z        PSCENC =        20.76465177
  Ewald energy   TEWEN  =      -716.95557735
  -Hartree energ DENC   =      -323.02677138
  -exchange      EXHF   =         0.00000000
  -V(xc)+E(xc)   XCENC  =        40.31434823
  PAW double counting   =      1526.96243374    -1604.68903538
  entropy T*S    EENTRO =        -0.00244656
  eigenvalues    EBANDS =      -173.36986760
  atomic energy  EATOM  =      1218.89270049
  Solvation  Ediel_sol  =         0.00000000
  ---------------------------------------------------
  free energy    TOTEN  =       -11.10956403 eV

  energy without entropy =      -11.10711746  energy(sigma->0) =      -11.10834074


--------------------------------------------------------------------------------------------------------




--------------------------------------- Iteration      1(  12)  ---------------------------------------


    POTLOK:  cpu time      0.0041: real time      0.0046
    SETDIJ:  cpu time      0.0010: real time      0.0010
     EDDAV:  cpu time      1.1837: real time      1.1850
       DOS:  cpu time      0.0004: real time      0.0005
    CHARGE:  cpu time      0.0083: real time      0.0083
    MIXING:  cpu time      0.0003: real time      0.0003
    --------------------------------------------
      LOOP:  cpu time      1.1978: real time      1.1997

 eigenvalue-minimisations  :  3808
 total energy-change (2. order) :-0.2014892E-04  (-0.4163354E-05)
 number of electron      18.0000044 magnetization 
 augmentation part        3.1099816 magnetization 

 Broyden mixing:
  rms(total) = 0.80958E-03    rms(broyden)= 0.80957E-03
  rms(prec ) = 0.90358E-03
  weight for this iteration     100.00

 eigenvalues of (default mixing * dielectric matrix)
  average eigenvalue GAMMA=   1.6855
  3.0941  2.2573  2.1714  1.3677  0.8279  0.9453  1.1349

 Free energy of the ion-electron system (eV)
  ---------------------------------------------------
  alpha Z        PSCENC =        20.76465177
  Ewald energy   TEWEN  =      -716.95557735
  -Hartree energ DENC   =      -323.03078560
  -exchange      EXHF   =         0.00000000
  -V(xc)+E(xc)   XCENC  =        40.31785244
  PAW double counting   =      1527.98144510    -1605.71567699
  entropy T*S    EENTRO =        -0.00244631
  eigenvalues    EBANDS =      -173.36174773
  atomic energy  EATOM  =      1218.89270049
  Solvation  Ediel_sol  =         0.00000000
  ---------------------------------------------------
  free energy    TOTEN  =       -11.10958417 eV

  energy without entropy =      -11.10713786  energy(sigma->0) =      -11.10836102


--------------------------------------------------------------------------------------------------------




--------------------------------------- Iteration      1(  13)  ---------------------------------------


    POTLOK:  cpu time      0.0043: real time      0.0044
    SETDIJ:  cpu time      0.0011: real time      0.0011
     EDDAV:  cpu time      1.0249: real time      1.0267
       DOS:  cpu time      0.0004: real time      0.0005
    --------------------------------------------
      LOOP:  cpu time      1.0306: real time      1.0327

 eigenvalue-minimisations  :  3392
 total energy-change (2. order) :-0.1216517E-05  (-0.1348081E-06)
 number of electron      18.0000044 magnetization 
 augmentation part        3.1099816 magnetization 

 Free energy of the ion-electron system (eV)
  ---------------------------------------------------
  alpha Z        PSCENC =        20.76465177
  Ewald energy   TEWEN  =      -716.95557735
  -Hartree energ DENC   =      -323.03464862
  -exchange      EXHF   =         0.00000000
  -V(xc)+E(xc)   XCENC  =        40.31789265
  PAW double counting   =      1527.06307759    -1604.79745192
  entropy T*S    EENTRO =        -0.00244611
  eigenvalues    EBANDS =      -173.35778389
  atomic energy  EATOM  =      1218.89270049
  Solvation  Ediel_sol  =         0.00000000
  ---------------------------------------------------
  free energy    TOTEN  =       -11.10958539 eV

  energy without entropy =      -11.10713928  energy(sigma->0) =      -11.10836233


--------------------------------------------------------------------------------------------------------




 average (electrostatic) potential at core
  the test charge radii are     0.9254  0.9587  0.9698
  (the norm of the test charge is              1.0000)
       1 -47.7730       2 -86.7030       3 -89.5202



 E-fermi :   2.1108     XC(G=0):  -7.9832     alpha+bet : -7.7964

 Fermi energy:         2.1107773107

 k-point     1 :       0.0000    0.0000    0.0000
  band No.  band energies     occupation 
      1     -22.0000      2.00000
      2     -21.9734      2.00000
      3     -21.9250      2.00000
      4     -12.2094      2.00000
      5      -6.8003      2.00000
      6      -3.1141      2.00000
      7      -0.8206      2.00000
      8       1.1063      2.00000
      9       2.6587      0.00000
     10       4.9206      0.00000
     11       5.0982      0.00000
     12       6.7080      0.00000
     13       7.9193      0.00000
     14       8.5012      0.00000
     15       8.9394      0.00000
     16       9.1167      0.00000
     17      12.2730      0.00000
     18      12.3923      0.00000
     19      12.9814      0.00000
     20      14.6165      0.00000
     21      16.4781      0.00000
     22      17.0607      0.00000
     23      17.6485      0.00000
     24      17.7674      0.00000
     25      18.3804      0.00000
     26      19.1360      0.00000
     27      19.6755      0.00000
     28      19.7870      0.00000
     29      20.9266      0.00000
     30      21.8320      0.00000
     31      22.1004      0.00000
     32      22.3846      0.00000

 k-point     2 :       0.3333    0.0000    0.0000
  band No.  band energies     occupation 
      1     -22.0000      2.00000
      2     -21.9733      2.00000
      3     -21.9250      2.00000
      4     -12.1575      2.00000
      5      -7.2387      2.00000
      6      -2.0653      2.00000
      7      -0.7721      2.00000
      8       1.1454      2.00000
      9       2.4312      0.00000
     10       3.9541      0.00000
     11       4.7492      0.00000
     12       5.7003      0.00000
     13       7.1770      0.00000
     14       8.8094      0.00000
     15      10.2007      0.00000
     16      10.6952      0.00000
     17      12.6855      0.00000
     18      13.3204      0.00000
     19      13.5074      0.00000
     20      14.8432      0.00000
     21      15.3705      0.00000
     22      16.8001      0.00000
     23      16.8290      0.00000
     24      17.0415      0.00000
     25      17.8641      0.00000
     26      18.8036      0.00000
     27      19.1211      0.00000
     28      19.1423      0.00000
     29      20.6383      0.00000
     30      21.6308      0.00000
     31      22.8526      0.00000
     32      23.1519      0.00000

 k-point     3 :       0.0000    0.1667    0.0000
  band No.  band energies     occupation 
      1     -21.9998      2.00000
      2     -21.9765      2.00000
      3     -21.9242      2.00000
      4     -12.1605      2.00000
      5      -6.9098      2.00000
      6      -2.7152      2.00000
      7      -1.2108      2.00000
      8       1.1408      2.00000
      9       2.0467      1.93002
     10       4.8940      0.00000
     11       5.3332      0.00000
     12       6.1910      0.00000
     13       7.9828      0.00000
     14       8.7717      0.00000
     15       9.3067      0.00000
     16      10.3667      0.00000
     17      12.5418      0.00000
     18      12.6114      0.00000
     19      14.0229      0.00000
     20      14.0360      0.00000
     21      14.8436      0.00000
     22      16.4856      0.00000
     23      16.6016      0.00000
     24      17.8768      0.00000
     25      18.7527      0.00000
     26      19.1993      0.00000
     27      19.8741      0.00000
     28      20.1753      0.00000
     29      20.7447      0.00000
     30      21.3913      0.00000
     31      21.8090      0.00000
     32      22.7413      0.00000

 k-point     4 :       0.3333    0.1667    0.0000
  band No.  band energies     occupation 
      1     -21.9998      2.00000
      2     -21.9766      2.00000
      3     -21.9242      2.00000
      4     -12.1604      2.00000
      5      -6.9101      2.00000
      6      -2.7150      2.00000
      7      -1.2112      2.00000
      8       1.1408      2.00000
      9       2.0490      1.91951
     10       4.8940      0.00000
     11       5.3347      0.00000
     12       6.1899      0.00000
     13       7.9754      0.00000
     14       8.7708      0.00000
     15       9.2984      0.00000
     16      10.3778      0.00000
     17      12.5415      0.00000
     18      12.6113      0.00000
     19      14.0313      0.00000
     20      14.0354      0.00000
     21      14.8498      0.00000
     22      16.4912      0.00000
     23      16.6062      0.00000
     24      17.8788      0.00000
     25      18.7526      0.00000
     26      19.1744      0.00000
     27      19.8752      0.00000
     28      20.1661      0.00000
     29      20.7368      0.00000
     30      21.3903      0.00000
     31      21.8035      0.00000
     32      22.7415      0.00000

 k-point     5 :      -0.3333    0.1667    0.0000
  band No.  band energies     occupation 
      1     -21.9997      2.00000
      2     -21.9764      2.00000
      3     -21.9245      2.00000
      4     -12.1127      2.00000
      5      -7.2889      2.00000
      6      -1.6543      2.00000
      7      -1.1106      2.00000
      8       1.1810      2.00000
      9       1.6331      2.00000
     10       3.6213      0.00000
     11       4.7242      0.00000
     12       6.8208      0.00000
     13       7.2259      0.00000
     14       9.0351      0.00000
     15      10.5053      0.00000
     16      11.0728      0.00000
     17      11.7884      0.00000
     18      13.9272      0.00000
     19      14.3403      0.00000
     20      14.5606      0.00000
     21      15.5907      0.00000
     22      15.7288      0.00000
     23      16.5928      0.00000
     24      16.7649      0.00000
     25      17.0217      0.00000
     26      19.0603      0.00000
     27      19.5117      0.00000
     28      20.3312      0.00000
     29      20.6000      0.00000
     30      21.5254      0.00000
     31      21.9448      0.00000
     32      22.7284      0.00000

 k-point     6 :       0.0000    0.3333    0.0000
  band No.  band energies     occupation 
      1     -21.9995      2.00000
      2     -21.9828      2.00000
      3     -21.9229      2.00000
      4     -12.0703      2.00000
      5      -7.0304      2.00000
      6      -2.0083      2.00000
      7      -1.7261      2.00000
      8       0.8428      2.00000
      9       1.2122      2.00000
     10       4.6142      0.00000
     11       4.8430      0.00000
     12       6.8689      0.00000
     13       8.6405      0.00000
     14       9.5046      0.00000
     15      10.0427      0.00000
     16      11.1917      0.00000
     17      13.1725      0.00000
     18      13.1752      0.00000
     19      13.6099      0.00000
     20      13.7426      0.00000
     21      15.0445      0.00000
     22      15.1638      0.00000
     23      16.4525      0.00000
     24      17.7307      0.00000
     25      17.9630      0.00000
     26      18.3965      0.00000
     27      19.2508      0.00000
     28      19.8152      0.00000
     29      20.9942      0.00000
     30      21.6219      0.00000
     31      22.0332      0.00000
     32      22.6914      0.00000

 k-point     7 :       0.3333    0.3333    0.0000
  band No.  band energies     occupation 
      1     -21.9995      2.00000
      2     -21.9829      2.00000
      3     -21.9226      2.00000
      4     -12.1068      2.00000
      5      -6.6721      2.00000
      6      -2.8554      2.00000
      7      -1.9557      2.00000
      8       1.1716      2.00000
      9       1.4753      2.00000
     10       5.0192      0.00000
     11       5.3555      0.00000
     12       7.4038      0.00000
     13       8.3900      0.00000
     14       9.0310      0.00000
     15       9.5602      0.00000
     16      11.5643      0.00000
     17      12.4380      0.00000
     18      12.8725      0.00000
     19      13.0752      0.00000
     20      13.6096      0.00000
     21      14.7098      0.00000
     22      15.9183      0.00000
     23      16.6805      0.00000
     24      17.3432      0.00000
     25      18.2619      0.00000
     26      18.9713      0.00000
     27      19.3932      0.00000
     28      19.4363      0.00000
     29      21.4176      0.00000
     30      21.8347      0.00000
     31      21.8838      0.00000
     32      21.9726      0.00000

 k-point     8 :      -0.3333    0.3333    0.0000
  band No.  band energies     occupation 
      1     -21.9995      2.00000
      2     -21.9827      2.00000
      3     -21.9229      2.00000
      4     -12.0703      2.00000
      5      -7.0306      2.00000
      6      -2.0092      2.00000
      7      -1.7256      2.00000
      8       0.8450      2.00000
      9       1.2122      2.00000
     10       4.6140      0.00000
     11       4.8430      0.00000
     12       6.8657      0.00000
     13       8.6374      0.00000
     14       9.5012      0.00000
     15      10.0446      0.00000
     16      11.1945      0.00000
     17      13.1736      0.00000
     18      13.1750      0.00000
     19      13.6110      0.00000
     20      13.7514      0.00000
     21      15.0442      0.00000
     22      15.1667      0.00000
     23      16.4635      0.00000
     24      17.7291      0.00000
     25      17.9563      0.00000
     26      18.3775      0.00000
     27      19.2509      0.00000
     28      19.8168      0.00000
     29      20.9876      0.00000
     30      21.6329      0.00000
     31      22.0209      0.00000
     32      22.6996      0.00000

 k-point     9 :       0.0000    0.5000    0.0000
  band No.  band energies     occupation 
      1     -21.9993      2.00000
      2     -21.9858      2.00000
      3     -21.9222      2.00000
      4     -12.0297      2.00000
      5      -7.0501      2.00000
      6      -2.0398      2.00000
      7      -1.5201      2.00000
      8       0.2457      2.00000
      9       1.2492      2.00000
     10       4.2688      0.00000
     11       4.8184      0.00000
     12       7.4398      0.00000
     13       9.1073      0.00000
     14       9.1470      0.00000
     15      10.8820      0.00000
     16      11.0448      0.00000
     17      12.9757      0.00000
     18      13.4963      0.00000
     19      14.2119      0.00000
     20      14.4674      0.00000
     21      14.6072      0.00000
     22      14.8391      0.00000
     23      16.8745      0.00000
     24      17.3393      0.00000
     25      17.6095      0.00000
     26      17.7806      0.00000
     27      18.1809      0.00000
     28      19.9562      0.00000
     29      20.7763      0.00000
     30      20.9307      0.00000
     31      21.7332      0.00000
     32      22.2291      0.00000

 k-point    10 :       0.3333    0.5000    0.0000
  band No.  band energies     occupation 
      1     -21.9992      2.00000
      2     -21.9860      2.00000
      3     -21.9220      2.00000
      4     -12.0611      2.00000
      5      -6.7447      2.00000
      6      -2.4259      2.00000
      7      -2.2615      2.00000
      8       0.9167      2.00000
      9       1.2074      2.00000
     10       4.9930      0.00000
     11       5.5806      0.00000
     12       6.2743      0.00000
     13       8.8807      0.00000
     14      10.2565      0.00000
     15      10.4174      0.00000
     16      11.7494      0.00000
     17      12.7316      0.00000
     18      12.8534      0.00000
     19      12.9103      0.00000
     20      13.7828      0.00000
     21      14.8014      0.00000
     22      15.2945      0.00000
     23      16.7442      0.00000
     24      16.7871      0.00000
     25      17.5818      0.00000
     26      17.8943      0.00000
     27      19.6485      0.00000
     28      19.7164      0.00000
     29      20.0725      0.00000
     30      21.4741      0.00000
     31      22.1234      0.00000
     32      23.7289      0.00000

 k-point    11 :       0.0000    0.0000    0.1429
  band No.  band energies     occupation 
      1     -22.0118      2.00000
      2     -21.9720      2.00000
      3     -21.9234      2.00000
      4     -12.1045      2.00000
      5      -6.6582      2.00000
      6      -2.9889      2.00000
      7      -0.7161      2.00000
      8       0.2025      2.00000
      9       2.7727      0.00000
     10       3.8927      0.00000
     11       5.3946      0.00000
     12       6.7705      0.00000
     13       8.0035      0.00000
     14       9.1051      0.00000
     15       9.1582      0.00000
     16       9.8360      0.00000
     17      11.4824      0.00000
     18      12.7590      0.00000
[...]
     11       5.5577      0.00000
     12       6.5362      0.00000
     13       7.8453      0.00000
     14       8.2600      0.00000
     15       9.2407      0.00000
     16      11.4685      0.00000
     17      12.3865      0.00000
     18      12.8943      0.00000
     19      12.9776      0.00000
     20      13.7251      0.00000
     21      14.1560      0.00000
     22      15.3522      0.00000
     23      16.4893      0.00000
     24      17.0207      0.00000
     25      18.2482      0.00000
     26      19.4149      0.00000
     27      19.7819      0.00000
     28      20.0532      0.00000
     29      20.3603      0.00000
     30      21.3143      0.00000
     31      21.9888      0.00000
     32      22.3938      0.00000

 k-point    31 :       0.0000    0.0000    0.4286
  band No.  band energies     occupation 
      1     -22.2976      2.00000
      2     -22.2149      2.00000
      3     -22.1685      2.00000
      4     -11.9320      2.00000
      5      -6.2265      2.00000
      6      -2.6827      2.00000
      7      -2.3518      2.00000
      8      -0.5677      2.00000
      9       1.0254      2.00000
     10       3.0141      0.00000
     11       5.1707      0.00000
     12       7.2314      0.00000
     13       8.0553      0.00000
     14       8.9328      0.00000
     15       9.9417      0.00000
     16      10.0799      0.00000
     17      10.2054      0.00000
     18      10.7093      0.00000
     19      12.3824      0.00000
     20      12.6901      0.00000
     21      13.9397      0.00000
     22      14.6170      0.00000
     23      15.7322      0.00000
     24      16.7021      0.00000
     25      17.6943      0.00000
     26      18.4639      0.00000
     27      18.8050      0.00000
     28      20.0509      0.00000
     29      21.0264      0.00000
     30      22.2503      0.00000
     31      23.7091      0.00000
     32      23.9534      0.00000

 k-point    32 :       0.3333    0.0000    0.4286
  band No.  band energies     occupation 
      1     -22.2976      2.00000
      2     -22.2148      2.00000
      3     -22.1687      2.00000
      4     -11.8933      2.00000
      5      -6.5910      2.00000
      6      -2.4655      2.00000
      7      -1.5923      2.00000
      8      -0.5372      2.00000
      9       0.4866      2.00000
     10       2.8611      0.00000
     11       5.3479      0.00000
     12       6.6458      0.00000
     13       7.6868      0.00000
     14       9.3778      0.00000
     15       9.4040      0.00000
     16      10.2975      0.00000
     17      10.7346      0.00000
     18      10.9120      0.00000
     19      11.2657      0.00000
     20      13.6313      0.00000
     21      13.8895      0.00000
     22      15.0884      0.00000
     23      16.4192      0.00000
     24      17.0767      0.00000
     25      17.0947      0.00000
     26      17.6982      0.00000
     27      19.6067      0.00000
     28      20.5868      0.00000
     29      21.2683      0.00000
     30      22.0774      0.00000
     31      22.2787      0.00000
     32      23.4239      0.00000

 k-point    33 :       0.0000    0.1667    0.4286
  band No.  band energies     occupation 
      1     -22.2974      2.00000
      2     -22.2175      2.00000
      3     -22.1680      2.00000
      4     -11.8950      2.00000
      5      -6.3197      2.00000
      6      -2.5284      2.00000
      7      -2.0849      2.00000
      8      -0.8445      2.00000
      9       0.9064      2.00000
     10       2.5985      0.00000
     11       5.5498      0.00000
     12       6.9086      0.00000
     13       7.6155      0.00000
     14       8.4143      0.00000
     15       9.4106      0.00000
     16       9.8911      0.00000
     17      11.1844      0.00000
     18      11.9376      0.00000
     19      12.2347      0.00000
     20      13.2010      0.00000
     21      13.5697      0.00000
     22      15.9918      0.00000
     23      16.4628      0.00000
     24      16.7886      0.00000
     25      17.4396      0.00000
     26      18.2335      0.00000
     27      20.3314      0.00000
     28      20.4998      0.00000
     29      21.0346      0.00000
     30      21.5405      0.00000
     31      21.9474      0.00000
     32      22.6517      0.00000

 k-point    34 :       0.3333    0.1667    0.4286
  band No.  band energies     occupation 
      1     -22.2974      2.00000
      2     -22.2175      2.00000
      3     -22.1680      2.00000
      4     -11.8950      2.00000
      5      -6.3197      2.00000
      6      -2.5284      2.00000
      7      -2.0850      2.00000
      8      -0.8444      2.00000
      9       0.9064      2.00000
     10       2.5986      0.00000
     11       5.5494      0.00000
     12       6.9087      0.00000
     13       7.6164      0.00000
     14       8.4152      0.00000
     15       9.4104      0.00000
     16       9.8910      0.00000
     17      11.1834      0.00000
     18      11.9377      0.00000
     19      12.2365      0.00000
     20      13.1973      0.00000
     21      13.5660      0.00000
     22      15.9932      0.00000
     23      16.4648      0.00000
     24      16.7911      0.00000
     25      17.4408      0.00000
     26      18.2349      0.00000
     27      20.3314      0.00000
     28      20.4995      0.00000
     29      21.0340      0.00000
     30      21.5401      0.00000
     31      21.9477      0.00000
     32      22.6524      0.00000

 k-point    35 :      -0.3333    0.1667    0.4286
  band No.  band energies     occupation 
      1     -22.2975      2.00000
      2     -22.2174      2.00000
      3     -22.1682      2.00000
      4     -11.8596      2.00000
      5      -6.6390      2.00000
      6      -2.3587      2.00000
      7      -1.2795      2.00000
      8      -0.7849      2.00000
      9       0.4174      2.00000
     10       2.3601      0.00000
     11       4.9386      0.00000
     12       7.0602      0.00000
     13       7.7364      0.00000
     14       8.8105      0.00000
     15       9.5723      0.00000
     16       9.9853      0.00000
     17      10.3322      0.00000
     18      11.3032      0.00000
     19      12.7035      0.00000
     20      13.7253      0.00000
     21      14.5047      0.00000
     22      15.8751      0.00000
     23      16.4242      0.00000
     24      16.6131      0.00000
     25      17.3765      0.00000
     26      18.1887      0.00000
     27      19.7566      0.00000
     28      20.2492      0.00000
     29      20.5749      0.00000
     30      21.3946      0.00000
     31      22.5482      0.00000
     32      23.2890      0.00000

 k-point    36 :       0.0000    0.3333    0.4286
  band No.  band energies     occupation 
      1     -22.2971      2.00000
      2     -22.2225      2.00000
      3     -22.1670      2.00000
      4     -11.8274      2.00000
      5      -6.4322      2.00000
      6      -2.2949      2.00000
      7      -1.5209      2.00000
      8      -1.2732      2.00000
      9       0.7613      2.00000
     10       1.7410      2.00000
     11       5.6114      0.00000
     12       5.9242      0.00000
     13       7.2545      0.00000
     14       8.2738      0.00000
     15       9.4677      0.00000
     16      10.8650      0.00000
     17      11.6116      0.00000
     18      12.3172      0.00000
     19      13.2499      0.00000
     20      14.2672      0.00000
     21      14.8048      0.00000
     22      15.3837      0.00000
     23      17.0567      0.00000
     24      17.2535      0.00000
     25      17.6957      0.00000
     26      18.5172      0.00000
     27      19.7571      0.00000
     28      20.0268      0.00000
     29      20.4237      0.00000
     30      21.6700      0.00000
     31      22.3078      0.00000
     32      23.3037      0.00000

 k-point    37 :       0.3333    0.3333    0.4286
  band No.  band energies     occupation 
      1     -22.2971      2.00000
      2     -22.2226      2.00000
      3     -22.1668      2.00000
      4     -11.8546      2.00000
      5      -6.1310      2.00000
      6      -2.4872      2.00000
      7      -2.1736      2.00000
      8      -1.3980      2.00000
      9       1.2413      2.00000
     10       2.1272      0.00000
     11       5.1579      0.00000
     12       6.6167      0.00000
     13       7.9832      0.00000
     14       8.1481      0.00000
     15       9.1827      0.00000
     16      10.1560      0.00000
     17      10.7087      0.00000
     18      11.3609      0.00000
     19      13.6749      0.00000
     20      14.3875      0.00000
     21      16.1744      0.00000
     22      16.8210      0.00000
     23      17.1084      0.00000
     24      17.5359      0.00000
     25      18.2213      0.00000
     26      18.3525      0.00000
     27      19.1297      0.00000
     28      19.5110      0.00000
     29      20.6516      0.00000
     30      21.2642      0.00000
     31      22.0398      0.00000
     32      22.1895      0.00000

 k-point    38 :      -0.3333    0.3333    0.4286
  band No.  band energies     occupation 
      1     -22.2971      2.00000
      2     -22.2225      2.00000
      3     -22.1670      2.00000
      4     -11.8274      2.00000
      5      -6.4322      2.00000
      6      -2.2949      2.00000
      7      -1.5213      2.00000
      8      -1.2728      2.00000
      9       0.7612      2.00000
     10       1.7412      2.00000
     11       5.6112      0.00000
     12       5.9233      0.00000
     13       7.2559      0.00000
     14       8.2751      0.00000
     15       9.4676      0.00000
     16      10.8638      0.00000
     17      11.6100      0.00000
     18      12.3164      0.00000
     19      13.2476      0.00000
     20      14.2692      0.00000
     21      14.8060      0.00000
     22      15.3832      0.00000
     23      17.0593      0.00000
     24      17.2540      0.00000
     25      17.6947      0.00000
     26      18.5167      0.00000
     27      19.7586      0.00000
     28      20.0261      0.00000
     29      20.4244      0.00000
     30      21.6729      0.00000
     31      22.3080      0.00000
     32      23.3026      0.00000

 k-point    39 :       0.0000    0.5000    0.4286
  band No.  band energies     occupation 
      1     -22.2968      2.00000
      2     -22.2249      2.00000
      3     -22.1665      2.00000
      4     -11.7970      2.00000
      5      -6.4577      2.00000
      6      -2.1860      2.00000
      7      -1.4868      2.00000
      8      -1.1922      2.00000
      9       0.7325      2.00000
     10       1.2931      2.00000
     11       5.2992      0.00000
     12       5.9563      0.00000
     13       6.2059      0.00000
     14       9.6706      0.00000
     15      10.0369      0.00000
     16      10.2879      0.00000
     17      11.2833      0.00000
     18      13.6760      0.00000
     19      13.9190      0.00000
     20      14.3956      0.00000
     21      15.1712      0.00000
     22      15.8289      0.00000
     23      16.0554      0.00000
     24      16.5439      0.00000
     25      17.8996      0.00000
     26      18.1470      0.00000
     27      19.1670      0.00000
     28      20.5276      0.00000
     29      21.3582      0.00000
     30      22.3588      0.00000
     31      22.6897      0.00000
     32      22.8999      0.00000

 k-point    40 :       0.3333    0.5000    0.4286
  band No.  band energies     occupation 
      1     -22.2969      2.00000
      2     -22.2252      2.00000
      3     -22.1664      2.00000
      4     -11.8205      2.00000
      5      -6.1969      2.00000
      6      -2.3330      2.00000
      7      -1.8990      2.00000
      8      -1.6247      2.00000
      9       1.1633      2.00000
     10       1.7277      2.00000
     11       5.1064      0.00000
     12       6.8222      0.00000
     13       7.3177      0.00000
     14       7.7558      0.00000
     15       8.3088      0.00000
     16      11.1224      0.00000
     17      11.8974      0.00000
     18      13.2590      0.00000
     19      13.8058      0.00000
     20      14.4746      0.00000
     21      14.4797      0.00000
     22      16.6465      0.00000
     23      17.2131      0.00000
     24      17.5279      0.00000
     25      18.7760      0.00000
     26      18.9454      0.00000
     27      19.1252      0.00000
     28      20.2586      0.00000
     29      20.4753      0.00000
     30      21.0852      0.00000
     31      22.5369      0.00000
     32      22.6670      0.00000


--------------------------------------------------------------------------------------------------------


 soft charge-density along one line, spin component           1
         0         1         2         3         4         5         6         7         8         9
 total charge-density along one line

 pseudopotential strength for first ion, spin component:           1
-26.048   0.000  -0.010   2.902  -0.000   0.004  -0.000  -0.000
  0.000 -26.093   0.000  -0.000   2.920  -0.000   0.000   0.000
 -0.010   0.000 -26.034   0.004  -0.000   2.896   0.000   0.001
  2.902  -0.000   0.004   6.447  -0.000  -0.001   0.000   0.000
 -0.000   2.920  -0.000  -0.000   6.444  -0.000  -0.000   0.000
  0.004  -0.000   2.896  -0.001  -0.000   6.448  -0.000  -0.001
 -0.000   0.000   0.000   0.000  -0.000  -0.000   1.430   7.025
 -0.000   0.000   0.001   0.000   0.000  -0.001   7.025  34.221
 total augmentation occupancy for first ion, spin component:           1
  2.001   0.000   0.000  -0.002   0.000   0.001   0.000  -0.000
  0.000   2.001   0.000   0.000   0.004   0.000   0.000   0.000
  0.000   0.000   2.001   0.001   0.000  -0.004  -0.001   0.000
 -0.002   0.000   0.001   0.023   0.000  -0.002   0.002   0.000
  0.000   0.004   0.000   0.000   0.007   0.000   0.000   0.000
  0.001   0.000  -0.004  -0.002   0.000   0.027  -0.004  -0.000
  0.000   0.000  -0.001   0.002   0.000  -0.004   0.621  -0.001
 -0.000   0.000   0.000   0.000   0.000  -0.000  -0.001   0.000


------------------------ aborting loop because EDIFF is reached ----------------------------------------


    CHARGE:  cpu time      0.0079: real time      0.0079
    FORLOC:  cpu time      0.0002: real time      0.0002
    FORNL :  cpu time      0.0442: real time      0.0442
    STRESS:  cpu time      0.1335: real time      0.1336
    FORCOR:  cpu time      0.0035: real time      0.0035
    FORHAR:  cpu time      0.0010: real time      0.0010
    MIXING:  cpu time      0.0002: real time      0.0002
    OFIELD:  cpu time      0.0000: real time      0.0000

  FORCE on cell =-STRESS in cart. coord.  units (eV):
  Direction    XX          YY          ZZ          XY          YZ          ZX
  --------------------------------------------------------------------------------------
  Alpha Z    19.98409    19.98409    19.98409
  Ewald    -156.88173  -223.76117  -324.96190   -47.97378     0.00000    -0.00000
  Hartree   132.67006   122.78486    73.84621    -7.11286    -0.00000    -0.00000
  E(xc)     -75.26369   -75.50421   -75.49636    -0.17227     0.00000    -0.00000
  Local    -213.92306  -144.04617     3.29789    50.14849    -0.00000    -0.00000
  n-local   111.34299   107.40382   102.82853    -2.82522     0.13774     0.09259
  augment    14.38253    13.82562    13.19702    -0.39816    -0.00000     0.00000
  Kinetic   167.61238   179.30820   187.38975     8.38447    -0.83546    -0.21886
  Fock        0.00000     0.00000     0.00000     0.00000     0.00000     0.00000
  -------------------------------------------------------------------------------------
  Total      -0.07644    -0.00498     0.08523     0.05068     0.00000     0.00000
  in kB      -1.53171    -0.09974     1.70787     1.01566     0.00000     0.00000
  external pressure =        0.03 kB  Pullay stress =        0.00 kB


 VOLUME and BASIS-vectors are now :
 -----------------------------------------------------------------------------
  energy-cutoff  :      400.00
  volume of cell :       79.95
      direct lattice vectors                 reciprocal lattice vectors
     6.981533084  1.049129045  0.000000000     0.155398529 -0.080943303  0.000000000
     1.920285460  3.686648871  0.000000000    -0.044222576  0.294283510  0.000000000
     0.000000000  0.000000000  3.370188342     0.000000000  0.000000000  0.296719322

  length of vectors
     7.059920393  4.156786757  3.370188342     0.175215641  0.297587669  0.296719322


 FORCES acting on ions
    electron-ion (+dipol)            ewald-force                    non-local-force                 convergence-correction
 -----------------------------------------------------------------------------------------------
   0.203E+02 -.106E+02 0.240E-06   -.203E+02 0.106E+02 0.138E-14   -.284E-03 0.635E-02 -.202E-19   0.102E-02 -.556E-03 0.464E-13
   -.364E+02 0.190E+02 -.192E-05   0.396E+02 -.207E+02 0.820E-15   -.324E+01 0.169E+01 0.114E-17   -.118E-02 0.626E-03 0.161E-14
   0.174E+02 -.906E+01 0.848E-08   -.193E+02 0.101E+02 -.105E-14   0.192E+01 -.101E+01 -.231E-17   0.882E-03 -.468E-03 0.725E-14
 -----------------------------------------------------------------------------------------------
   0.132E+01 -.689E+00 -.167E-05   0.000E+00 0.000E+00 0.115E-14   -.132E+01 0.692E+00 -.119E-17   0.719E-03 -.398E-03 0.553E-13


 POSITION                                       TOTAL-FORCE (eV/Angst)
 -----------------------------------------------------------------------------------
      5.52618      1.09471     -0.00000        -0.004715      0.006565      0.000000
      4.72972      3.85369      0.00000         0.013096     -0.004056     -0.000000
      1.06746      1.07564     -0.00000        -0.008380     -0.002509      0.000000
 -----------------------------------------------------------------------------------
    total drift:                                0.002323      0.002464     -0.000002


--------------------------------------------------------------------------------------------------------



  FREE ENERGIE OF THE ION-ELECTRON SYSTEM (eV)
  ---------------------------------------------------
  free  energy   TOTEN  =       -11.12000154 eV

  energy  without entropy=      -11.11746177  energy(sigma->0) =      -11.11873165

 d Force = 0.3651370E-04[ 0.163E-04, 0.567E-04]  d Energy = 0.2233347E-02-0.220E-02
 d Force = 0.5223905E-01[ 0.517E-01, 0.528E-01]  d Ewald  =-0.4853816E+01 0.491E+01


--------------------------------------------------------------------------------------------------------


    POTLOK:  cpu time      0.0050: real time      0.0050


--------------------------------------------------------------------------------------------------------




--------------------------------------------------------------------------------------------------------


  
 reached required accuracy - stopping structural energy minimisation
     LOOP+:  cpu time      6.5685: real time      6.6184
    4ORBIT:  cpu time      0.0000: real time      0.0000

 total amount of memory used by VASP MPI-rank0    32191. kBytes
=======================================================================

   base      :      30000. kBytes
   nonlr-proj:        322. kBytes
   fftplans  :        189. kBytes
   grid      :        729. kBytes
   one-center:          9. kBytes
   wavefun   :        942. kBytes

  
  
 General timing and accounting informations for this job:
 ========================================================
  
                  Total CPU time used (sec):       43.948
                            User time (sec):       42.485
                          System time (sec):        1.462
                         Elapsed time (sec):       44.514
  
                   Maximum memory used (kb):      119648.
                   Average memory used (kb):          N/A
  
                          Minor page faults:        26315
                          Major page faults:          151
                 Voluntary context switches:         1247
