  79  79   0   0
  0.2352942E+02  0.1210264E-08  0.7093817E-09  0.2165102E-08  0.5000000E-15
   1.0000000000000000E-004
  CAR 
 endpoint_relax                          
      9.34990748    -23.89232342  301      0.87932353      1.00000000
    -23.892  0.0000E+00  0.0000E+00
    -23.782  0.0000E+00  0.0000E+00
    -23.671  0.0000E+00  0.0000E+00
    -23.560 -0.2010E-30 -0.2227E-31
    -23.449 -0.1523E-26 -0.1688E-27
    -23.338 -0.6136E-23 -0.6800E-24
    -23.227 -0.1338E-19 -0.1483E-20
    -23.117 -0.1578E-16 -0.1750E-17
    -23.006 -0.9747E-14 -0.1082E-14
    -22.895 -0.3335E-11 -0.3706E-12
    -22.784 -0.6140E-09 -0.6841E-10
    -22.673 -0.6064E-07 -0.6788E-08
    -22.563 -0.3193E-05 -0.3606E-06
    -22.452 -0.8875E-04 -0.1019E-04
    -22.341 -0.1277E-02 -0.1517E-03
    -22.230 -0.9126E-02 -0.1163E-02
    -22.119 -0.2869E-01 -0.4342E-02
    -22.009 -0.1283E-01 -0.5764E-02
    -21.898  0.1760E+00  0.1374E-01
    -21.787  0.7184E+00  0.9334E-01
    -21.676  0.1615E+01  0.2723E+00
    -21.565  0.2126E+01  0.5079E+00
    -21.455  0.1620E+01  0.6874E+00
    -21.344  0.7314E+00  0.7684E+00
    -21.233  0.1654E+00  0.7868E+00
    -21.122 -0.2273E-01  0.7842E+00
    -21.011 -0.2871E-01  0.7811E+00
    -20.901 -0.8308E-02  0.7801E+00
    -20.790 -0.1141E-02  0.7800E+00
    -20.679 -0.8159E-04  0.7800E+00
    -20.568 -0.3114E-05  0.7800E+00
    -20.457 -0.6397E-07  0.7800E+00
    -20.346 -0.7098E-09  0.7800E+00
    -20.236 -0.4260E-11  0.7800E+00
    -20.125 -0.1385E-13  0.7800E+00
    -20.014 -0.1336E-16  0.7800E+00
    -19.903  0.0000E+00  0.7800E+00
    -19.792  0.0000E+00  0.7800E+00
    -19.682  0.0000E+00  0.7800E+00
    -19.571  0.0000E+00  0.7800E+00
    -19.460  0.0000E+00  0.7800E+00
    -19.349  0.0000E+00  0.7800E+00
    -19.238  0.0000E+00  0.7800E+00
    -19.128  0.0000E+00  0.7800E+00
    -19.017  0.0000E+00  0.7800E+00
    -18.906  0.0000E+00  0.7800E+00
    -18.795  0.0000E+00  0.7800E+00
    -18.684  0.0000E+00  0.7800E+00
    -18.574  0.0000E+00  0.7800E+00
    -18.463  0.0000E+00  0.7800E+00
    -18.352  0.0000E+00  0.7800E+00
    -18.241  0.0000E+00  0.7800E+00
    -18.130  0.0000E+00  0.7800E+00
    -18.020  0.0000E+00  0.7800E+00
    -17.909  0.0000E+00  0.7800E+00
    -17.798  0.0000E+00  0.7800E+00
    -17.687  0.0000E+00  0.7800E+00
    -17.576  0.0000E+00  0.7800E+00
    -17.465  0.0000E+00  0.7800E+00
    -17.355  0.0000E+00  0.7800E+00
    -17.244  0.0000E+00  0.7800E+00
    -17.133  0.0000E+00  0.7800E+00
    -17.022  0.0000E+00  0.7800E+00
    -16.911  0.0000E+00  0.7800E+00
    -16.801  0.0000E+00  0.7800E+00
    -16.690  0.0000E+00  0.7800E+00
    -16.579  0.0000E+00  0.7800E+00
    -16.468  0.0000E+00  0.7800E+00
    -16.357  0.0000E+00  0.7800E+00
    -16.247  0.0000E+00  0.7800E+00
    -16.136  0.0000E+00  0.7800E+00
    -16.025  0.0000E+00  0.7800E+00
    -15.914  0.0000E+00  0.7800E+00
    -15.803  0.0000E+00  0.7800E+00
    -15.693  0.0000E+00  0.7800E+00
    -15.582  0.0000E+00  0.7800E+00
    -15.471  0.0000E+00  0.7800E+00
    -15.360  0.0000E+00  0.7800E+00
    -15.249  0.0000E+00  0.7800E+00
    -15.139  0.0000E+00  0.7800E+00
    -15.028  0.0000E+00  0.7800E+00
    -14.917  0.0000E+00  0.7800E+00
    -14.806  0.0000E+00  0.7800E+00
    -14.695  0.0000E+00  0.7800E+00
    -14.584  0.0000E+00  0.7800E+00
    -14.474  0.0000E+00  0.7800E+00
    -14.363  0.0000E+00  0.7800E+00
    -14.252  0.0000E+00  0.7800E+00
    -14.141  0.0000E+00  0.7800E+00
    -14.030  0.0000E+00  0.7800E+00
    -13.920  0.0000E+00  0.7800E+00
    -13.809  0.0000E+00  0.7800E+00
    -13.698  0.0000E+00  0.7800E+00
    -13.587  0.0000E+00  0.7800E+00
    -13.476  0.0000E+00  0.7800E+00
    -13.366  0.0000E+00  0.7800E+00
    -13.255  0.0000E+00  0.7800E+00
    -13.144  0.0000E+00  0.7800E+00
    -13.033  0.0000E+00  0.7800E+00
    -12.922  0.0000E+00  0.7800E+00
    -12.812  0.0000E+00  0.7800E+00
    -12.701  0.0000E+00  0.7800E+00
    -12.590  0.0000E+00  0.7800E+00
    -12.479  0.0000E+00  0.7800E+00
    -12.368  0.0000E+00  0.7800E+00
    -12.258 -0.9654E-32  0.7800E+00
    -12.147 -0.8106E-28  0.7800E+00
    -12.036 -0.3614E-24  0.7800E+00
    -11.925 -0.8695E-21  0.7800E+00
    -11.814 -0.1129E-17  0.7800E+00
    -11.704 -0.7678E-15  0.7800E+00
    -11.593 -0.2883E-12  0.7800E+00
    -11.482 -0.5830E-10  0.7800E+00
    -11.371 -0.6336E-08  0.7800E+00
    -11.260 -0.3688E-06  0.7800E+00
    -11.149 -0.1141E-04  0.7800E+00
    -11.039 -0.1844E-03  0.7800E+00
    -10.928 -0.1493E-02  0.7798E+00
    -10.817 -0.5228E-02  0.7792E+00
    -10.706 -0.9035E-03  0.7791E+00
    -10.595  0.4441E-01  0.7841E+00
    -10.485  0.1302E+00  0.7985E+00
    -10.374  0.1729E+00  0.8176E+00
    -10.263  0.1164E+00  0.8305E+00
    -10.152  0.2604E-01  0.8334E+00
    -10.041 -0.1705E-01  0.8315E+00
     -9.931  0.2318E-01  0.8341E+00
     -9.820  0.1885E+00  0.8550E+00
     -9.709  0.4234E+00  0.9019E+00
     -9.598  0.4959E+00  0.9569E+00
     -9.487  0.2966E+00  0.9897E+00
     -9.377  0.6277E-01  0.9967E+00
     -9.266 -0.1680E-01  0.9948E+00
     -9.155 -0.1110E-01  0.9936E+00
     -9.044 -0.2168E-02  0.9934E+00
     -8.933 -0.2001E-03  0.9933E+00
     -8.823 -0.9526E-05  0.9933E+00
     -8.712 -0.2412E-06  0.9933E+00
     -8.601 -0.3287E-08  0.9933E+00
     -8.490 -0.2425E-10  0.9933E+00
     -8.379 -0.9708E-13  0.9933E+00
     -8.268 -0.1870E-15  0.9933E+00
     -8.158  0.0000E+00  0.9933E+00
     -8.047  0.0000E+00  0.9933E+00
     -7.936  0.0000E+00  0.9933E+00
     -7.825  0.0000E+00  0.9933E+00
     -7.714  0.0000E+00  0.9933E+00
     -7.604  0.0000E+00  0.9933E+00
     -7.493  0.0000E+00  0.9933E+00
     -7.382  0.0000E+00  0.9933E+00
     -7.271  0.0000E+00  0.9933E+00
     -7.160  0.0000E+00  0.9933E+00
     -7.050  0.0000E+00  0.9933E+00
     -6.939  0.0000E+00  0.9933E+00
     -6.828  0.0000E+00  0.9933E+00
     -6.717  0.0000E+00  0.9933E+00
     -6.606  0.0000E+00  0.9933E+00
     -6.496  0.0000E+00  0.9933E+00
     -6.385  0.0000E+00  0.9933E+00
     -6.274  0.0000E+00  0.9933E+00
     -6.163  0.0000E+00  0.9933E+00
     -6.052  0.0000E+00  0.9933E+00
     -5.942  0.0000E+00  0.9933E+00
     -5.831  0.0000E+00  0.9933E+00
     -5.720  0.0000E+00  0.9933E+00
     -5.609  0.0000E+00  0.9933E+00
     -5.498  0.0000E+00  0.9933E+00
     -5.387  0.0000E+00  0.9933E+00
     -5.277  0.0000E+00  0.9933E+00
     -5.166  0.0000E+00  0.9933E+00
     -5.055  0.0000E+00  0.9933E+00
     -4.944 -0.8166E-31  0.9933E+00
     -4.833 -0.5830E-27  0.9933E+00
     -4.723 -0.2238E-23  0.9933E+00
     -4.612 -0.4628E-20  0.9933E+00
     -4.501 -0.5151E-17  0.9933E+00
     -4.390 -0.2987E-14  0.9933E+00
     -4.279 -0.9542E-12  0.9933E+00
     -4.169 -0.1634E-09  0.9933E+00
     -4.058 -0.1496E-07  0.9933E+00
     -3.947 -0.7304E-06  0.9933E+00
     -3.836 -0.1889E-04  0.9933E+00
     -3.725 -0.2549E-03  0.9933E+00
     -3.615 -0.1721E-02  0.9931E+00
     -3.504 -0.4865E-02  0.9926E+00
     -3.393  0.2138E-02  0.9928E+00
     -3.282  0.4820E-01  0.9982E+00
     -3.171  0.1277E+00  0.1012E+01
     -3.061  0.1642E+00  0.1030E+01
     -2.950  0.1138E+00  0.1043E+01
     -2.839  0.3788E-01  0.1047E+01
     -2.728  0.1782E-03  0.1047E+01
     -2.617 -0.4270E-02  0.1047E+01
     -2.506 -0.1402E-02  0.1047E+01
     -2.396 -0.2011E-03  0.1047E+01
     -2.285 -0.3727E-04  0.1047E+01
     -2.174 -0.3425E-03  0.1047E+01
     -2.063 -0.2597E-02  0.1046E+01
     -1.952 -0.8656E-02  0.1045E+01
     -1.842 -0.1107E-02  0.1045E+01
     -1.731  0.7217E-01  0.1053E+01
     -1.620  0.2117E+00  0.1077E+01
     -1.509  0.3057E+00  0.1111E+01
     -1.398  0.2987E+00  0.1144E+01
     -1.288  0.2575E+00  0.1172E+01
     -1.177  0.2008E+00  0.1194E+01
     -1.066  0.1014E+00  0.1206E+01
     -0.955  0.1095E-01  0.1207E+01
     -0.844 -0.1241E-01  0.1206E+01
     -0.734  0.5408E-01  0.1212E+01
     -0.623  0.1842E+00  0.1232E+01
     -0.512  0.2534E+00  0.1260E+01
     -0.401  0.2331E+00  0.1286E+01
     -0.290  0.2154E+00  0.1310E+01
     -0.180  0.2326E+00  0.1335E+01
     -0.069  0.2614E+00  0.1364E+01
      0.042  0.2562E+00  0.1393E+01
      0.153  0.2412E+00  0.1420E+01
      0.264  0.2687E+00  0.1449E+01
      0.375  0.3185E+00  0.1485E+01
      0.485  0.3708E+00  0.1526E+01
      0.596  0.3803E+00  0.1568E+01
      0.707  0.3089E+00  0.1602E+01
      0.818  0.1937E+00  0.1624E+01
      0.929  0.8347E-01  0.1633E+01
      1.039  0.1469E-01  0.1634E+01
      1.150 -0.5513E-02  0.1634E+01
      1.261 -0.3656E-02  0.1633E+01
      1.372 -0.8049E-03  0.1633E+01
      1.483 -0.8522E-04  0.1633E+01
      1.593 -0.4643E-05  0.1633E+01
      1.704 -0.1331E-06  0.1633E+01
      1.815 -0.2028E-08  0.1633E+01
      1.926 -0.1649E-10  0.1633E+01
      2.037 -0.7182E-13  0.1633E+01
      2.147 -0.1737E-15  0.1633E+01
      2.258 -0.7112E-19  0.1633E+01
      2.369 -0.5887E-16  0.1633E+01
      2.480 -0.2819E-13  0.1633E+01
      2.591 -0.7013E-11  0.1633E+01
      2.701 -0.9270E-09  0.1633E+01
      2.812 -0.6461E-07  0.1633E+01
      2.923 -0.2343E-05  0.1633E+01
      3.034 -0.4306E-04  0.1633E+01
      3.145 -0.3774E-03  0.1633E+01
      3.255 -0.1280E-02  0.1633E+01
      3.366  0.7148E-03  0.1633E+01
      3.477  0.1330E-01  0.1635E+01
      3.588  0.2662E-01  0.1638E+01
      3.699  0.1944E-01  0.1640E+01
      3.810  0.3860E-02  0.1640E+01
      3.920 -0.1692E-02  0.1640E+01
      4.031 -0.2467E-02  0.1640E+01
      4.142 -0.1728E-02  0.1640E+01
      4.253  0.1408E-01  0.1641E+01
      4.364  0.4488E-01  0.1646E+01
      4.474  0.4889E-01  0.1652E+01
      4.585  0.1913E-01  0.1654E+01
      4.696 -0.2190E-02  0.1653E+01
      4.807 -0.5516E-02  0.1653E+01
      4.918  0.8312E-02  0.1654E+01
      5.028  0.4561E-01  0.1659E+01
      5.139  0.7261E-01  0.1667E+01
      5.250  0.7550E-01  0.1675E+01
      5.361  0.9674E-01  0.1686E+01
      5.472  0.1333E+00  0.1701E+01
      5.582  0.1650E+00  0.1719E+01
      5.693  0.1953E+00  0.1741E+01
      5.804  0.2083E+00  0.1764E+01
      5.915  0.1760E+00  0.1783E+01
      6.026  0.1282E+00  0.1797E+01
      6.136  0.1270E+00  0.1811E+01
      6.247  0.1472E+00  0.1828E+01
      6.358  0.1435E+00  0.1844E+01
      6.469  0.1487E+00  0.1860E+01
      6.580  0.1813E+00  0.1880E+01
      6.691  0.1929E+00  0.1902E+01
      6.801  0.1788E+00  0.1921E+01
      6.912  0.1944E+00  0.1943E+01
      7.023  0.2209E+00  0.1967E+01
      7.134  0.2100E+00  0.1991E+01
      7.245  0.1705E+00  0.2010E+01
      7.355  0.1128E+00  0.2022E+01
      7.466  0.4499E-01  0.2027E+01
      7.577  0.2918E-02  0.2027E+01
      7.688 -0.4739E-02  0.2027E+01
      7.799 -0.1773E-02  0.2027E+01
      7.909 -0.2678E-03  0.2027E+01
      8.020 -0.2000E-04  0.2027E+01
      8.131 -0.7764E-06  0.2027E+01
      8.242 -0.1596E-07  0.2027E+01
      8.353 -0.1749E-09  0.2027E+01
      8.463 -0.1026E-11  0.2027E+01
      8.574 -0.3233E-14  0.2027E+01
      8.685  0.0000E+00  0.2027E+01
      8.796  0.0000E+00  0.2027E+01
      8.907  0.0000E+00  0.2027E+01
      9.017  0.0000E+00  0.2027E+01
      9.128  0.0000E+00  0.2027E+01
      9.239  0.0000E+00  0.2027E+01
      9.350  0.0000E+00  0.2027E+01
