       N       E                     dE             d eps       ncg     rms          rms(c)
DAV:   1     0.459636028087E+04    0.45964E+04   -0.19991E+05   672   0.136E+03
DAV:   2     0.320254385647E+03   -0.42761E+04   -0.40948E+04   656   0.387E+02
DAV:   3    -0.288028032856E+03   -0.60828E+03   -0.60122E+03   720   0.160E+02
DAV:   4    -0.321738355270E+03   -0.33710E+02   -0.33444E+02   704   0.355E+01
DAV:   5    -0.323118186437E+03   -0.13798E+01   -0.13777E+01   864   0.745E+00    0.267E+01
RMM:   6    -0.305366093740E+03    0.17752E+02   -0.29677E+01   647   0.562E+00    0.179E+01
RMM:   7    -0.304402757449E+03    0.96334E+00   -0.33250E+01   623   0.508E+00    0.109E+01
RMM:   8    -0.304175032718E+03    0.22772E+00   -0.26417E+00   739   0.271E+00    0.597E+00
RMM:   9    -0.304101855085E+03    0.73178E-01   -0.16154E+00   664   0.158E+00    0.259E+00
RMM:  10    -0.303954968827E+03    0.14689E+00   -0.39681E-01   768   0.951E-01    0.187E+00
RMM:  11    -0.303889053116E+03    0.65916E-01   -0.80806E-02   746   0.385E-01    0.125E+00
RMM:  12    -0.303888232807E+03    0.82031E-03   -0.42213E-02   727   0.232E-01    0.822E-01
RMM:  13    -0.303895997027E+03   -0.77642E-02   -0.51893E-02   705   0.234E-01    0.101E+00
RMM:  14    -0.303891590124E+03    0.44069E-02   -0.19578E-02   679   0.173E-01    0.456E-01
RMM:  15    -0.303887211127E+03    0.43790E-02   -0.63747E-03   709   0.104E-01    0.273E-01
RMM:  16    -0.303888187799E+03   -0.97667E-03   -0.21213E-03   680   0.703E-02    0.183E-01
RMM:  17    -0.303888301032E+03   -0.11323E-03   -0.16743E-03   625   0.590E-02    0.127E-01
RMM:  18    -0.303888144892E+03    0.15614E-03   -0.36412E-04   692   0.301E-02    0.451E-02
RMM:  19    -0.303888170425E+03   -0.25533E-04   -0.85354E-05   556   0.160E-02    0.443E-02
RMM:  20    -0.303888176225E+03   -0.57996E-05   -0.44629E-05   510   0.115E-02
   1 F= -.30388818E+03 E0= -.30393017E+03  d E =-.303888E+03
       N       E                     dE             d eps       ncg     rms          rms(c)
DAV:   1    -0.303917240622E+03   -0.29070E-01   -0.46667E+00   704   0.311E+00    0.106E+00
RMM:   2    -0.303930139701E+03   -0.12899E-01   -0.14218E-01   750   0.722E-01    0.179E-01
RMM:   3    -0.303932731270E+03   -0.25916E-02   -0.30634E-02   720   0.340E-01    0.340E-01
RMM:   4    -0.303932226457E+03    0.50481E-03   -0.56371E-03   834   0.145E-01    0.260E-01
RMM:   5    -0.303932014613E+03    0.21184E-03   -0.57744E-04   640   0.366E-02    0.224E-01
RMM:   6    -0.303931919842E+03    0.94771E-04   -0.12894E-04   599   0.175E-02    0.199E-01
RMM:   7    -0.303931868326E+03    0.51516E-04   -0.23109E-04   534   0.164E-02    0.146E-01
RMM:   8    -0.303931757131E+03    0.11119E-03   -0.79588E-04   691   0.251E-02    0.596E-02
RMM:   9    -0.303931713017E+03    0.44114E-04   -0.13258E-04   644   0.137E-02    0.331E-02
RMM:  10    -0.303931705794E+03    0.72234E-05   -0.95198E-06   374   0.536E-03
   2 F= -.30393171E+03 E0= -.30397413E+03  d E =-.435296E-01
       N       E                     dE             d eps       ncg     rms          rms(c)
DAV:   1    -0.303923946528E+03    0.77665E-02   -0.10881E+01   640   0.480E+00    0.166E+00
RMM:   2    -0.303951633300E+03   -0.27687E-01   -0.31124E-01   736   0.111E+00    0.274E-01
RMM:   3    -0.303958914758E+03   -0.72815E-02   -0.81408E-02   739   0.553E-01    0.569E-01
RMM:   4    -0.303957827474E+03    0.10873E-02   -0.10413E-02   806   0.212E-01    0.444E-01
RMM:   5    -0.303957659730E+03    0.16774E-03   -0.13871E-03   716   0.566E-02    0.430E-01
RMM:   6    -0.303957852973E+03   -0.19324E-03   -0.19936E-04   619   0.219E-02    0.460E-01
RMM:   7    -0.303957342566E+03    0.51041E-03   -0.81319E-04   559   0.279E-02    0.327E-01
RMM:   8    -0.303956729300E+03    0.61327E-03   -0.59255E-03   802   0.655E-02    0.104E-01
RMM:   9    -0.303956692880E+03    0.36420E-04   -0.14785E-04   599   0.243E-02    0.944E-02
RMM:  10    -0.303956617853E+03    0.75027E-04   -0.60552E-05   504   0.120E-02    0.666E-02
RMM:  11    -0.303956582980E+03    0.34873E-04   -0.64804E-04   689   0.226E-02    0.281E-02
RMM:  12    -0.303956564478E+03    0.18502E-04   -0.42406E-05   523   0.928E-03    0.188E-02
RMM:  13    -0.303956565575E+03   -0.10971E-05   -0.31347E-05   463   0.539E-03
   3 F= -.30395657E+03 E0= -.30399952E+03  d E =-.683894E-01
       N       E                     dE             d eps       ncg     rms          rms(c)
DAV:   1    -0.303975504895E+03   -0.18940E-01   -0.63540E+00   688   0.351E+00    0.633E-01
RMM:   2    -0.303987551912E+03   -0.12047E-01   -0.12957E-01   772   0.721E-01    0.168E-01
RMM:   3    -0.303990343283E+03   -0.27914E-02   -0.29374E-02   735   0.334E-01    0.230E-01
RMM:   4    -0.303990412356E+03   -0.69074E-04   -0.43635E-03   844   0.139E-01    0.194E-01
RMM:   5    -0.303990298941E+03    0.11341E-03   -0.39744E-04   624   0.329E-02    0.171E-01
RMM:   6    -0.303990149868E+03    0.14907E-03   -0.25253E-04   515   0.208E-02    0.121E-01
RMM:   7    -0.303990143246E+03    0.66229E-05   -0.88170E-04   678   0.291E-02    0.381E-02
RMM:   8    -0.303990140604E+03    0.26419E-05   -0.39930E-05   585   0.134E-02
   4 F= -.30399014E+03 E0= -.30403304E+03  d E =-.335750E-01
       N       E                     dE             d eps       ncg     rms          rms(c)
DAV:   1    -0.303902137616E+03    0.88006E-01   -0.57731E+01   656   0.107E+01    0.219E+00
RMM:   2    -0.304020148394E+03   -0.11801E+00   -0.12854E+00   769   0.220E+00    0.467E-01
RMM:   3    -0.304048886736E+03   -0.28738E-01   -0.31560E-01   755   0.110E+00    0.676E-01
RMM:   4    -0.304050745605E+03   -0.18589E-02   -0.36662E-02   817   0.415E-01    0.583E-01
RMM:   5    -0.304049312228E+03    0.14334E-02   -0.44176E-03   669   0.114E-01    0.434E-01
RMM:   6    -0.304048876004E+03    0.43622E-03   -0.35682E-03   649   0.760E-02    0.264E-01
RMM:   7    -0.304048910995E+03   -0.34992E-04   -0.20037E-03   755   0.581E-02    0.152E-01
RMM:   8    -0.304048856550E+03    0.54445E-04   -0.26625E-04   586   0.282E-02    0.750E-02
RMM:   9    -0.304048804148E+03    0.52403E-04   -0.18910E-04   545   0.204E-02    0.488E-02
RMM:  10    -0.304048760076E+03    0.44072E-04   -0.17123E-04   619   0.168E-02    0.225E-02
RMM:  11    -0.304048761779E+03   -0.17028E-05   -0.20400E-05   459   0.844E-03
   5 F= -.30404876E+03 E0= -.30409129E+03  d E =-.921962E-01
       N       E                     dE             d eps       ncg     rms          rms(c)
DAV:   1    -0.304033626015E+03    0.15134E-01   -0.87305E+00   688   0.411E+00    0.753E-01
RMM:   2    -0.304050194817E+03   -0.16569E-01   -0.17972E-01   769   0.844E-01    0.182E-01
RMM:   3    -0.304053944901E+03   -0.37501E-02   -0.40391E-02   743   0.392E-01    0.244E-01
RMM:   4    -0.304054241140E+03   -0.29624E-03   -0.53176E-03   829   0.157E-01    0.209E-01
RMM:   5    -0.304054062841E+03    0.17830E-03   -0.53246E-04   617   0.391E-02    0.170E-01
RMM:   6    -0.304053902069E+03    0.16077E-03   -0.47667E-04   530   0.279E-02    0.105E-01
RMM:   7    -0.304053917742E+03   -0.15673E-04   -0.61289E-04   649   0.277E-02    0.418E-02
RMM:   8    -0.304053920209E+03   -0.24672E-05   -0.62088E-05   594   0.140E-02
   6 F= -.30405392E+03 E0= -.30409630E+03  d E =-.973546E-01
       N       E                     dE             d eps       ncg     rms          rms(c)
DAV:   1    -0.304053377339E+03    0.54040E-03   -0.11206E+01   672   0.443E+00    0.999E-01
RMM:   2    -0.304074715881E+03   -0.21339E-01   -0.23113E-01   767   0.934E-01    0.183E-01
RMM:   3    -0.304079687820E+03   -0.49719E-02   -0.54431E-02   708   0.443E-01    0.266E-01
RMM:   4    -0.304079910834E+03   -0.22301E-03   -0.66974E-03   848   0.176E-01    0.232E-01
RMM:   5    -0.304079718985E+03    0.19185E-03   -0.61285E-04   651   0.424E-02    0.212E-01
RMM:   6    -0.304079554408E+03    0.16458E-03   -0.18399E-04   518   0.220E-02    0.174E-01
RMM:   7    -0.304079432008E+03    0.12240E-03   -0.11711E-03   695   0.347E-02    0.701E-02
RMM:   8    -0.304079438184E+03   -0.61764E-05   -0.29978E-04   666   0.220E-02    0.509E-02
RMM:   9    -0.304079406560E+03    0.31624E-04   -0.36551E-05   485   0.956E-03    0.307E-02
RMM:  10    -0.304079393578E+03    0.12982E-04   -0.19779E-04   622   0.136E-02    0.193E-02
RMM:  11    -0.304079389941E+03    0.36375E-05   -0.82239E-06   364   0.600E-03
   7 F= -.30407939E+03 E0= -.30412206E+03  d E =-.254697E-01
       N       E                     dE             d eps       ncg     rms          rms(c)
DAV:   1    -0.304066556944E+03    0.12837E-01   -0.89808E+00   672   0.399E+00    0.894E-01
RMM:   2    -0.304083523627E+03   -0.16967E-01   -0.18321E-01   768   0.836E-01    0.168E-01
RMM:   3    -0.304087420780E+03   -0.38972E-02   -0.42396E-02   706   0.390E-01    0.234E-01
RMM:   4    -0.304087550930E+03   -0.13015E-03   -0.53888E-03   854   0.158E-01    0.204E-01
RMM:   5    -0.304087400615E+03    0.15031E-03   -0.45838E-04   635   0.372E-02    0.187E-01
RMM:   6    -0.304087282180E+03    0.11843E-03   -0.13986E-04   527   0.195E-02    0.156E-01
RMM:   7    -0.304087157269E+03    0.12491E-03   -0.84386E-04   672   0.295E-02    0.649E-02
RMM:   8    -0.304087169004E+03   -0.11735E-04   -0.27322E-04   649   0.203E-02    0.442E-02
RMM:   9    -0.304087140799E+03    0.28206E-04   -0.41415E-05   479   0.962E-03    0.210E-02
RMM:  10    -0.304087136101E+03    0.46976E-05   -0.11689E-04   590   0.107E-02    0.167E-02
RMM:  11    -0.304087133692E+03    0.24091E-05   -0.57705E-06   345   0.492E-03
   8 F= -.30408713E+03 E0= -.30413003E+03  d E =-.332135E-01
       N       E                     dE             d eps       ncg     rms          rms(c)
DAV:   1    -0.304085180073E+03    0.19560E-02   -0.12479E+01   656   0.461E+00    0.783E-01
RMM:   2    -0.304107542458E+03   -0.22362E-01   -0.23647E-01   789   0.942E-01    0.275E-01
RMM:   3    -0.304112683486E+03   -0.51410E-02   -0.53264E-02   697   0.423E-01    0.249E-01
RMM:   4    -0.304112600263E+03    0.83223E-04   -0.72309E-03   875   0.185E-01    0.204E-01
RMM:   5    -0.304112386538E+03    0.21373E-03   -0.55372E-04   649   0.424E-02    0.173E-01
RMM:   6    -0.304112236981E+03    0.14956E-03   -0.29523E-04   529   0.260E-02    0.129E-01
RMM:   7    -0.304112212108E+03    0.24873E-04   -0.82015E-04   666   0.309E-02    0.484E-02
RMM:   8    -0.304112216657E+03   -0.45496E-05   -0.67540E-05   663   0.155E-02
   9 F= -.30411222E+03 E0= -.30415569E+03  d E =-.250830E-01
       N       E                     dE             d eps       ncg     rms          rms(c)
DAV:   1    -0.304013158189E+03    0.99054E-01   -0.51840E+01   672   0.945E+00    0.162E+00
RMM:   2    -0.304114241479E+03   -0.10108E+00   -0.10752E+00   791   0.189E+00    0.575E-01
RMM:   3    -0.304136662651E+03   -0.22421E-01   -0.24446E-01   708   0.872E-01    0.468E-01
RMM:   4    -0.304137744254E+03   -0.10816E-02   -0.29335E-02   873   0.360E-01    0.416E-01
RMM:   5    -0.304136815508E+03    0.92875E-03   -0.22319E-03   668   0.847E-02    0.356E-01
RMM:   6    -0.304136242846E+03    0.57266E-03   -0.11562E-03   611   0.519E-02    0.267E-01
RMM:   7    -0.304136114412E+03    0.12843E-03   -0.28351E-03   723   0.591E-02    0.109E-01
RMM:   8    -0.304136159988E+03   -0.45576E-04   -0.34998E-04   727   0.322E-02    0.691E-02
RMM:   9    -0.304136092717E+03    0.67271E-04   -0.87992E-05   513   0.150E-02    0.370E-02
RMM:  10    -0.304136081060E+03    0.11658E-04   -0.17962E-04   584   0.165E-02    0.123E-02
RMM:  11    -0.304136080016E+03    0.10436E-05   -0.13709E-05   371   0.780E-03
  10 F= -.30413608E+03 E0= -.30418061E+03  d E =-.489463E-01
       N       E                     dE             d eps       ncg     rms          rms(c)
DAV:   1    -0.304134447086E+03    0.16340E-02   -0.10022E+00   688   0.130E+00    0.222E-01
RMM:   2    -0.304136175241E+03   -0.17282E-02   -0.18330E-02   793   0.263E-01    0.780E-02
RMM:   3    -0.304136538453E+03   -0.36321E-03   -0.38095E-03   700   0.115E-01    0.615E-02
RMM:   4    -0.304136556264E+03   -0.17810E-04   -0.55119E-04   855   0.518E-02    0.548E-02
RMM:   5    -0.304136538611E+03    0.17652E-04   -0.47253E-05   491   0.124E-02    0.460E-02
RMM:   6    -0.304136528106E+03    0.10505E-04   -0.24842E-05   433   0.759E-03    0.339E-02
RMM:   7    -0.304136526983E+03    0.11235E-05   -0.52980E-05   536   0.842E-03
  11 F= -.30413653E+03 E0= -.30418121E+03  d E =-.493933E-01
       N       E                     dE             d eps       ncg     rms          rms(c)
DAV:   1    -0.304124844916E+03    0.11683E-01   -0.10190E+01   656   0.440E+00    0.883E-01
RMM:   2    -0.304143675443E+03   -0.18831E-01   -0.20573E-01   777   0.916E-01    0.223E-01
RMM:   3    -0.304147681839E+03   -0.40064E-02   -0.46131E-02   690   0.418E-01    0.225E-01
RMM:   4    -0.304147916742E+03   -0.23490E-03   -0.60889E-03   872   0.176E-01    0.194E-01
RMM:   5    -0.304147739872E+03    0.17687E-03   -0.51904E-04   627   0.406E-02    0.160E-01
RMM:   6    -0.304147652292E+03    0.87580E-04   -0.26443E-04   552   0.249E-02    0.122E-01
RMM:   7    -0.304147596708E+03    0.55584E-04   -0.63949E-04   680   0.290E-02    0.432E-02
RMM:   8    -0.304147599264E+03   -0.25559E-05   -0.81536E-05   655   0.154E-02
  12 F= -.30414760E+03 E0= -.30419362E+03  d E =-.110723E-01
       N       E                     dE             d eps       ncg     rms          rms(c)
DAV:   1    -0.304146061105E+03    0.15356E-02   -0.94751E-01   688   0.133E+00    0.277E-01
RMM:   2    -0.304147807859E+03   -0.17468E-02   -0.19366E-02   786   0.278E-01    0.807E-02
RMM:   3    -0.304148134085E+03   -0.32623E-03   -0.37829E-03   680   0.120E-01    0.641E-02
RMM:   4    -0.304148158574E+03   -0.24488E-04   -0.56744E-04   865   0.538E-02    0.560E-02
RMM:   5    -0.304148141426E+03    0.17148E-04   -0.58168E-05   523   0.134E-02    0.442E-02
RMM:   6    -0.304148132708E+03    0.87185E-05   -0.29857E-05   478   0.823E-03
  13 F= -.30414813E+03 E0= -.30419453E+03  d E =-.116057E-01
       N       E                     dE             d eps       ncg     rms          rms(c)
DAV:   1    -0.304135533343E+03    0.12608E-01   -0.98742E+00   656   0.446E+00    0.786E-01
RMM:   2    -0.304154144906E+03   -0.18612E-01   -0.19886E-01   784   0.917E-01    0.234E-01
RMM:   3    -0.304157971446E+03   -0.38265E-02   -0.41577E-02   681   0.411E-01    0.224E-01
RMM:   4    -0.304158403183E+03   -0.43174E-03   -0.70145E-03   882   0.184E-01    0.198E-01
RMM:   5    -0.304158217644E+03    0.18554E-03   -0.44650E-04   622   0.380E-02    0.172E-01
RMM:   6    -0.304158095587E+03    0.12206E-03   -0.20309E-04   546   0.230E-02    0.138E-01
RMM:   7    -0.304158022897E+03    0.72690E-04   -0.70899E-04   698   0.295E-02    0.592E-02
RMM:   8    -0.304158039154E+03   -0.16257E-04   -0.11303E-04   668   0.171E-02    0.344E-02
RMM:   9    -0.304158024529E+03    0.14625E-04   -0.22582E-05   430   0.757E-03    0.176E-02
RMM:  10    -0.304158019468E+03    0.50607E-05   -0.55209E-05   533   0.812E-03
  14 F= -.30415802E+03 E0= -.30420423E+03  d E =-.988676E-02
       N       E                     dE             d eps       ncg     rms          rms(c)
DAV:   1    -0.304151394333E+03    0.66302E-02   -0.41861E+00   672   0.289E+00    0.515E-01
RMM:   2    -0.304159193464E+03   -0.77991E-02   -0.82972E-02   783   0.594E-01    0.147E-01
RMM:   3    -0.304160773099E+03   -0.15796E-02   -0.17170E-02   680   0.264E-01    0.146E-01
RMM:   4    -0.304160938883E+03   -0.16578E-03   -0.28230E-03   881   0.118E-01    0.129E-01
RMM:   5    -0.304160868234E+03    0.70649E-04   -0.18277E-04   578   0.243E-02    0.114E-01
RMM:   6    -0.304160817160E+03    0.51075E-04   -0.75104E-05   502   0.141E-02    0.939E-02
RMM:   7    -0.304160777526E+03    0.39633E-04   -0.31536E-04   658   0.192E-02    0.399E-02
RMM:   8    -0.304160785252E+03   -0.77253E-05   -0.61315E-05   604   0.116E-02
  15 F= -.30416079E+03 E0= -.30420687E+03  d E =-.126525E-01
       N       E                     dE             d eps       ncg     rms          rms(c)
DAV:   1    -0.304118639693E+03    0.42138E-01   -0.16783E+01   656   0.582E+00    0.104E+00
RMM:   2    -0.304150885250E+03   -0.32246E-01   -0.34523E-01   783   0.121E+00    0.303E-01
RMM:   3    -0.304157647869E+03   -0.67626E-02   -0.74076E-02   684   0.546E-01    0.295E-01
RMM:   4    -0.304158345246E+03   -0.69738E-03   -0.11728E-02   882   0.240E-01    0.258E-01
RMM:   5    -0.304158043554E+03    0.30169E-03   -0.78298E-04   649   0.505E-02    0.227E-01
RMM:   6    -0.304157834920E+03    0.20863E-03   -0.32333E-04   563   0.295E-02    0.184E-01
RMM:   7    -0.304157694449E+03    0.14047E-03   -0.11369E-03   716   0.381E-02    0.801E-02
RMM:   8    -0.304157725134E+03   -0.30685E-04   -0.23392E-04   708   0.237E-02    0.451E-02
RMM:   9    -0.304157695216E+03    0.29918E-04   -0.57273E-05   483   0.112E-02    0.179E-02
RMM:  10    -0.304157691184E+03    0.40317E-05   -0.73509E-05   539   0.998E-03
  16 F= -.30415769E+03 E0= -.30420351E+03  d E =-.955848E-02
       N       E                     dE             d eps       ncg     rms          rms(c)
DAV:   1    -0.304142575122E+03    0.15120E-01   -0.98012E+00   672   0.442E+00    0.786E-01
RMM:   2    -0.304158259315E+03   -0.15684E-01   -0.16964E-01   784   0.883E-01    0.229E-01
RMM:   3    -0.304161136091E+03   -0.28768E-02   -0.32445E-02   693   0.380E-01    0.220E-01
RMM:   4    -0.304161461484E+03   -0.32539E-03   -0.58447E-03   874   0.170E-01    0.193E-01
RMM:   5    -0.304161278958E+03    0.18253E-03   -0.43529E-04   622   0.374E-02    0.166E-01
RMM:   6    -0.304161160901E+03    0.11806E-03   -0.20647E-04   534   0.226E-02    0.131E-01
RMM:   7    -0.304161095825E+03    0.65076E-04   -0.59467E-04   690   0.275E-02    0.574E-02
RMM:   8    -0.304161108044E+03   -0.12219E-04   -0.95929E-05   655   0.156E-02    0.294E-02
RMM:   9    -0.304161096881E+03    0.11163E-04   -0.19366E-05   413   0.710E-03    0.140E-02
RMM:  10    -0.304161093418E+03    0.34628E-05   -0.35153E-05   479   0.665E-03
  17 F= -.30416109E+03 E0= -.30420710E+03  d E =-.129607E-01
       N       E                     dE             d eps       ncg     rms          rms(c)
DAV:   1    -0.304147410167E+03    0.13687E-01   -0.10556E+01   672   0.485E+00    0.884E-01
RMM:   2    -0.304164795036E+03   -0.17385E-01   -0.19056E-01   784   0.957E-01    0.234E-01
RMM:   3    -0.304167741345E+03   -0.29463E-02   -0.33772E-02   682   0.414E-01    0.231E-01
RMM:   4    -0.304168191931E+03   -0.45059E-03   -0.77802E-03   874   0.193E-01    0.208E-01
RMM:   5    -0.304167962938E+03    0.22899E-03   -0.54652E-04   623   0.420E-02    0.176E-01
RMM:   6    -0.304167825754E+03    0.13718E-03   -0.35118E-04   551   0.283E-02    0.126E-01
RMM:   7    -0.304167791571E+03    0.34183E-04   -0.72626E-04   679   0.314E-02    0.479E-02
RMM:   8    -0.304167796710E+03   -0.51391E-05   -0.82947E-05   672   0.168E-02
  18 F= -.30416780E+03 E0= -.30421331E+03  d E =-.670329E-02
       N       E                     dE             d eps       ncg     rms          rms(c)
DAV:   1    -0.304167703335E+03    0.88235E-04   -0.39636E-02   736   0.300E-01    0.608E-02
RMM:   2    -0.304167789188E+03   -0.85852E-04   -0.93911E-04   784   0.639E-02    0.210E-02
RMM:   3    -0.304167801662E+03   -0.12475E-04   -0.15193E-04   600   0.275E-02    0.172E-02
RMM:   4    -0.304167803172E+03   -0.15098E-05   -0.33483E-05   415   0.135E-02
  19 F= -.30416780E+03 E0= -.30421331E+03  d E =-.670975E-02
       N       E                     dE             d eps       ncg     rms          rms(c)
DAV:   1    -0.304160820165E+03    0.69815E-02   -0.53673E+00   656   0.362E+00    0.576E-01
RMM:   2    -0.304170884319E+03   -0.10064E-01   -0.10737E-01   792   0.724E-01    0.183E-01
RMM:   3    -0.304172633541E+03   -0.17492E-02   -0.19029E-02   671   0.318E-01    0.150E-01
RMM:   4    -0.304172982865E+03   -0.34932E-03   -0.48753E-03   891   0.153E-01    0.140E-01
RMM:   5    -0.304172829110E+03    0.15375E-03   -0.25411E-04   600   0.307E-02    0.113E-01
RMM:   6    -0.304172761079E+03    0.68031E-04   -0.28542E-04   543   0.241E-02    0.692E-02
RMM:   7    -0.304172764745E+03   -0.36661E-05   -0.27747E-04   637   0.215E-02    0.311E-02
RMM:   8    -0.304172760130E+03    0.46153E-05   -0.27053E-05   494   0.109E-02
  20 F= -.30417276E+03 E0= -.30421867E+03  d E =-.495696E-02
       N       E                     dE             d eps       ncg     rms          rms(c)
DAV:   1    -0.304170684614E+03    0.20801E-02   -0.13308E+00   656   0.179E+00    0.293E-01
RMM:   2    -0.304173186867E+03   -0.25023E-02   -0.26656E-02   787   0.361E-01    0.846E-02
RMM:   3    -0.304173634561E+03   -0.44769E-03   -0.48609E-03   675   0.159E-01    0.794E-02
RMM:   4    -0.304173714936E+03   -0.80375E-04   -0.11681E-03   882   0.761E-02    0.733E-02
RMM:   5    -0.304173681141E+03    0.33795E-04   -0.59408E-05   494   0.149E-02    0.614E-02
RMM:   6    -0.304173659730E+03    0.21411E-04   -0.67631E-05   494   0.116E-02    0.385E-02
RMM:   7    -0.304173659662E+03    0.67215E-07   -0.92299E-05   582   0.116E-02
  21 F= -.30417366E+03 E0= -.30421980E+03  d E =-.585649E-02
       N       E                     dE             d eps       ncg     rms          rms(c)
DAV:   1    -0.304163934668E+03    0.97251E-02   -0.55408E+00   656   0.375E+00    0.722E-01
RMM:   2    -0.304175137774E+03   -0.11203E-01   -0.12194E-01   771   0.780E-01    0.160E-01
RMM:   3    -0.304177386549E+03   -0.22488E-02   -0.24107E-02   682   0.358E-01    0.217E-01
RMM:   4    -0.304177672700E+03   -0.28615E-03   -0.57356E-03   858   0.167E-01    0.187E-01
RMM:   5    -0.304177555812E+03    0.11689E-03   -0.29112E-04   638   0.323E-02    0.169E-01
RMM:   6    -0.304177444562E+03    0.11125E-03   -0.14797E-04   529   0.199E-02    0.136E-01
RMM:   7    -0.304177369632E+03    0.74930E-04   -0.73983E-04   702   0.291E-02    0.534E-02
RMM:   8    -0.304177390400E+03   -0.20768E-04   -0.13051E-04   673   0.170E-02    0.380E-02
RMM:   9    -0.304177369106E+03    0.21293E-04   -0.26494E-05   450   0.770E-03    0.218E-02
RMM:  10    -0.304177361776E+03    0.73306E-05   -0.93543E-05   569   0.968E-03
  22 F= -.30417736E+03 E0= -.30422309E+03  d E =-.370211E-02
       N       E                     dE             d eps       ncg     rms          rms(c)
DAV:   1    -0.304177362627E+03    0.64789E-05   -0.60165E-04   640   0.390E-02    0.133E-02
RMM:   2    -0.304177363615E+03   -0.98753E-06   -0.13552E-05   356   0.863E-03
  23 F= -.30417736E+03 E0= -.30422307E+03  d E =-.370395E-02
       N       E                     dE             d eps       ncg     rms          rms(c)
DAV:   1    -0.304173286942E+03    0.40757E-02   -0.29534E+00   656   0.277E+00    0.435E-01
RMM:   2    -0.304178984103E+03   -0.56972E-02   -0.60716E-02   793   0.551E-01    0.153E-01
RMM:   3    -0.304179904397E+03   -0.92029E-03   -0.97444E-03   694   0.240E-01    0.118E-01
RMM:   4    -0.304180105492E+03   -0.20110E-03   -0.29581E-03   879   0.120E-01    0.109E-01
RMM:   5    -0.304180007305E+03    0.98187E-04   -0.15314E-04   589   0.238E-02    0.839E-02
RMM:   6    -0.304179974846E+03    0.32459E-04   -0.17262E-04   523   0.188E-02    0.500E-02
RMM:   7    -0.304179980471E+03   -0.56252E-05   -0.11950E-04   615   0.151E-02    0.264E-02
RMM:   8    -0.304179978767E+03    0.17045E-05   -0.10952E-05   376   0.719E-03
  24 F= -.30417998E+03 E0= -.30422625E+03  d E =-.261515E-02
       N       E                     dE             d eps       ncg     rms          rms(c)
DAV:   1    -0.304176731105E+03    0.32494E-02   -0.18335E+00   656   0.218E+00    0.346E-01
RMM:   2    -0.304180303291E+03   -0.35722E-02   -0.38112E-02   794   0.437E-01    0.123E-01
RMM:   3    -0.304180862995E+03   -0.55970E-03   -0.60175E-03   690   0.189E-01    0.912E-02
RMM:   4    -0.304181001477E+03   -0.13848E-03   -0.18182E-03   883   0.950E-02    0.855E-02
RMM:   5    -0.304180939103E+03    0.62374E-04   -0.93763E-05   561   0.186E-02    0.663E-02
RMM:   6    -0.304180919904E+03    0.19199E-04   -0.89285E-05   501   0.141E-02    0.417E-02
RMM:   7    -0.304180922070E+03   -0.21658E-05   -0.75291E-05   591   0.118E-02
  25 F= -.30418092E+03 E0= -.30422766E+03  d E =-.355846E-02
       N       E                     dE             d eps       ncg     rms          rms(c)
DAV:   1    -0.304174567293E+03    0.63526E-02   -0.32404E+00   656   0.298E+00    0.607E-01
RMM:   2    -0.304181790773E+03   -0.72235E-02   -0.78588E-02   777   0.628E-01    0.152E-01
RMM:   3    -0.304183086192E+03   -0.12954E-02   -0.13360E-02   672   0.278E-01    0.184E-01
RMM:   4    -0.304183138075E+03   -0.51883E-04   -0.36120E-03   872   0.136E-01    0.156E-01
RMM:   5    -0.304183013573E+03    0.12450E-03   -0.19054E-04   607   0.266E-02    0.130E-01
RMM:   6    -0.304182905958E+03    0.10761E-03   -0.42745E-04   536   0.260E-02    0.615E-02
RMM:   7    -0.304182932329E+03   -0.26371E-04   -0.32570E-04   555   0.224E-02    0.300E-02
RMM:   8    -0.304182923523E+03    0.88065E-05   -0.29202E-05   546   0.125E-02
  26 F= -.30418292E+03 E0= -.30422963E+03  d E =-.200145E-02
       N       E                     dE             d eps       ncg     rms          rms(c)
DAV:   1    -0.304182913048E+03    0.19281E-04   -0.12838E-04   576   0.213E-02    0.219E-02
RMM:   2    -0.304182912122E+03    0.92589E-06   -0.25807E-05   502   0.939E-03
  27 F= -.30418291E+03 E0= -.30422961E+03  d E =-.199005E-02
       N       E                     dE             d eps       ncg     rms          rms(c)
DAV:   1    -0.304176248028E+03    0.66650E-02   -0.33408E+00   656   0.303E+00    0.518E-01
RMM:   2    -0.304183344481E+03   -0.70965E-02   -0.75309E-02   786   0.621E-01    0.170E-01
RMM:   3    -0.304184596796E+03   -0.12523E-02   -0.12347E-02   672   0.272E-01    0.171E-01
RMM:   4    -0.304184626988E+03   -0.30191E-04   -0.36823E-03   886   0.137E-01    0.141E-01
RMM:   5    -0.304184512310E+03    0.11468E-03   -0.18974E-04   601   0.263E-02    0.116E-01
RMM:   6    -0.304184429511E+03    0.82799E-04   -0.32403E-04   540   0.234E-02    0.615E-02
RMM:   7    -0.304184447626E+03   -0.18115E-04   -0.25303E-04   551   0.202E-02    0.269E-02
RMM:   8    -0.304184443961E+03    0.36645E-05   -0.22369E-05   509   0.116E-02
  28 F= -.30418444E+03 E0= -.30423119E+03  d E =-.153184E-02
       N       E                     dE             d eps       ncg     rms          rms(c)
DAV:   1    -0.304182466127E+03    0.19815E-02   -0.84688E-01   672   0.152E+00    0.269E-01
RMM:   2    -0.304184293371E+03   -0.18272E-02   -0.19387E-02   783   0.314E-01    0.821E-02
RMM:   3    -0.304184612296E+03   -0.31892E-03   -0.32043E-03   677   0.138E-01    0.867E-02
RMM:   4    -0.304184623629E+03   -0.11333E-04   -0.92311E-04   872   0.685E-02    0.727E-02
RMM:   5    -0.304184593513E+03    0.30116E-04   -0.51211E-05   486   0.136E-02    0.598E-02
RMM:   6    -0.304184572953E+03    0.20560E-04   -0.67286E-05   490   0.110E-02    0.350E-02
RMM:   7    -0.304184574926E+03   -0.19729E-05   -0.61628E-05   532   0.995E-03
  29 F= -.30418457E+03 E0= -.30423136E+03  d E =-.166280E-02
       N       E                     dE             d eps       ncg     rms          rms(c)
DAV:   1    -0.304176219121E+03    0.83538E-02   -0.38666E+00   656   0.323E+00    0.605E-01
RMM:   2    -0.304184311925E+03   -0.80928E-02   -0.88481E-02   785   0.669E-01    0.164E-01
RMM:   3    -0.304185624141E+03   -0.13122E-02   -0.14789E-02   669   0.293E-01    0.159E-01
RMM:   4    -0.304185901190E+03   -0.27705E-03   -0.39869E-03   879   0.143E-01    0.140E-01
RMM:   5    -0.304185789695E+03    0.11150E-03   -0.21828E-04   619   0.280E-02    0.117E-01
RMM:   6    -0.304185727714E+03    0.61981E-04   -0.15828E-04   523   0.198E-02    0.838E-02
RMM:   7    -0.304185717457E+03    0.10257E-04   -0.32839E-04   649   0.216E-02    0.333E-02
RMM:   8    -0.304185723595E+03   -0.61382E-05   -0.44833E-05   564   0.114E-02
  30 F= -.30418572E+03 E0= -.30423284E+03  d E =-.114867E-02
       N       E                     dE             d eps       ncg     rms          rms(c)
DAV:   1    -0.304185466006E+03    0.25145E-03   -0.13237E-01   672   0.598E-01    0.107E-01
RMM:   2    -0.304185721781E+03   -0.25578E-03   -0.27195E-03   763   0.122E-01    0.192E-02
RMM:   3    -0.304185772267E+03   -0.50485E-04   -0.56607E-04   688   0.564E-02    0.339E-02
RMM:   4    -0.304185779496E+03   -0.72292E-05   -0.12913E-04   574   0.260E-02    0.284E-02
RMM:   5    -0.304185777300E+03    0.21954E-05   -0.90791E-06   364   0.820E-03
  31 F= -.30418578E+03 E0= -.30423282E+03  d E =-.120237E-02
       N       E                     dE             d eps       ncg     rms          rms(c)
DAV:   1    -0.304182443715E+03    0.33358E-02   -0.19313E+00   656   0.225E+00    0.385E-01
RMM:   2    -0.304186189346E+03   -0.37456E-02   -0.40585E-02   784   0.455E-01    0.963E-02
RMM:   3    -0.304186869254E+03   -0.67991E-03   -0.73186E-03   685   0.203E-01    0.941E-02
RMM:   4    -0.304187013487E+03   -0.14423E-03   -0.18741E-03   877   0.977E-02    0.811E-02
RMM:   5    -0.304186966542E+03    0.46945E-04   -0.87885E-05   551   0.181E-02    0.674E-02
RMM:   6    -0.304186944295E+03    0.22247E-04   -0.46469E-05   487   0.117E-02    0.490E-02
RMM:   7    -0.304186941988E+03    0.23067E-05   -0.11869E-04   591   0.131E-02    0.188E-02
RMM:   8    -0.304186941880E+03    0.10792E-06   -0.18715E-05   410   0.728E-03
  32 F= -.30418694E+03 E0= -.30423386E+03  d E =-.116458E-02
       N       E                     dE             d eps       ncg     rms          rms(c)
DAV:   1    -0.304186413372E+03    0.52862E-03   -0.25105E-01   672   0.810E-01    0.135E-01
RMM:   2    -0.304186912109E+03   -0.49874E-03   -0.54032E-03   788   0.165E-01    0.420E-02
RMM:   3    -0.304186996980E+03   -0.84871E-04   -0.92480E-04   677   0.726E-02    0.364E-02
RMM:   4    -0.304187012195E+03   -0.15215E-04   -0.23745E-04   726   0.353E-02    0.288E-02
RMM:   5    -0.304187009852E+03    0.23427E-05   -0.13610E-05   378   0.855E-03
  33 F= -.30418701E+03 E0= -.30423391E+03  d E =-.123255E-02
       N       E                     dE             d eps       ncg     rms          rms(c)
DAV:   1    -0.304183465169E+03    0.35470E-02   -0.18650E+00   656   0.218E+00    0.373E-01
RMM:   2    -0.304187111326E+03   -0.36462E-02   -0.39107E-02   783   0.442E-01    0.111E-01
RMM:   3    -0.304187775406E+03   -0.66408E-03   -0.71042E-03   677   0.196E-01    0.109E-01
RMM:   4    -0.304187875368E+03   -0.99963E-04   -0.16945E-03   878   0.928E-02    0.978E-02
RMM:   5    -0.304187813880E+03    0.61488E-04   -0.10177E-04   561   0.192E-02    0.784E-02
RMM:   6    -0.304187782196E+03    0.31685E-04   -0.15597E-04   509   0.165E-02    0.411E-02
RMM:   7    -0.304187790682E+03   -0.84860E-05   -0.11751E-04   552   0.141E-02    0.205E-02
RMM:   8    -0.304187788503E+03    0.21789E-05   -0.15338E-05   433   0.805E-03
  34 F= -.30418779E+03 E0= -.30423475E+03  d E =-.778650E-03
       N       E                     dE             d eps       ncg     rms          rms(c)
DAV:   1    -0.304187780440E+03    0.10242E-04   -0.41209E-03   720   0.101E-01    0.142E-02
RMM:   2    -0.304187786951E+03   -0.65113E-05   -0.74619E-05   712   0.196E-02
  35 F= -.30418779E+03 E0= -.30423476E+03  d E =-.777099E-03
       N       E                     dE             d eps       ncg     rms          rms(c)
DAV:   1    -0.304187778832E+03    0.16084E-05   -0.24071E-03   672   0.768E-02    0.142E-02
RMM:   2    -0.304187783871E+03   -0.50393E-05   -0.55215E-05   641   0.164E-02
  36 F= -.30418778E+03 E0= -.30423476E+03  d E =-.774019E-03
       N       E                     dE             d eps       ncg     rms          rms(c)
DAV:   1    -0.304187785249E+03   -0.64177E-05   -0.86402E-04   656   0.461E-02    0.886E-03
RMM:   2    -0.304187786960E+03   -0.17106E-05   -0.19559E-05   327   0.998E-03
  37 F= -.30418779E+03 E0= -.30423475E+03  d E =-.777108E-03
       N       E                     dE             d eps       ncg     rms          rms(c)
DAV:   1    -0.304185650588E+03    0.21347E-02   -0.12524E+00   656   0.175E+00    0.276E-01
RMM:   2    -0.304187956365E+03   -0.23058E-02   -0.24593E-02   789   0.351E-01    0.824E-02
RMM:   3    -0.304188375635E+03   -0.41927E-03   -0.44936E-03   687   0.155E-01    0.697E-02
RMM:   4    -0.304188456998E+03   -0.81364E-04   -0.10670E-03   877   0.733E-02    0.633E-02
RMM:   5    -0.304188428481E+03    0.28517E-04   -0.54174E-05   480   0.143E-02    0.530E-02
RMM:   6    -0.304188413087E+03    0.15394E-04   -0.36692E-05   490   0.974E-03    0.354E-02
RMM:   7    -0.304188413294E+03   -0.20728E-06   -0.71548E-05   580   0.103E-02
  38 F= -.30418841E+03 E0= -.30423541E+03  d E =-.626334E-03
       N       E                     dE             d eps       ncg     rms          rms(c)
DAV:   1    -0.304188016711E+03    0.39638E-03   -0.19453E-01   672   0.688E-01    0.107E-01
RMM:   2    -0.304188375387E+03   -0.35868E-03   -0.39341E-03   799   0.137E-01    0.410E-02
RMM:   3    -0.304188439534E+03   -0.64148E-04   -0.65874E-04   682   0.593E-02    0.283E-02
RMM:   4    -0.304188450533E+03   -0.10999E-04   -0.16797E-04   704   0.291E-02    0.255E-02
RMM:   5    -0.304188443995E+03    0.65378E-05   -0.12785E-05   368   0.860E-03
  39 F= -.30418844E+03 E0= -.30423548E+03  d E =-.657035E-03
       N       E                     dE             d eps       ncg     rms          rms(c)
DAV:   1    -0.304187099402E+03    0.13511E-02   -0.89789E-01   656   0.148E+00    0.225E-01
RMM:   2    -0.304188742733E+03   -0.16433E-02   -0.17564E-02   790   0.296E-01    0.746E-02
RMM:   3    -0.304189041550E+03   -0.29882E-03   -0.32197E-03   682   0.130E-01    0.623E-02
RMM:   4    -0.304189091792E+03   -0.50242E-04   -0.74191E-04   877   0.614E-02    0.504E-02
RMM:   5    -0.304189080940E+03    0.10852E-04   -0.38407E-05   445   0.120E-02    0.417E-02
RMM:   6    -0.304189075057E+03    0.58833E-05   -0.25646E-05   454   0.832E-03
  40 F= -.30418908E+03 E0= -.30423616E+03  d E =-.631062E-03
       N       E                     dE             d eps       ncg     rms          rms(c)
DAV:   1    -0.304188498831E+03    0.58211E-03   -0.34608E-01   672   0.917E-01    0.131E-01
RMM:   2    -0.304189128569E+03   -0.62974E-03   -0.67772E-03   794   0.183E-01    0.549E-02
RMM:   3    -0.304189244319E+03   -0.11575E-03   -0.12139E-03   684   0.799E-02    0.428E-02
RMM:   4    -0.304189266177E+03   -0.21857E-04   -0.29702E-04   823   0.385E-02    0.396E-02
RMM:   5    -0.304189254208E+03    0.11969E-04   -0.19429E-05   389   0.904E-03    0.301E-02
RMM:   6    -0.304189251284E+03    0.29247E-05   -0.27584E-05   477   0.763E-03
  41 F= -.30418925E+03 E0= -.30423642E+03  d E =-.807288E-03
