 vasp.6.3.2 27Jun22 (build Jun 14 2024 17:29:11) complex                         
 executed on             LinuxGNU date 2026.04.03  10:18:50
 running on   16 total cores
 distrk:  each k-point on   16 cores,    1 groups
 distr:  one band on NCORE=   1 cores,   16 groups


--------------------------------------------------------------------------------------------------------


 INCAR:
   SYSTEM = endpoint_relax
   ENCUT = 400
   EDIFF = 1E-05
   PREC = Normal
   ALGO = Fast
   LREAL = Auto
   ISYM = 0
   IBRION = 2
   ISIF = 2
   NSW = 300
   EDIFFG = -0.02
   LWAVE = .TRUE.
   LCHARG = .FALSE.

 POTCAR:    PAW_PBE Na_pv 19Sep2006               
 POTCAR:    PAW_PBE Al 04Jan2001                  
 POTCAR:    PAW_PBE S 06Sep2000                   
 -----------------------------------------------------------------------------
|                                                                             |
|           W    W    AA    RRRRR   N    N  II  N    N   GGGG   !!!           |
|           W    W   A  A   R    R  NN   N  II  NN   N  G    G  !!!           |
|           W    W  A    A  R    R  N N  N  II  N N  N  G       !!!           |
|           W WW W  AAAAAA  RRRRR   N  N N  II  N  N N  G  GGG   !            |
|           WW  WW  A    A  R   R   N   NN  II  N   NN  G    G                |
|           W    W  A    A  R    R  N    N  II  N    N   GGGG   !!!           |
|                                                                             |
|     For optimal performance we recommend to set                             |
|       NCORE = 2 up to number-of-cores-per-socket                            |
|     NCORE specifies how many cores store one orbital (NPAR=cpu/NCORE).      |
|     This setting can greatly improve the performance of VASP for DFT.       |
|     The default, NCORE=1 might be grossly inefficient on modern             |
|     multi-core architectures or massively parallel machines. Do your        |
|     own testing! More info at https://www.vasp.at/wiki/index.php/NCORE      |
|     Unfortunately you need to use the default for GW and RPA                |
|     calculations (for HF NCORE is supported but not extensively tested      |
|     yet).                                                                   |
|                                                                             |
 -----------------------------------------------------------------------------

 POTCAR:    PAW_PBE Na_pv 19Sep2006               
   SHA256 =  6a2f546d9e11350984debacf3dc457d8cffc0868e817d445faca461816a32b94 Na_pv/POTCAR          
   COPYR  = (c) Copyright 19Sep2006 Georg Kresse                                                    
   COPYR  = This file is part of the software VASP. Any use, copying, and all other rights are regul
   COPYR  = If you do not have a valid VASP license, you may not use, copy or distribute this file. 
   VRHFIN =Na: p6s1                                                                                 
   LEXCH  = PE                                                                                      
   EATOM  =   766.0439 eV,   56.3026 Ry                                                             
                                                                                                    
   TITEL  = PAW_PBE Na_pv 19Sep2006                                                                 
   LULTRA =        F    use ultrasoft PP ?                                                          
   IUNSCR =        1    unscreen: 0-lin 1-nonlin 2-no                                               
   RPACOR =    1.800    partial core radius                                                         
   POMASS =   22.990; ZVAL   =    7.000    mass and valenz                                          
   RCORE  =    2.200    outmost cutoff radius                                                       
   RWIGS  =    2.200; RWIGS  =    1.164    wigner-seitz radius (au A)                               
   ENMAX  =  259.561; ENMIN  =  194.671 eV                                                          
   ICORE  =        2    local potential                                                             
   LCOR   =        T    correct aug charges                                                         
   LPAW   =        T    paw PP                                                                      
   EAUG   =  368.056                                                                                
   DEXC   =    0.000                                                                                
   RMAX   =    2.245    core radius for proj-oper                                                   
   RAUG   =    1.300    factor for augmentation sphere                                              
   RDEP   =    2.259    radius for radial grids                                                     
   RDEPT  =    1.738    core radius for aug-charge                                                  
                                                                                                    
   Atomic configuration                                                                             
    5 entries                                                                                       
     n  l   j            E        occ.                                                              
     1  0  0.50     -1033.6933   2.0000                                                             
     2  0  0.50       -56.7526   2.0000                                                             
     2  1  1.50       -28.6721   6.0000                                                             
     3  0  0.50        -2.7440   1.0000                                                             
     3  2  1.50        -1.3606   0.0000                                                             
   Description                                                                                      
     l       E           TYP  RCUT    TYP  RCUT                                                     
     1    -28.6720912     23  2.000                                                                 
     1      6.8029130     23  2.000                                                                 
     0     -2.7439560     23  2.200                                                                 
     0     34.0145650     23  2.200                                                                 
     2     -1.3605826     23  2.200                                                                 
  local pseudopotential read in
  partial core-charges read in
  partial kinetic energy density read in
  atomic valenz-charges read in
  non local Contribution for L=           1  read in
    real space projection operators read in
  non local Contribution for L=           1  read in
    real space projection operators read in
  non local Contribution for L=           0  read in
    real space projection operators read in
  non local Contribution for L=           0  read in
    real space projection operators read in
    PAW grid and wavefunctions read in

   number of l-projection  operators is LMAX  =           4
   number of lm-projection operators is LMMAX =           8

 POTCAR:    PAW_PBE Al 04Jan2001                  
   SHA256 =  17880443556af62b473fe41b62a467bd001ad55d2cabe504a3f22e34d4e9db96 Al/POTCAR             
   COPYR  = (c) Copyright 04Jan2001 Georg Kresse                                                    
   COPYR  = This file is part of the software VASP. Any use, copying, and all other rights are regul
   COPYR  = If you do not have a valid VASP license, you may not use, copy or distribute this file. 
   VRHFIN =Al: s2p1                                                                                 
   LEXCH  = PE                                                                                      
   EATOM  =    53.5387 eV,    3.9350 Ry                                                             
                                                                                                    
   TITEL  = PAW_PBE Al 04Jan2001                                                                    
   LULTRA =        F    use ultrasoft PP ?                                                          
   IUNSCR =        1    unscreen: 0-lin 1-nonlin 2-no                                               
   RPACOR =    1.500    partial core radius                                                         
   POMASS =   26.981; ZVAL   =    3.000    mass and valenz                                          
   RCORE  =    1.900    outmost cutoff radius                                                       
   RWIGS  =    2.650; RWIGS  =    1.402    wigner-seitz radius (au A)                               
   ENMAX  =  240.300; ENMIN  =  180.225 eV                                                          
   ICORE  =        2    local potential                                                             
   LCOR   =        T    correct aug charges                                                         
   LPAW   =        T    paw PP                                                                      
   EAUG   =  291.052                                                                                
   DEXC   =    0.000                                                                                
   RMAX   =    1.939    core radius for proj-oper                                                   
   RAUG   =    1.300    factor for augmentation sphere                                              
   RDEP   =    1.966    radius for radial grids                                                     
   RDEPT  =    1.856    core radius for aug-charge                                                  
                                                                                                    
   Atomic configuration                                                                             
    6 entries                                                                                       
     n  l   j            E        occ.                                                              
     1  0  0.50     -1511.1048   2.0000                                                             
     2  0  0.50      -108.1629   2.0000                                                             
     2  1  1.50       -69.6402   6.0000                                                             
     3  0  0.50        -7.7528   2.0000                                                             
     3  1  1.50        -2.7121   1.0000                                                             
     3  2  2.50        -2.7212   0.0000                                                             
   Description                                                                                      
     l       E           TYP  RCUT    TYP  RCUT                                                     
     0     -7.7528455     23  1.900                                                                 
     0     -3.3096929     23  1.900                                                                 
     1     -2.7120682     23  1.900                                                                 
     1     13.6058260     23  1.900                                                                 
     2     -2.7211652      7  1.900                                                                 
  local pseudopotential read in
  partial core-charges read in
  partial kinetic energy density read in
  atomic valenz-charges read in
  non local Contribution for L=           0  read in
    real space projection operators read in
  non local Contribution for L=           0  read in
    real space projection operators read in
  non local Contribution for L=           1  read in
    real space projection operators read in
  non local Contribution for L=           1  read in
    real space projection operators read in
    PAW grid and wavefunctions read in

   number of l-projection  operators is LMAX  =           4
   number of lm-projection operators is LMMAX =           8

 POTCAR:    PAW_PBE S 06Sep2000                   
   SHA256 =  0fc7481fb0695f01bdc6462160264c5c84044ae9ec85a907d398b887a2bc3132 S/POTCAR              
   COPYR  = (c) Copyright 06Sep2000 Georg Kresse                                                    
   COPYR  = This file is part of the software VASP. Any use, copying, and all other rights are regul
   COPYR  = If you do not have a valid VASP license, you may not use, copy or distribute this file. 
   VRHFIN =S : s2p4                                                                                 
   LEXCH  = PE                                                                                      
   EATOM  =   276.8230 eV,   20.3459 Ry                                                             
                                                                                                    
   TITEL  = PAW_PBE S 06Sep2000                                                                     
   LULTRA =        F    use ultrasoft PP ?                                                          
   IUNSCR =        1    unscreen: 0-lin 1-nonlin 2-no                                               
   RPACOR =    1.500    partial core radius                                                         
   POMASS =   32.066; ZVAL   =    6.000    mass and valenz                                          
   RCORE  =    1.900    outmost cutoff radius                                                       
   RWIGS  =    2.200; RWIGS  =    1.164    wigner-seitz radius (au A)                               
   ENMAX  =  258.689; ENMIN  =  194.016 eV                                                          
   ICORE  =        2    local potential                                                             
   LCOR   =        T    correct aug charges                                                         
   LPAW   =        T    paw PP                                                                      
   EAUG   =  335.092                                                                                
   DEXC   =    0.000                                                                                
   RMAX   =    1.942    core radius for proj-oper                                                   
   RAUG   =    1.300    factor for augmentation sphere                                              
   RDEP   =    1.954    radius for radial grids                                                     
   RDEPT  =    1.744    core radius for aug-charge                                                  
                                                                                                    
   Atomic configuration                                                                             
    6 entries                                                                                       
     n  l   j            E        occ.                                                              
     1  0  0.50     -2405.8406   2.0000                                                             
     2  0  0.50      -211.7007   2.0000                                                             
     2  1  1.50      -156.4958   6.0000                                                             
     3  0  0.50       -17.2562   2.0000                                                             
     3  1  0.50        -7.0085   4.0000                                                             
     3  2  1.50        -6.8029   0.0000                                                             
   Description                                                                                      
     l       E           TYP  RCUT    TYP  RCUT                                                     
     0    -17.2561641     23  1.900                                                                 
     0    -15.8743224     23  1.900                                                                 
     1     -7.0085400     23  1.900                                                                 
     1     -2.7779785     23  1.900                                                                 
     2     -6.8029130     23  1.900                                                                 
  local pseudopotential read in
  partial core-charges read in
  partial kinetic energy density read in
  atomic valenz-charges read in
  non local Contribution for L=           0  read in
    real space projection operators read in
  non local Contribution for L=           0  read in
    real space projection operators read in
  non local Contribution for L=           1  read in
    real space projection operators read in
  non local Contribution for L=           1  read in
    real space projection operators read in
    PAW grid and wavefunctions read in

   number of l-projection  operators is LMAX  =           4
   number of lm-projection operators is LMMAX =           8

 Optimization of the real space projectors (new method)

 maximal supplied QI-value         = 17.01
 optimisation between [QCUT,QGAM] = [ 10.20, 20.41] = [ 29.16,116.64] Ry 
 Optimized for a Real-space Cutoff    1.30 Angstroem

   l    n(q)    QCUT    max X(q) W(low)/X(q) W(high)/X(q)  e(spline) 
   1      7    10.205     4.940    0.23E-03    0.84E-03    0.11E-06
   1      7    10.205     6.253    0.40E-03    0.13E-02    0.18E-06
   0      8    10.205    37.438    0.23E-03    0.37E-03    0.42E-07
   0      8    10.205     9.606    0.16E-03    0.26E-03    0.31E-07
 Optimization of the real space projectors (new method)

 maximal supplied QI-value         = 19.84
 optimisation between [QCUT,QGAM] = [ 10.12, 20.44] = [ 28.68,116.96] Ry 
 Optimized for a Real-space Cutoff    1.23 Angstroem

   l    n(q)    QCUT    max X(q) W(low)/X(q) W(high)/X(q)  e(spline) 
   0      7    10.119   176.870    0.49E-04    0.18E-03    0.39E-07
   0      7    10.119   105.762    0.46E-04    0.18E-03    0.38E-07
   1      7    10.119    55.370    0.30E-03    0.37E-03    0.12E-06
   1      7    10.119    20.208    0.27E-03    0.35E-03    0.11E-06
 Optimization of the real space projectors (new method)

 maximal supplied QI-value         = 19.84
 optimisation between [QCUT,QGAM] = [ 10.12, 20.44] = [ 28.68,116.96] Ry 
 Optimized for a Real-space Cutoff    1.23 Angstroem

   l    n(q)    QCUT    max X(q) W(low)/X(q) W(high)/X(q)  e(spline) 
   0      7    10.119   187.594    0.62E-04    0.28E-03    0.52E-07
   0      7    10.119   164.243    0.61E-04    0.28E-03    0.52E-07
   1      7    10.119    67.533    0.45E-03    0.63E-03    0.13E-06
   1      7    10.119    50.729    0.44E-03    0.62E-03    0.12E-06
  PAW_PBE Na_pv 19Sep2006               :
 energy of atom  1       EATOM= -766.0439
 kinetic energy error for atom=    0.0103 (will be added to EATOM!!)
  PAW_PBE Al 04Jan2001                  :
 energy of atom  2       EATOM=  -53.5387
 kinetic energy error for atom=    0.0005 (will be added to EATOM!!)
  PAW_PBE S 06Sep2000                   :
 energy of atom  3       EATOM= -276.8230
 kinetic energy error for atom=    0.0046 (will be added to EATOM!!)


 POSCAR: user_Na5AlS4_Na5AlS4 NEB image 00
  positions in direct lattice
  No initial velocities read in
 exchange correlation table for  LEXCH =        8
   RHO(1)=    0.500       N(1)  =     2000
   RHO(2)=  100.500       N(2)  =     4000



--------------------------------------------------------------------------------------------------------


 ion  position               nearest neighbor table
   1  0.352  0.909  0.500-
   2  0.648  0.409  0.000-
   3  0.148  0.091  1.000-
   4  0.148  0.409  0.500-
   5  0.352  0.591  1.000-
   6  0.648  0.091  0.500-
   7  0.852  0.591  0.500-
   8  0.852  0.909  0.000-
   9  0.287  0.554  0.366-
  10  0.713  0.054  0.134-
  11  0.213  0.446  0.866-
  12  0.213  0.054  0.366-
  13  0.287  0.946  0.866-
  14  0.713  0.446  0.634-
  15  0.787  0.946  0.634-
  16  0.787  0.554  0.134-
  17  0.556  0.565  0.434-  49 2.70  56 2.71  70 2.74
  18  0.444  0.065  0.066-  48 2.70  57 2.71  66 2.74
  19  0.944  0.435  0.934-  54 2.70  58 2.71  65 2.74
  20  0.944  0.065  0.434-  55 2.70  59 2.71  69 2.74
  21  0.556  0.935  0.934-  53 2.70  60 2.71  71 2.74
  22  0.056  0.935  0.566-  50 2.70  62 2.71  64 2.74
  23  0.056  0.565  0.066-  51 2.70  63 2.71  68 2.74
  24  0.586  0.381  0.251-
  25  0.414  0.881  0.249-
  26  0.914  0.619  0.751-
  27  0.914  0.881  0.251-
  28  0.586  0.119  0.751-
  29  0.414  0.619  0.749-
  30  0.086  0.119  0.749-
  31  0.086  0.381  0.249-
  32  0.837  0.107  0.830-  74 2.73  71 2.75  65 2.76
  33  0.163  0.607  0.670-  78 2.73  67 2.75  64 2.76
  34  0.663  0.893  0.330-  72 2.73  69 2.75  70 2.76
  35  0.663  0.607  0.830-  76 2.73  65 2.75  71 2.76
  36  0.837  0.393  0.330-  75 2.73  70 2.75  69 2.76
  37  0.163  0.893  0.170-  79 2.73  66 2.75  68 2.76
  38  0.337  0.393  0.170-  73 2.73  68 2.75  66 2.76
  39  0.337  0.107  0.670-  77 2.73  64 2.75  67 2.76
  40  0.040  0.830  0.875-  58 2.27  78 2.27  65 2.28  51 2.28
  41  0.960  0.330  0.625-  62 2.27  74 2.27  64 2.28  55 2.28
  42  0.460  0.170  0.375-  56 2.27  73 2.27  70 2.28  52 2.28
  43  0.460  0.330  0.875-  60 2.27  77 2.27  71 2.28  48 2.28
  44  0.040  0.670  0.375-  59 2.27  79 2.27  69 2.28  50 2.28
  45  0.960  0.170  0.125-  63 2.27  75 2.27  68 2.28  54 2.28
  46  0.540  0.670  0.125-  57 2.27  72 2.27  66 2.28  53 2.28
  47  0.540  0.830  0.625-  61 2.27  76 2.27  67 2.28  49 2.28
  48  0.370  0.205  0.957-  43 2.28  18 2.70
  49  0.630  0.705  0.543-  47 2.28  17 2.70
  50  0.130  0.795  0.457-  44 2.28  22 2.70
  51  0.130  0.705  0.957-  40 2.28  23 2.70
  52  0.370  0.295  0.457-  42 2.28
  53  0.630  0.795  0.043-  46 2.28  21 2.70
  54  0.870  0.295  0.043-  45 2.28  19 2.70
  55  0.870  0.205  0.543-  41 2.28  20 2.70
  56  0.447  0.851  0.378-  42 2.27  17 2.71
  57  0.553  0.351  0.122-  46 2.27  18 2.71
  58  0.053  0.149  0.878-  40 2.27  19 2.71
  59  0.053  0.351  0.378-  44 2.27  20 2.71
  60  0.447  0.649  0.878-  43 2.27  21 2.71
  61  0.553  0.149  0.622-  47 2.27
  62  0.947  0.649  0.622-  41 2.27  22 2.71
  63  0.947  0.851  0.122-  45 2.27  23 2.71
  64  0.141  0.245  0.624-  41 2.28  22 2.74  39 2.75  33 2.76
  65  0.859  0.745  0.876-  40 2.28  19 2.74  35 2.75  32 2.76
  66  0.359  0.755  0.124-  46 2.28  18 2.74  37 2.75  38 2.76
  67  0.359  0.745  0.624-  47 2.28  33 2.75  39 2.76
  68  0.141  0.255  0.124-  45 2.28  23 2.74  38 2.75  37 2.76
  69  0.859  0.755  0.376-  44 2.28  20 2.74  34 2.75  36 2.76
  70  0.641  0.255  0.376-  42 2.28  17 2.74  36 2.75  34 2.76
  71  0.641  0.245  0.876-  43 2.28  21 2.74  32 2.75  35 2.76
  72  0.630  0.761  0.213-  46 2.27  34 2.73
  73  0.370  0.261  0.287-  42 2.27  38 2.73
  74  0.870  0.239  0.713-  41 2.27  32 2.73
  75  0.870  0.261  0.213-  45 2.27  36 2.73
  76  0.630  0.739  0.713-  47 2.27  35 2.73
  77  0.370  0.239  0.787-  43 2.27  39 2.73
  78  0.130  0.739  0.787-  40 2.27  33 2.73
  79  0.130  0.761  0.287-  44 2.27  37 2.73


IMPORTANT INFORMATION: All symmetrisations will be switched off!
NOSYMM: (Re-)initialisation of all symmetry stuff for point group C_1.


----------------------------------------------------------------------------------------

                                     Primitive cell                                     

  volume of cell :    1858.8241

  direct lattice vectors                    reciprocal lattice vectors
    12.102638204 -0.000000000  0.000000000     0.082626613  0.000000000 -0.000000000
    -0.000000000  7.093817079  0.000000000     0.000000000  0.140967830 -0.000000000
     0.000000000  0.000000000 21.651014956    -0.000000000 -0.000000000  0.046187211

  length of vectors
    12.102638204  7.093817079 21.651014956     0.082626613  0.140967830  0.046187211

  position of ions in fractional coordinates (direct lattice)
     0.351501911  0.908580173  0.499874127
     0.648498089  0.408580173  0.000125873
     0.148498089  0.091419827  0.999874127
     0.148498089  0.408580173  0.499874127
     0.351501911  0.591419827  0.999874127
     0.648498089  0.091419827  0.500125873
     0.851501911  0.591419827  0.500125873
     0.851501911  0.908580173  0.000125873
     0.287037455  0.553641495  0.365704068
     0.712962545  0.053641495  0.134295932
     0.212962545  0.446358505  0.865704068
     0.212962545  0.053641495  0.365704068
     0.287037455  0.946358505  0.865704068
     0.712962545  0.446358505  0.634295932
     0.787037455  0.946358505  0.634295932
     0.787037455  0.553641495  0.134295932
     0.556392998  0.565166083  0.434112628
     0.443607002  0.065166083  0.065887372
     0.943607002  0.434833917  0.934112628
     0.943607002  0.065166083  0.434112628
     0.556392998  0.934833917  0.934112628
     0.056392998  0.934833917  0.565887372
     0.056392998  0.565166083  0.065887372
     0.586277872  0.380876536  0.250636148
     0.413722128  0.880876536  0.249363852
     0.913722128  0.619123464  0.750636148
     0.913722128  0.880876536  0.250636148
     0.586277872  0.119123464  0.750636148
     0.413722128  0.619123464  0.749363852
     0.086277872  0.119123464  0.749363852
     0.086277872  0.380876536  0.249363852
     0.837195332  0.106739277  0.829724985
     0.162804668  0.606739277  0.670275015
     0.662804668  0.893260723  0.329724985
     0.662804668  0.606739277  0.829724985
     0.837195332  0.393260723  0.329724985
     0.162804668  0.893260723  0.170275015
     0.337195332  0.393260723  0.170275015
     0.337195332  0.106739277  0.670275015
     0.040015432  0.829939837  0.874579644
     0.959984568  0.329939837  0.625420356
     0.459984568  0.170060163  0.374579644
     0.459984568  0.329939837  0.874579644
     0.040015432  0.670060163  0.374579644
     0.959984568  0.170060163  0.125420356
     0.540015432  0.670060163  0.125420356
     0.540015432  0.829939837  0.625420356
     0.370249064  0.204734029  0.957371820
     0.629750936  0.704734029  0.542628180
     0.129750936  0.795265971  0.457371820
     0.129750936  0.704734029  0.957371820
     0.370249064  0.295265971  0.457371820
     0.629750936  0.795265971  0.042628180
     0.870249064  0.295265971  0.042628180
     0.870249064  0.204734029  0.542628180
     0.446889613  0.851242122  0.378477527
     0.553110387  0.351242122  0.121522473
     0.053110387  0.148757878  0.878477527
     0.053110387  0.351242122  0.378477527
     0.446889613  0.648757878  0.878477527
     0.553110387  0.148757878  0.621522473
     0.946889613  0.648757878  0.621522473
     0.946889613  0.851242122  0.121522473
     0.141331091  0.245285831  0.624492831
     0.858668909  0.745285831  0.875507169
     0.358668909  0.754714169  0.124492831
     0.358668909  0.745285831  0.624492831
     0.141331091  0.254714169  0.124492831
     0.858668909  0.754714169  0.375507169
     0.641331091  0.254714169  0.375507169
     0.641331091  0.245285831  0.875507169
     0.630093410  0.761010605  0.212510784
     0.369906590  0.261010605  0.287489216
     0.869906590  0.238989395  0.712510784
     0.869906590  0.261010605  0.212510784
     0.630093410  0.738989395  0.712510784
     0.369906590  0.238989395  0.787489216
     0.130093410  0.738989395  0.787489216
     0.130093410  0.761010605  0.287489216

  ion indices of the primitive-cell ions
   primitive index   ion index
                 1           1
                 2           2
                 3           3
                 4           4
                 5           5
                 6           6
                 7           7
                 8           8
                 9           9
                10          10
                11          11
                12          12
                13          13
                14          14
                15          15
                16          16
                17          17
                18          18
                19          19
                20          20
                21          21
                22          22
                23          23
                24          24
                25          25
                26          26
                27          27
                28          28
                29          29
                30          30
                31          31
                32          32
                33          33
                34          34
                35          35
                36          36
                37          37
                38          38
                39          39
                40          40
                41          41
                42          42
                43          43
                44          44
                45          45
                46          46
                47          47
                48          48
                49          49
                50          50
                51          51
                52          52
                53          53
                54          54
                55          55
                56          56
                57          57
                58          58
                59          59
                60          60
                61          61
                62          62
                63          63
                64          64
                65          65
                66          66
                67          67
                68          68
                69          69
                70          70
                71          71
                72          72
                73          73
                74          74
                75          75
                76          76
                77          77
                78          78
                79          79

----------------------------------------------------------------------------------------



 KPOINTS: Gamma-point only                        

Automatic generation of k-mesh.
 Grid dimensions read from file:
 generate k-points for:    1    1    1

 Generating k-lattice:

  Cartesian coordinates                     Fractional coordinates (reciprocal lattice)
     0.082626613  0.000000000 -0.000000000     1.000000000 -0.000000000  0.000000000
     0.000000000  0.140967830 -0.000000000     0.000000000  1.000000000  0.000000000
    -0.000000000 -0.000000000  0.046187211    -0.000000000 -0.000000000  1.000000000

  Length of vectors
     0.082626613  0.140967830  0.046187211

  Shift w.r.t. Gamma in fractional coordinates (k-lattice)
     0.000000000  0.000000000  0.000000000

 
 Subroutine IBZKPT returns following result:
 ===========================================
 
 Found      1 irreducible k-points:
 
 Following reciprocal coordinates:
            Coordinates               Weight
  0.000000  0.000000  0.000000      1.000000
 
 Following cartesian coordinates:
            Coordinates               Weight
  0.000000  0.000000  0.000000      1.000000
 


--------------------------------------------------------------------------------------------------------




 Dimension of arrays:
   k-points           NKPTS =      1   k-points in BZ     NKDIM =      1   number of bands    NBANDS=    304
   number of dos      NEDOS =    301   number of ions     NIONS =     79
   non local maximal  LDIM  =      4   non local SUM 2l+1 LMDIM =      8
   total plane-waves  NPLWV = 233280
   max r-space proj   IRMAX =   1208   max aug-charges    IRDMAX=   5083
   dimension x,y,z NGX =    60 NGY =   36 NGZ =  108
   dimension x,y,z NGXF=   120 NGYF=   72 NGZF=  216
   support grid    NGXF=   120 NGYF=   72 NGZF=  216
   ions per type =              39   8  32
   NGX,Y,Z   is equivalent  to a cutoff of   8.24,  8.44,  8.29 a.u.
   NGXF,Y,Z  is equivalent  to a cutoff of  16.48, 16.87, 16.59 a.u.

 SYSTEM =  endpoint_relax                          
 POSCAR =  user_Na5AlS4_Na5AlS4 NEB image 00       

 Startparameter for this run:
   NWRITE =      2    write-flag & timer
   PREC   = normal    normal or accurate (medium, high low for compatibility)
   ISTART =      0    job   : 0-new  1-cont  2-samecut
   ICHARG =      2    charge: 1-file 2-atom 10-const
   ISPIN  =      1    spin polarized calculation?
   LNONCOLLINEAR =      F non collinear calculations
   LSORBIT =      F    spin-orbit coupling
   INIWAV =      1    electr: 0-lowe 1-rand  2-diag
   LASPH  =      F    aspherical Exc in radial PAW
 Electronic Relaxation 1
   ENCUT  =  400.0 eV  29.40 Ry    5.42 a.u.  19.74 11.57 35.31*2*pi/ulx,y,z
   ENINI  =  400.0     initial cutoff
   ENAUG  =  368.1 eV  augmentation charge cutoff
   NELM   =     60;   NELMIN=  2; NELMDL= -5     # of ELM steps 
   EDIFF  = 0.1E-04   stopping-criterion for ELM
   LREAL  =      T    real-space projection
   NLSPLINE    = F    spline interpolate recip. space projectors
   LCOMPAT=      F    compatible to vasp.4.4
   GGA_COMPAT  = T    GGA compatible to vasp.4.4-vasp.4.6
   LMAXPAW     = -100 max onsite density
   LMAXMIX     =    2 max onsite mixed and CHGCAR
   VOSKOWN=      0    Vosko Wilk Nusair interpolation
   ROPT   =   -0.00050  -0.00050  -0.00050
 Ionic relaxation
   EDIFFG = -.2E-01   stopping-criterion for IOM
   NSW    =    300    number of steps for IOM
   NBLOCK =      1;   KBLOCK =    300    inner block; outer block 
   IBRION =      2    ionic relax: 0-MD 1-quasi-New 2-CG
   NFREE  =      1    steps in history (QN), initial steepest desc. (CG)
   ISIF   =      2    stress and relaxation
   IWAVPR =     11    prediction:  0-non 1-charg 2-wave 3-comb
   ISYM   =      0    0-nonsym 1-usesym 2-fastsym
   LCORR  =      T    Harris-Foulkes like correction to forces

   POTIM  = 0.5000    time-step for ionic-motion
   TEIN   =    0.0    initial temperature
   TEBEG  =    0.0;   TEEND  =   0.0 temperature during run
   SMASS  =  -3.00    Nose mass-parameter (am)
   estimated Nose-frequenzy (Omega)   =  0.10E-29 period in steps = 0.13E+47 mass=  -0.335E-26a.u.
   SCALEE = 1.0000    scale energy and forces
   NPACO  =    256;   APACO  = 10.0  distance and # of slots for P.C.
   PSTRESS=    0.0 pullay stress

  Mass of Ions in am
   POMASS =  22.99 26.98 32.07
  Ionic Valenz
   ZVAL   =   7.00  3.00  6.00
  Atomic Wigner-Seitz radii
   RWIGS  =  -1.00 -1.00 -1.00
  virtual crystal weights 
   VCA    =   1.00  1.00  1.00
   NELECT =     489.0000    total number of electrons
   NUPDOWN=      -1.0000    fix difference up-down

 DOS related values:
   EMIN   =  10.00;   EMAX   =-10.00  energy-range for DOS
   EFERMI =   0.00
   ISMEAR =     1;   SIGMA  =   0.20  broadening in eV -4-tet -1-fermi 0-gaus

 Electronic relaxation 2 (details)
   IALGO  =     68    algorithm
   LDIAG  =      T    sub-space diagonalisation (order eigenvalues)
   LSUBROT=      F    optimize rotation matrix (better conditioning)
   TURBO    =      0    0=normal 1=particle mesh
   IRESTART =      0    0=no restart 2=restart with 2 vectors
   NREBOOT  =      0    no. of reboots
   NMIN     =      0    reboot dimension
   EREF     =   0.00    reference energy to select bands
   IMIX   =      4    mixing-type and parameters
     AMIX     =   0.40;   BMIX     =  1.00
     AMIX_MAG =   1.60;   BMIX_MAG =  1.00
     AMIN     =   0.10
     WC   =   100.;   INIMIX=   1;  MIXPRE=   1;  MAXMIX= -45

 Intra band minimization:
   WEIMIN = 0.0010     energy-eigenvalue tresh-hold
   EBREAK =  0.82E-08  absolut break condition
   DEPER  =   0.30     relativ break condition  

   TIME   =   0.40     timestep for ELM

  volume/ion in A,a.u.               =      23.53       158.78
  Fermi-wavevector in a.u.,A,eV,Ry     =   1.048975  1.982275 14.971143  1.100348
  Thomas-Fermi vector in A             =   2.183918

 Write flags
   LWAVE        =      T    write WAVECAR
   LDOWNSAMPLE  =      F    k-point downsampling of WAVECAR
   LCHARG       =      F    write CHGCAR
   LVTOT        =      F    write LOCPOT, total local potential
   LVHAR        =      F    write LOCPOT, Hartree potential only
   LELF         =      F    write electronic localiz. function (ELF)
   LORBIT       =      0    0 simple, 1 ext, 2 COOP (PROOUT), +10 PAW based schemes


 Dipole corrections
   LMONO  =      F    monopole corrections only (constant potential shift)
   LDIPOL =      F    correct potential (dipole corrections)
   IDIPOL =      0    1-x, 2-y, 3-z, 4-all directions 
   EPSILON=  1.0000000 bulk dielectric constant

 Exchange correlation treatment:
   GGA     =    --    GGA type
   LEXCH   =     8    internal setting for exchange type
   LIBXC   =     F    Libxc                    
   VOSKOWN =     0    Vosko Wilk Nusair interpolation
   LHFCALC =     F    Hartree Fock is set to
   LHFONE  =     F    Hartree Fock one center treatment
   AEXX    =    0.0000 exact exchange contribution

 Linear response parameters
   LEPSILON=     F    determine dielectric tensor
   LRPA    =     F    only Hartree local field effects (RPA)
   LNABLA  =     F    use nabla operator in PAW spheres
   LVEL    =     F    velocity operator in full k-point grid
   CSHIFT  =0.1000    complex shift for real part using Kramers Kronig
   OMEGAMAX=  -1.0    maximum frequency
   DEG_THRESHOLD= 0.2000000E-02 threshold for treating states as degnerate
   RTIME   =   -0.100 relaxation time in fs
  (WPLASMAI=    0.000 imaginary part of plasma frequency in eV, 0.658/RTIME)
   DFIELD  = 0.0000000 0.0000000 0.0000000 field for delta impulse in time

  Optional k-point grid parameters
   LKPOINTS_OPT  =     F    use optional k-point grid
   KPOINTS_OPT_MODE=     1    mode for optional k-point grid

 Orbital magnetization related:
   ORBITALMAG=     F  switch on orbital magnetization
   LCHIMAG   =     F  perturbation theory with respect to B field
   DQ        =  0.001000  dq finite difference perturbation B field
   LLRAUG    =     F  two centre corrections for induced B field



--------------------------------------------------------------------------------------------------------


 conjugate gradient relaxation of ions
 charge density and potential will be updated during run
 non-spin polarized calculation
 RMM-DIIS sequential band-by-band and
  variant of blocked Davidson during initial phase
 perform sub-space diagonalisation
    before iterative eigenvector-optimisation
 modified Broyden-mixing scheme, WC =      100.0
 initial mixing is a Kerker type mixing with AMIX =  0.4000 and BMIX =      1.0000
 Hartree-type preconditioning will be used
 using additional bands           59
 real space projection scheme for non local part
 use partial core corrections
 calculate Harris-corrections to forces   (improved forces if not selfconsistent)
 use gradient corrections 
 use of overlap-Matrix (Vanderbilt PP)
 Methfessel and Paxton  Order N= 1 SIGMA  =   0.20


--------------------------------------------------------------------------------------------------------


  energy-cutoff  :      400.00
  volume of cell :     1858.82
      direct lattice vectors                 reciprocal lattice vectors
    12.102638204 -0.000000000  0.000000000     0.082626613  0.000000000 -0.000000000
    -0.000000000  7.093817079  0.000000000     0.000000000  0.140967830 -0.000000000
     0.000000000  0.000000000 21.651014956    -0.000000000 -0.000000000  0.046187211

  length of vectors
    12.102638204  7.093817079 21.651014956     0.082626613  0.140967830  0.046187211



 k-points in units of 2pi/SCALE and weight: Gamma-point only                        
   0.00000000  0.00000000  0.00000000       1.000

 k-points in reciprocal lattice and weights: Gamma-point only                        
   0.00000000  0.00000000  0.00000000       1.000

 position of ions in fractional coordinates (direct lattice) 
   0.35150191  0.90858017  0.49987413
   0.64849809  0.40858017  0.00012587
   0.14849809  0.09141983  0.99987413
   0.14849809  0.40858017  0.49987413
   0.35150191  0.59141983  0.99987413
   0.64849809  0.09141983  0.50012587
   0.85150191  0.59141983  0.50012587
   0.85150191  0.90858017  0.00012587
   0.28703745  0.55364149  0.36570407
   0.71296255  0.05364149  0.13429593
   0.21296255  0.44635851  0.86570407
   0.21296255  0.05364149  0.36570407
   0.28703745  0.94635851  0.86570407
   0.71296255  0.44635851  0.63429593
   0.78703745  0.94635851  0.63429593
   0.78703745  0.55364149  0.13429593
   0.55639300  0.56516608  0.43411263
   0.44360700  0.06516608  0.06588737
   0.94360700  0.43483392  0.93411263
   0.94360700  0.06516608  0.43411263
   0.55639300  0.93483392  0.93411263
   0.05639300  0.93483392  0.56588737
   0.05639300  0.56516608  0.06588737
   0.58627787  0.38087654  0.25063615
   0.41372213  0.88087654  0.24936385
   0.91372213  0.61912346  0.75063615
   0.91372213  0.88087654  0.25063615
   0.58627787  0.11912346  0.75063615
   0.41372213  0.61912346  0.74936385
   0.08627787  0.11912346  0.74936385
   0.08627787  0.38087654  0.24936385
   0.83719533  0.10673928  0.82972499
   0.16280467  0.60673928  0.67027501
   0.66280467  0.89326072  0.32972499
   0.66280467  0.60673928  0.82972499
   0.83719533  0.39326072  0.32972499
   0.16280467  0.89326072  0.17027501
   0.33719533  0.39326072  0.17027501
   0.33719533  0.10673928  0.67027501
   0.04001543  0.82993984  0.87457964
   0.95998457  0.32993984  0.62542036
   0.45998457  0.17006016  0.37457964
   0.45998457  0.32993984  0.87457964
   0.04001543  0.67006016  0.37457964
   0.95998457  0.17006016  0.12542036
   0.54001543  0.67006016  0.12542036
   0.54001543  0.82993984  0.62542036
   0.37024906  0.20473403  0.95737182
   0.62975094  0.70473403  0.54262818
   0.12975094  0.79526597  0.45737182
   0.12975094  0.70473403  0.95737182
   0.37024906  0.29526597  0.45737182
   0.62975094  0.79526597  0.04262818
   0.87024906  0.29526597  0.04262818
   0.87024906  0.20473403  0.54262818
   0.44688961  0.85124212  0.37847753
   0.55311039  0.35124212  0.12152247
   0.05311039  0.14875788  0.87847753
   0.05311039  0.35124212  0.37847753
   0.44688961  0.64875788  0.87847753
   0.55311039  0.14875788  0.62152247
   0.94688961  0.64875788  0.62152247
   0.94688961  0.85124212  0.12152247
   0.14133109  0.24528583  0.62449283
   0.85866891  0.74528583  0.87550717
   0.35866891  0.75471417  0.12449283
   0.35866891  0.74528583  0.62449283
   0.14133109  0.25471417  0.12449283
   0.85866891  0.75471417  0.37550717
   0.64133109  0.25471417  0.37550717
   0.64133109  0.24528583  0.87550717
   0.63009341  0.76101060  0.21251078
   0.36990659  0.26101060  0.28748922
   0.86990659  0.23898940  0.71251078
   0.86990659  0.26101060  0.21251078
   0.63009341  0.73898940  0.71251078
   0.36990659  0.23898940  0.78748922
   0.13009341  0.73898940  0.78748922
   0.13009341  0.76101060  0.28748922

 position of ions in cartesian coordinates  (Angst):
   4.25410046  6.44530155 10.82278221
   7.84853774  2.89839301  0.00272527
   1.79721864  0.64851553 21.64828968
   1.79721864  2.89839301 10.82278221
   4.25410046  4.19542407 21.64828968
   7.84853774  0.64851553 10.82823275
  10.30541956  4.19542407 10.82823275
  10.30541956  6.44530155  0.00272527
   3.47391047  3.92743149  7.91786426
   8.62872774  0.38052295  2.90764322
   2.57740864  3.16638559 18.74337173
   2.57740864  0.38052295  7.91786426
   3.47391047  6.71329413 18.74337173
   8.62872774  3.16638559 13.73315070
   9.52522957  6.71329413 13.73315070
   9.52522957  3.92743149  2.90764322
   6.73382315  4.00918481  9.39897900
   5.36881506  0.46227627  1.42652848
  11.42013416  3.08463227 20.22448648
  11.42013416  0.46227627  9.39897900
   6.73382315  6.63154081 20.22448648
   0.68250405  6.63154081 12.25203596
   0.68250405  4.00918481  1.42652848
   7.09550897  2.70186847  5.42652698
   5.00712923  6.24877701  5.39898050
  11.05844833  4.39194861 16.25203446
  11.05844833  6.24877701  5.42652698
   7.09550897  0.84504007 16.25203446
   5.00712923  4.39194861 16.22448798
   1.04418987  0.84504007 16.22448798
   1.04418987  2.70186847  5.39898050
  10.13227221  0.75718890 17.96438807
   1.97036600  4.30409744 14.51213437
   8.02168510  6.33662818  7.13888059
   8.02168510  4.30409744 17.96438807
  10.13227221  2.78971964  7.13888059
   1.97036600  6.33662818  3.68662689
   4.08095310  2.78971964  3.68662689
   4.08095310  0.75718890 14.51213437
   0.48429230  5.88744139 18.93553695
  11.61834591  2.34053285 13.54098549
   5.56702680  1.20637569  8.11002947
   5.56702680  2.34053285 18.93553695
   0.48429230  4.75328423  8.11002947
  11.61834591  1.20637569  2.71547801
   6.53561140  4.75328423  2.71547801
   6.53561140  5.88744139 13.54098549
   4.48099047  1.45234575 20.72807159
   7.62164773  4.99925429 11.74845084
   1.57032863  5.64147133  9.90256412
   1.57032863  4.99925429 20.72807159
   4.48099047  2.09456279  9.90256412
   7.62164773  5.64147133  0.92294336
  10.53230957  2.09456279  0.92294336
  10.53230957  1.45234575 11.74845084
   5.40854330  6.03855590  8.19442259
   6.69409490  2.49164737  2.63108489
   0.64277580  1.05526117 19.01993007
   0.64277580  2.49164737  8.19442259
   5.40854330  4.60216971 19.01993007
   6.69409490  1.05526117 13.45659237
  11.45986240  4.60216971 13.45659237
  11.45986240  6.03855590  2.63108489
   1.71047906  1.74001282 13.52090363
  10.39215915  5.28692136 18.95561880
   4.34084004  5.35380426  2.69539615
   4.34084004  5.28692136 13.52090363
   1.71047906  1.80689572  2.69539615
  10.39215915  5.35380426  8.13011132
   7.76179816  1.80689572  8.13011132
   7.76179816  1.74001282 18.95561880
   7.62579258  5.39847003  4.60107416
   4.47684562  1.85156149  6.22443332
  10.52816473  1.69534705 15.42658163
  10.52816473  1.85156149  4.60107416
   7.62579258  5.24225559 15.42658163
   4.47684562  1.69534705 17.04994080
   1.57447348  5.24225559 17.04994080
   1.57447348  5.39847003  6.22443332



--------------------------------------------------------------------------------------------------------


 k-point   1 :   0.0000 0.0000 0.0000  plane waves:   33807

 maximum and minimum number of plane-waves per node :     33807    33807

 maximum number of plane-waves:     33807
 maximum index in each direction: 
   IXMAX=   19   IYMAX=   11   IZMAX=   35
   IXMIN=  -19   IYMIN=  -11   IZMIN=  -35


 serial   3D FFT for wavefunctions
 parallel 3D FFT for charge:
    minimum data exchange during FFTs selected (reduces bandwidth)


 total amount of memory used by VASP MPI-rank0    70507. kBytes
=======================================================================

   base      :      30000. kBytes
   nonlr-proj:       7314. kBytes
   fftplans  :       5096. kBytes
   grid      :      17383. kBytes
   one-center:        242. kBytes
   wavefun   :      10472. kBytes

     INWAV:  cpu time      0.0001: real time      0.0003
 Broyden mixing: mesh for mixing (old mesh)
   NGX = 39   NGY = 23   NGZ = 71
  (NGX  =120   NGY  = 72   NGZ  =216)
  gives a total of  63687 points

 initial charge density was supplied:
 charge density of overlapping atoms calculated
 number of electron     489.0000000 magnetization 
 keeping initial charge density in first step


--------------------------------------------------------------------------------------------------------


 Maximum index for non-local projection operator         1128
 Maximum index for augmentation-charges          582 (set IRDMAX)


--------------------------------------------------------------------------------------------------------


 First call to EWALD:  gamma=   0.144
 Maximum number of real-space cells 3x 4x 2
 Maximum number of reciprocal cells 3x 2x 4

    FEWALD:  cpu time      0.0054: real time      0.0054


--------------------------------------- Iteration      1(   1)  ---------------------------------------


    POTLOK:  cpu time      0.0718: real time      0.0719
    SETDIJ:  cpu time      0.0059: real time      0.0059
     EDDAV:  cpu time      2.0194: real time      2.0941
       DOS:  cpu time      0.0006: real time      0.0007
    --------------------------------------------
      LOOP:  cpu time      2.0977: real time      2.1726

 eigenvalue-minimisations  :   672
 total energy-change (2. order) : 0.4596360E+04  (-0.1999142E+05)
 number of electron     489.0000000 magnetization 
 augmentation part      489.0000000 magnetization 

 Free energy of the ion-electron system (eV)
  ---------------------------------------------------
  alpha Z        PSCENC =       656.31070834
  Ewald energy   TEWEN  =    -21484.62395634
  -Hartree energ DENC   =    -10743.60211449
  -exchange      EXHF   =         0.00000000
  -V(xc)+E(xc)   XCENC  =      1138.34730395
  PAW double counting   =     27080.65996750   -30177.27443338
  entropy T*S    EENTRO =        -0.00393043
  eigenvalues    EBANDS =     -1035.25691783
  atomic energy  EATOM  =     39161.80365354
  Solvation  Ediel_sol  =         0.00000000
  ---------------------------------------------------
  free energy    TOTEN  =      4596.36028087 eV

  energy without entropy =     4596.36421130  energy(sigma->0) =     4596.36159102


--------------------------------------------------------------------------------------------------------




--------------------------------------- Iteration      1(   2)  ---------------------------------------


     EDDAV:  cpu time      1.8231: real time      1.8248
       DOS:  cpu time      0.0005: real time      0.0006
    --------------------------------------------
      LOOP:  cpu time      1.8236: real time      1.8253

 eigenvalue-minimisations  :   656
 total energy-change (2. order) :-0.4276106E+04  (-0.4094789E+04)
 number of electron     489.0000000 magnetization 
 augmentation part      489.0000000 magnetization 

 Free energy of the ion-electron system (eV)
  ---------------------------------------------------
  alpha Z        PSCENC =       656.31070834
  Ewald energy   TEWEN  =    -21484.62395634
  -Hartree energ DENC   =    -10743.60211449
  -exchange      EXHF   =         0.00000000
  -V(xc)+E(xc)   XCENC  =      1138.34730395
  PAW double counting   =     27080.65996750   -30177.27443338
  entropy T*S    EENTRO =        -0.03771995
  eigenvalues    EBANDS =     -5311.32902353
  atomic energy  EATOM  =     39161.80365354
  Solvation  Ediel_sol  =         0.00000000
  ---------------------------------------------------
  free energy    TOTEN  =       320.25438565 eV

  energy without entropy =      320.29210560  energy(sigma->0) =      320.26695896


--------------------------------------------------------------------------------------------------------




--------------------------------------- Iteration      1(   3)  ---------------------------------------


     EDDAV:  cpu time      1.9649: real time      2.0044
       DOS:  cpu time      0.0005: real time      0.0006
    --------------------------------------------
      LOOP:  cpu time      1.9654: real time      2.0050

 eigenvalue-minimisations  :   720
 total energy-change (2. order) :-0.6082824E+03  (-0.6012175E+03)
 number of electron     489.0000000 magnetization 
 augmentation part      489.0000000 magnetization 

 Free energy of the ion-electron system (eV)
  ---------------------------------------------------
  alpha Z        PSCENC =       656.31070834
  Ewald energy   TEWEN  =    -21484.62395634
  -Hartree energ DENC   =    -10743.60211449
  -exchange      EXHF   =         0.00000000
  -V(xc)+E(xc)   XCENC  =      1138.34730395
  PAW double counting   =     27080.65996750   -30177.27443338
  entropy T*S    EENTRO =         0.04780986
  eigenvalues    EBANDS =     -5919.69697184
  atomic energy  EATOM  =     39161.80365354
  Solvation  Ediel_sol  =         0.00000000
  ---------------------------------------------------
  free energy    TOTEN  =      -288.02803286 eV

  energy without entropy =     -288.07584271  energy(sigma->0) =     -288.04396948


--------------------------------------------------------------------------------------------------------




--------------------------------------- Iteration      1(   4)  ---------------------------------------


     EDDAV:  cpu time      8.5721: real time      8.6046
       DOS:  cpu time      0.0005: real time      0.0005
    --------------------------------------------
      LOOP:  cpu time      8.5726: real time      8.6051

 eigenvalue-minimisations  :   704
 total energy-change (2. order) :-0.3371032E+02  (-0.3344394E+02)
 number of electron     489.0000000 magnetization 
 augmentation part      489.0000000 magnetization 

 Free energy of the ion-electron system (eV)
  ---------------------------------------------------
  alpha Z        PSCENC =       656.31070834
  Ewald energy   TEWEN  =    -21484.62395634
  -Hartree energ DENC   =    -10743.60211449
  -exchange      EXHF   =         0.00000000
  -V(xc)+E(xc)   XCENC  =      1138.34730395
  PAW double counting   =     27080.65996750   -30177.27443338
  entropy T*S    EENTRO =         0.11180662
  eigenvalues    EBANDS =     -5953.47129101
  atomic energy  EATOM  =     39161.80365354
  Solvation  Ediel_sol  =         0.00000000
  ---------------------------------------------------
  free energy    TOTEN  =      -321.73835527 eV

  energy without entropy =     -321.85016189  energy(sigma->0) =     -321.77562414


--------------------------------------------------------------------------------------------------------




--------------------------------------- Iteration      1(   5)  ---------------------------------------


     EDDAV:  cpu time      2.2590: real time      2.2674
       DOS:  cpu time      0.0005: real time      0.0008
    CHARGE:  cpu time      0.1214: real time      0.1215
    MIXING:  cpu time      0.0030: real time      0.0030
    --------------------------------------------
      LOOP:  cpu time      2.3840: real time      2.3928

 eigenvalue-minimisations  :   864
 total energy-change (2. order) :-0.1379831E+01  (-0.1377661E+01)
 number of electron     488.9999828 magnetization 
 augmentation part      146.0152971 magnetization 

 Broyden mixing:
  rms(total) = 0.26679E+01    rms(broyden)= 0.26678E+01
  rms(prec ) = 0.28602E+01
  weight for this iteration     100.00

 Free energy of the ion-electron system (eV)
  ---------------------------------------------------
  alpha Z        PSCENC =       656.31070834
  Ewald energy   TEWEN  =    -21484.62395634
  -Hartree energ DENC   =    -10743.60211449
  -exchange      EXHF   =         0.00000000
  -V(xc)+E(xc)   XCENC  =      1138.34730395
  PAW double counting   =     27080.65996750   -30177.27443338
  entropy T*S    EENTRO =         0.11110227
  eigenvalues    EBANDS =     -5954.85041784
  atomic energy  EATOM  =     39161.80365354
  Solvation  Ediel_sol  =         0.00000000
  ---------------------------------------------------
  free energy    TOTEN  =      -323.11818644 eV

  energy without entropy =     -323.22928871  energy(sigma->0) =     -323.15522053


--------------------------------------------------------------------------------------------------------




--------------------------------------- Iteration      1(   6)  ---------------------------------------


    POTLOK:  cpu time      0.0730: real time      0.0733
    SETDIJ:  cpu time      0.0056: real time      0.0056
    EDDIAG:  cpu time      0.3645: real time      0.3651
  RMM-DIIS:  cpu time      1.0119: real time      1.0125
    ORTHCH:  cpu time      0.0635: real time      0.0637
       DOS:  cpu time      0.0003: real time      0.0005
    CHARGE:  cpu time      0.1161: real time      0.1161
    MIXING:  cpu time      0.0023: real time      0.0024
    --------------------------------------------
      LOOP:  cpu time      1.6374: real time      1.6393

 eigenvalue-minimisations  :   647
 total energy-change (2. order) : 0.1775209E+02  (-0.2967661E+01)
 number of electron     488.9999827 magnetization 
 augmentation part      147.3598317 magnetization 

 Broyden mixing:
  rms(total) = 0.17916E+01    rms(broyden)= 0.17916E+01
  rms(prec ) = 0.18643E+01
  weight for this iteration     100.00

 eigenvalues of (default mixing * dielectric matrix)
  average eigenvalue GAMMA=   1.9609
  1.9609

 Free energy of the ion-electron system (eV)
  ---------------------------------------------------
  alpha Z        PSCENC =       656.31070834
  Ewald energy   TEWEN  =    -21484.62395634
  -Hartree energ DENC   =    -10850.78643853
  -exchange      EXHF   =         0.00000000
  -V(xc)+E(xc)   XCENC  =      1152.55715475
  PAW double counting   =     29995.32098990   -33088.46690635
  entropy T*S    EENTRO =         0.14646021
  eigenvalues    EBANDS =     -5847.62775926
  atomic energy  EATOM  =     39161.80365354
  Solvation  Ediel_sol  =         0.00000000
  ---------------------------------------------------
  free energy    TOTEN  =      -305.36609374 eV

  energy without entropy =     -305.51255395  energy(sigma->0) =     -305.41491381


--------------------------------------------------------------------------------------------------------




--------------------------------------- Iteration      1(   7)  ---------------------------------------


    POTLOK:  cpu time      0.0674: real time      0.0675
    SETDIJ:  cpu time      0.0054: real time      0.0054
    EDDIAG:  cpu time      0.3560: real time      0.3564
  RMM-DIIS:  cpu time      0.9642: real time      0.9652
    ORTHCH:  cpu time      0.0614: real time      0.0614
       DOS:  cpu time      0.0004: real time      0.0005
    CHARGE:  cpu time      0.1272: real time      0.1274
    MIXING:  cpu time      0.0025: real time      0.0025
    --------------------------------------------
      LOOP:  cpu time      1.5843: real time      1.5863

 eigenvalue-minimisations  :   623
 total energy-change (2. order) : 0.9633363E+00  (-0.3325034E+01)
 number of electron     488.9999829 magnetization 
 augmentation part      148.4723923 magnetization 

 Broyden mixing:
  rms(total) = 0.10889E+01    rms(broyden)= 0.10889E+01
  rms(prec ) = 0.11216E+01
  weight for this iteration     100.00

 eigenvalues of (default mixing * dielectric matrix)
  average eigenvalue GAMMA=   1.7017
  1.1651  2.2383

 Free energy of the ion-electron system (eV)
  ---------------------------------------------------
  alpha Z        PSCENC =       656.31070834
  Ewald energy   TEWEN  =    -21484.62395634
  -Hartree energ DENC   =    -10927.12837376
  -exchange      EXHF   =         0.00000000
  -V(xc)+E(xc)   XCENC  =      1165.41602904
  PAW double counting   =     34734.60390837   -37836.42241623
  entropy T*S    EENTRO =         0.01511523
  eigenvalues    EBANDS =     -5774.37742564
  atomic energy  EATOM  =     39161.80365354
  Solvation  Ediel_sol  =         0.00000000
  ---------------------------------------------------
  free energy    TOTEN  =      -304.40275745 eV

  energy without entropy =     -304.41787268  energy(sigma->0) =     -304.40779586


--------------------------------------------------------------------------------------------------------




--------------------------------------- Iteration      1(   8)  ---------------------------------------


    POTLOK:  cpu time      0.0677: real time      0.0679
    SETDIJ:  cpu time      0.0056: real time      0.0056
    EDDIAG:  cpu time      0.3603: real time      0.3604
  RMM-DIIS:  cpu time      1.1338: real time      1.1572
    ORTHCH:  cpu time      0.0611: real time      0.0614
       DOS:  cpu time      0.0003: real time      0.0005
    CHARGE:  cpu time      0.1188: real time      0.1188
    MIXING:  cpu time      0.0026: real time      0.0026
    --------------------------------------------
      LOOP:  cpu time      1.7501: real time      1.7743

 eigenvalue-minimisations  :   739
 total energy-change (2. order) : 0.2277247E+00  (-0.2641697E+00)
 number of electron     488.9999828 magnetization 
 augmentation part      148.3733527 magnetization 

 Broyden mixing:
  rms(total) = 0.59685E+00    rms(broyden)= 0.59685E+00
  rms(prec ) = 0.62549E+00
  weight for this iteration     100.00

 eigenvalues of (default mixing * dielectric matrix)
  average eigenvalue GAMMA=   1.6634
  2.5922  1.7125  0.6856

 Free energy of the ion-electron system (eV)
  ---------------------------------------------------
  alpha Z        PSCENC =       656.31070834
  Ewald energy   TEWEN  =    -21484.62395634
  -Hartree energ DENC   =    -10910.21242946
  -exchange      EXHF   =         0.00000000
  -V(xc)+E(xc)   XCENC  =      1165.56566600
  PAW double counting   =     36794.74484617   -39901.21366261
  entropy T*S    EENTRO =         0.01739951
  eigenvalues    EBANDS =     -5786.56725787
  atomic energy  EATOM  =     39161.80365354
  Solvation  Ediel_sol  =         0.00000000
  ---------------------------------------------------
  free energy    TOTEN  =      -304.17503272 eV

  energy without entropy =     -304.19243222  energy(sigma->0) =     -304.18083255


--------------------------------------------------------------------------------------------------------




--------------------------------------- Iteration      1(   9)  ---------------------------------------


    POTLOK:  cpu time      0.0661: real time      0.0664
    SETDIJ:  cpu time      0.0054: real time      0.0054
    EDDIAG:  cpu time      0.3588: real time      0.3591
  RMM-DIIS:  cpu time      1.0509: real time      1.0516
    ORTHCH:  cpu time      0.0614: real time      0.0614
       DOS:  cpu time      0.0003: real time      0.0005
    CHARGE:  cpu time      0.1161: real time      0.1161
    MIXING:  cpu time      0.0026: real time      0.0026
    --------------------------------------------
      LOOP:  cpu time      1.6614: real time      1.6630

 eigenvalue-minimisations  :   664
 total energy-change (2. order) : 0.7317763E-01  (-0.1615379E+00)
 number of electron     488.9999829 magnetization 
 augmentation part      148.1905139 magnetization 

 Broyden mixing:
  rms(total) = 0.25878E+00    rms(broyden)= 0.25878E+00
  rms(prec ) = 0.31362E+00
  weight for this iteration     100.00

 eigenvalues of (default mixing * dielectric matrix)
  average eigenvalue GAMMA=   1.3574
  2.3022  1.7439  0.7693  0.6144

 Free energy of the ion-electron system (eV)
  ---------------------------------------------------
  alpha Z        PSCENC =       656.31070834
  Ewald energy   TEWEN  =    -21484.62395634
  -Hartree energ DENC   =    -10885.46988952
  -exchange      EXHF   =         0.00000000
  -V(xc)+E(xc)   XCENC  =      1164.72430997
  PAW double counting   =     38662.60447008   -41771.72984086
  entropy T*S    EENTRO =         0.08260550
  eigenvalues    EBANDS =     -5807.80391580
  atomic energy  EATOM  =     39161.80365354
  Solvation  Ediel_sol  =         0.00000000
  ---------------------------------------------------
  free energy    TOTEN  =      -304.10185509 eV

  energy without entropy =     -304.18446059  energy(sigma->0) =     -304.12939025


--------------------------------------------------------------------------------------------------------




--------------------------------------- Iteration      1(  10)  ---------------------------------------


    POTLOK:  cpu time      0.0663: real time      0.0665
    SETDIJ:  cpu time      0.0054: real time      0.0054
    EDDIAG:  cpu time      0.3634: real time      0.3641
  RMM-DIIS:  cpu time      1.2385: real time      1.2400
    ORTHCH:  cpu time      0.0632: real time      0.0632
       DOS:  cpu time      0.0004: real time      0.0005
    CHARGE:  cpu time      0.1204: real time      0.1204
    MIXING:  cpu time      0.0027: real time      0.0027
    --------------------------------------------
      LOOP:  cpu time      1.8604: real time      1.8628

 eigenvalue-minimisations  :   768
 total energy-change (2. order) : 0.1468863E+00  (-0.3968052E-01)
 number of electron     488.9999829 magnetization 
 augmentation part      148.1658391 magnetization 

 Broyden mixing:
  rms(total) = 0.18743E+00    rms(broyden)= 0.18743E+00
  rms(prec ) = 0.21774E+00
  weight for this iteration     100.00

 eigenvalues of (default mixing * dielectric matrix)
  average eigenvalue GAMMA=   1.1664
  2.1172  1.7822  0.6928  0.6928  0.5468

 Free energy of the ion-electron system (eV)
  ---------------------------------------------------
  alpha Z        PSCENC =       656.31070834
  Ewald energy   TEWEN  =    -21484.62395634
  -Hartree energ DENC   =    -10887.00585735
  -exchange      EXHF   =         0.00000000
  -V(xc)+E(xc)   XCENC  =      1164.87617006
  PAW double counting   =     38555.02665556   -41663.85434521
  entropy T*S    EENTRO =         0.13454210
  eigenvalues    EBANDS =     -5806.62253952
  atomic energy  EATOM  =     39161.80365354
  Solvation  Ediel_sol  =         0.00000000
  ---------------------------------------------------
  free energy    TOTEN  =      -303.95496883 eV

  energy without entropy =     -304.08951092  energy(sigma->0) =     -303.99981619


--------------------------------------------------------------------------------------------------------




--------------------------------------- Iteration      1(  11)  ---------------------------------------


    POTLOK:  cpu time      0.0662: real time      0.0664
    SETDIJ:  cpu time      0.0054: real time      0.0054
    EDDIAG:  cpu time      0.3581: real time      0.3887
  RMM-DIIS:  cpu time      1.1840: real time      1.1852
    ORTHCH:  cpu time      0.0617: real time      0.0618
       DOS:  cpu time      0.0004: real time      0.0006
    CHARGE:  cpu time      0.1208: real time      0.1209
    MIXING:  cpu time      0.0027: real time      0.0027
    --------------------------------------------
      LOOP:  cpu time      1.7993: real time      1.8318

 eigenvalue-minimisations  :   746
 total energy-change (2. order) : 0.6591571E-01  (-0.8080592E-02)
 number of electron     488.9999828 magnetization 
 augmentation part      148.1694159 magnetization 

 Broyden mixing:
  rms(total) = 0.12490E+00    rms(broyden)= 0.12490E+00
  rms(prec ) = 0.13400E+00
  weight for this iteration     100.00

 eigenvalues of (default mixing * dielectric matrix)
  average eigenvalue GAMMA=   1.1086
  1.8082  1.8082  1.0054  1.0054  0.5121  0.5121

 Free energy of the ion-electron system (eV)
  ---------------------------------------------------
  alpha Z        PSCENC =       656.31070834
  Ewald energy   TEWEN  =    -21484.62395634
  -Hartree energ DENC   =    -10888.42804224
  -exchange      EXHF   =         0.00000000
  -V(xc)+E(xc)   XCENC  =      1164.98128032
  PAW double counting   =     38408.92414379   -41517.62006092
  entropy T*S    EENTRO =         0.12291536
  eigenvalues    EBANDS =     -5805.35969498
  atomic energy  EATOM  =     39161.80365354
  Solvation  Ediel_sol  =         0.00000000
  ---------------------------------------------------
  free energy    TOTEN  =      -303.88905312 eV

  energy without entropy =     -304.01196847  energy(sigma->0) =     -303.93002490


--------------------------------------------------------------------------------------------------------




--------------------------------------- Iteration      1(  12)  ---------------------------------------


    POTLOK:  cpu time      0.0675: real time      0.0677
    SETDIJ:  cpu time      0.0057: real time      0.0057
    EDDIAG:  cpu time      0.3663: real time      0.3663
  RMM-DIIS:  cpu time      1.1724: real time      1.1737
    ORTHCH:  cpu time      0.0624: real time      0.0624
       DOS:  cpu time      0.0004: real time      0.0005
    CHARGE:  cpu time      0.1204: real time      0.1206
    MIXING:  cpu time      0.0027: real time      0.0027
    --------------------------------------------
      LOOP:  cpu time      1.7978: real time      1.7996

 eigenvalue-minimisations  :   727
 total energy-change (2. order) : 0.8203092E-03  (-0.4221318E-02)
 number of electron     488.9999829 magnetization 
 augmentation part      148.1844346 magnetization 

 Broyden mixing:
  rms(total) = 0.82225E-01    rms(broyden)= 0.82225E-01
  rms(prec ) = 0.98978E-01
  weight for this iteration     100.00

 eigenvalues of (default mixing * dielectric matrix)
  average eigenvalue GAMMA=   1.2539
  2.3566  2.3566  1.6636  0.7550  0.7550  0.4452  0.4452

 Free energy of the ion-electron system (eV)
  ---------------------------------------------------
  alpha Z        PSCENC =       656.31070834
  Ewald energy   TEWEN  =    -21484.62395634
  -Hartree energ DENC   =    -10890.09871194
  -exchange      EXHF   =         0.00000000
  -V(xc)+E(xc)   XCENC  =      1165.10258880
  PAW double counting   =     38215.68249415   -41324.28483832
  entropy T*S    EENTRO =         0.10913437
  eigenvalues    EBANDS =     -5803.88930541
  atomic energy  EATOM  =     39161.80365354
  Solvation  Ediel_sol  =         0.00000000
  ---------------------------------------------------
  free energy    TOTEN  =      -303.88823281 eV

  energy without entropy =     -303.99736718  energy(sigma->0) =     -303.92461093


--------------------------------------------------------------------------------------------------------




--------------------------------------- Iteration      1(  13)  ---------------------------------------


    POTLOK:  cpu time      0.0667: real time      0.0670
    SETDIJ:  cpu time      0.0055: real time      0.0055
    EDDIAG:  cpu time      0.3500: real time      0.3502
  RMM-DIIS:  cpu time      1.1089: real time      1.1447
    ORTHCH:  cpu time      0.0628: real time      0.0628
       DOS:  cpu time      0.0003: real time      0.0005
    CHARGE:  cpu time      0.1184: real time      0.1188
    MIXING:  cpu time      0.0031: real time      0.0031
    --------------------------------------------
      LOOP:  cpu time      1.7157: real time      1.7526

 eigenvalue-minimisations  :   705
 total energy-change (2. order) :-0.7764220E-02  (-0.5189290E-02)
 number of electron     488.9999828 magnetization 
 augmentation part      148.2163823 magnetization 

 Broyden mixing:
  rms(total) = 0.10110E+00    rms(broyden)= 0.10110E+00
  rms(prec ) = 0.11503E+00
  weight for this iteration     100.00

 eigenvalues of (default mixing * dielectric matrix)
  average eigenvalue GAMMA=   1.1964
  2.3713  2.3713  1.5042  0.9044  0.9044  0.6618  0.4757  0.3778

 Free energy of the ion-electron system (eV)
  ---------------------------------------------------
  alpha Z        PSCENC =       656.31070834
  Ewald energy   TEWEN  =    -21484.62395634
  -Hartree energ DENC   =    -10893.18828496
  -exchange      EXHF   =         0.00000000
  -V(xc)+E(xc)   XCENC  =      1165.36181846
  PAW double counting   =     37927.26219498   -41035.77640349
  entropy T*S    EENTRO =         0.12059493
  eigenvalues    EBANDS =     -5801.16632249
  atomic energy  EATOM  =     39161.80365354
  Solvation  Ediel_sol  =         0.00000000
  ---------------------------------------------------
  free energy    TOTEN  =      -303.89599703 eV

  energy without entropy =     -304.01659196  energy(sigma->0) =     -303.93619534


--------------------------------------------------------------------------------------------------------




--------------------------------------- Iteration      1(  14)  ---------------------------------------


    POTLOK:  cpu time      0.0676: real time      0.0679
    SETDIJ:  cpu time      0.0055: real time      0.0055
    EDDIAG:  cpu time      0.3461: real time      0.3463
  RMM-DIIS:  cpu time      1.0900: real time      1.0908
    ORTHCH:  cpu time      0.0630: real time      0.0631
       DOS:  cpu time      0.0003: real time      0.0005
    CHARGE:  cpu time      0.1202: real time      0.1202
    MIXING:  cpu time      0.0031: real time      0.0031
    --------------------------------------------
      LOOP:  cpu time      1.6959: real time      1.6974

 eigenvalue-minimisations  :   679
 total energy-change (2. order) : 0.4406903E-02  (-0.1957809E-02)
 number of electron     488.9999828 magnetization 
 augmentation part      148.1950524 magnetization 

 Broyden mixing:
  rms(total) = 0.45641E-01    rms(broyden)= 0.45640E-01
  rms(prec ) = 0.64802E-01
  weight for this iteration     100.00

 eigenvalues of (default mixing * dielectric matrix)
  average eigenvalue GAMMA=   1.1101
  2.3905  2.3905  1.1719  1.1719  0.7204  0.6592  0.6592  0.4136  0.4136

 Free energy of the ion-electron system (eV)
  ---------------------------------------------------
  alpha Z        PSCENC =       656.31070834
  Ewald energy   TEWEN  =    -21484.62395634
  -Hartree energ DENC   =    -10891.09979236
  -exchange      EXHF   =         0.00000000
  -V(xc)+E(xc)   XCENC  =      1165.33013996
  PAW double counting   =     38112.18894555   -41221.10804624
  entropy T*S    EENTRO =         0.13152790
  eigenvalues    EBANDS =     -5802.82477047
  atomic energy  EATOM  =     39161.80365354
  Solvation  Ediel_sol  =         0.00000000
  ---------------------------------------------------
  free energy    TOTEN  =      -303.89159012 eV

  energy without entropy =     -304.02311802  energy(sigma->0) =     -303.93543276


--------------------------------------------------------------------------------------------------------




--------------------------------------- Iteration      1(  15)  ---------------------------------------


    POTLOK:  cpu time      0.0677: real time      0.0679
    SETDIJ:  cpu time      0.0054: real time      0.0054
    EDDIAG:  cpu time      0.3437: real time      0.3442
  RMM-DIIS:  cpu time      1.1454: real time      1.1466
    ORTHCH:  cpu time      0.0620: real time      0.0620
       DOS:  cpu time      0.0003: real time      0.0005
    CHARGE:  cpu time      0.1220: real time      0.1222
    MIXING:  cpu time      0.0032: real time      0.0032
    --------------------------------------------
      LOOP:  cpu time      1.7497: real time      1.7521

 eigenvalue-minimisations  :   709
 total energy-change (2. order) : 0.4378997E-02  (-0.6374709E-03)
 number of electron     488.9999828 magnetization 
 augmentation part      148.1830939 magnetization 

 Broyden mixing:
  rms(total) = 0.27252E-01    rms(broyden)= 0.27252E-01
  rms(prec ) = 0.28282E-01
  weight for this iteration     100.00

 eigenvalues of (default mixing * dielectric matrix)
  average eigenvalue GAMMA=   1.1617
  2.4043  2.4043  1.7964  1.1823  1.1823  0.5973  0.5973  0.6101  0.4211  0.4211

 Free energy of the ion-electron system (eV)
  ---------------------------------------------------
  alpha Z        PSCENC =       656.31070834
  Ewald energy   TEWEN  =    -21484.62395634
  -Hartree energ DENC   =    -10889.90881682
  -exchange      EXHF   =         0.00000000
  -V(xc)+E(xc)   XCENC  =      1165.27960433
  PAW double counting   =     38164.20922741   -41273.22911914
  entropy T*S    EENTRO =         0.12542548
  eigenvalues    EBANDS =     -5803.85393793
  atomic energy  EATOM  =     39161.80365354
  Solvation  Ediel_sol  =         0.00000000
  ---------------------------------------------------
  free energy    TOTEN  =      -303.88721113 eV

  energy without entropy =     -304.01263660  energy(sigma->0) =     -303.92901962


--------------------------------------------------------------------------------------------------------




--------------------------------------- Iteration      1(  16)  ---------------------------------------


    POTLOK:  cpu time      0.0658: real time      0.0660
    SETDIJ:  cpu time      0.0054: real time      0.0054
    EDDIAG:  cpu time      0.3450: real time      0.3450
  RMM-DIIS:  cpu time      1.0397: real time      1.0804
    ORTHCH:  cpu time      0.0615: real time      0.0619
       DOS:  cpu time      0.0003: real time      0.0005
    CHARGE:  cpu time      0.1172: real time      0.1172
    MIXING:  cpu time      0.0032: real time      0.0032
    --------------------------------------------
      LOOP:  cpu time      1.6381: real time      1.6797

 eigenvalue-minimisations  :   680
 total energy-change (2. order) :-0.9766728E-03  (-0.2121334E-03)
 number of electron     488.9999828 magnetization 
 augmentation part      148.1880711 magnetization 

 Broyden mixing:
  rms(total) = 0.18254E-01    rms(broyden)= 0.18254E-01
  rms(prec ) = 0.23578E-01
  weight for this iteration     100.00

 eigenvalues of (default mixing * dielectric matrix)
  average eigenvalue GAMMA=   1.2579
  2.9440  2.9440  1.2870  1.2870  1.3659  1.3659  0.6264  0.6264  0.5555  0.4175
  0.4175

 Free energy of the ion-electron system (eV)
  ---------------------------------------------------
  alpha Z        PSCENC =       656.31070834
  Ewald energy   TEWEN  =    -21484.62395634
  -Hartree energ DENC   =    -10890.91932043
  -exchange      EXHF   =         0.00000000
  -V(xc)+E(xc)   XCENC  =      1165.37260123
  PAW double counting   =     38122.24908745   -41231.27204031
  entropy T*S    EENTRO =         0.12863557
  eigenvalues    EBANDS =     -5802.93755684
  atomic energy  EATOM  =     39161.80365354
  Solvation  Ediel_sol  =         0.00000000
  ---------------------------------------------------
  free energy    TOTEN  =      -303.88818780 eV

  energy without entropy =     -304.01682337  energy(sigma->0) =     -303.93106632


--------------------------------------------------------------------------------------------------------




--------------------------------------- Iteration      1(  17)  ---------------------------------------


    POTLOK:  cpu time      0.0657: real time      0.0660
    SETDIJ:  cpu time      0.0053: real time      0.0053
    EDDIAG:  cpu time      0.3399: real time      0.3402
  RMM-DIIS:  cpu time      0.9959: real time      0.9968
    ORTHCH:  cpu time      0.0626: real time      0.0626
       DOS:  cpu time      0.0003: real time      0.0005
    CHARGE:  cpu time      0.1191: real time      0.1191
    MIXING:  cpu time      0.0034: real time      0.0034
    --------------------------------------------
      LOOP:  cpu time      1.5922: real time      1.5938

 eigenvalue-minimisations  :   625
 total energy-change (2. order) :-0.1132328E-03  (-0.1674305E-03)
 number of electron     488.9999828 magnetization 
 augmentation part      148.1886148 magnetization 

 Broyden mixing:
  rms(total) = 0.12712E-01    rms(broyden)= 0.12712E-01
  rms(prec ) = 0.14084E-01
  weight for this iteration     100.00

 eigenvalues of (default mixing * dielectric matrix)
  average eigenvalue GAMMA=   1.2104
  2.4909  2.4909  1.8630  1.8630  1.1018  1.1018  0.9852  0.6212  0.6212  0.5450
  0.4206  0.4206

 Free energy of the ion-electron system (eV)
  ---------------------------------------------------
  alpha Z        PSCENC =       656.31070834
  Ewald energy   TEWEN  =    -21484.62395634
  -Hartree energ DENC   =    -10891.22364344
  -exchange      EXHF   =         0.00000000
  -V(xc)+E(xc)   XCENC  =      1165.42685435
  PAW double counting   =     38065.77178674   -41174.92096264
  entropy T*S    EENTRO =         0.12637973
  eigenvalues    EBANDS =     -5802.55912132
  atomic energy  EATOM  =     39161.80365354
  Solvation  Ediel_sol  =         0.00000000
  ---------------------------------------------------
  free energy    TOTEN  =      -303.88830103 eV

  energy without entropy =     -304.01468076  energy(sigma->0) =     -303.93042761


--------------------------------------------------------------------------------------------------------




--------------------------------------- Iteration      1(  18)  ---------------------------------------


    POTLOK:  cpu time      0.0660: real time      0.0663
    SETDIJ:  cpu time      0.0054: real time      0.0054
    EDDIAG:  cpu time      0.3505: real time      0.3509
  RMM-DIIS:  cpu time      1.1152: real time      1.1162
    ORTHCH:  cpu time      0.0636: real time      0.0636
       DOS:  cpu time      0.0003: real time      0.0005
    CHARGE:  cpu time      0.1194: real time      0.1194
[...]
     0.000000000  0.000000000 21.651014956    -0.000000000 -0.000000000  0.046187211

  length of vectors
    12.102638204  7.093817079 21.651014956     0.082626613  0.140967830  0.046187211


 FORCES acting on ions
    electron-ion (+dipol)            ewald-force                    non-local-force                 convergence-correction
 -----------------------------------------------------------------------------------------------
   -.156E+02 0.126E+02 -.627E+02   0.150E+02 -.116E+02 0.617E+02   0.517E+00 -.102E+01 0.102E+01   0.407E-03 -.108E-03 0.254E-02
   -.138E+01 0.317E+01 0.443E+02   0.197E+01 -.240E+01 -.425E+02   -.596E+00 -.774E+00 -.182E+01   0.334E-04 -.491E-03 -.104E-02
   -.327E+01 -.258E+01 -.338E+02   0.390E+01 0.183E+01 0.320E+02   -.634E+00 0.757E+00 0.176E+01   0.968E-03 0.125E-03 0.132E-02
   -.307E+02 0.837E+00 -.537E+02   0.315E+02 -.298E+00 0.524E+02   -.822E+00 -.546E+00 0.129E+01   0.386E-02 -.511E-03 0.149E-02
   0.118E+01 -.263E+01 -.332E+02   -.178E+01 0.188E+01 0.315E+02   0.604E+00 0.751E+00 0.176E+01   -.531E-03 0.393E-03 -.760E-03
   0.236E+02 -.159E+02 0.248E+02   -.232E+02 0.147E+02 -.231E+02   -.387E+00 0.122E+01 -.175E+01   -.261E-02 0.229E-04 0.348E-02
   0.146E+02 0.287E+01 0.321E+02   -.154E+02 -.354E+01 -.305E+02   0.825E+00 0.670E+00 -.160E+01   -.117E-02 -.417E-03 0.111E-02
   0.322E+01 0.178E+01 0.437E+02   -.389E+01 -.108E+01 -.420E+02   0.671E+00 -.704E+00 -.173E+01   0.514E-03 0.430E-03 -.104E-03
   -.235E+02 -.689E+01 -.116E+02   0.239E+02 0.628E+01 0.107E+02   -.461E+00 0.602E+00 0.888E+00   0.578E-03 -.351E-04 0.128E-02
   0.153E+02 -.677E+01 -.180E+02   -.158E+02 0.619E+01 0.189E+02   0.469E+00 0.582E+00 -.845E+00   0.881E-03 -.368E-04 0.431E-03
   0.101E+02 0.727E+01 0.268E+02   -.105E+02 -.658E+01 -.277E+02   0.411E+00 -.685E+00 0.859E+00   0.218E-02 0.512E-03 -.703E-03
   0.950E+01 -.576E+01 -.331E+01   -.967E+01 0.537E+01 0.281E+01   0.166E+00 0.390E+00 0.503E+00   0.765E-03 -.651E-03 0.166E-02
   -.173E+02 0.575E+01 0.298E+02   0.177E+02 -.520E+01 -.306E+02   -.396E+00 -.546E+00 0.799E+00   0.604E-03 0.558E-03 -.149E-02
   0.508E+02 0.616E+01 0.420E+01   -.517E+02 -.557E+01 -.388E+01   0.945E+00 -.594E+00 -.320E+00   -.167E-02 -.169E-02 -.366E-04
   -.843E+01 0.572E+01 -.122E+02   0.823E+01 -.525E+01 0.125E+02   0.197E+00 -.478E+00 -.245E+00   -.203E-02 0.103E-02 -.871E-03
   -.118E+02 -.646E+01 -.163E+02   0.121E+02 0.586E+01 0.172E+02   -.347E+00 0.593E+00 -.868E+00   0.747E-03 -.729E-03 -.332E-03
   -.122E+02 0.889E-01 -.449E+02   0.119E+02 -.850E-03 0.450E+02   0.233E+00 -.883E-01 -.103E+00   -.273E-02 -.127E-02 0.312E-02
   0.337E+02 -.868E+01 -.732E+01   -.330E+02 0.866E+01 0.734E+01   -.725E+00 0.134E-01 -.165E-01   -.287E-02 -.134E-02 -.572E-03
   0.350E+02 0.925E+01 0.175E+02   -.344E+02 -.929E+01 -.174E+02   -.624E+00 0.461E-01 -.860E-01   0.136E-02 0.956E-03 0.355E-03
   0.370E+02 -.114E+02 0.399E+00   -.362E+02 0.115E+02 -.418E+00   -.724E+00 -.106E+00 0.144E-01   0.941E-04 -.531E-03 0.122E-02
   -.335E+02 0.839E+01 0.183E+02   0.329E+02 -.837E+01 -.183E+02   0.641E+00 -.175E-01 -.408E-01   -.107E-02 0.136E-02 -.938E-03
   -.467E+02 0.621E+01 -.144E+02   0.461E+02 -.630E+01 0.143E+02   0.632E+00 0.995E-01 0.612E-01   0.243E-02 0.102E-02 0.178E-03
   -.344E+02 -.842E+01 -.766E+01   0.338E+02 0.850E+01 0.758E+01   0.593E+00 -.796E-01 0.808E-01   0.138E-02 -.160E-02 0.212E-03
   -.188E+02 0.794E+01 -.350E+02   0.170E+02 -.716E+01 0.344E+02   0.181E+01 -.786E+00 0.549E+00   -.196E-02 0.164E-02 0.224E-02
   0.104E+02 0.687E+01 0.911E+01   -.852E+01 -.571E+01 -.832E+01   -.190E+01 -.116E+01 -.783E+00   -.161E-02 0.622E-03 -.497E-03
   0.161E+02 -.557E+01 -.934E+01   -.142E+02 0.460E+01 0.838E+01   -.193E+01 0.966E+00 0.953E+00   0.910E-03 -.174E-02 -.326E-03
   0.202E+02 0.674E+01 -.285E+02   -.187E+02 -.591E+01 0.278E+02   -.147E+01 -.836E+00 0.626E+00   0.225E-02 0.330E-04 0.720E-03
   -.387E+01 -.100E+02 0.695E-01   0.202E+01 0.917E+01 -.103E+01   0.184E+01 0.867E+00 0.971E+00   -.153E-02 0.215E-03 -.331E-02
   0.164E+02 -.372E+01 0.544E+02   -.144E+02 0.312E+01 -.539E+02   -.194E+01 0.610E+00 -.479E+00   0.294E-03 -.117E-02 -.384E-02
   -.238E+02 -.761E+01 0.346E+02   0.226E+02 0.673E+01 -.339E+02   0.125E+01 0.885E+00 -.681E+00   -.171E-02 -.701E-03 -.295E-02
   -.152E+02 0.682E+01 0.121E+02   0.133E+02 -.593E+01 -.112E+02   0.195E+01 -.888E+00 -.886E+00   0.114E-02 0.597E-03 -.791E-03
   0.264E+02 -.734E+01 0.876E+01   -.252E+02 0.659E+01 -.821E+01   -.117E+01 0.747E+00 -.545E+00   -.619E-03 0.113E-03 -.286E-02
   -.491E+02 -.607E+01 0.181E+02   0.480E+02 0.517E+01 -.183E+02   0.111E+01 0.908E+00 0.268E+00   0.381E-02 -.778E-03 -.728E-03
   -.218E+02 0.989E+01 -.209E+02   0.203E+02 -.931E+01 0.215E+02   0.149E+01 -.592E+00 -.594E+00   -.419E-03 0.425E-04 0.203E-03
   -.207E+02 -.619E+01 0.111E+02   0.195E+02 0.532E+01 -.107E+02   0.129E+01 0.877E+00 -.365E+00   -.118E-02 -.896E-03 -.328E-02
   0.353E+02 0.823E+01 -.163E+02   -.341E+02 -.714E+01 0.165E+02   -.119E+01 -.110E+01 -.242E+00   0.510E-03 0.689E-03 -.179E-04
   -.254E+02 0.640E+01 0.101E-01   0.243E+02 -.563E+01 -.517E+00   0.112E+01 -.777E+00 0.508E+00   0.906E-03 0.842E-03 0.135E-02
   0.235E+02 0.753E+01 -.197E+01   -.222E+02 -.676E+01 0.131E+01   -.127E+01 -.785E+00 0.657E+00   -.278E-02 0.672E-03 0.194E-02
   0.770E+01 -.298E+02 0.346E+02   -.625E+01 0.283E+02 -.348E+02   -.144E+01 0.151E+01 0.263E+00   0.193E-02 -.200E-02 -.184E-02
   0.929E+01 0.321E+01 0.137E+01   -.903E+01 -.272E+01 -.164E+01   -.262E+00 -.480E+00 0.271E+00   0.270E-03 -.190E-03 -.206E-03
   -.994E+01 0.268E+01 0.271E+01   0.986E+01 -.219E+01 -.268E+01   0.758E-01 -.479E+00 -.295E-01   0.374E-04 -.239E-03 -.121E-03
   -.137E+02 -.494E+01 -.115E+02   0.132E+02 0.464E+01 0.119E+02   0.466E+00 0.308E+00 -.390E+00   -.595E-03 0.466E-03 0.121E-02
   -.930E+01 0.385E+01 0.415E+01   0.909E+01 -.330E+01 -.438E+01   0.210E+00 -.534E+00 0.231E+00   -.200E-03 -.869E-04 -.614E-03
   0.837E+01 -.225E+01 -.731E+01   -.828E+01 0.176E+01 0.724E+01   -.910E-01 0.481E+00 0.663E-01   0.638E-03 0.664E-04 0.160E-03
   -.897E+01 -.357E+01 0.234E+01   0.874E+01 0.301E+01 -.217E+01   0.226E+00 0.548E+00 -.170E+00   0.795E-03 0.160E-03 0.194E-03
   0.919E+01 -.386E+01 0.192E+01   -.897E+01 0.331E+01 -.171E+01   -.220E+00 0.540E+00 -.218E+00   -.678E-03 0.175E-03 0.309E-04
   0.242E+02 0.188E+02 0.111E+02   -.241E+02 -.176E+02 -.112E+02   -.138E+00 -.122E+01 0.103E+00   -.134E-02 0.191E-03 -.221E-03
   0.791E+01 -.249E+01 -.234E+02   -.853E+01 0.237E+01 0.244E+02   0.615E+00 0.111E+00 -.104E+01   -.244E-03 -.135E-03 -.391E-03
   0.319E+02 0.225E+02 0.296E+02   -.313E+02 -.225E+02 -.306E+02   -.574E+00 -.629E-01 0.103E+01   -.204E-02 0.367E-03 0.889E-03
   -.196E+02 0.656E+01 -.422E+02   0.202E+02 -.644E+01 0.433E+02   -.552E+00 -.123E+00 -.106E+01   0.169E-02 0.289E-03 0.791E-03
   -.114E+02 -.280E+01 -.239E+02   0.120E+02 0.268E+01 0.249E+02   -.638E+00 0.131E+00 -.103E+01   0.439E-03 -.258E-03 0.145E-03
   -.129E+02 -.169E+02 -.915E+02   0.125E+02 0.171E+02 0.928E+02   0.367E+00 -.157E+00 -.137E+01   0.433E-03 0.422E-03 0.210E-02
   -.889E+01 0.245E+01 0.323E+02   0.952E+01 -.232E+01 -.333E+02   -.640E+00 -.135E+00 0.104E+01   -.623E-03 0.496E-04 -.332E-03
   0.110E+02 0.290E+01 0.328E+02   -.116E+02 -.277E+01 -.338E+02   0.645E+00 -.135E+00 0.102E+01   0.109E-02 -.454E-04 0.329E-03
   0.144E+02 -.619E+01 0.292E+02   -.150E+02 0.606E+01 -.302E+02   0.609E+00 0.133E+00 0.102E+01   -.736E-03 -.231E-03 0.808E-03
   -.206E+02 0.252E+02 -.270E+02   0.207E+02 -.260E+02 0.266E+02   -.129E+00 0.830E+00 0.383E+00   -.118E-02 -.487E-03 0.234E-02
   0.898E+01 0.175E+02 0.192E+01   -.898E+01 -.183E+02 -.153E+01   0.268E-02 0.752E+00 -.393E+00   -.806E-03 0.390E-03 0.122E-03
   0.963E+01 -.173E+02 0.503E+01   -.964E+01 0.180E+02 -.540E+01   0.111E-01 -.763E+00 0.374E+00   0.316E-03 -.330E-03 -.475E-03
   0.925E+01 0.159E+02 -.191E+02   -.911E+01 -.167E+02 0.188E+02   -.132E+00 0.768E+00 0.374E+00   0.956E-03 0.525E-03 0.346E-03
   -.100E+02 -.167E+02 0.810E+01   0.100E+02 0.175E+02 -.850E+01   0.139E-01 -.754E+00 0.401E+00   -.444E-03 -.792E-03 -.118E-02
   0.485E+02 -.566E+02 0.323E+02   -.488E+02 0.572E+02 -.324E+02   0.242E+00 -.624E+00 0.668E-01   -.124E-02 0.467E-05 -.487E-03
   -.119E+02 -.144E+02 0.485E+01   0.118E+02 0.152E+02 -.450E+01   0.975E-01 -.760E+00 -.348E+00   0.120E-03 -.373E-03 -.289E-03
   -.895E+01 0.170E+02 0.353E+01   0.897E+01 -.177E+02 -.315E+01   -.234E-01 0.775E+00 -.379E+00   0.143E-02 0.726E-03 0.645E-03
   -.547E+02 0.337E+01 0.113E+02   0.555E+02 -.346E+01 -.115E+02   -.743E+00 0.905E-01 0.228E+00   0.175E-02 -.444E-04 -.711E-03
   0.390E+02 0.497E+01 -.289E+01   -.397E+02 -.514E+01 0.319E+01   0.701E+00 0.164E+00 -.302E+00   0.211E-03 0.118E-03 -.916E-03
   0.359E+02 -.562E+01 0.105E+02   -.366E+02 0.579E+01 -.108E+02   0.704E+00 -.159E+00 0.286E+00   -.127E-02 0.616E-03 0.595E-03
   0.116E+02 0.436E+02 0.313E+02   -.123E+02 -.439E+02 -.317E+02   0.732E+00 0.305E+00 0.404E+00   0.491E-03 0.296E-03 -.562E-03
   -.381E+02 -.538E+01 0.106E+02   0.389E+02 0.556E+01 -.109E+02   -.712E+00 -.174E+00 0.312E+00   0.476E-03 0.177E-04 0.528E-03
   0.453E+02 -.434E+01 -.169E+02   -.461E+02 0.449E+01 0.172E+02   0.736E+00 -.153E+00 -.310E+00   0.287E-03 0.190E-03 0.771E-03
   -.309E+02 -.167E+02 -.219E+02   0.316E+02 0.171E+02 0.222E+02   -.683E+00 -.362E+00 -.325E+00   -.186E-02 0.410E-03 0.170E-02
   -.352E+02 0.554E+01 -.706E+00   0.359E+02 -.573E+01 0.996E+00   -.680E+00 0.177E+00 -.284E+00   -.871E-03 -.477E-04 -.134E-02
   -.143E+02 -.140E+02 -.420E+02   0.149E+02 0.141E+02 0.428E+02   -.570E+00 -.105E+00 -.840E+00   -.510E-03 -.163E-04 0.892E-03
   0.711E+01 -.104E+02 0.210E+02   -.761E+01 0.104E+02 -.217E+02   0.488E+00 -.160E-01 0.722E+00   -.108E-02 0.299E-03 0.987E-03
   0.145E+02 0.993E+01 -.243E+02   -.151E+02 -.100E+02 0.251E+02   0.564E+00 0.120E+00 -.814E+00   -.525E-03 -.333E-03 -.566E-03
   0.174E+02 -.115E+02 -.394E+02   -.180E+02 0.116E+02 0.402E+02   0.565E+00 -.774E-01 -.835E+00   0.134E-02 -.837E-04 0.328E-03
   0.120E+01 0.171E+02 -.128E+02   -.670E+00 -.171E+02 0.135E+02   -.529E+00 0.215E-01 -.697E+00   -.160E-02 0.577E-04 -.163E-02
   0.124E+02 0.139E+02 0.568E+02   -.130E+02 -.142E+02 -.576E+02   0.593E+00 0.215E+00 0.834E+00   0.431E-03 0.112E-03 -.225E-02
   -.182E+02 0.119E+02 0.453E+02   0.188E+02 -.120E+02 -.462E+02   -.535E+00 0.775E-01 0.858E+00   0.103E-02 -.157E-03 -.171E-02
   -.128E+02 -.114E+02 0.231E+02   0.133E+02 0.114E+02 -.239E+02   -.555E+00 -.917E-01 0.800E+00   0.604E-03 -.130E-03 -.737E-04
 -----------------------------------------------------------------------------------------------
   -.102E+01 0.265E+00 0.188E+00   -.107E-12 -.622E-13 0.490E-12   0.994E+00 -.289E+00 -.173E+00   -.953E-03 -.285E-02 -.603E-03


 POSITION                                       TOTAL-FORCE (eV/Angst)
 -----------------------------------------------------------------------------------
      4.21687      6.36176     10.82227        -0.000102     -0.002835      0.001112
      7.88212      2.88570      0.02652        -0.003072     -0.001486     -0.001988
      1.83370      0.65533     21.60534        -0.002848      0.002726      0.004031
      1.96019      2.93676     10.88212        -0.008149     -0.007712      0.002947
      4.21532      4.19743     21.61121        -0.000628      0.001190      0.003301
      7.86956      0.72284     10.83583        -0.004411     -0.002996      0.007336
     10.32479      4.24488     10.80801         0.005925     -0.001312     -0.001591
     10.25758      6.43420      0.04395         0.003321      0.000912     -0.003166
      3.51841      3.83751      7.85962        -0.000859     -0.001195      0.000079
      8.60809      0.36986      3.00108         0.003618      0.001754     -0.005187
      2.55104      3.17719     18.65316        -0.000130      0.000564      0.004715
      2.57550      0.33395      7.92289         0.000119     -0.001568     -0.003388
      3.47644      6.72199     18.64297        -0.003302      0.001536     -0.004539
      8.53313      3.20858     13.68800        -0.001156      0.002974      0.001884
      9.51702      6.76866     13.72600         0.000318     -0.004095     -0.001310
      9.54563      3.91570      2.99427        -0.004131      0.001256     -0.002374
      6.47386      3.82522      9.78907        -0.000557     -0.001190      0.004887
      5.39997      0.44355      1.41152        -0.003126     -0.007651     -0.003150
     11.45186      3.09937     20.23716        -0.002349      0.003743     -0.001083
     11.47489      0.43770      9.41681        -0.005936     -0.007840     -0.002832
      6.68688      6.64031     20.22620         0.000181      0.006555     -0.000460
      0.64657      6.71141     12.24096         0.005071      0.003327      0.003450
      0.64852      3.99494      1.41525         0.002586     -0.004562      0.001173
      7.04773      2.73072      5.52396         0.001806     -0.001009     -0.004632
      5.02575      6.19630      5.39337        -0.000649      0.005145     -0.002640
     11.04050      4.39559     16.28246        -0.005545      0.002241     -0.005121
     11.11343      6.27977      5.49028        -0.002804     -0.002586     -0.000583
      7.05220      0.81333     16.26479        -0.002898      0.004092      0.004386
      5.03071      4.40221     16.12573         0.005377      0.007231      0.000372
      1.04320      0.81917     16.15147         0.005122      0.006988      0.004510
      1.02977      2.71742      5.35678        -0.001056      0.000820     -0.001197
     10.09838      0.75238     17.95607         0.000593      0.004138      0.003301
      2.01651      4.37318     14.46219        -0.005905      0.000559      0.000957
      8.02434      6.24968      7.24860         0.005775     -0.008659      0.002752
      8.03159      4.28753     17.96350        -0.001727      0.004236     -0.001101
     10.10094      2.76819      7.19776        -0.001457     -0.001713     -0.002252
      2.00708      6.35044      3.68329        -0.000266     -0.003851      0.001604
      4.06666      2.77916      3.68691        -0.002003     -0.006788      0.000983
      4.16413      1.03011     14.24698         0.003355      0.000603     -0.003832
      0.47540      5.90468     18.92249         0.005216      0.013045      0.002953
     11.57663      2.42327     13.54118        -0.004453      0.007708      0.006196
      5.54187      1.09047      8.12935         0.001647      0.006935     -0.002335
      5.53953      2.35645     18.88826        -0.000331      0.012215      0.002434
      0.52866      4.71337      8.10321         0.002305     -0.004674     -0.003046
     11.61455      1.18641      2.72984        -0.006502     -0.011986     -0.003805
      6.54958      4.72940      2.73420         0.003016     -0.004832      0.000488
      6.57078      5.90097     13.50798        -0.000386     -0.002661     -0.003495
      4.45916      1.47249     20.70229        -0.002768     -0.002504      0.005194
      7.79270      5.16296     11.73418         0.005111     -0.001199     -0.004509
      1.56081      5.59263      9.93708         0.007740     -0.001127      0.003717
      1.57671      5.02277     20.72114        -0.004494      0.006571     -0.007892
      4.41335      1.92774      9.91445        -0.008173     -0.006161      0.000704
      7.63067      5.61562      0.92451        -0.002452     -0.005352      0.000760
     10.51391      2.07023      0.93232         0.005517     -0.004685      0.000049
     10.52724      1.54582     11.71911         0.009831      0.000408     -0.001391
      5.44409      5.91906      8.20427         0.002072      0.002644      0.005302
      6.68272      2.47172      2.67949         0.002810      0.001229     -0.005664
      0.61772      1.06871     18.96451         0.003157     -0.008853      0.006824
      0.66792      2.46071      8.16675         0.003768      0.005303      0.001067
      5.40154      4.61417     18.95538        -0.002028     -0.010399      0.002830
      6.77429      1.05673     13.44886         0.007625      0.018130     -0.002992
     11.46412      4.67560     13.49141        -0.002726     -0.006713      0.000928
     11.48050      6.02308      2.68139        -0.007268      0.014347     -0.003295
      1.64832      1.79086     13.53851        -0.003867     -0.003309     -0.005929
     10.39046      5.28317     18.97993        -0.002877     -0.001939      0.005769
      4.36078      5.34843      2.68606        -0.002417      0.004683     -0.004211
      4.37913      5.38194     13.48460         0.010159      0.004489     -0.000351
      1.69947      1.81222      2.67227        -0.002477      0.007628      0.000712
     10.45815      5.35704      8.10943        -0.002141      0.002130     -0.002454
      7.70165      1.80519      8.18432        -0.002359     -0.001554      0.005680
      7.72471      1.72714     18.94715         0.013992     -0.007225      0.005103
      7.63572      5.36840      4.63820         0.001130     -0.008876     -0.005688
      4.46826      1.74136      6.21085        -0.007316     -0.004916     -0.000319
     10.46735      1.75492     15.42184         0.007027      0.003022      0.000461
     10.53909      1.83290      4.63928        -0.004921      0.000531     -0.004326
      7.65009      5.26493     15.43285         0.003107     -0.000379      0.007703
      4.45681      1.71890     16.97885        -0.005246      0.001886     -0.002391
      1.54536      5.25278     17.01903         0.005040     -0.001975     -0.000402
      1.64604      5.35280      6.21736        -0.003170     -0.005129     -0.001741
 -----------------------------------------------------------------------------------
    total drift:                               -0.030765     -0.027023      0.014748


--------------------------------------------------------------------------------------------------------



  FREE ENERGIE OF THE ION-ELECTRON SYSTEM (eV)
  ---------------------------------------------------
  free  energy   TOTEN  =      -304.18925128 eV

  energy  without entropy=     -304.33076113  energy(sigma->0) =     -304.23642123

 d Force = 0.1944095E-03[ 0.117E-03, 0.272E-03]  d Energy = 0.1762266E-03 0.182E-04
 d Force = 0.6059656E-02[ 0.413E-02, 0.799E-02]  d Ewald  = 0.6062963E-02-0.331E-05


--------------------------------------------------------------------------------------------------------


    POTLOK:  cpu time      0.0692: real time      0.0692


--------------------------------------------------------------------------------------------------------




--------------------------------------------------------------------------------------------------------


  
 reached required accuracy - stopping structural energy minimisation
 writing wavefunctions
     LOOP+:  cpu time     11.3769: real time     11.4066
    4ORBIT:  cpu time      0.0000: real time      0.0000

 total amount of memory used by VASP MPI-rank0    70507. kBytes
=======================================================================

   base      :      30000. kBytes
   nonlr-proj:       7314. kBytes
   fftplans  :       5096. kBytes
   grid      :      17383. kBytes
   one-center:        242. kBytes
   wavefun   :      10472. kBytes

  
  
 General timing and accounting informations for this job:
 ========================================================
  
                  Total CPU time used (sec):      656.647
                            User time (sec):      641.402
                          System time (sec):       15.245
                         Elapsed time (sec):      666.420
  
                   Maximum memory used (kb):      215276.
                   Average memory used (kb):          N/A
  
                          Minor page faults:      1272706
                          Major page faults:          189
                 Voluntary context switches:         1574
