   4   4   0   0
  0.1825444E+02  0.3548678E-09  0.3548678E-09  0.6695219E-09  0.5000000E-15
   1.0000000000000000E-004
  CAR 
 unknown system                          
     26.73943879    -20.81939378  301      6.11496418      1.00000000
    -20.819  0.0000E+00  0.0000E+00
    -20.661  0.0000E+00  0.0000E+00
    -20.502  0.0000E+00  0.0000E+00
    -20.344  0.0000E+00  0.0000E+00
    -20.185  0.0000E+00  0.0000E+00
    -20.027  0.0000E+00  0.0000E+00
    -19.868  0.0000E+00  0.0000E+00
    -19.710  0.0000E+00  0.0000E+00
    -19.551  0.0000E+00  0.0000E+00
    -19.393  0.0000E+00  0.0000E+00
    -19.234  0.0000E+00  0.0000E+00
    -19.076  0.0000E+00  0.0000E+00
    -18.917  0.2360E-14  0.3741E-15
    -18.759  0.1006E-03  0.1595E-04
    -18.600  0.2543E+00  0.4033E-01
    -18.441  0.1241E+00  0.6000E-01
    -18.283  0.7638E-06  0.6000E-01
    -18.124  0.0000E+00  0.6000E-01
    -17.966  0.0000E+00  0.6000E-01
    -17.807  0.0000E+00  0.6000E-01
    -17.649  0.0000E+00  0.6000E-01
    -17.490  0.0000E+00  0.6000E-01
    -17.332  0.0000E+00  0.6000E-01
    -17.173  0.0000E+00  0.6000E-01
    -17.015  0.0000E+00  0.6000E-01
    -16.856  0.0000E+00  0.6000E-01
    -16.698  0.0000E+00  0.6000E-01
    -16.539  0.0000E+00  0.6000E-01
    -16.381  0.0000E+00  0.6000E-01
    -16.222  0.0000E+00  0.6000E-01
    -16.064  0.0000E+00  0.6000E-01
    -15.905  0.0000E+00  0.6000E-01
    -15.746  0.0000E+00  0.6000E-01
    -15.588  0.0000E+00  0.6000E-01
    -15.429  0.0000E+00  0.6000E-01
    -15.271  0.0000E+00  0.6000E-01
    -15.112  0.0000E+00  0.6000E-01
    -14.954  0.0000E+00  0.6000E-01
    -14.795  0.0000E+00  0.6000E-01
    -14.637  0.0000E+00  0.6000E-01
    -14.478  0.0000E+00  0.6000E-01
    -14.320  0.0000E+00  0.6000E-01
    -14.161  0.0000E+00  0.6000E-01
    -14.003  0.0000E+00  0.6000E-01
    -13.844  0.0000E+00  0.6000E-01
    -13.686  0.0000E+00  0.6000E-01
    -13.527  0.0000E+00  0.6000E-01
    -13.369  0.0000E+00  0.6000E-01
    -13.210  0.0000E+00  0.6000E-01
    -13.051  0.0000E+00  0.6000E-01
    -12.893  0.0000E+00  0.6000E-01
    -12.734  0.0000E+00  0.6000E-01
    -12.576  0.0000E+00  0.6000E-01
    -12.417  0.0000E+00  0.6000E-01
    -12.259  0.0000E+00  0.6000E-01
    -12.100  0.0000E+00  0.6000E-01
    -11.942  0.0000E+00  0.6000E-01
    -11.783  0.0000E+00  0.6000E-01
    -11.625  0.0000E+00  0.6000E-01
    -11.466  0.0000E+00  0.6000E-01
    -11.308  0.0000E+00  0.6000E-01
    -11.149  0.0000E+00  0.6000E-01
    -10.991  0.0000E+00  0.6000E-01
    -10.832  0.0000E+00  0.6000E-01
    -10.674  0.0000E+00  0.6000E-01
    -10.515  0.0000E+00  0.6000E-01
    -10.356  0.0000E+00  0.6000E-01
    -10.198  0.0000E+00  0.6000E-01
    -10.039  0.2485E-11  0.6000E-01
     -9.881  0.1065E-03  0.6002E-01
     -9.722  0.3325E-02  0.6054E-01
     -9.564  0.5417E-03  0.6063E-01
     -9.405  0.2006E-01  0.6381E-01
     -9.247  0.4956E-03  0.6389E-01
     -9.088  0.8300E-09  0.6389E-01
     -8.930  0.2556E-02  0.6429E-01
     -8.771  0.1845E-01  0.6722E-01
     -8.613  0.1128E-01  0.6901E-01
     -8.454  0.9772E-02  0.7056E-01
     -8.296  0.1083E-06  0.7056E-01
     -8.137  0.1292E-08  0.7056E-01
     -7.979  0.6769E-02  0.7163E-01
     -7.820  0.4096E-01  0.7812E-01
     -7.661  0.2543E-01  0.8215E-01
     -7.503  0.4546E-02  0.8287E-01
     -7.344  0.4943E-01  0.9071E-01
     -7.186  0.5607E-01  0.9960E-01
     -7.027  0.2530E-02  0.1000E+00
     -6.869  0.5755E-10  0.1000E+00
     -6.710  0.0000E+00  0.1000E+00
     -6.552  0.0000E+00  0.1000E+00
     -6.393  0.0000E+00  0.1000E+00
     -6.235  0.0000E+00  0.1000E+00
     -6.076  0.0000E+00  0.1000E+00
     -5.918  0.0000E+00  0.1000E+00
     -5.759  0.0000E+00  0.1000E+00
     -5.601  0.0000E+00  0.1000E+00
     -5.442  0.0000E+00  0.1000E+00
     -5.284  0.0000E+00  0.1000E+00
     -5.125  0.0000E+00  0.1000E+00
     -4.966  0.0000E+00  0.1000E+00
     -4.808  0.0000E+00  0.1000E+00
     -4.649  0.0000E+00  0.1000E+00
     -4.491  0.0000E+00  0.1000E+00
     -4.332  0.0000E+00  0.1000E+00
     -4.174  0.0000E+00  0.1000E+00
     -4.015  0.0000E+00  0.1000E+00
     -3.857  0.0000E+00  0.1000E+00
     -3.698  0.0000E+00  0.1000E+00
     -3.540  0.0000E+00  0.1000E+00
     -3.381  0.3209E-08  0.1000E+00
     -3.223  0.1840E-02  0.1003E+00
     -3.064  0.6625E-02  0.1013E+00
     -2.906  0.9532E-02  0.1029E+00
     -2.747  0.4096E-01  0.1093E+00
     -2.589  0.6139E-03  0.1094E+00
     -2.430  0.6586E-12  0.1094E+00
     -2.271  0.4345E-05  0.1094E+00
     -2.113  0.1465E-01  0.1118E+00
     -1.954  0.6369E-02  0.1128E+00
     -1.796  0.2331E-04  0.1128E+00
     -1.637  0.1479E-01  0.1151E+00
     -1.479  0.9506E-02  0.1166E+00
     -1.320  0.4882E-02  0.1174E+00
     -1.162  0.1111E-01  0.1192E+00
     -1.003  0.5249E-02  0.1200E+00
     -0.845  0.5986E-02  0.1209E+00
     -0.686  0.4551E-02  0.1217E+00
     -0.528  0.2261E-01  0.1253E+00
     -0.369  0.2240E-01  0.1288E+00
     -0.211  0.1331E-01  0.1309E+00
     -0.052  0.1642E-01  0.1335E+00
      0.106  0.2324E-02  0.1339E+00
      0.265  0.8407E-02  0.1352E+00
      0.424  0.2042E-01  0.1385E+00
      0.582  0.4631E-01  0.1458E+00
      0.741  0.6208E-02  0.1468E+00
      0.899  0.9766E-02  0.1483E+00
      1.058  0.1341E-03  0.1484E+00
      1.216  0.1435E-01  0.1506E+00
      1.375  0.4755E-01  0.1582E+00
      1.533  0.3721E-01  0.1641E+00
      1.692  0.7898E-02  0.1653E+00
      1.850  0.1900E-01  0.1683E+00
      2.009  0.1870E-04  0.1683E+00
      2.167  0.5486E-02  0.1692E+00
      2.326  0.1454E-01  0.1715E+00
      2.484  0.3247E-01  0.1767E+00
      2.643  0.5395E-01  0.1852E+00
      2.801  0.5600E-01  0.1941E+00
      2.960  0.1837E-01  0.1970E+00
      3.119  0.2766E-01  0.2014E+00
      3.277  0.4173E-01  0.2080E+00
      3.436  0.1694E-01  0.2107E+00
      3.594  0.3578E-01  0.2164E+00
      3.753  0.5121E-02  0.2172E+00
      3.911  0.1786E-01  0.2200E+00
      4.070  0.1425E-04  0.2200E+00
      4.228  0.0000E+00  0.2200E+00
      4.387  0.0000E+00  0.2200E+00
      4.545  0.0000E+00  0.2200E+00
      4.704  0.2325E-13  0.2200E+00
      4.862  0.6351E-04  0.2200E+00
      5.021  0.1002E-01  0.2216E+00
      5.179  0.4290E-03  0.2217E+00
      5.338  0.8527E-10  0.2217E+00
      5.496  0.9324E-03  0.2218E+00
      5.655  0.1472E-01  0.2241E+00
      5.814  0.6538E-02  0.2252E+00
      5.972  0.9788E-04  0.2252E+00
      6.131  0.3478E-01  0.2307E+00
      6.289  0.9793E-02  0.2323E+00
      6.448  0.2802E-02  0.2327E+00
      6.606  0.3930E-02  0.2333E+00
      6.765  0.1896E-01  0.2363E+00
      6.923  0.2259E-01  0.2399E+00
      7.082  0.5013E-03  0.2400E+00
      7.240  0.9351E-11  0.2400E+00
      7.399  0.2091E-11  0.2400E+00
      7.557  0.1673E-03  0.2400E+00
      7.716  0.9223E-02  0.2415E+00
      7.874  0.1123E-02  0.2417E+00
      8.033  0.1186E-04  0.2417E+00
      8.191  0.1516E-01  0.2441E+00
      8.350  0.1050E-01  0.2457E+00
      8.509  0.2474E-01  0.2497E+00
      8.667  0.3145E-01  0.2546E+00
      8.826  0.1753E-01  0.2574E+00
      8.984  0.2143E-01  0.2608E+00
      9.143  0.2198E-01  0.2643E+00
      9.301  0.3181E-01  0.2693E+00
      9.460  0.3310E-01  0.2746E+00
      9.618  0.4005E-01  0.2809E+00
      9.777  0.2211E-01  0.2844E+00
      9.935  0.2927E-01  0.2891E+00
     10.094  0.3613E-01  0.2948E+00
     10.252  0.4266E-01  0.3016E+00
     10.411  0.3937E-01  0.3078E+00
     10.569  0.2471E-01  0.3117E+00
     10.728  0.1405E-01  0.3140E+00
     10.886  0.1291E-01  0.3160E+00
     11.045  0.1540E-01  0.3185E+00
     11.204  0.8379E-02  0.3198E+00
     11.362  0.7579E-02  0.3210E+00
     11.521  0.4165E-01  0.3276E+00
     11.679  0.1229E-01  0.3295E+00
     11.838  0.1000E-01  0.3311E+00
     11.996  0.6193E-02  0.3321E+00
     12.155  0.1995E-01  0.3353E+00
     12.313  0.4871E-01  0.3430E+00
     12.472  0.1367E-01  0.3452E+00
     12.630  0.3189E-01  0.3502E+00
     12.789  0.1472E-01  0.3525E+00
     12.947  0.2879E-01  0.3571E+00
     13.106  0.3954E-01  0.3634E+00
     13.264  0.2069E-01  0.3667E+00
     13.423  0.4278E-02  0.3673E+00
     13.581  0.2866E-01  0.3719E+00
     13.740  0.2882E-01  0.3764E+00
     13.899  0.6177E-02  0.3774E+00
     14.057  0.1694E-01  0.3801E+00
     14.216  0.4759E-01  0.3877E+00
     14.374  0.1831E-01  0.3906E+00
     14.533  0.2396E-01  0.3944E+00
     14.691  0.1845E-01  0.3973E+00
     14.850  0.3706E-02  0.3979E+00
     15.008  0.2564E-01  0.4019E+00
     15.167  0.7669E-02  0.4031E+00
     15.325  0.5642E-02  0.4040E+00
     15.484  0.2681E-01  0.4083E+00
     15.642  0.1858E-01  0.4112E+00
     15.801  0.1174E-01  0.4131E+00
     15.959  0.4663E-01  0.4205E+00
     16.118  0.2560E-01  0.4245E+00
     16.276  0.3022E-01  0.4293E+00
     16.435  0.3586E-01  0.4350E+00
     16.594  0.1227E-01  0.4370E+00
     16.752  0.3142E-01  0.4420E+00
     16.911  0.1227E-01  0.4439E+00
     17.069  0.1601E-01  0.4464E+00
     17.228  0.5058E-01  0.4545E+00
     17.386  0.1544E-01  0.4569E+00
     17.545  0.3957E-01  0.4632E+00
     17.703  0.1886E-01  0.4662E+00
     17.862  0.2344E-01  0.4699E+00
     18.020  0.1639E-01  0.4725E+00
     18.179  0.2164E-01  0.4759E+00
     18.337  0.4335E-01  0.4828E+00
     18.496  0.1129E-01  0.4846E+00
     18.654  0.3850E-01  0.4907E+00
     18.813  0.2451E-01  0.4946E+00
     18.971  0.3974E-01  0.5009E+00
     19.130  0.2478E-01  0.5048E+00
     19.289  0.3093E-01  0.5097E+00
     19.447  0.2234E-01  0.5132E+00
     19.606  0.1508E-01  0.5156E+00
     19.764  0.4560E-01  0.5229E+00
     19.923  0.2502E-01  0.5268E+00
     20.081  0.2971E-01  0.5315E+00
     20.240  0.3116E-01  0.5365E+00
     20.398  0.1662E-01  0.5391E+00
     20.557  0.2643E-01  0.5433E+00
     20.715  0.4918E-01  0.5511E+00
     20.874  0.1798E-01  0.5539E+00
     21.032  0.1402E-01  0.5562E+00
     21.191  0.2914E-01  0.5608E+00
     21.349  0.4172E-01  0.5674E+00
     21.508  0.2305E-01  0.5711E+00
     21.666  0.1600E-01  0.5736E+00
     21.825  0.6986E-02  0.5747E+00
     21.984  0.2159E-01  0.5781E+00
     22.142  0.2948E-01  0.5828E+00
     22.301  0.3388E-01  0.5882E+00
     22.459  0.3744E-01  0.5941E+00
     22.618  0.3709E-01  0.6000E+00
     22.776  0.4579E-01  0.6072E+00
     22.935  0.4974E-01  0.6151E+00
     23.093  0.3820E-03  0.6152E+00
     23.252  0.1312E-01  0.6173E+00
     23.410  0.3675E-01  0.6231E+00
     23.569  0.2156E-01  0.6265E+00
     23.727  0.1159E-01  0.6283E+00
     23.886  0.5145E-01  0.6365E+00
     24.044  0.1227E-01  0.6385E+00
     24.203  0.2766E-02  0.6389E+00
     24.361  0.2582E-02  0.6393E+00
     24.520  0.1103E-02  0.6395E+00
     24.679  0.3316E-02  0.6400E+00
     24.837  0.7579E-05  0.6400E+00
     24.996  0.0000E+00  0.6400E+00
     25.154  0.0000E+00  0.6400E+00
     25.313  0.0000E+00  0.6400E+00
     25.471  0.0000E+00  0.6400E+00
     25.630  0.0000E+00  0.6400E+00
     25.788  0.0000E+00  0.6400E+00
     25.947  0.0000E+00  0.6400E+00
     26.105  0.0000E+00  0.6400E+00
     26.264  0.0000E+00  0.6400E+00
     26.422  0.0000E+00  0.6400E+00
     26.581  0.0000E+00  0.6400E+00
     26.739  0.0000E+00  0.6400E+00
