       N       E                     dE             d eps       ncg     rms          rms(c)
DAV:   1     0.303282107050E+02    0.30328E+02   -0.10650E+04  1088   0.555E+02
DAV:   2    -0.171427450440E+02   -0.47471E+02   -0.47323E+02  1600   0.747E+01
DAV:   3    -0.176302600393E+02   -0.48751E+00   -0.48747E+00  1152   0.997E+00
DAV:   4    -0.176319737258E+02   -0.17137E-02   -0.17137E-02  2080   0.671E-01
DAV:   5    -0.176319738732E+02   -0.14738E-06   -0.14796E-06  1152   0.447E-03    0.843E+00
DAV:   6    -0.173314726449E+02    0.30050E+00   -0.11087E+00  1600   0.217E+00    0.580E+00
DAV:   7    -0.173083996518E+02    0.23073E-01   -0.20990E-01  1664   0.125E+00    0.167E+00
DAV:   8    -0.173083599887E+02    0.39663E-04   -0.14908E-02  1600   0.363E-01    0.220E-01
DAV:   9    -0.173086344457E+02   -0.27446E-03   -0.19105E-03  1472   0.130E-01    0.111E-01
DAV:  10    -0.173087152697E+02   -0.80824E-04   -0.80013E-05  1696   0.333E-02    0.390E-02
DAV:  11    -0.173087630236E+02   -0.47754E-04   -0.77997E-05  1344   0.350E-02    0.113E-02
DAV:  12    -0.173087637400E+02   -0.71647E-06   -0.12011E-06  1696   0.405E-03
   1 F= -.17308764E+02 E0= -.17306023E+02  d E =-.173088E+02
       N       E                     dE             d eps       ncg     rms          rms(c)
DAV:   1    -0.173203419327E+02   -0.11579E-01   -0.56838E-01  1120   0.320E+00    0.739E-01
DAV:   2    -0.173159130630E+02    0.44289E-02   -0.30407E-02  1856   0.750E-01    0.317E-01
DAV:   3    -0.173146867976E+02    0.12263E-02   -0.28112E-03  1152   0.257E-01    0.103E-01
DAV:   4    -0.173145866015E+02    0.10020E-03   -0.91973E-05  1824   0.322E-02    0.703E-02
DAV:   5    -0.173145410374E+02    0.45564E-04   -0.30597E-05  1312   0.203E-02    0.180E-02
DAV:   6    -0.173145415915E+02   -0.55406E-06   -0.11452E-06   768   0.574E-03
   2 F= -.17314542E+02 E0= -.17311677E+02  d E =-.577785E-02
       N       E                     dE             d eps       ncg     rms          rms(c)
DAV:   1    -0.173165378307E+02   -0.19968E-02   -0.13755E-01  1120   0.158E+00    0.363E-01
DAV:   2    -0.173154699026E+02    0.10679E-02   -0.72984E-03  1856   0.369E-01    0.157E-01
DAV:   3    -0.173151723239E+02    0.29758E-03   -0.69443E-04  1152   0.127E-01    0.501E-02
DAV:   4    -0.173151498962E+02    0.22428E-04   -0.22516E-05  1760   0.159E-02    0.343E-02
DAV:   5    -0.173151404852E+02    0.94110E-05   -0.71635E-06   768   0.100E-02
   3 F= -.17315140E+02 E0= -.17312221E+02  d E =-.637675E-02
       N       E                     dE             d eps       ncg     rms          rms(c)
DAV:   1    -0.173202105396E+02   -0.50606E-02   -0.29292E-01  1088   0.214E+00    0.400E-01
DAV:   2    -0.173179846851E+02    0.22259E-02   -0.14141E-02  1600   0.499E-01    0.183E-01
DAV:   3    -0.173172219516E+02    0.76273E-03   -0.24144E-03  1408   0.167E-01    0.884E-02
DAV:   4    -0.173171797582E+02    0.42193E-04   -0.50044E-05  1216   0.271E-02    0.562E-02
DAV:   5    -0.173171557115E+02    0.24047E-04   -0.23658E-05  1888   0.151E-02    0.108E-02
DAV:   6    -0.173171550438E+02    0.66774E-06   -0.98355E-07   736   0.383E-03
   4 F= -.17317155E+02 E0= -.17314124E+02  d E =-.201456E-02
       N       E                     dE             d eps       ncg     rms          rms(c)
DAV:   1    -0.173191750716E+02   -0.20194E-02   -0.15772E-01  1088   0.157E+00    0.292E-01
DAV:   2    -0.173179622070E+02    0.12129E-02   -0.76750E-03  1600   0.366E-01    0.134E-01
DAV:   3    -0.173175535173E+02    0.40869E-03   -0.12974E-03  1408   0.123E-01    0.654E-02
DAV:   4    -0.173175296988E+02    0.23818E-04   -0.27251E-05  1216   0.200E-02    0.415E-02
DAV:   5    -0.173175157182E+02    0.13981E-04   -0.12798E-05  1696   0.112E-02    0.795E-03
DAV:   6    -0.173175152722E+02    0.44604E-06   -0.55314E-07   736   0.292E-03
   5 F= -.17317515E+02 E0= -.17314420E+02  d E =-.237479E-02
