  55  55   0   0
  0.2301251E+02  0.1218282E-08  0.7661564E-09  0.1373046E-08  0.0000000E+00
   1.0000000000000000E-004
  CAR 
 NEB_bottleneck                          
      9.16183181    -29.86054083  301      2.81525429      1.00000000
    -29.861  0.0000E+00  0.0000E+00
    -29.730  0.0000E+00  0.0000E+00
    -29.600  0.0000E+00  0.0000E+00
    -29.470 -0.2555E-29 -0.3324E-30
    -29.340 -0.5420E-25 -0.7050E-26
    -29.210 -0.4895E-21 -0.6368E-22
    -29.080 -0.1880E-17 -0.2445E-18
    -28.950 -0.2960E-14 -0.3852E-15
    -28.820 -0.2018E-11 -0.2629E-12
    -28.690 -0.5762E-09 -0.7521E-10
    -28.560 -0.6804E-07 -0.8925E-08
    -28.430 -0.3243E-05 -0.4307E-06
    -28.300 -0.5885E-04 -0.8086E-05
    -28.170 -0.3315E-03 -0.5120E-04
    -28.039  0.2325E-03 -0.2097E-04
    -27.909  0.4772E-02  0.5997E-03
    -27.779  0.7908E-02  0.1628E-02
    -27.649  0.3319E-02  0.2060E-02
    -27.519 -0.1810E-03  0.2037E-02
    -27.389 -0.2478E-03  0.2004E-02
    -27.259 -0.3154E-04  0.2000E-02
    -27.129 -0.1355E-05  0.2000E-02
    -26.999 -0.2261E-07  0.2000E-02
    -26.869 -0.1536E-09  0.2000E-02
    -26.739 -0.4892E-10  0.2000E-02
    -26.609 -0.8588E-08  0.2000E-02
    -26.479 -0.6223E-06  0.2000E-02
    -26.349 -0.1776E-04  0.1998E-02
    -26.218 -0.1793E-03  0.1974E-02
    -26.088 -0.3448E-03  0.1929E-02
    -25.958  0.2202E-02  0.2216E-02
    -25.828  0.7426E-02  0.3182E-02
    -25.698  0.5846E-02  0.3942E-02
    -25.568  0.4178E-03  0.3997E-02
    -25.438  0.6963E-03  0.4087E-02
    -25.308  0.6262E-02  0.4902E-02
    -25.178  0.7156E-02  0.5833E-02
    -25.048  0.1832E-02  0.6071E-02
    -24.918 -0.3732E-03  0.6022E-02
    -24.788 -0.1566E-03  0.6002E-02
    -24.658 -0.1421E-04  0.6000E-02
    -24.527 -0.4999E-06  0.6000E-02
    -24.397 -0.2073E-05  0.6000E-02
    -24.267 -0.4454E-04  0.5994E-02
    -24.137 -0.3350E-03  0.5950E-02
    -24.007 -0.3351E-03  0.5907E-02
    -23.877  0.4028E-02  0.6431E-02
    -23.747  0.1215E-01  0.8011E-02
    -23.617  0.1112E-01  0.9457E-02
    -23.487  0.3494E-02  0.9912E-02
    -23.357  0.1215E-01  0.1149E-01
    -23.227  0.2939E-01  0.1531E-01
    -23.097  0.2512E-01  0.1858E-01
    -22.967  0.9195E-02  0.1978E-01
    -22.837  0.4180E-02  0.2032E-01
    -22.706  0.2051E-01  0.2299E-01
    -22.576  0.4029E-01  0.2823E-01
    -22.446  0.4158E-01  0.3364E-01
    -22.316  0.3947E-01  0.3877E-01
    -22.186  0.3607E-01  0.4347E-01
    -22.056  0.3106E-01  0.4751E-01
    -21.926  0.4495E-01  0.5335E-01
    -21.796  0.5642E-01  0.6069E-01
    -21.666  0.3877E-01  0.6574E-01
    -21.536  0.2321E-01  0.6876E-01
    -21.406  0.3563E-01  0.7339E-01
    -21.276  0.8360E-01  0.8427E-01
    -21.146  0.1128E+00  0.9894E-01
    -21.015  0.6201E-01  0.1070E+00
    -20.885  0.8764E-02  0.1081E+00
    -20.755  0.2341E-01  0.1112E+00
    -20.625  0.6657E-01  0.1198E+00
    -20.495  0.6069E-01  0.1277E+00
    -20.365  0.2768E-01  0.1313E+00
    -20.235  0.8609E-02  0.1325E+00
    -20.105  0.6254E-02  0.1333E+00
    -19.975  0.4629E-02  0.1339E+00
    -19.845  0.8601E-03  0.1340E+00
    -19.715  0.8080E-02  0.1350E+00
    -19.585  0.1578E-01  0.1371E+00
    -19.455  0.7697E-02  0.1381E+00
    -19.325 -0.8368E-04  0.1381E+00
    -19.194 -0.5582E-03  0.1380E+00
    -19.064 -0.8184E-04  0.1380E+00
    -18.934 -0.3950E-05  0.1380E+00
    -18.804 -0.7391E-07  0.1380E+00
    -18.674 -0.5638E-09  0.1380E+00
    -18.544 -0.1792E-11  0.1380E+00
    -18.414 -0.2397E-14  0.1380E+00
    -18.284  0.0000E+00  0.1380E+00
    -18.154  0.0000E+00  0.1380E+00
    -18.024  0.0000E+00  0.1380E+00
    -17.894  0.0000E+00  0.1380E+00
    -17.764  0.0000E+00  0.1380E+00
    -17.634  0.0000E+00  0.1380E+00
    -17.503  0.0000E+00  0.1380E+00
    -17.373  0.0000E+00  0.1380E+00
    -17.243  0.0000E+00  0.1380E+00
    -17.113  0.0000E+00  0.1380E+00
    -16.983  0.0000E+00  0.1380E+00
    -16.853  0.0000E+00  0.1380E+00
    -16.723  0.0000E+00  0.1380E+00
    -16.593  0.0000E+00  0.1380E+00
    -16.463  0.0000E+00  0.1380E+00
    -16.333  0.0000E+00  0.1380E+00
    -16.203  0.0000E+00  0.1380E+00
    -16.073  0.0000E+00  0.1380E+00
    -15.943  0.0000E+00  0.1380E+00
    -15.812  0.0000E+00  0.1380E+00
    -15.682  0.0000E+00  0.1380E+00
    -15.552  0.0000E+00  0.1380E+00
    -15.422  0.0000E+00  0.1380E+00
    -15.292  0.0000E+00  0.1380E+00
    -15.162  0.0000E+00  0.1380E+00
    -15.032  0.0000E+00  0.1380E+00
    -14.902  0.0000E+00  0.1380E+00
    -14.772  0.0000E+00  0.1380E+00
    -14.642 -0.3742E-29  0.1380E+00
    -14.512 -0.7693E-25  0.1380E+00
    -14.382 -0.6733E-21  0.1380E+00
    -14.252 -0.2505E-17  0.1380E+00
    -14.122 -0.3821E-14  0.1380E+00
    -13.991 -0.2524E-11  0.1380E+00
    -13.861 -0.6976E-09  0.1380E+00
    -13.731 -0.7972E-07  0.1380E+00
    -13.601 -0.3672E-05  0.1380E+00
    -13.471 -0.6417E-04  0.1380E+00
    -13.341 -0.3425E-03  0.1379E+00
    -13.211  0.3179E-03  0.1380E+00
    -13.081  0.4987E-02  0.1386E+00
    -12.951  0.7841E-02  0.1397E+00
    -12.821  0.2959E-02  0.1400E+00
    -12.691 -0.5993E-03  0.1400E+00
    -12.561  0.1494E-02  0.1402E+00
    -12.431  0.6794E-02  0.1410E+00
    -12.300  0.6406E-02  0.1419E+00
    -12.170  0.5141E-02  0.1425E+00
    -12.040  0.7562E-02  0.1435E+00
    -11.910  0.3655E-02  0.1440E+00
    -11.780 -0.4945E-03  0.1439E+00
    -11.650  0.3062E-02  0.1443E+00
    -11.520  0.1209E-01  0.1459E+00
    -11.390  0.1276E-01  0.1476E+00
    -11.260  0.4089E-02  0.1481E+00
    -11.130 -0.4130E-03  0.1480E+00
    -11.000 -0.5607E-03  0.1480E+00
    -10.870 -0.5371E-03  0.1479E+00
    -10.740  0.2048E-02  0.1482E+00
    -10.610  0.9443E-02  0.1494E+00
    -10.479  0.1533E-01  0.1514E+00
    -10.349  0.1373E-01  0.1532E+00
    -10.219  0.6850E-02  0.1541E+00
    -10.089  0.8117E-02  0.1551E+00
     -9.959  0.1458E-01  0.1570E+00
     -9.829  0.1588E-01  0.1591E+00
     -9.699  0.1428E-01  0.1609E+00
     -9.569  0.7071E-02  0.1619E+00
     -9.439  0.1344E-02  0.1620E+00
     -9.309  0.8890E-02  0.1632E+00
     -9.179  0.2075E-01  0.1659E+00
     -9.049  0.2210E-01  0.1688E+00
     -8.919  0.1654E-01  0.1709E+00
     -8.788  0.1742E-01  0.1732E+00
     -8.658  0.2579E-01  0.1765E+00
     -8.528  0.2098E-01  0.1793E+00
     -8.398  0.1138E-01  0.1807E+00
     -8.268  0.1339E-01  0.1825E+00
     -8.138  0.1026E-01  0.1838E+00
     -8.008  0.1693E-02  0.1840E+00
     -7.878  0.2337E-02  0.1843E+00
     -7.748  0.7595E-02  0.1853E+00
     -7.618  0.5128E-02  0.1860E+00
     -7.488  0.3853E-03  0.1861E+00
     -7.358 -0.3503E-03  0.1860E+00
     -7.228 -0.6838E-04  0.1860E+00
     -7.097 -0.4025E-05  0.1860E+00
     -6.967 -0.8963E-07  0.1860E+00
     -6.837 -0.8038E-09  0.1860E+00
     -6.707 -0.2978E-11  0.1860E+00
     -6.577 -0.4616E-14  0.1860E+00
     -6.447 -0.3414E-17  0.1860E+00
     -6.317  0.0000E+00  0.1860E+00
     -6.187  0.0000E+00  0.1860E+00
     -6.057  0.0000E+00  0.1860E+00
     -5.927  0.0000E+00  0.1860E+00
     -5.797 -0.1942E-30  0.1860E+00
     -5.667 -0.5080E-26  0.1860E+00
     -5.537 -0.5660E-22  0.1860E+00
     -5.407 -0.2682E-18  0.1860E+00
     -5.276 -0.5225E-15  0.1860E+00
     -5.146 -0.4413E-12  0.1860E+00
     -5.016 -0.1565E-09  0.1860E+00
     -4.886 -0.2310E-07  0.1860E+00
     -4.756 -0.1397E-05  0.1860E+00
     -4.626 -0.3340E-04  0.1860E+00
     -4.496 -0.2848E-03  0.1860E+00
     -4.366 -0.4430E-03  0.1859E+00
     -4.236  0.3217E-02  0.1863E+00
     -4.106  0.1152E-01  0.1878E+00
     -3.976  0.1270E-01  0.1895E+00
     -3.846  0.4532E-02  0.1901E+00
     -3.716 -0.7669E-03  0.1900E+00
     -3.585  0.7326E-03  0.1901E+00
     -3.455  0.8390E-02  0.1911E+00
     -3.325  0.1630E-01  0.1933E+00
     -3.195  0.1776E-01  0.1956E+00
     -3.065  0.1834E-01  0.1980E+00
     -2.935  0.1871E-01  0.2004E+00
     -2.805  0.1152E-01  0.2019E+00
     -2.675  0.1059E-01  0.2033E+00
     -2.545  0.1631E-01  0.2054E+00
     -2.415  0.1330E-01  0.2071E+00
     -2.285  0.9860E-02  0.2084E+00
     -2.155  0.1404E-01  0.2102E+00
     -2.025  0.1542E-01  0.2122E+00
     -1.895  0.1902E-01  0.2147E+00
     -1.764  0.2429E-01  0.2179E+00
     -1.634  0.2394E-01  0.2210E+00
     -1.504  0.2069E-01  0.2237E+00
     -1.374  0.1685E-01  0.2259E+00
     -1.244  0.1473E-01  0.2278E+00
     -1.114  0.1797E-01  0.2301E+00
     -0.984  0.2673E-01  0.2336E+00
     -0.854  0.2949E-01  0.2374E+00
     -0.724  0.2518E-01  0.2407E+00
     -0.594  0.1819E-01  0.2431E+00
     -0.464  0.1045E-01  0.2444E+00
     -0.334  0.1636E-01  0.2466E+00
     -0.204  0.3618E-01  0.2513E+00
     -0.073  0.4039E-01  0.2565E+00
      0.057  0.2756E-01  0.2601E+00
      0.187  0.2600E-01  0.2635E+00
      0.317  0.3145E-01  0.2676E+00
      0.447  0.3199E-01  0.2717E+00
      0.577  0.2800E-01  0.2754E+00
      0.707  0.2746E-01  0.2790E+00
      0.837  0.2837E-01  0.2826E+00
      0.967  0.2142E-01  0.2854E+00
      1.097  0.1553E-01  0.2875E+00
      1.227  0.2586E-01  0.2908E+00
      1.357  0.3606E-01  0.2955E+00
      1.487  0.3522E-01  0.3001E+00
      1.618  0.2761E-01  0.3037E+00
      1.748  0.2050E-01  0.3063E+00
      1.878  0.2540E-01  0.3097E+00
      2.008  0.3171E-01  0.3138E+00
      2.138  0.2898E-01  0.3175E+00
      2.268  0.2511E-01  0.3208E+00
      2.398  0.2035E-01  0.3235E+00
      2.528  0.1273E-01  0.3251E+00
      2.658  0.1051E-01  0.3265E+00
      2.788  0.1572E-01  0.3285E+00
      2.918  0.1660E-01  0.3307E+00
      3.048  0.1363E-01  0.3325E+00
      3.178  0.9245E-02  0.3337E+00
      3.308  0.2541E-02  0.3340E+00
      3.439  0.4526E-02  0.3346E+00
      3.569  0.1287E-01  0.3363E+00
      3.699  0.1421E-01  0.3381E+00
      3.829  0.1649E-01  0.3402E+00
      3.959  0.1823E-01  0.3426E+00
      4.089  0.1062E-01  0.3440E+00
      4.219  0.6730E-02  0.3449E+00
      4.349  0.6627E-02  0.3457E+00
      4.479  0.5174E-02  0.3464E+00
      4.609  0.6946E-02  0.3473E+00
      4.739  0.7187E-02  0.3482E+00
      4.869  0.1265E-01  0.3499E+00
      4.999  0.1774E-01  0.3522E+00
      5.130  0.1232E-01  0.3538E+00
      5.260  0.1142E-01  0.3553E+00
      5.390  0.1799E-01  0.3576E+00
      5.520  0.1828E-01  0.3600E+00
      5.650  0.1763E-01  0.3623E+00
      5.780  0.1769E-01  0.3646E+00
      5.910  0.2007E-01  0.3672E+00
      6.040  0.2197E-01  0.3701E+00
      6.170  0.1550E-01  0.3721E+00
      6.300  0.1550E-01  0.3741E+00
      6.430  0.2689E-01  0.3776E+00
      6.560  0.3158E-01  0.3817E+00
      6.690  0.2735E-01  0.3853E+00
      6.820  0.2241E-01  0.3882E+00
      6.951  0.1953E-01  0.3907E+00
      7.081  0.2057E-01  0.3934E+00
      7.211  0.1595E-01  0.3955E+00
      7.341  0.4998E-02  0.3961E+00
      7.471 -0.3978E-03  0.3961E+00
      7.601 -0.4487E-03  0.3960E+00
      7.731 -0.6592E-04  0.3960E+00
      7.861 -0.3409E-05  0.3960E+00
      7.991 -0.6963E-07  0.3960E+00
      8.121 -0.5826E-09  0.3960E+00
      8.251 -0.2029E-11  0.3960E+00
      8.381 -0.2963E-14  0.3960E+00
      8.511 -0.3414E-17  0.3960E+00
      8.642  0.0000E+00  0.3960E+00
      8.772  0.0000E+00  0.3960E+00
      8.902  0.0000E+00  0.3960E+00
      9.032  0.0000E+00  0.3960E+00
      9.162  0.0000E+00  0.3960E+00
