       N       E                     dE             d eps       ncg     rms          rms(c)
DAV:   1     0.346532108735E+04    0.34653E+04   -0.14785E+05   423   0.160E+03
DAV:   2     0.361146722351E+03   -0.31042E+04   -0.29899E+04   432   0.423E+02
DAV:   3    -0.121401239783E+03   -0.48255E+03   -0.47156E+03   486   0.179E+02
DAV:   4    -0.154113314007E+03   -0.32712E+02   -0.32319E+02   459   0.426E+01
DAV:   5    -0.155571482166E+03   -0.14582E+01   -0.14551E+01   549   0.932E+00    0.422E+01
RMM:   6    -0.126842106027E+03    0.28729E+02   -0.45724E+01   436   0.888E+00    0.255E+01
RMM:   7    -0.125600016466E+03    0.12421E+01   -0.39654E+01   457   0.772E+00    0.174E+01
RMM:   8    -0.123955277171E+03    0.16447E+01   -0.10016E+01   541   0.497E+00    0.107E+01
RMM:   9    -0.123003495162E+03    0.95178E+00   -0.23314E+00   451   0.241E+00    0.529E+00
RMM:  10    -0.122840957932E+03    0.16254E+00   -0.10914E+00   471   0.168E+00    0.240E+00
RMM:  11    -0.122751074514E+03    0.89883E-01   -0.37607E-01   518   0.108E+00    0.134E+00
RMM:  12    -0.122739691345E+03    0.11383E-01   -0.65367E-02   479   0.508E-01    0.983E-01
RMM:  13    -0.122737332744E+03    0.23586E-02   -0.22792E-02   481   0.261E-01    0.638E-01
RMM:  14    -0.122743726560E+03   -0.63938E-02   -0.12742E-02   465   0.209E-01    0.383E-01
RMM:  15    -0.122746659648E+03   -0.29331E-02   -0.73758E-03   471   0.155E-01    0.296E-01
RMM:  16    -0.122746182691E+03    0.47696E-03   -0.23710E-03   519   0.880E-02    0.141E-01
RMM:  17    -0.122747396727E+03   -0.12140E-02   -0.15660E-03   435   0.630E-02    0.418E-02
RMM:  18    -0.122747635928E+03   -0.23920E-03   -0.52624E-04   521   0.362E-02    0.235E-02
RMM:  19    -0.122747770750E+03   -0.13482E-03   -0.18332E-04   465   0.197E-02    0.185E-02
RMM:  20    -0.122747818836E+03   -0.48086E-04   -0.75248E-05   426   0.117E-02    0.844E-03
RMM:  21    -0.122747830000E+03   -0.11163E-04   -0.21146E-05   394   0.625E-03    0.466E-03
RMM:  22    -0.122747835801E+03   -0.58010E-05   -0.10423E-05   337   0.453E-03    0.292E-03
RMM:  23    -0.122747836228E+03   -0.42745E-06   -0.25828E-06   284   0.247E-03
   1 F= -.12274784E+03 E0= -.12273378E+03  d E =-.122748E+03
       N       E                     dE             d eps       ncg     rms          rms(c)
DAV:   1    -0.122747836513E+03   -0.71233E-06   -0.91019E-07   252   0.195E-03    0.928E-04
RMM:   2    -0.122747836570E+03   -0.57182E-07   -0.16829E-07   229   0.112E-03
   2 F= -.12274784E+03 E0= -.12273377E+03  d E =-.342068E-06
       N       E                     dE             d eps       ncg     rms          rms(c)
DAV:   1    -0.122747836548E+03   -0.34932E-07   -0.30868E-07   270   0.107E-03    0.673E-04
RMM:   2    -0.122747836580E+03   -0.32396E-07   -0.10659E-08    92   0.505E-04
   3 F= -.12274784E+03 E0= -.12273377E+03  d E =-.101463E-07
       N       E                     dE             d eps       ncg     rms          rms(c)
DAV:   1    -0.122747836583E+03   -0.34801E-07   -0.94145E-08   288   0.524E-04    0.565E-04
RMM:   2    -0.122747836604E+03   -0.20864E-07   -0.82677E-10    56   0.366E-04
   4 F= -.12274784E+03 E0= -.12273377E+03  d E =-.232685E-07
       N       E                     dE             d eps       ncg     rms          rms(c)
DAV:   1    -0.122747836599E+03   -0.15727E-07   -0.71860E-08   270   0.431E-04    0.329E-04
RMM:   2    -0.122747836607E+03   -0.83310E-08    0.34112E-11    41   0.256E-04
   5 F= -.12274784E+03 E0= -.12273377E+03  d E =-.319415E-08
       N       E                     dE             d eps       ncg     rms          rms(c)
DAV:   1    -0.122747836609E+03   -0.10485E-07   -0.21072E-08   252   0.273E-04    0.285E-04
RMM:   2    -0.122747836614E+03   -0.52132E-08    0.23579E-62    32   0.194E-04
   6 F= -.12274784E+03 E0= -.12273377E+03  d E =-.736691E-08
       N       E                     dE             d eps       ncg     rms          rms(c)
DAV:   1    -0.122747836614E+03   -0.48385E-08   -0.16860E-08   252   0.228E-04    0.161E-04
RMM:   2    -0.122747836615E+03   -0.65120E-09    0.12897E-84    24   0.131E-04
   7 F= -.12274784E+03 E0= -.12273377E+03  d E =-.276486E-09
       N       E                     dE             d eps       ncg     rms          rms(c)
DAV:   1    -0.122747836617E+03   -0.29613E-08   -0.48739E-09   252   0.141E-04    0.134E-04
RMM:   2    -0.122747836617E+03   -0.32378E-09    0.10926E-84    23   0.104E-04
   8 F= -.12274784E+03 E0= -.12273377E+03  d E =-.263390E-08
       N       E                     dE             d eps       ncg     rms          rms(c)
DAV:   1    -0.122747836617E+03    0.11642E-09   -0.50579E-09   243   0.120E-04    0.733E-05
RMM:   2    -0.122747836617E+03   -0.40382E-09    0.47686E-85    19   0.768E-05
   9 F= -.12274784E+03 E0= -.12273377E+03  d E =0.363798E-10
       N       E                     dE             d eps       ncg     rms          rms(c)
DAV:   1    -0.122747836618E+03   -0.10186E-08   -0.16780E-09   225   0.814E-05    0.696E-05
RMM:   2    -0.122747836618E+03    0.18190E-09    0.22166E-85    17   0.610E-05
  10 F= -.12274784E+03 E0= -.12273377E+03  d E =-.432919E-09
       N       E                     dE             d eps       ncg     rms          rms(c)
DAV:   1    -0.122747836618E+03   -0.17462E-09   -0.15526E-09   225   0.716E-05    0.356E-05
RMM:   2    -0.122747836617E+03    0.79672E-09    0.30789-149    15   0.447E-05
  11 F= -.12274784E+03 E0= -.12273377E+03  d E =0.440195E-09
       N       E                     dE             d eps       ncg     rms          rms(c)
DAV:   1    -0.122747836617E+03    0.13752E-08   -0.38341E-10   225   0.486E-05    0.377E-05
RMM:   2    -0.122747836618E+03   -0.10987E-08    0.10663-149    12   0.367E-05
  12 F= -.12274784E+03 E0= -.12273377E+03  d E =-.520231E-09
       N       E                     dE             d eps       ncg     rms          rms(c)
DAV:   1    -0.122747836617E+03   -0.62937E-09   -0.10473E-09   225   0.432E-05    0.162E-05
RMM:   2    -0.122747836617E+03    0.61846E-10    0.11937-149    12   0.272E-05
  13 F= -.12274784E+03 E0= -.12273377E+03  d E =0.531145E-09
       N       E                     dE             d eps       ncg     rms          rms(c)
DAV:   1    -0.122747836617E+03    0.36380E-10   -0.31555E-10   225   0.315E-05    0.183E-05
RMM:   2    -0.122747836618E+03   -0.40018E-09    0.40626-150    10   0.235E-05
  14 F= -.12274784E+03 E0= -.12273377E+03  d E =-.425644E-09
       N       E                     dE             d eps       ncg     rms          rms(c)
DAV:   1    -0.122747836617E+03   -0.18554E-09   -0.42317E-10   225   0.276E-05    0.588E-06
RMM:   2    -0.122747836617E+03    0.22555E-09    0.56999-150    10   0.158E-05
  15 F= -.12274784E+03 E0= -.12273377E+03  d E =0.440195E-09
       N       E                     dE             d eps       ncg     rms          rms(c)
DAV:   1    -0.122747836618E+03   -0.21828E-09   -0.46586E-11   225   0.179E-05    0.921E-06
RMM:   2    -0.122747836617E+03    0.24011E-09    0.27968-185     7   0.137E-05
  16 F= -.12274784E+03 E0= -.12273377E+03  d E =-.203727E-09
       N       E                     dE             d eps       ncg     rms          rms(c)
DAV:   1    -0.122747836617E+03    0.35288E-09   -0.95062E-11   225   0.149E-05    0.634E-06
RMM:   2    -0.122747836617E+03    0.39654E-09    0.19331-185     7   0.868E-06
  17 F= -.12274784E+03 E0= -.12273377E+03  d E =0.509317E-09
       N       E                     dE             d eps       ncg     rms          rms(c)
DAV:   1    -0.122747836616E+03    0.14043E-08   -0.55480E-10   225   0.928E-06    0.569E-06
RMM:   2    -0.122747836617E+03   -0.14952E-08    0.18666-195     6   0.753E-06
  18 F= -.12274784E+03 E0= -.12273377E+03  d E =-.487489E-09
       N       E                     dE             d eps       ncg     rms          rms(c)
DAV:   1    -0.122747836617E+03   -0.16589E-08   -0.15763E-10   225   0.821E-06    0.332E-06
RMM:   2    -0.122747836618E+03   -0.98225E-10    0.25569-195     6   0.517E-06
  19 F= -.12274784E+03 E0= -.12273377E+03  d E =-.261934E-09
       N       E                     dE             d eps       ncg     rms          rms(c)
DAV:   1    -0.122747836618E+03   -0.52023E-09   -0.12000E-11   225   0.555E-06    0.225E-06
RMM:   2    -0.122747836617E+03    0.98953E-09    0.56581-196     6   0.428E-06
  20 F= -.12274784E+03 E0= -.12273377E+03  d E =0.567525E-09
       N       E                     dE             d eps       ncg     rms          rms(c)
DAV:   1    -0.122747836617E+03    0.80763E-09   -0.28032E-10   225   0.448E-06    0.140E-06
RMM:   2    -0.122747836617E+03   -0.17462E-09    0.80856-196     6   0.309E-06
  21 F= -.12274784E+03 E0= -.12273377E+03  d E =-.356522E-09
       N       E                     dE             d eps       ncg     rms          rms(c)
DAV:   1    -0.122747836617E+03    0.14552E-10   -0.22228E-10   225   0.326E-06    0.994E-07
RMM:   2    -0.122747836617E+03   -0.21828E-10    0.17105-196     6   0.245E-06
  22 F= -.12274784E+03 E0= -.12273377E+03  d E =0.167347E-09
       N       E                     dE             d eps       ncg     rms          rms(c)
DAV:   1    -0.122747836618E+03   -0.44020E-09   -0.32511E-10   225   0.255E-06    0.760E-07
RMM:   2    -0.122747836617E+03    0.58208E-09    0.16525-196     6   0.181E-06
  23 F= -.12274784E+03 E0= -.12273377E+03  d E =0.163709E-09
       N       E                     dE             d eps       ncg     rms          rms(c)
DAV:   1    -0.122747836616E+03    0.12806E-08   -0.25509E-10   225   0.190E-06    0.539E-07
RMM:   2    -0.122747836617E+03   -0.10405E-08    0.96272-197     6   0.143E-06
  24 F= -.12274784E+03 E0= -.12273377E+03  d E =-.341970E-09
       N       E                     dE             d eps       ncg     rms          rms(c)
DAV:   1    -0.122747836617E+03   -0.60027E-09    0.12303E-10   225   0.149E-06    0.430E-07
RMM:   2    -0.122747836617E+03   -0.16007E-09    0.28292-197     6   0.107E-06
  25 F= -.12274784E+03 E0= -.12273377E+03  d E =0.280124E-09
       N       E                     dE             d eps       ncg     rms          rms(c)
DAV:   1    -0.122747836617E+03   -0.31287E-09   -0.14913E-10   225   0.113E-06    0.301E-07
RMM:   2    -0.122747836617E+03    0.20373E-09    0.44982-197     5   0.851E-07
  26 F= -.12274784E+03 E0= -.12273377E+03  d E =0.509317E-10
       N       E                     dE             d eps       ncg     rms          rms(c)
DAV:   1    -0.122747836617E+03    0.48385E-09    0.11416E-10   225   0.889E-07    0.239E-07
RMM:   2    -0.122747836617E+03   -0.42928E-09    0.32794-197     5   0.652E-07
  27 F= -.12274784E+03 E0= -.12273377E+03  d E =-.149157E-09
       N       E                     dE             d eps       ncg     rms          rms(c)
DAV:   1    -0.122747836617E+03   -0.49477E-09   -0.23840E-10   225   0.687E-07    0.173E-07
RMM:   2    -0.122747836617E+03    0.23283E-09    0.11194-197     5   0.516E-07
  28 F= -.12274784E+03 E0= -.12273377E+03  d E =0.167347E-09
       N       E                     dE             d eps       ncg     rms          rms(c)
DAV:   1    -0.122747836616E+03    0.75670E-09   -0.32891E-11   225   0.539E-07    0.138E-07
RMM:   2    -0.122747836617E+03   -0.38926E-09    0.91627-198     5   0.398E-07
  29 F= -.12274784E+03 E0= -.12273377E+03  d E =0.134605E-09
       N       E                     dE             d eps       ncg     rms          rms(c)
DAV:   1    -0.122747836617E+03   -0.51296E-09   -0.21469E-10   225   0.419E-07    0.102E-07
RMM:   2    -0.122747836617E+03   -0.40018E-09    0.32244-198     5   0.315E-07
  30 F= -.12274784E+03 E0= -.12273377E+03  d E =-.523869E-09
       N       E                     dE             d eps       ncg     rms          rms(c)
DAV:   1    -0.122747836616E+03    0.92768E-09   -0.20848E-10   225   0.329E-07    0.789E-08
RMM:   2    -0.122747836617E+03   -0.92768E-09    0.26143-198     5   0.243E-07
  31 F= -.12274784E+03 E0= -.12273377E+03  d E =0.400178E-09
       N       E                     dE             d eps       ncg     rms          rms(c)
DAV:   1    -0.122747836618E+03   -0.15061E-08   -0.12313E-10   225   0.255E-07    0.618E-08
RMM:   2    -0.122747836617E+03    0.62937E-09    0.84431-203     3   0.193E-07
  32 F= -.12274784E+03 E0= -.12273377E+03  d E =0.509317E-10
       N       E                     dE             d eps       ncg     rms          rms(c)
DAV:   1    -0.122747836616E+03    0.11096E-08   -0.37586E-10   225   0.202E-07    0.466E-08
RMM:   2    -0.122747836617E+03   -0.49840E-09    0.86846-203     3   0.148E-07
  33 F= -.12274784E+03 E0= -.12273377E+03  d E =-.181899E-10
       N       E                     dE             d eps       ncg     rms          rms(c)
DAV:   1    -0.122747836617E+03   -0.65484E-10   -0.84061E-11   225   0.156E-07    0.378E-08
RMM:   2    -0.122747836616E+03    0.90949E-10    0.37964-203     3   0.119E-07
  34 F= -.12274784E+03 E0= -.12273377E+03  d E =0.523869E-09
       N       E                     dE             d eps       ncg     rms          rms(c)
DAV:   1    -0.122747836617E+03   -0.17099E-09   -0.19835E-10   225   0.124E-07    0.276E-08
RMM:   2    -0.122747836617E+03   -0.39654E-09    0.39073-203     3   0.906E-08
  35 F= -.12274784E+03 E0= -.12273377E+03  d E =-.658474E-09
       N       E                     dE             d eps       ncg     rms          rms(c)
DAV:   1    -0.122747836617E+03   -0.32742E-10   -0.50774E-12   225   0.953E-08    0.243E-08
RMM:   2    -0.122747836617E+03   -0.12005E-09    0.16740-203     3   0.737E-08
  36 F= -.12274784E+03 E0= -.12273377E+03  d E =0.243745E-09
       N       E                     dE             d eps       ncg     rms          rms(c)
DAV:   1    -0.122747836617E+03   -0.17099E-09   -0.16591E-10   225   0.770E-08    0.165E-08
RMM:   2    -0.122747836617E+03    0.43656E-10    0.17262-203     3   0.551E-08
  37 F= -.12274784E+03 E0= -.12273377E+03  d E =-.727596E-11
       N       E                     dE             d eps       ncg     rms          rms(c)
DAV:   1    -0.122747836617E+03   -0.14188E-09   -0.55810E-11   225   0.582E-08    0.166E-08
RMM:   2    -0.122747836617E+03    0.40382E-09    0.73616-204     3   0.454E-08
  38 F= -.12274784E+03 E0= -.12273377E+03  d E =0.218279E-09
       N       E                     dE             d eps       ncg     rms          rms(c)
DAV:   1    -0.122747836617E+03    0.17462E-09   -0.11559E-10   225   0.477E-08    0.102E-08
RMM:   2    -0.122747836617E+03    0.40018E-10    0.74096-204     3   0.336E-08
  39 F= -.12274784E+03 E0= -.12273377E+03  d E =-.189175E-09
       N       E                     dE             d eps       ncg     rms          rms(c)
DAV:   1    -0.122747836616E+03    0.12951E-08   -0.26807E-10   225   0.355E-08    0.928E-09
RMM:   2    -0.122747836617E+03   -0.11350E-08    0.31803-204     3   0.278E-08
  40 F= -.12274784E+03 E0= -.12273377E+03  d E =0.120053E-09
       N       E                     dE             d eps       ncg     rms          rms(c)
DAV:   1    -0.122747836618E+03   -0.20664E-08   -0.34217E-10   225   0.293E-08    0.573E-09
RMM:   2    -0.122747836617E+03    0.66211E-09    0.31039-204     3   0.206E-08
  41 F= -.12274784E+03 E0= -.12273377E+03  d E =-.269210E-09
       N       E                     dE             d eps       ncg     rms          rms(c)
DAV:   1    -0.122747836616E+03    0.14297E-08   -0.14382E-10   225   0.223E-08    0.652E-09
RMM:   2    -0.122747836617E+03   -0.12260E-08    0.80930-210     2   0.175E-08
  42 F= -.12274784E+03 E0= -.12273377E+03  d E =-.458385E-09
       N       E                     dE             d eps       ncg     rms          rms(c)
DAV:   1    -0.122747836617E+03   -0.11860E-08   -0.24978E-10   225   0.188E-08    0.320E-09
RMM:   2    -0.122747836617E+03    0.15280E-09    0.17246-209     2   0.127E-08
  43 F= -.12274784E+03 E0= -.12273377E+03  d E =0.192813E-09
       N       E                     dE             d eps       ncg     rms          rms(c)
DAV:   1    -0.122747836617E+03    0.47294E-09   -0.16351E-10   225   0.171E-08    0.319E-09
RMM:   2    -0.122747836617E+03   -0.28012E-09    0.15705-209     2   0.122E-08
  44 F= -.12274784E+03 E0= -.12273377E+03  d E =0.400178E-10
       N       E                     dE             d eps       ncg     rms          rms(c)
DAV:   1    -0.122747836616E+03    0.77853E-09   -0.37146E-10   225   0.130E-08    0.124E-09
RMM:   2    -0.122747836617E+03   -0.97498E-09    0.29740-209     2   0.760E-09
  45 F= -.12274784E+03 E0= -.12273377E+03  d E =0.836735E-10
       N       E                     dE             d eps       ncg     rms          rms(c)
DAV:   1    -0.122747836617E+03   -0.11605E-08   -0.18374E-10   225   0.777E-09    0.168E-09
RMM:   2    -0.122747836617E+03    0.32742E-10    0.23403-209     2   0.714E-09
  46 F= -.12274784E+03 E0= -.12273377E+03  d E =-.152795E-09
       N       E                     dE             d eps       ncg     rms          rms(c)
DAV:   1    -0.122747836617E+03    0.66211E-09   -0.82925E-11   225   0.743E-09    0.111E-09
RMM:   2    -0.122747836617E+03   -0.54933E-09    0.49768-209     2   0.467E-09
  47 F= -.12274784E+03 E0= -.12273377E+03  d E =0.800355E-10
       N       E                     dE             d eps       ncg     rms          rms(c)
DAV:   1    -0.122747836618E+03   -0.13097E-08   -0.18200E-10   225   0.477E-09    0.118E-09
RMM:   2    -0.122747836617E+03    0.11205E-08    0.39613-209     2   0.403E-09
  48 F= -.12274784E+03 E0= -.12273377E+03  d E =0.360160E-09
       N       E                     dE             d eps       ncg     rms          rms(c)
DAV:   1    -0.122747836617E+03    0.14261E-08   -0.15026E-10   225   0.419E-09    0.738E-10
RMM:   2    -0.122747836617E+03   -0.32014E-09    0.79540-209     2   0.287E-09
  49 F= -.12274784E+03 E0= -.12273377E+03  d E =-.145519E-10
       N       E                     dE             d eps       ncg     rms          rms(c)
DAV:   1    -0.122747836617E+03   -0.41837E-09   -0.24788E-10   225   0.299E-09    0.100E-09
RMM:   2    -0.122747836617E+03   -0.80036E-10    0.62483-209     2   0.247E-09
  50 F= -.12274784E+03 E0= -.12273377E+03  d E =-.178261E-09
       N       E                     dE             d eps       ncg     rms          rms(c)
DAV:   1    -0.122747836618E+03   -0.66939E-09   -0.24409E-10   225   0.270E-09    0.905E-10
RMM:   2    -0.122747836617E+03    0.64028E-09    0.11986-208     2   0.188E-09
  51 F= -.12274784E+03 E0= -.12273377E+03  d E =0.509317E-10
       N       E                     dE             d eps       ncg     rms          rms(c)
DAV:   1    -0.122747836616E+03    0.16444E-08   -0.11452E-10   225   0.207E-09    0.962E-10
RMM:   2    -0.122747836617E+03   -0.13824E-08    0.98814-209     2   0.168E-09
  52 F= -.12274784E+03 E0= -.12273377E+03  d E =-.378350E-09
       N       E                     dE             d eps       ncg     rms          rms(c)
DAV:   1    -0.122747836617E+03   -0.71668E-09   -0.11849E-10   225   0.188E-09    0.795E-10
RMM:   2    -0.122747836617E+03   -0.73487E-09    0.16385-208     2   0.147E-09
  53 F= -.12274784E+03 E0= -.12273377E+03  d E =-.691216E-10
       N       E                     dE             d eps       ncg     rms          rms(c)
DAV:   1    -0.122747836617E+03   -0.29831E-09    0.13654E-10   225   0.164E-09    0.392E-10
RMM:   2    -0.122747836617E+03    0.72760E-11    0.15128-208     2   0.125E-09
  54 F= -.12274784E+03 E0= -.12273377E+03  d E =0.443833E-09
       N       E                     dE             d eps       ncg     rms          rms(c)
DAV:   1    -0.122747836618E+03   -0.59663E-09   -0.22705E-10   225   0.113E-09    0.720E-10
RMM:   2    -0.122747836617E+03    0.54933E-09    0.19769-208     2   0.834E-10
  55 F= -.12274784E+03 E0= -.12273377E+03  d E =-.545697E-10
       N       E                     dE             d eps       ncg     rms          rms(c)
DAV:   1    -0.122747836616E+03    0.10878E-08   -0.27229E-10   225   0.995E-10    0.681E-10
RMM:   2    -0.122747836617E+03   -0.48385E-09    0.16151-208     2   0.778E-10
  56 F= -.12274784E+03 E0= -.12273377E+03  d E =0.545697E-10
       N       E                     dE             d eps       ncg     rms          rms(c)
DAV:   1    -0.122747836618E+03   -0.13933E-08   -0.12744E-10   225   0.879E-10    0.877E-10
RMM:   2    -0.122747836617E+03    0.77853E-09    0.23846-208     2   0.982E-10
  57 F= -.12274784E+03 E0= -.12273377E+03  d E =-.130967E-09
       N       E                     dE             d eps       ncg     rms          rms(c)
DAV:   1    -0.122747836617E+03    0.42201E-09   -0.17926E-10   225   0.877E-10    0.760E-10
RMM:   2    -0.122747836617E+03    0.57480E-09    0.19421-208     2   0.907E-10
  58 F= -.12274784E+03 E0= -.12273377E+03  d E =0.218279E-09
       N       E                     dE             d eps       ncg     rms          rms(c)
DAV:   1    -0.122747836618E+03   -0.75306E-09   -0.22601E-10   225   0.925E-10    0.996E-10
RMM:   2    -0.122747836617E+03    0.11642E-08    0.26084-208     2   0.871E-10
  59 F= -.12274784E+03 E0= -.12273377E+03  d E =-.163709E-09
       N       E                     dE             d eps       ncg     rms          rms(c)
DAV:   1    -0.122747836617E+03    0.90222E-09   -0.11585E-10   225   0.706E-10    0.669E-10
RMM:   2    -0.122747836617E+03    0.15643E-09    0.23012-208     2   0.668E-10
  60 F= -.12274784E+03 E0= -.12273377E+03  d E =-.105501E-09
       N       E                     dE             d eps       ncg     rms          rms(c)
DAV:   1    -0.122747836617E+03    0.18554E-09   -0.10210E-10   225   0.807E-10    0.740E-10
RMM:   2    -0.122747836617E+03    0.12369E-09    0.25891-208     2   0.763E-10
  61 F= -.12274784E+03 E0= -.12273377E+03  d E =0.152795E-09
       N       E                     dE             d eps       ncg     rms          rms(c)
DAV:   1    -0.122747836617E+03    0.30559E-09   -0.29605E-10   225   0.591E-10    0.505E-10
RMM:   2    -0.122747836617E+03   -0.27285E-09    0.15834-208     2   0.484E-10
  62 F= -.12274784E+03 E0= -.12273377E+03  d E =-.909495E-10
       N       E                     dE             d eps       ncg     rms          rms(c)
DAV:   1    -0.122747836617E+03   -0.36016E-09   -0.14777E-10   225   0.487E-10    0.661E-10
RMM:   2    -0.122747836617E+03    0.69122E-10    0.23143-208     2   0.446E-10
  63 F= -.12274784E+03 E0= -.12273377E+03  d E =-.181899E-10
       N       E                     dE             d eps       ncg     rms          rms(c)
DAV:   1    -0.122747836617E+03   -0.43656E-10   -0.18444E-10   225   0.490E-10    0.469E-10
RMM:   2    -0.122747836617E+03    0.12369E-09    0.17327-208     2   0.389E-10
  64 F= -.12274784E+03 E0= -.12273377E+03  d E =0.109139E-10
       N       E                     dE             d eps       ncg     rms          rms(c)
DAV:   1    -0.122747836618E+03   -0.79672E-09   -0.14686E-10   225   0.481E-10    0.745E-10
RMM:   2    -0.122747836617E+03    0.70213E-09    0.15812-208     2   0.541E-10
  65 F= -.12274784E+03 E0= -.12273377E+03  d E =-.218279E-09
       N       E                     dE             d eps       ncg     rms          rms(c)
DAV:   1    -0.122747836619E+03   -0.60390E-09   -0.30251E-10   225   0.630E-10    0.537E-10
RMM:   2    -0.122747836617E+03    0.16116E-08    0.17108-208     2   0.613E-10
  66 F= -.12274784E+03 E0= -.12273377E+03  d E =0.305590E-09
       N       E                     dE             d eps       ncg     rms          rms(c)
DAV:   1    -0.122747836617E+03    0.12587E-08   -0.16018E-10   225   0.815E-10    0.833E-10
RMM:   2    -0.122747836617E+03    0.65484E-10    0.20836-208     2   0.629E-10
  67 F= -.12274784E+03 E0= -.12273377E+03  d E =-.287400E-09
       N       E                     dE             d eps       ncg     rms          rms(c)
DAV:   1    -0.122747836617E+03    0.40382E-09   -0.14719E-10   225   0.550E-10    0.654E-10
RMM:   2    -0.122747836617E+03    0.00000E+00    0.96326-209     2   0.330E-10
  68 F= -.12274784E+03 E0= -.12273377E+03  d E =0.338332E-09
       N       E                     dE             d eps       ncg     rms          rms(c)
DAV:   1    -0.122747836617E+03   -0.40745E-09   -0.62112E-11   225   0.419E-10    0.872E-10
RMM:   2    -0.122747836617E+03    0.35288E-09    0.15907-208     2   0.459E-10
  69 F= -.12274784E+03 E0= -.12273377E+03  d E =-.545697E-10
       N       E                     dE             d eps       ncg     rms          rms(c)
DAV:   1    -0.122747836617E+03    0.62209E-09   -0.17052E-10   225   0.410E-10    0.565E-10
RMM:   2    -0.122747836617E+03   -0.46202E-09    0.11512-208     2   0.464E-10
  70 F= -.12274784E+03 E0= -.12273377E+03  d E =-.192813E-09
       N       E                     dE             d eps       ncg     rms          rms(c)
DAV:   1    -0.122747836618E+03   -0.75670E-09   -0.15211E-10   225   0.578E-10    0.127E-09
RMM:   2    -0.122747836617E+03    0.54570E-09    0.11152-208     2   0.471E-10
  71 F= -.12274784E+03 E0= -.12273377E+03  d E =0.251021E-09
       N       E                     dE             d eps       ncg     rms          rms(c)
DAV:   1    -0.122747836618E+03   -0.14552E-10    0.70710E-11   225   0.761E-10    0.761E-10
RMM:   2    -0.122747836617E+03    0.54933E-09    0.92629-209     2   0.389E-10
  72 F= -.12274784E+03 E0= -.12273377E+03  d E =-.109139E-10
       N       E                     dE             d eps       ncg     rms          rms(c)
DAV:   1    -0.122747836617E+03    0.50204E-09   -0.14217E-10   225   0.710E-10    0.101E-09
RMM:   2    -0.122747836617E+03    0.65484E-10    0.88775-209     2   0.587E-10
  73 F= -.12274784E+03 E0= -.12273377E+03  d E =0.181899E-10
       N       E                     dE             d eps       ncg     rms          rms(c)
DAV:   1    -0.122747836617E+03    0.15643E-09   -0.11386E-10   225   0.657E-10    0.749E-10
RMM:   2    -0.122747836617E+03   -0.17462E-09    0.69395-209     2   0.383E-10
  74 F= -.12274784E+03 E0= -.12273377E+03  d E =-.836735E-10
       N       E                     dE             d eps       ncg     rms          rms(c)
DAV:   1    -0.122747836617E+03   -0.56752E-09   -0.22809E-10   225   0.606E-10    0.815E-10
RMM:   2    -0.122747836617E+03    0.38563E-09    0.79310-209     2   0.556E-10
  75 F= -.12274784E+03 E0= -.12273377E+03  d E =-.727596E-11
       N       E                     dE             d eps       ncg     rms          rms(c)
DAV:   1    -0.122747836617E+03    0.30559E-09   -0.20541E-10   225   0.743E-10    0.713E-10
RMM:   2    -0.122747836617E+03    0.21100E-09    0.50962-209     2   0.531E-10
  76 F= -.12274784E+03 E0= -.12273377E+03  d E =0.130967E-09
       N       E                     dE             d eps       ncg     rms          rms(c)
DAV:   1    -0.122747836619E+03   -0.16880E-08   -0.15769E-10   225   0.767E-10    0.104E-09
RMM:   2    -0.122747836617E+03    0.19354E-08    0.61626-209     2   0.738E-10
  77 F= -.12274784E+03 E0= -.12273377E+03  d E =0.363798E-10
       N       E                     dE             d eps       ncg     rms          rms(c)
DAV:   1    -0.122747836616E+03    0.25211E-08   -0.11975E-10   225   0.109E-09    0.756E-10
RMM:   2    -0.122747836617E+03   -0.10514E-08    0.52176-209     2   0.762E-10
  78 F= -.12274784E+03 E0= -.12273377E+03  d E =-.465661E-09
       N       E                     dE             d eps       ncg     rms          rms(c)
DAV:   1    -0.122747836618E+03   -0.14697E-08   -0.24169E-10   225   0.103E-09    0.634E-10
RMM:   2    -0.122747836617E+03    0.41109E-09    0.30523-209     2   0.485E-10
  79 F= -.12274784E+03 E0= -.12273377E+03  d E =-.727596E-11
       N       E                     dE             d eps       ncg     rms          rms(c)
DAV:   1    -0.122747836617E+03    0.48385E-09   -0.11412E-10   225   0.741E-10    0.726E-10
RMM:   2    -0.122747836617E+03    0.23647E-09    0.30588-209     2   0.661E-10
  80 F= -.12274784E+03 E0= -.12273377E+03  d E =0.309228E-09
       N       E                     dE             d eps       ncg     rms          rms(c)
DAV:   1    -0.122747836617E+03    0.57844E-09   -0.15464E-10   225   0.542E-10    0.773E-10
RMM:   2    -0.122747836617E+03   -0.24374E-09    0.38663-209     2   0.351E-10
  81 F= -.12274784E+03 E0= -.12273377E+03  d E =0.982254E-10
       N       E                     dE             d eps       ncg     rms          rms(c)
DAV:   1    -0.122747836618E+03   -0.94587E-09   -0.21415E-10   225   0.546E-10    0.744E-10
RMM:   2    -0.122747836617E+03    0.80036E-09    0.23016-209     2   0.449E-10
  82 F= -.12274784E+03 E0= -.12273377E+03  d E =0.982254E-10
       N       E                     dE             d eps       ncg     rms          rms(c)
DAV:   1    -0.122747836616E+03    0.11751E-08   -0.30998E-10   225   0.512E-10    0.669E-10
RMM:   2    -0.122747836617E+03   -0.38563E-09    0.22890-209     2   0.460E-10
  83 F= -.12274784E+03 E0= -.12273377E+03  d E =-.109139E-10
       N       E                     dE             d eps       ncg     rms          rms(c)
DAV:   1    -0.122747836616E+03    0.36380E-09   -0.20009E-10   225   0.839E-10    0.743E-10
RMM:   2    -0.122747836617E+03   -0.11569E-08    0.27815-209     2   0.663E-10
  84 F= -.12274784E+03 E0= -.12273377E+03  d E =-.407454E-09
       N       E                     dE             d eps       ncg     rms          rms(c)
DAV:   1    -0.122747836617E+03   -0.10696E-08   -0.59839E-11   225   0.714E-10    0.813E-10
RMM:   2    -0.122747836617E+03    0.69122E-10    0.98260-210     2   0.503E-10
  85 F= -.12274784E+03 E0= -.12273377E+03  d E =0.156433E-09
       N       E                     dE             d eps       ncg     rms          rms(c)
DAV:   1    -0.122747836617E+03    0.32742E-10   -0.14369E-10   225   0.472E-10    0.504E-10
RMM:   2    -0.122747836617E+03   -0.80036E-10    0.15632-209     2   0.351E-10
  86 F= -.12274784E+03 E0= -.12273377E+03  d E =-.116415E-09
       N       E                     dE             d eps       ncg     rms          rms(c)
DAV:   1    -0.122747836617E+03   -0.21100E-09   -0.17871E-10   225   0.424E-10    0.853E-10
RMM:   2    -0.122747836617E+03    0.38926E-09    0.12603-209     2   0.385E-10
  87 F= -.12274784E+03 E0= -.12273377E+03  d E =0.258296E-09
       N       E                     dE             d eps       ncg     rms          rms(c)
DAV:   1    -0.122747836618E+03   -0.21828E-09   -0.32737E-10   225   0.431E-10    0.599E-10
RMM:   2    -0.122747836617E+03    0.25102E-09    0.15951-209     2   0.319E-10
  88 F= -.12274784E+03 E0= -.12273377E+03  d E =-.356522E-09
       N       E                     dE             d eps       ncg     rms          rms(c)
DAV:   1    -0.122747836618E+03   -0.43656E-10   -0.24003E-10   225   0.664E-10    0.930E-10
RMM:   2    -0.122747836617E+03    0.31650E-09    0.67985-210     2   0.899E-10
  89 F= -.12274784E+03 E0= -.12273377E+03  d E =0.218279E-10
       N       E                     dE             d eps       ncg     rms          rms(c)
DAV:   1    -0.122747836617E+03    0.81491E-09   -0.67492E-11   225   0.955E-10    0.748E-10
RMM:   2    -0.122747836617E+03   -0.35652E-09    0.14371-209     2   0.617E-10
  90 F= -.12274784E+03 E0= -.12273377E+03  d E =0.141881E-09
       N       E                     dE             d eps       ncg     rms          rms(c)
DAV:   1    -0.122747836618E+03   -0.75306E-09   -0.17793E-10   225   0.735E-10    0.467E-10
RMM:   2    -0.122747836617E+03    0.48749E-09    0.34518-210     2   0.637E-10
  91 F= -.12274784E+03 E0= -.12273377E+03  d E =0.909495E-10
       N       E                     dE             d eps       ncg     rms          rms(c)
DAV:   1    -0.122747836618E+03   -0.44020E-09   -0.20909E-10   225   0.560E-10    0.101E-09
RMM:   2    -0.122747836617E+03    0.92405E-09    0.60908-210     2   0.425E-10
  92 F= -.12274784E+03 E0= -.12273377E+03  d E =-.363798E-11
       N       E                     dE             d eps       ncg     rms          rms(c)
DAV:   1    -0.122747836617E+03    0.11714E-08   -0.57432E-11   225   0.668E-10    0.674E-10
RMM:   2    -0.122747836617E+03   -0.38926E-09    0.48529-210     2   0.483E-10
  93 F= -.12274784E+03 E0= -.12273377E+03  d E =-.141881E-09
       N       E                     dE             d eps       ncg     rms          rms(c)
DAV:   1    -0.122747836618E+03   -0.95315E-09   -0.12872E-10   225   0.453E-10    0.452E-10
RMM:   2    -0.122747836617E+03    0.55661E-09    0.42738-210     2   0.385E-10
  94 F= -.12274784E+03 E0= -.12273377E+03  d E =-.727596E-11
       N       E                     dE             d eps       ncg     rms          rms(c)
DAV:   1    -0.122747836617E+03    0.89858E-09   -0.29890E-10   225   0.508E-10    0.915E-10
RMM:   2    -0.122747836617E+03   -0.72760E-11    0.34199-210     2   0.578E-10
  95 F= -.12274784E+03 E0= -.12273377E+03  d E =0.334694E-09
       N       E                     dE             d eps       ncg     rms          rms(c)
DAV:   1    -0.122747836618E+03   -0.93496E-09   -0.11919E-10   225   0.653E-10    0.734E-10
RMM:   2    -0.122747836617E+03    0.51659E-09    0.30954-210     2   0.463E-10
  96 F= -.12274784E+03 E0= -.12273377E+03  d E =-.411092E-09
       N       E                     dE             d eps       ncg     rms          rms(c)
DAV:   1    -0.122747836617E+03    0.55661E-09   -0.21216E-10   225   0.661E-10    0.124E-09
RMM:   2    -0.122747836617E+03   -0.58208E-10    0.29664-210     2   0.499E-10
  97 F= -.12274784E+03 E0= -.12273377E+03  d E =-.181899E-10
       N       E                     dE             d eps       ncg     rms          rms(c)
DAV:   1    -0.122747836617E+03    0.56752E-09   -0.69181E-11   225   0.531E-10    0.746E-10
RMM:   2    -0.122747836617E+03   -0.33106E-09    0.25887-210     2   0.560E-10
  98 F= -.12274784E+03 E0= -.12273377E+03  d E =0.294676E-09
       N       E                     dE             d eps       ncg     rms          rms(c)
DAV:   1    -0.122747836617E+03   -0.74215E-09   -0.12979E-10   225   0.705E-10    0.638E-10
RMM:   2    -0.122747836617E+03    0.57844E-09    0.20570-210     2   0.529E-10
  99 F= -.12274784E+03 E0= -.12273377E+03  d E =0.167347E-09
       N       E                     dE             d eps       ncg     rms          rms(c)
DAV:   1    -0.122747836616E+03    0.10186E-08   -0.93115E-11   225   0.105E-09    0.883E-10
RMM:   2    -0.122747836617E+03   -0.82218E-09    0.21706-210     2   0.783E-10
 100 F= -.12274784E+03 E0= -.12273377E+03  d E =-.381988E-09
       N       E                     dE             d eps       ncg     rms          rms(c)
DAV:   1    -0.122747836617E+03   -0.56752E-09   -0.30226E-10   225   0.907E-10    0.672E-10
RMM:   2    -0.122747836617E+03   -0.41837E-09    0.12716-210     2   0.511E-10
 101 F= -.12274784E+03 E0= -.12273377E+03  d E =-.163709E-09
       N       E                     dE             d eps       ncg     rms          rms(c)
DAV:   1    -0.122747836618E+03   -0.15134E-08   -0.15559E-10   225   0.538E-10    0.469E-10
RMM:   2    -0.122747836617E+03    0.13388E-08    0.36226-210     2   0.546E-10
 102 F= -.12274784E+03 E0= -.12273377E+03  d E =0.243745E-09
       N       E                     dE             d eps       ncg     rms          rms(c)
DAV:   1    -0.122747836618E+03    0.56752E-09   -0.11790E-10   225   0.606E-10    0.746E-10
RMM:   2    -0.122747836617E+03    0.66211E-09    0.66139-211     2   0.408E-10
 103 F= -.12274784E+03 E0= -.12273377E+03  d E =-.109139E-09
       N       E                     dE             d eps       ncg     rms          rms(c)
DAV:   1    -0.122747836617E+03    0.11642E-08   -0.10151E-10   225   0.629E-10    0.761E-10
RMM:   2    -0.122747836617E+03   -0.20373E-09    0.20504-210     2   0.421E-10
 104 F= -.12274784E+03 E0= -.12273377E+03  d E =0.298314E-09
       N       E                     dE             d eps       ncg     rms          rms(c)
DAV:   1    -0.122747836618E+03   -0.80036E-09   -0.21293E-10   225   0.867E-10    0.815E-10
RMM:   2    -0.122747836617E+03    0.36016E-09    0.62733-211     2   0.731E-10
 105 F= -.12274784E+03 E0= -.12273377E+03  d E =-.236469E-09
       N       E                     dE             d eps       ncg     rms          rms(c)
DAV:   1    -0.122747836617E+03    0.29468E-09   -0.21406E-10   225   0.843E-10    0.940E-10
RMM:   2    -0.122747836617E+03    0.33833E-09    0.11498-210     2   0.639E-10
 106 F= -.12274784E+03 E0= -.12273377E+03  d E =0.272848E-09
       N       E                     dE             d eps       ncg     rms          rms(c)
DAV:   1    -0.122747836617E+03    0.43656E-09   -0.28950E-10   225   0.738E-10    0.119E-09
RMM:   2    -0.122747836617E+03   -0.30923E-09    0.61877-211     2   0.613E-10
 107 F= -.12274784E+03 E0= -.12273377E+03  d E =-.211003E-09
       N       E                     dE             d eps       ncg     rms          rms(c)
DAV:   1    -0.122747836617E+03    0.13097E-09   -0.20521E-10   225   0.807E-10    0.743E-10
RMM:   2    -0.122747836617E+03   -0.38926E-09    0.71937-211     2   0.506E-10
 108 F= -.12274784E+03 E0= -.12273377E+03  d E =0.509317E-10
       N       E                     dE             d eps       ncg     rms          rms(c)
DAV:   1    -0.122747836618E+03   -0.10805E-08   -0.25820E-10   225   0.682E-10    0.821E-10
RMM:   2    -0.122747836617E+03    0.42201E-09    0.33359-211     2   0.614E-10
 109 F= -.12274784E+03 E0= -.12273377E+03  d E =-.269210E-09
       N       E                     dE             d eps       ncg     rms          rms(c)
DAV:   1    -0.122747836616E+03    0.20664E-08   -0.24293E-10   225   0.576E-10    0.595E-10
RMM:   2    -0.122747836617E+03   -0.16844E-08    0.71954-211     2   0.425E-10
 110 F= -.12274784E+03 E0= -.12273377E+03  d E =-.400178E-10
       N       E                     dE             d eps       ncg     rms          rms(c)
DAV:   1    -0.122747836618E+03   -0.22519E-08   -0.13573E-10   225   0.372E-10    0.570E-10
RMM:   2    -0.122747836617E+03    0.76034E-09    0.33243-211     2   0.359E-10
 111 F= -.12274784E+03 E0= -.12273377E+03  d E =0.192813E-09
       N       E                     dE             d eps       ncg     rms          rms(c)
DAV:   1    -0.122747836617E+03    0.12442E-08   -0.15505E-10   225   0.484E-10    0.115E-09
RMM:   2    -0.122747836617E+03   -0.57116E-09    0.33055-211     2   0.399E-10
 112 F= -.12274784E+03 E0= -.12273377E+03  d E =-.873115E-10
       N       E                     dE             d eps       ncg     rms          rms(c)
DAV:   1    -0.122747836618E+03   -0.91677E-09   -0.26179E-10   225   0.628E-10    0.107E-09
RMM:   2    -0.122747836617E+03    0.45839E-09    0.29338-211     2   0.627E-10
 113 F= -.12274784E+03 E0= -.12273377E+03  d E =0.112777E-09
       N       E                     dE             d eps       ncg     rms          rms(c)
DAV:   1    -0.122747836617E+03    0.47294E-09   -0.73824E-11   225   0.766E-10    0.628E-10
RMM:   2    -0.122747836617E+03   -0.61846E-10    0.27544-211     2   0.455E-10
 114 F= -.12274784E+03 E0= -.12273377E+03  d E =-.472937E-10
       N       E                     dE             d eps       ncg     rms          rms(c)
DAV:   1    -0.122747836616E+03    0.12114E-08   -0.27131E-10   225   0.563E-10    0.949E-10
RMM:   2    -0.122747836617E+03   -0.12733E-08    0.21528-211     2   0.399E-10
 115 F= -.12274784E+03 E0= -.12273377E+03  d E =0.000000E+00
       N       E                     dE             d eps       ncg     rms          rms(c)
DAV:   1    -0.122747836618E+03   -0.25175E-08   -0.25606E-10   225   0.556E-10    0.700E-10
RMM:   2    -0.122747836617E+03    0.13351E-08    0.14718-211     2   0.539E-10
 116 F= -.12274784E+03 E0= -.12273377E+03  d E =0.909495E-10
       N       E                     dE             d eps       ncg     rms          rms(c)
DAV:   1    -0.122747836618E+03    0.59663E-09   -0.33500E-10   225   0.494E-10    0.614E-10
RMM:   2    -0.122747836617E+03    0.56752E-09    0.23149-211     2   0.395E-10
 117 F= -.12274784E+03 E0= -.12273377E+03  d E =-.170985E-09
       N       E                     dE             d eps       ncg     rms          rms(c)
DAV:   1    -0.122747836617E+03    0.13533E-08   -0.69270E-11   225   0.450E-10    0.384E-10
RMM:   2    -0.122747836617E+03   -0.36744E-09    0.10380-211     2   0.449E-10
 118 F= -.12274784E+03 E0= -.12273377E+03  d E =0.418368E-09
       N       E                     dE             d eps       ncg     rms          rms(c)
DAV:   1    -0.122747836617E+03   -0.71668E-09   -0.25742E-10   225   0.356E-10    0.984E-10
RMM:   2    -0.122747836617E+03    0.13097E-09    0.50566-211     2   0.630E-10
 119 F= -.12274784E+03 E0= -.12273377E+03  d E =-.218279E-09
       N       E                     dE             d eps       ncg     rms          rms(c)
DAV:   1    -0.122747836617E+03    0.28740E-09   -0.70776E-11   225   0.545E-10    0.573E-10
RMM:   2    -0.122747836617E+03   -0.36744E-09    0.54533-212     2   0.381E-10
 120 F= -.12274784E+03 E0= -.12273377E+03  d E =-.211003E-09
       N       E                     dE             d eps       ncg     rms          rms(c)
DAV:   1    -0.122747836618E+03   -0.86220E-09   -0.22313E-10   225   0.347E-10    0.778E-10
RMM:   2    -0.122747836617E+03    0.82582E-09    0.52104-212     2   0.410E-10
 121 F= -.12274784E+03 E0= -.12273377E+03  d E =0.331056E-09
       N       E                     dE             d eps       ncg     rms          rms(c)
DAV:   1    -0.122747836617E+03    0.11496E-08   -0.16820E-10   225   0.440E-10    0.103E-09
RMM:   2    -0.122747836617E+03   -0.21100E-09    0.56547-212     2   0.607E-10
 122 F= -.12274784E+03 E0= -.12273377E+03  d E =0.112777E-09
       N       E                     dE             d eps       ncg     rms          rms(c)
DAV:   1    -0.122747836617E+03    0.16007E-09   -0.17459E-10   225   0.573E-10    0.534E-10
RMM:   2    -0.122747836617E+03   -0.68394E-09    0.53146-212     2   0.435E-10
 123 F= -.12274784E+03 E0= -.12273377E+03  d E =-.312866E-09
       N       E                     dE             d eps       ncg     rms          rms(c)
DAV:   1    -0.122747836618E+03   -0.18299E-08   -0.11310E-10   225   0.536E-10    0.102E-09
RMM:   2    -0.122747836617E+03    0.14625E-08    0.77407-212     2   0.715E-10
 124 F= -.12274784E+03 E0= -.12273377E+03  d E =0.316504E-09
       N       E                     dE             d eps       ncg     rms          rms(c)
DAV:   1    -0.122747836616E+03    0.20373E-08   -0.25464E-10   225   0.648E-10    0.582E-10
RMM:   2    -0.122747836617E+03   -0.70213E-09    0.35884-212     2   0.362E-10
 125 F= -.12274784E+03 E0= -.12273377E+03  d E =-.127329E-09
       N       E                     dE             d eps       ncg     rms          rms(c)
DAV:   1    -0.122747836616E+03    0.72396E-09   -0.18116E-10   225   0.707E-10    0.978E-10
RMM:   2    -0.122747836617E+03   -0.14952E-08    0.20158-211     2   0.707E-10
 126 F= -.12274784E+03 E0= -.12273377E+03  d E =-.691216E-10
       N       E                     dE             d eps       ncg     rms          rms(c)
DAV:   1    -0.122747836617E+03   -0.18990E-08   -0.51286E-11   225   0.936E-10    0.624E-10
RMM:   2    -0.122747836617E+03    0.22555E-09    0.20963-212     2   0.652E-10
 127 F= -.12274784E+03 E0= -.12273377E+03  d E =-.178261E-09
       N       E                     dE             d eps       ncg     rms          rms(c)
DAV:   1    -0.122747836618E+03   -0.31287E-09   -0.25527E-10   225   0.613E-10    0.518E-10
RMM:   2    -0.122747836617E+03    0.71304E-09    0.78948-212     2   0.453E-10
 128 F= -.12274784E+03 E0= -.12273377E+03  d E =0.174623E-09
       N       E                     dE             d eps       ncg     rms          rms(c)
DAV:   1    -0.122747836617E+03    0.99681E-09   -0.25610E-10   225   0.532E-10    0.955E-10
RMM:   2    -0.122747836617E+03   -0.52387E-09    0.81332-213     2   0.560E-10
 129 F= -.12274784E+03 E0= -.12273377E+03  d E =-.240107E-09
       N       E                     dE             d eps       ncg     rms          rms(c)
DAV:   1    -0.122747836617E+03   -0.44383E-09   -0.30788E-10   225   0.590E-10    0.787E-10
RMM:   2    -0.122747836617E+03    0.24011E-09    0.37587-212     2   0.614E-10
 130 F= -.12274784E+03 E0= -.12273377E+03  d E =0.320142E-09
       N       E                     dE             d eps       ncg     rms          rms(c)
DAV:   1    -0.122747836617E+03   -0.10914E-09   -0.24111E-10   225   0.784E-10    0.917E-10
RMM:   2    -0.122747836617E+03   -0.58208E-10    0.20233-212     2   0.517E-10
 131 F= -.12274784E+03 E0= -.12273377E+03  d E =-.407454E-09
       N       E                     dE             d eps       ncg     rms          rms(c)
DAV:   1    -0.122747836616E+03    0.10114E-08   -0.89602E-11   225   0.772E-10    0.540E-10
RMM:   2    -0.122747836617E+03   -0.83310E-09    0.12527-212     2   0.584E-10
 132 F= -.12274784E+03 E0= -.12273377E+03  d E =0.236469E-09
       N       E                     dE             d eps       ncg     rms          rms(c)
DAV:   1    -0.122747836617E+03   -0.34925E-09   -0.17323E-10   225   0.869E-10    0.529E-10
RMM:   2    -0.122747836617E+03   -0.58571E-09    0.15598-212     2   0.730E-10
 133 F= -.12274784E+03 E0= -.12273377E+03  d E =-.101863E-09
       N       E                     dE             d eps       ncg     rms          rms(c)
DAV:   1    -0.122747836617E+03   -0.18190E-10   -0.22576E-10   225   0.108E-09    0.110E-09
RMM:   2    -0.122747836617E+03   -0.36744E-09    0.66086-213     2   0.102E-09
 134 F= -.12274784E+03 E0= -.12273377E+03  d E =0.200089E-09
       N       E                     dE             d eps       ncg     rms          rms(c)
DAV:   1    -0.122747836617E+03    0.19645E-09   -0.16769E-10   225   0.114E-09    0.706E-10
RMM:   2    -0.122747836617E+03   -0.76398E-09    0.13252-212     2   0.801E-10
 135 F= -.12274784E+03 E0= -.12273377E+03  d E =-.200089E-09
       N       E                     dE             d eps       ncg     rms          rms(c)
DAV:   1    -0.122747836618E+03   -0.17790E-08   -0.29099E-10   216   0.846E-10    0.768E-10
RMM:   2    -0.122747836617E+03    0.12406E-08    0.73882-213     1   0.606E-10
 136 F= -.12274784E+03 E0= -.12273377E+03  d E =0.225555E-09
       N       E                     dE             d eps       ncg     rms          rms(c)
DAV:   1    -0.122747836617E+03    0.10914E-08   -0.14997E-10   198   0.736E-10    0.587E-10
RMM:   2    -0.122747836617E+03   -0.50932E-10    0.37513-213     1   0.702E-10
 137 F= -.12274784E+03 E0= -.12273377E+03  d E =-.200089E-09
       N       E                     dE             d eps       ncg     rms          rms(c)
DAV:   1    -0.122747836618E+03   -0.37835E-09   -0.30909E-11   198   0.720E-10    0.628E-10
RMM:   2    -0.122747836617E+03    0.36016E-09    0.40274-213     1   0.502E-10
 138 F= -.12274784E+03 E0= -.12273377E+03  d E =0.327418E-10
       N       E                     dE             d eps       ncg     rms          rms(c)
DAV:   1    -0.122747836617E+03    0.56389E-09   -0.23348E-10   198   0.629E-10    0.105E-09
RMM:   2    -0.122747836617E+03   -0.16371E-09    0.31447-213     1   0.721E-10
 139 F= -.12274784E+03 E0= -.12273377E+03  d E =0.400178E-10
       N       E                     dE             d eps       ncg     rms          rms(c)
DAV:   1    -0.122747836617E+03   -0.11278E-09   -0.63093E-11   198   0.749E-10    0.938E-10
RMM:   2    -0.122747836617E+03   -0.58208E-10    0.37292-213     1   0.519E-10
 140 F= -.12274784E+03 E0= -.12273377E+03  d E =-.727596E-11
       N       E                     dE             d eps       ncg     rms          rms(c)
DAV:   1    -0.122747836618E+03   -0.86584E-09   -0.18694E-10   198   0.604E-10    0.732E-10
RMM:   2    -0.122747836617E+03    0.83310E-09    0.30095-213     1   0.516E-10
 141 F= -.12274784E+03 E0= -.12273377E+03  d E =0.254659E-10
       N       E                     dE             d eps       ncg     rms          rms(c)
DAV:   1    -0.122747836618E+03    0.40018E-09    0.11613E-11   198   0.654E-10    0.584E-10
RMM:   2    -0.122747836617E+03    0.23283E-09    0.35536-213     1   0.561E-10
 142 F= -.12274784E+03 E0= -.12273377E+03  d E =-.200089E-09
       N       E                     dE             d eps       ncg     rms          rms(c)
DAV:   1    -0.122747836617E+03    0.77853E-09   -0.29793E-10   198   0.559E-10    0.801E-10
RMM:   2    -0.122747836617E+03   -0.46202E-09    0.29485-213     1   0.613E-10
 143 F= -.12274784E+03 E0= -.12273377E+03  d E =0.836735E-10
       N       E                     dE             d eps       ncg     rms          rms(c)
DAV:   1    -0.122747836617E+03   -0.45111E-09   -0.14894E-10   198   0.428E-10    0.505E-10
RMM:   2    -0.122747836617E+03    0.35652E-09    0.35983-213     1   0.582E-10
 144 F= -.12274784E+03 E0= -.12273377E+03  d E =0.367436E-09
       N       E                     dE             d eps       ncg     rms          rms(c)
DAV:   1    -0.122747836617E+03   -0.29104E-10   -0.87365E-12   198   0.529E-10    0.774E-10
RMM:   2    -0.122747836617E+03    0.17826E-09    0.28177-213     1   0.343E-10
 145 F= -.12274784E+03 E0= -.12273377E+03  d E =-.207365E-09
       N       E                     dE             d eps       ncg     rms          rms(c)
DAV:   1    -0.122747836618E+03   -0.48385E-09   -0.15682E-10   198   0.464E-10    0.816E-10
RMM:   2    -0.122747836617E+03    0.34561E-09    0.35193-213     1   0.460E-10
 146 F= -.12274784E+03 E0= -.12273377E+03  d E =-.316504E-09
       N       E                     dE             d eps       ncg     rms          rms(c)
DAV:   1    -0.122747836617E+03    0.29468E-09   -0.13340E-10   198   0.540E-10    0.111E-09
RMM:   2    -0.122747836617E+03    0.41837E-09    0.29098-213     1   0.545E-10
 147 F= -.12274784E+03 E0= -.12273377E+03  d E =0.367436E-09
       N       E                     dE             d eps       ncg     rms          rms(c)
DAV:   1    -0.122747836617E+03    0.59663E-09   -0.26372E-10   198   0.727E-10    0.143E-09
RMM:   2    -0.122747836617E+03   -0.44020E-09    0.31881-213     1   0.993E-10
 148 F= -.12274784E+03 E0= -.12273377E+03  d E =-.261934E-09
       N       E                     dE             d eps       ncg     rms          rms(c)
DAV:   1    -0.122747836618E+03   -0.81127E-09   -0.13157E-10   198   0.859E-10    0.666E-10
RMM:   2    -0.122747836617E+03    0.48749E-09    0.28257-213     1   0.430E-10
 149 F= -.12274784E+03 E0= -.12273377E+03  d E =0.116415E-09
       N       E                     dE             d eps       ncg     rms          rms(c)
DAV:   1    -0.122747836618E+03   -0.12369E-09   -0.21779E-10   198   0.598E-10    0.504E-10
RMM:   2    -0.122747836617E+03    0.92041E-09    0.30733-213     1   0.523E-10
 150 F= -.12274784E+03 E0= -.12273377E+03  d E =0.309228E-09
       N       E                     dE             d eps       ncg     rms          rms(c)
DAV:   1    -0.122747836618E+03   -0.27649E-09   -0.25205E-10   198   0.603E-10    0.114E-09
RMM:   2    -0.122747836617E+03    0.12005E-08    0.29017-213     1   0.661E-10
 151 F= -.12274784E+03 E0= -.12273377E+03  d E =0.363798E-11
       N       E                     dE             d eps       ncg     rms          rms(c)
DAV:   1    -0.122747836618E+03    0.16735E-09   -0.14408E-10   198   0.768E-10    0.101E-09
RMM:   2    -0.122747836617E+03    0.10114E-08    0.30726-213     1   0.499E-10
 152 F= -.12274784E+03 E0= -.12273377E+03  d E =-.218279E-10
       N       E                     dE             d eps       ncg     rms          rms(c)
DAV:   1    -0.122747836617E+03    0.85493E-09   -0.11138E-10   198   0.731E-10    0.679E-10
RMM:   2    -0.122747836617E+03    0.80036E-10    0.29181-213     1   0.421E-10
 153 F= -.12274784E+03 E0= -.12273377E+03  d E =-.763976E-10
       N       E                     dE             d eps       ncg     rms          rms(c)
DAV:   1    -0.122747836617E+03   -0.20009E-09   -0.20811E-10   198   0.714E-10    0.862E-10
RMM:   2    -0.122747836617E+03    0.28376E-09    0.29271-213     1   0.580E-10
 154 F= -.12274784E+03 E0= -.12273377E+03  d E =0.363798E-11
       N       E                     dE             d eps       ncg     rms          rms(c)
DAV:   1    -0.122747836616E+03    0.79308E-09   -0.82494E-12   198   0.713E-10    0.565E-10
RMM:   2    -0.122747836617E+03   -0.48021E-09    0.26816-213     1   0.425E-10
 155 F= -.12274784E+03 E0= -.12273377E+03  d E =0.291038E-10
       N       E                     dE             d eps       ncg     rms          rms(c)
DAV:   1    -0.122747836616E+03    0.22555E-09   -0.28502E-10   198   0.458E-10    0.565E-10
RMM:   2    -0.122747836617E+03   -0.68030E-09    0.30462-213     1   0.475E-10
 156 F= -.12274784E+03 E0= -.12273377E+03  d E =0.254659E-10
       N       E                     dE             d eps       ncg     rms          rms(c)
DAV:   1    -0.122747836618E+03   -0.14479E-08   -0.15073E-10   198   0.505E-10    0.101E-09
RMM:   2    -0.122747836617E+03    0.60027E-09    0.31191-213     1   0.450E-10
 157 F= -.12274784E+03 E0= -.12273377E+03  d E =-.167347E-09
       N       E                     dE             d eps       ncg     rms          rms(c)
DAV:   1    -0.122747836618E+03   -0.10914E-09   -0.30449E-10   198   0.851E-10    0.132E-09
RMM:   2    -0.122747836617E+03    0.63301E-09    0.25028-213     1   0.776E-10
 158 F= -.12274784E+03 E0= -.12273377E+03  d E =-.763976E-10
       N       E                     dE             d eps       ncg     rms          rms(c)
DAV:   1    -0.122747836617E+03    0.57116E-09   -0.15441E-10   198   0.773E-10    0.106E-09
RMM:   2    -0.122747836617E+03   -0.16371E-09    0.30329-213     1   0.480E-10
 159 F= -.12274784E+03 E0= -.12273377E+03  d E =-.225555E-09
       N       E                     dE             d eps       ncg     rms          rms(c)
DAV:   1    -0.122747836617E+03    0.42928E-09   -0.56976E-12   198   0.654E-10    0.513E-10
RMM:   2    -0.122747836617E+03   -0.10914E-09    0.24674-213     1   0.517E-10
 160 F= -.12274784E+03 E0= -.12273377E+03  d E =0.483851E-09
       N       E                     dE             d eps       ncg     rms          rms(c)
DAV:   1    -0.122747836617E+03   -0.19645E-09   -0.27862E-10   198   0.575E-10    0.102E-09
RMM:   2    -0.122747836617E+03   -0.61846E-10    0.29798-213     1   0.574E-10
 161 F= -.12274784E+03 E0= -.12273377E+03  d E =-.149157E-09
       N       E                     dE             d eps       ncg     rms          rms(c)
DAV:   1    -0.122747836617E+03   -0.38563E-09   -0.20633E-10   198   0.545E-10    0.529E-10
RMM:   2    -0.122747836617E+03    0.11278E-09    0.23882-213     1   0.383E-10
 162 F= -.12274784E+03 E0= -.12273377E+03  d E =-.211003E-09
       N       E                     dE             d eps       ncg     rms          rms(c)
DAV:   1    -0.122747836617E+03    0.87311E-09   -0.24127E-10   198   0.557E-10    0.838E-10
RMM:   2    -0.122747836617E+03   -0.53114E-09    0.27566-213     1   0.551E-10
 163 F= -.12274784E+03 E0= -.12273377E+03  d E =0.229193E-09
       N       E                     dE             d eps       ncg     rms          rms(c)
DAV:   1    -0.122747836617E+03   -0.92768E-09   -0.65643E-11   198   0.858E-10    0.493E-10
RMM:   2    -0.122747836617E+03    0.48749E-09    0.23509-213     1   0.591E-10
 164 F= -.12274784E+03 E0= -.12273377E+03  d E =0.909495E-10
       N       E                     dE             d eps       ncg     rms          rms(c)
DAV:   1    -0.122747836618E+03   -0.36744E-09   -0.20252E-10   198   0.521E-10    0.365E-10
RMM:   2    -0.122747836617E+03    0.65847E-09    0.28847-213     1   0.600E-10
 165 F= -.12274784E+03 E0= -.12273377E+03  d E =-.196451E-09
       N       E                     dE             d eps       ncg     rms          rms(c)
DAV:   1    -0.122747836617E+03    0.80763E-09   -0.25635E-10   198   0.611E-10    0.642E-10
RMM:   2    -0.122747836617E+03   -0.13461E-09    0.22532-213     1   0.596E-10
 166 F= -.12274784E+03 E0= -.12273377E+03  d E =0.145519E-10
       N       E                     dE             d eps       ncg     rms          rms(c)
DAV:   1    -0.122747836618E+03   -0.54206E-09   -0.96851E-11   198   0.594E-10    0.461E-10
RMM:   2    -0.122747836617E+03    0.34561E-09    0.26852-213     1   0.526E-10
 167 F= -.12274784E+03 E0= -.12273377E+03  d E =-.618456E-10
       N       E                     dE             d eps       ncg     rms          rms(c)
DAV:   1    -0.122747836616E+03    0.13679E-08   -0.18099E-10   198   0.436E-10    0.823E-10
RMM:   2    -0.122747836617E+03   -0.77125E-09    0.22090-213     1   0.798E-10
 168 F= -.12274784E+03 E0= -.12273377E+03  d E =0.251021E-09
       N       E                     dE             d eps       ncg     rms          rms(c)
DAV:   1    -0.122747836617E+03   -0.72396E-09   -0.20341E-10   198   0.484E-10    0.744E-10
RMM:   2    -0.122747836617E+03   -0.21828E-09    0.25917-213     1   0.459E-10
 169 F= -.12274784E+03 E0= -.12273377E+03  d E =-.170985E-09
       N       E                     dE             d eps       ncg     rms          rms(c)
DAV:   1    -0.122747836617E+03   -0.56752E-09   -0.95428E-11   198   0.562E-10    0.687E-10
RMM:   2    -0.122747836617E+03    0.26921E-09    0.21624-213     1   0.848E-10
 170 F= -.12274784E+03 E0= -.12273377E+03  d E =-.800355E-10
       N       E                     dE             d eps       ncg     rms          rms(c)
DAV:   1    -0.122747836616E+03    0.19099E-08   -0.96791E-11   198   0.810E-10    0.665E-10
RMM:   2    -0.122747836617E+03   -0.15280E-08    0.25557-213     1   0.565E-10
 171 F= -.12274784E+03 E0= -.12273377E+03  d E =0.112777E-09
       N       E                     dE             d eps       ncg     rms          rms(c)
DAV:   1    -0.122747836618E+03   -0.20955E-08   -0.32371E-10   198   0.777E-10    0.737E-10
RMM:   2    -0.122747836617E+03    0.62573E-09    0.20983-213     1   0.523E-10
 172 F= -.12274784E+03 E0= -.12273377E+03  d E =0.582077E-10
       N       E                     dE             d eps       ncg     rms          rms(c)
DAV:   1    -0.122747836618E+03   -0.56025E-09   -0.17213E-10   198   0.432E-10    0.856E-10
RMM:   2    -0.122747836617E+03    0.10878E-08    0.25286-213     1   0.517E-10
 173 F= -.12274784E+03 E0= -.12273377E+03  d E =-.982254E-10
       N       E                     dE             d eps       ncg     rms          rms(c)
DAV:   1    -0.122747836618E+03   -0.36380E-10   -0.11373E-10   198   0.569E-10    0.528E-10
RMM:   2    -0.122747836617E+03    0.13351E-08    0.20575-213     1   0.426E-10
 174 F= -.12274784E+03 E0= -.12273377E+03  d E =0.211003E-09
       N       E                     dE             d eps       ncg     rms          rms(c)
DAV:   1    -0.122747836618E+03    0.50932E-09   -0.10766E-10   198   0.529E-10    0.767E-10
RMM:   2    -0.122747836617E+03    0.44747E-09    0.24993-213     1   0.525E-10
 175 F= -.12274784E+03 E0= -.12273377E+03  d E =-.378350E-09
       N       E                     dE             d eps       ncg     rms          rms(c)
DAV:   1    -0.122747836618E+03   -0.22192E-09   -0.11340E-10   198   0.671E-10    0.531E-10
RMM:   2    -0.122747836617E+03    0.79308E-09    0.19950-213     1   0.510E-10
 176 F= -.12274784E+03 E0= -.12273377E+03  d E =0.123691E-09
       N       E                     dE             d eps       ncg     rms          rms(c)
DAV:   1    -0.122747836618E+03   -0.80036E-10   -0.10616E-10   198   0.460E-10    0.619E-10
RMM:   2    -0.122747836617E+03    0.92041E-09    0.24627-213     1   0.383E-10
 177 F= -.12274784E+03 E0= -.12273377E+03  d E =0.472937E-10
       N       E                     dE             d eps       ncg     rms          rms(c)
DAV:   1    -0.122747836616E+03    0.16298E-08   -0.18340E-10   198   0.620E-10    0.698E-10
RMM:   2    -0.122747836617E+03   -0.58208E-09    0.19731-213     1   0.704E-10
 178 F= -.12274784E+03 E0= -.12273377E+03  d E =0.127329E-09
       N       E                     dE             d eps       ncg     rms          rms(c)
DAV:   1    -0.122747836617E+03   -0.44747E-09   -0.10376E-10   198   0.772E-10    0.661E-10
RMM:   2    -0.122747836617E+03   -0.25830E-09    0.23623-213     1   0.678E-10
 179 F= -.12274784E+03 E0= -.12273377E+03  d E =-.123691E-09
       N       E                     dE             d eps       ncg     rms          rms(c)
DAV:   1    -0.122747836618E+03   -0.73123E-09   -0.17426E-10   198   0.597E-10    0.852E-10
RMM:   2    -0.122747836617E+03    0.49840E-09    0.19279-213     1   0.400E-10
 180 F= -.12274784E+03 E0= -.12273377E+03  d E =0.254659E-10
       N       E                     dE             d eps       ncg     rms          rms(c)
DAV:   1    -0.122747836616E+03    0.14188E-08   -0.10969E-10   198   0.438E-10    0.639E-10
RMM:   2    -0.122747836617E+03   -0.12515E-08    0.23101-213     1   0.647E-10
 181 F= -.12274784E+03 E0= -.12273377E+03  d E =-.331056E-09
       N       E                     dE             d eps       ncg     rms          rms(c)
DAV:   1    -0.122747836616E+03    0.36380E-09   -0.24705E-11   198   0.553E-10    0.769E-10
RMM:   2    -0.122747836617E+03   -0.15534E-08    0.19007-213     1   0.804E-10
 182 F= -.12274784E+03 E0= -.12273377E+03  d E =0.618456E-10
       N       E                     dE             d eps       ncg     rms          rms(c)
DAV:   1    -0.122747836618E+03   -0.18881E-08   -0.29043E-10   198   0.494E-10    0.919E-10
RMM:   2    -0.122747836617E+03    0.59663E-09    0.23854-213     1   0.711E-10
 183 F= -.12274784E+03 E0= -.12273377E+03  d E =0.261934E-09
       N       E                     dE             d eps       ncg     rms          rms(c)
DAV:   1    -0.122747836618E+03    0.87311E-10   -0.14480E-10   198   0.631E-10    0.516E-10
RMM:   2    -0.122747836617E+03    0.19281E-09    0.18467-213     1   0.585E-10
 184 F= -.12274784E+03 E0= -.12273377E+03  d E =-.316504E-09
       N       E                     dE             d eps       ncg     rms          rms(c)
DAV:   1    -0.122747836617E+03    0.15280E-09   -0.17673E-10   198   0.481E-10    0.555E-10
RMM:   2    -0.122747836617E+03    0.58208E-09    0.23070-213     1   0.383E-10
 185 F= -.12274784E+03 E0= -.12273377E+03  d E =0.542059E-09
       N       E                     dE             d eps       ncg     rms          rms(c)
DAV:   1    -0.122747836618E+03   -0.43656E-09   -0.21517E-10   198   0.493E-10    0.955E-10
RMM:   2    -0.122747836617E+03    0.72032E-09    0.17551-213     1   0.406E-10
 186 F= -.12274784E+03 E0= -.12273377E+03  d E =-.298314E-09
       N       E                     dE             d eps       ncg     rms          rms(c)
DAV:   1    -0.122747836619E+03   -0.79308E-09   -0.25461E-10   198   0.519E-10    0.492E-10
RMM:   2    -0.122747836617E+03    0.16189E-08    0.22334-213     1   0.563E-10
 187 F= -.12274784E+03 E0= -.12273377E+03  d E =0.105501E-09
       N       E                     dE             d eps       ncg     rms          rms(c)
DAV:   1    -0.122747836618E+03    0.69122E-09   -0.23788E-10   198   0.416E-10    0.658E-10
RMM:   2    -0.122747836617E+03    0.97862E-09    0.17103-213     1   0.460E-10
 188 F= -.12274784E+03 E0= -.12273377E+03  d E =0.509317E-10
       N       E                     dE             d eps       ncg     rms          rms(c)
DAV:   1    -0.122747836617E+03    0.10186E-08   -0.22224E-10   198   0.435E-10    0.566E-10
RMM:   2    -0.122747836617E+03    0.80036E-10    0.23020-213     1   0.469E-10
 189 F= -.12274784E+03 E0= -.12273377E+03  d E =0.120053E-09
       N       E                     dE             d eps       ncg     rms          rms(c)
DAV:   1    -0.122747836616E+03    0.64756E-09   -0.18387E-10   198   0.541E-10    0.694E-10
RMM:   2    -0.122747836617E+03   -0.10077E-08    0.16884-213     1   0.536E-10
 190 F= -.12274784E+03 E0= -.12273377E+03  d E =-.440195E-09
       N       E                     dE             d eps       ncg     rms          rms(c)
DAV:   1    -0.122747836617E+03   -0.93496E-09   -0.15495E-10   198   0.547E-10    0.611E-10
RMM:   2    -0.122747836617E+03    0.61846E-10    0.21575-213     1   0.461E-10
 191 F= -.12274784E+03 E0= -.12273377E+03  d E =0.134605E-09
       N       E                     dE             d eps       ncg     rms          rms(c)
DAV:   1    -0.122747836617E+03   -0.72760E-11   -0.14340E-10   198   0.835E-10    0.115E-09
RMM:   2    -0.122747836617E+03    0.33833E-09    0.16370-213     1   0.736E-10
 192 F= -.12274784E+03 E0= -.12273377E+03  d E =0.269210E-09
       N       E                     dE             d eps       ncg     rms          rms(c)
DAV:   1    -0.122747836616E+03    0.86584E-09   -0.22958E-10   198   0.710E-10    0.631E-10
RMM:   2    -0.122747836617E+03   -0.10004E-08    0.21212-213     1   0.468E-10
 193 F= -.12274784E+03 E0= -.12273377E+03  d E =-.472937E-09
       N       E                     dE             d eps       ncg     rms          rms(c)
DAV:   1    -0.122747836616E+03    0.55297E-09   -0.87920E-11   198   0.596E-10    0.738E-10
RMM:   2    -0.122747836617E+03   -0.15025E-08    0.16103-213     1   0.697E-10
 194 F= -.12274784E+03 E0= -.12273377E+03  d E =0.509317E-10
       N       E                     dE             d eps       ncg     rms          rms(c)
DAV:   1    -0.122747836617E+03   -0.82582E-09   -0.11054E-10   198   0.534E-10    0.742E-10
RMM:   2    -0.122747836617E+03   -0.66211E-09    0.20906-213     1   0.354E-10
 195 F= -.12274784E+03 E0= -.12273377E+03  d E =0.145519E-10
       N       E                     dE             d eps       ncg     rms          rms(c)
DAV:   1    -0.122747836615E+03    0.13970E-08   -0.16202E-10   198   0.457E-10    0.585E-10
RMM:   2    -0.122747836617E+03   -0.21028E-08    0.16226-213     1   0.457E-10
 196 F= -.12274784E+03 E0= -.12273377E+03  d E =-.436557E-10
       N       E                     dE             d eps       ncg     rms          rms(c)
DAV:   1    -0.122747836618E+03   -0.26557E-08   -0.17725E-10   198   0.409E-10    0.766E-10
RMM:   2    -0.122747836617E+03    0.76761E-09    0.20510-213     1   0.714E-10
 197 F= -.12274784E+03 E0= -.12273377E+03  d E =0.214641E-09
       N       E                     dE             d eps       ncg     rms          rms(c)
DAV:   1    -0.122747836616E+03    0.22483E-08   -0.28928E-10   198   0.601E-10    0.101E-09
RMM:   2    -0.122747836617E+03   -0.15389E-08    0.16015-213     1   0.706E-10
 198 F= -.12274784E+03 E0= -.12273377E+03  d E =-.582077E-10
       N       E                     dE             d eps       ncg     rms          rms(c)
DAV:   1    -0.122747836617E+03   -0.12224E-08   -0.18852E-11   198   0.739E-10    0.597E-10
RMM:   2    -0.122747836617E+03   -0.22919E-09    0.19064-213     1   0.347E-10
 199 F= -.12274784E+03 E0= -.12273377E+03  d E =0.873115E-10
       N       E                     dE             d eps       ncg     rms          rms(c)
DAV:   1    -0.122747836617E+03   -0.44747E-09   -0.31184E-10   198   0.490E-10    0.675E-10
RMM:   2    -0.122747836617E+03    0.35652E-09    0.16039-213     1   0.376E-10
 200 F= -.12274784E+03 E0= -.12273377E+03  d E =0.138243E-09
       N       E                     dE             d eps       ncg     rms          rms(c)
DAV:   1    -0.122747836617E+03    0.48021E-09   -0.85849E-11   198   0.602E-10    0.107E-09
RMM:   2    -0.122747836617E+03   -0.48021E-09    0.18546-213     1   0.435E-10
 201 F= -.12274784E+03 E0= -.12273377E+03  d E =-.356522E-09
       N       E                     dE             d eps       ncg     rms          rms(c)
DAV:   1    -0.122747836617E+03   -0.28740E-09   -0.38459E-10   198   0.628E-10    0.647E-10
RMM:   2    -0.122747836617E+03    0.18917E-09    0.15740-213     1   0.383E-10
 202 F= -.12274784E+03 E0= -.12273377E+03  d E =0.381988E-09
       N       E                     dE             d eps       ncg     rms          rms(c)
DAV:   1    -0.122747836616E+03    0.78944E-09   -0.25032E-10   198   0.495E-10    0.115E-09
RMM:   2    -0.122747836617E+03   -0.69485E-09    0.19272-213     1   0.709E-10
 203 F= -.12274784E+03 E0= -.12273377E+03  d E =-.945874E-10
       N       E                     dE             d eps       ncg     rms          rms(c)
DAV:   1    -0.122747836617E+03   -0.10550E-08   -0.30949E-10   198   0.662E-10    0.850E-10
RMM:   2    -0.122747836617E+03   -0.72760E-11    0.15674-213     1   0.564E-10
 204 F= -.12274784E+03 E0= -.12273377E+03  d E =-.367436E-09
       N       E                     dE             d eps       ncg     rms          rms(c)
DAV:   1    -0.122747836618E+03   -0.60754E-09   -0.15527E-10   198   0.549E-10    0.594E-10
RMM:   2    -0.122747836617E+03    0.69485E-09    0.18782-213     1   0.332E-10
 205 F= -.12274784E+03 E0= -.12273377E+03  d E =0.945874E-10
       N       E                     dE             d eps       ncg     rms          rms(c)
DAV:   1    -0.122747836617E+03    0.78217E-09   -0.11854E-10   198   0.478E-10    0.583E-10
RMM:   2    -0.122747836617E+03   -0.12369E-09    0.14760-213     1   0.502E-10
 206 F= -.12274784E+03 E0= -.12273377E+03  d E =-.363798E-10
       N       E                     dE             d eps       ncg     rms          rms(c)
DAV:   1    -0.122747836617E+03    0.18190E-09   -0.17277E-10   198   0.453E-10    0.752E-10
RMM:   2    -0.122747836617E+03   -0.72760E-11    0.18015-213     1   0.389E-10
 207 F= -.12274784E+03 E0= -.12273377E+03  d E =0.298314E-09
       N       E                     dE             d eps       ncg     rms          rms(c)
DAV:   1    -0.122747836616E+03    0.57844E-09   -0.15649E-10   198   0.711E-10    0.785E-10
RMM:   2    -0.122747836617E+03   -0.48021E-09    0.14440-213     1   0.550E-10
 208 F= -.12274784E+03 E0= -.12273377E+03  d E =0.105501E-09
       N       E                     dE             d eps       ncg     rms          rms(c)
DAV:   1    -0.122747836617E+03   -0.56752E-09   -0.28138E-10   198   0.532E-10    0.827E-10
RMM:   2    -0.122747836617E+03   -0.17462E-09    0.17728-213     1   0.471E-10
 209 F= -.12274784E+03 E0= -.12273377E+03  d E =-.261934E-09
       N       E                     dE             d eps       ncg     rms          rms(c)
DAV:   1    -0.122747836617E+03   -0.10914E-09   -0.14771E-10   198   0.626E-10    0.698E-10
RMM:   2    -0.122747836617E+03    0.87311E-10    0.13925-213     1   0.372E-10
 210 F= -.12274784E+03 E0= -.12273377E+03  d E =0.152795E-09
       N       E                     dE             d eps       ncg     rms          rms(c)
DAV:   1    -0.122747836617E+03   -0.58208E-10   -0.25309E-11   198   0.475E-10    0.470E-10
RMM:   2    -0.122747836617E+03   -0.36380E-10    0.17825-213     1   0.594E-10
 211 F= -.12274784E+03 E0= -.12273377E+03  d E =-.181899E-09
       N       E                     dE             d eps       ncg     rms          rms(c)
DAV:   1    -0.122747836617E+03    0.90949E-10   -0.20754E-10   198   0.550E-10    0.581E-10
RMM:   2    -0.122747836617E+03    0.13824E-09    0.14202-213     1   0.450E-10
 212 F= -.12274784E+03 E0= -.12273377E+03  d E =0.265572E-09
       N       E                     dE             d eps       ncg     rms          rms(c)
DAV:   1    -0.122747836618E+03   -0.97134E-09   -0.24813E-10   198   0.688E-10    0.699E-10
RMM:   2    -0.122747836617E+03    0.10550E-08    0.16811-213     1   0.672E-10
 213 F= -.12274784E+03 E0= -.12273377E+03  d E =-.545697E-10
       N       E                     dE             d eps       ncg     rms          rms(c)
DAV:   1    -0.122747836617E+03    0.12042E-08   -0.17745E-10   198   0.563E-10    0.416E-10
RMM:   2    -0.122747836617E+03   -0.32014E-09    0.13668-213     1   0.411E-10
 214 F= -.12274784E+03 E0= -.12273377E+03  d E =-.170985E-09
       N       E                     dE             d eps       ncg     rms          rms(c)
DAV:   1    -0.122747836617E+03    0.61846E-10   -0.18222E-10   198   0.486E-10    0.988E-10
RMM:   2    -0.122747836617E+03   -0.47658E-09    0.15740-213     1   0.405E-10
 215 F= -.12274784E+03 E0= -.12273377E+03  d E =-.945874E-10
       N       E                     dE             d eps       ncg     rms          rms(c)
DAV:   1    -0.122747836617E+03    0.80036E-10   -0.31323E-10   198   0.494E-10    0.775E-10
RMM:   2    -0.122747836617E+03   -0.23283E-09    0.13696-213     1   0.544E-10
 216 F= -.12274784E+03 E0= -.12273377E+03  d E =0.323780E-09
       N       E                     dE             d eps       ncg     rms          rms(c)
DAV:   1    -0.122747836617E+03    0.19281E-09   -0.16991E-10   198   0.839E-10    0.663E-10
RMM:   2    -0.122747836617E+03   -0.70941E-09    0.15304-213     1   0.895E-10
 217 F= -.12274784E+03 E0= -.12273377E+03  d E =-.283762E-09
       N       E                     dE             d eps       ncg     rms          rms(c)
DAV:   1    -0.122747836617E+03   -0.66211E-09   -0.32988E-10   198   0.621E-10    0.814E-10
RMM:   2    -0.122747836617E+03    0.32378E-09    0.13308-213     1   0.465E-10
 218 F= -.12274784E+03 E0= -.12273377E+03  d E =0.371074E-09
       N       E                     dE             d eps       ncg     rms          rms(c)
DAV:   1    -0.122747836617E+03    0.36380E-09   -0.14125E-10   198   0.521E-10    0.635E-10
RMM:   2    -0.122747836617E+03   -0.19645E-09    0.14640-213     1   0.495E-10
 219 F= -.12274784E+03 E0= -.12273377E+03  d E =-.156433E-09
       N       E                     dE             d eps       ncg     rms          rms(c)
DAV:   1    -0.122747836618E+03   -0.93132E-09   -0.94008E-11   198   0.558E-10    0.769E-10
RMM:   2    -0.122747836617E+03    0.63665E-09    0.13259-213     1   0.868E-10
 220 F= -.12274784E+03 E0= -.12273377E+03  d E =-.982254E-10
       N       E                     dE             d eps       ncg     rms          rms(c)
DAV:   1    -0.122747836617E+03    0.50932E-09   -0.27299E-10   198   0.570E-10    0.589E-10
RMM:   2    -0.122747836617E+03    0.12733E-09    0.14871-213     1   0.465E-10
 221 F= -.12274784E+03 E0= -.12273377E+03  d E =0.000000E+00
       N       E                     dE             d eps       ncg     rms          rms(c)
DAV:   1    -0.122747836617E+03    0.29468E-09   -0.94010E-11   198   0.443E-10    0.653E-10
RMM:   2    -0.122747836617E+03    0.58208E-10    0.12913-213     1   0.333E-10
 222 F= -.12274784E+03 E0= -.12273377E+03  d E =0.225555E-09
       N       E                     dE             d eps       ncg     rms          rms(c)
DAV:   1    -0.122747836618E+03   -0.80036E-09    0.26098E-11   198   0.596E-10    0.648E-10
RMM:   2    -0.122747836617E+03    0.80399E-09    0.14271-213     1   0.643E-10
 223 F= -.12274784E+03 E0= -.12273377E+03  d E =-.545697E-10
       N       E                     dE             d eps       ncg     rms          rms(c)
DAV:   1    -0.122747836618E+03    0.20009E-09   -0.21040E-10   198   0.508E-10    0.488E-10
RMM:   2    -0.122747836617E+03    0.71304E-09    0.13243-213     1   0.489E-10
 224 F= -.12274784E+03 E0= -.12273377E+03  d E =0.109139E-09
       N       E                     dE             d eps       ncg     rms          rms(c)
DAV:   1    -0.122747836618E+03   -0.83674E-10   -0.24416E-10   198   0.674E-10    0.595E-10
RMM:   2    -0.122747836617E+03    0.68758E-09    0.14661-213     1   0.628E-10
 225 F= -.12274784E+03 E0= -.12273377E+03  d E =-.109139E-09
       N       E                     dE             d eps       ncg     rms          rms(c)
DAV:   1    -0.122747836617E+03    0.84765E-09   -0.11892E-10   198   0.621E-10    0.729E-10
RMM:   2    -0.122747836617E+03   -0.32014E-09    0.12738-213     1   0.416E-10
 226 F= -.12274784E+03 E0= -.12273377E+03  d E =-.160071E-09
       N       E                     dE             d eps       ncg     rms          rms(c)
DAV:   1    -0.122747836616E+03    0.64756E-09   -0.21919E-11   198   0.937E-10    0.989E-10
RMM:   2    -0.122747836617E+03   -0.87311E-09    0.13297-213     1   0.751E-10
 227 F= -.12274784E+03 E0= -.12273377E+03  d E =0.945874E-10
       N       E                     dE             d eps       ncg     rms          rms(c)
DAV:   1    -0.122747836618E+03   -0.17062E-08   -0.31068E-10   198   0.766E-10    0.599E-10
RMM:   2    -0.122747836617E+03    0.60390E-09    0.12762-213     1   0.408E-10
 228 F= -.12274784E+03 E0= -.12273377E+03  d E =-.229193E-09
       N       E                     dE             d eps       ncg     rms          rms(c)
DAV:   1    -0.122747836616E+03    0.16043E-08   -0.12781E-10   198   0.581E-10    0.915E-10
RMM:   2    -0.122747836617E+03   -0.92768E-09    0.14328-213     1   0.669E-10
 229 F= -.12274784E+03 E0= -.12273377E+03  d E =0.727596E-10
       N       E                     dE             d eps       ncg     rms          rms(c)
DAV:   1    -0.122747836617E+03   -0.70213E-09   -0.11974E-10   198   0.689E-10    0.620E-10
RMM:   2    -0.122747836617E+03    0.61846E-10    0.12157-213     1   0.472E-10
 230 F= -.12274784E+03 E0= -.12273377E+03  d E =0.287400E-09
       N       E                     dE             d eps       ncg     rms          rms(c)
DAV:   1    -0.122747836617E+03   -0.18554E-09   -0.15625E-10   198   0.501E-10    0.699E-10
RMM:   2    -0.122747836617E+03   -0.18917E-09    0.12499-213     1   0.385E-10
 231 F= -.12274784E+03 E0= -.12273377E+03  d E =-.436557E-09
       N       E                     dE             d eps       ncg     rms          rms(c)
DAV:   1    -0.122747836618E+03   -0.48021E-09   -0.19193E-10   198   0.449E-10    0.690E-10
RMM:   2    -0.122747836617E+03    0.34197E-09    0.11897-213     1   0.458E-10
 232 F= -.12274784E+03 E0= -.12273377E+03  d E =0.509317E-10
       N       E                     dE             d eps       ncg     rms          rms(c)
DAV:   1    -0.122747836617E+03    0.51659E-09   -0.92991E-11   198   0.669E-10    0.686E-10
RMM:   2    -0.122747836617E+03    0.13097E-09    0.13211-213     1   0.436E-10
 233 F= -.12274784E+03 E0= -.12273377E+03  d E =0.305590E-09
       N       E                     dE             d eps       ncg     rms          rms(c)
DAV:   1    -0.122747836617E+03    0.10550E-09   -0.37404E-11   198   0.939E-10    0.110E-09
RMM:   2    -0.122747836617E+03   -0.54570E-10    0.11228-213     1   0.750E-10
 234 F= -.12274784E+03 E0= -.12273377E+03  d E =-.800355E-10
       N       E                     dE             d eps       ncg     rms          rms(c)
DAV:   1    -0.122747836618E+03   -0.89130E-09   -0.34058E-10   198   0.907E-10    0.657E-10
RMM:   2    -0.122747836617E+03    0.81491E-09    0.12490-213     1   0.641E-10
 235 F= -.12274784E+03 E0= -.12273377E+03  d E =-.218279E-10
       N       E                     dE             d eps       ncg     rms          rms(c)
DAV:   1    -0.122747836617E+03    0.11423E-08   -0.25284E-10   198   0.581E-10    0.693E-10
RMM:   2    -0.122747836617E+03   -0.33106E-09    0.11012-213     1   0.496E-10
 236 F= -.12274784E+03 E0= -.12273377E+03  d E =-.363798E-11
       N       E                     dE             d eps       ncg     rms          rms(c)
DAV:   1    -0.122747836616E+03    0.64392E-09   -0.19881E-10   198   0.524E-10    0.733E-10
RMM:   2    -0.122747836617E+03   -0.73123E-09    0.12492-213     1   0.569E-10
 237 F= -.12274784E+03 E0= -.12273377E+03  d E =0.243745E-09
       N       E                     dE             d eps       ncg     rms          rms(c)
DAV:   1    -0.122747836617E+03   -0.53842E-09   -0.22112E-10   198   0.622E-10    0.666E-10
RMM:   2    -0.122747836617E+03   -0.46930E-09    0.11279-213     1   0.385E-10
 238 F= -.12274784E+03 E0= -.12273377E+03  d E =-.276486E-09
       N       E                     dE             d eps       ncg     rms          rms(c)
DAV:   1    -0.122747836617E+03   -0.32378E-09   -0.15019E-10   198   0.554E-10    0.895E-10
RMM:   2    -0.122747836617E+03    0.36380E-11    0.12254-213     1   0.439E-10
 239 F= -.12274784E+03 E0= -.12273377E+03  d E =0.149157E-09
       N       E                     dE             d eps       ncg     rms          rms(c)
DAV:   1    -0.122747836617E+03   -0.12733E-09   -0.24049E-10   198   0.592E-10    0.101E-09
[...]
 939 F= -.12274784E+03 E0= -.12273377E+03  d E =-.109139E-09
       N       E                     dE             d eps       ncg     rms          rms(c)
DAV:   1    -0.122747836617E+03   -0.85856E-09   -0.16328E-10   198   0.498E-10    0.743E-10
RMM:   2    -0.122747836617E+03   -0.14552E-09    0.00000E+00     0   0.597E-10
 940 F= -.12274784E+03 E0= -.12273377E+03  d E =-.123691E-09
       N       E                     dE             d eps       ncg     rms          rms(c)
DAV:   1    -0.122747836617E+03    0.13461E-09   -0.10519E-10   198   0.626E-10    0.535E-10
RMM:   2    -0.122747836617E+03   -0.58208E-10    0.00000E+00     0   0.623E-10
 941 F= -.12274784E+03 E0= -.12273377E+03  d E =0.221917E-09
       N       E                     dE             d eps       ncg     rms          rms(c)
DAV:   1    -0.122747836617E+03   -0.47294E-10   -0.16518E-10   198   0.518E-10    0.764E-10
RMM:   2    -0.122747836617E+03    0.26921E-09    0.00000E+00     0   0.561E-10
 942 F= -.12274784E+03 E0= -.12273377E+03  d E =0.280124E-09
       N       E                     dE             d eps       ncg     rms          rms(c)
DAV:   1    -0.122747836618E+03   -0.55297E-09   -0.18476E-10   198   0.599E-10    0.973E-10
RMM:   2    -0.122747836617E+03    0.79672E-09    0.00000E+00     0   0.441E-10
 943 F= -.12274784E+03 E0= -.12273377E+03  d E =-.254659E-10
       N       E                     dE             d eps       ncg     rms          rms(c)
DAV:   1    -0.122747836617E+03    0.63301E-09   -0.20654E-10   198   0.552E-10    0.954E-10
RMM:   2    -0.122747836617E+03   -0.32742E-10    0.00000E+00     0   0.622E-10
 944 F= -.12274784E+03 E0= -.12273377E+03  d E =-.196451E-09
       N       E                     dE             d eps       ncg     rms          rms(c)
DAV:   1    -0.122747836617E+03   -0.98225E-10   -0.80226E-11   198   0.103E-09    0.650E-10
RMM:   2    -0.122747836617E+03    0.47294E-10    0.00000E+00     0   0.808E-10
 945 F= -.12274784E+03 E0= -.12273377E+03  d E =-.181899E-10
       N       E                     dE             d eps       ncg     rms          rms(c)
DAV:   1    -0.122747836617E+03    0.68758E-09   -0.30055E-10   198   0.772E-10    0.657E-10
RMM:   2    -0.122747836617E+03   -0.49840E-09    0.00000E+00     0   0.444E-10
 946 F= -.12274784E+03 E0= -.12273377E+03  d E =0.141881E-09
       N       E                     dE             d eps       ncg     rms          rms(c)
DAV:   1    -0.122747836616E+03    0.32378E-09   -0.15497E-10   198   0.578E-10    0.576E-10
RMM:   2    -0.122747836617E+03   -0.10441E-08    0.00000E+00     0   0.655E-10
 947 F= -.12274784E+03 E0= -.12273377E+03  d E =-.221917E-09
       N       E                     dE             d eps       ncg     rms          rms(c)
DAV:   1    -0.122747836617E+03   -0.12151E-08   -0.26952E-10   198   0.475E-10    0.519E-10
RMM:   2    -0.122747836617E+03   -0.21828E-10    0.00000E+00     0   0.383E-10
 948 F= -.12274784E+03 E0= -.12273377E+03  d E =-.192813E-09
       N       E                     dE             d eps       ncg     rms          rms(c)
DAV:   1    -0.122747836617E+03    0.16007E-09   -0.24016E-10   198   0.374E-10    0.436E-10
RMM:   2    -0.122747836617E+03    0.22555E-09    0.00000E+00     0   0.363E-10
 949 F= -.12274784E+03 E0= -.12273377E+03  d E =0.407454E-09
       N       E                     dE             d eps       ncg     rms          rms(c)
DAV:   1    -0.122747836617E+03    0.67666E-09   -0.18880E-10   198   0.354E-10    0.416E-10
RMM:   2    -0.122747836617E+03   -0.44020E-09    0.00000E+00     0   0.365E-10
 950 F= -.12274784E+03 E0= -.12273377E+03  d E =0.109139E-10
       N       E                     dE             d eps       ncg     rms          rms(c)
DAV:   1    -0.122747836617E+03    0.61846E-10   -0.22613E-10   198   0.528E-10    0.108E-09
RMM:   2    -0.122747836617E+03   -0.82582E-09    0.00000E+00     0   0.412E-10
 951 F= -.12274784E+03 E0= -.12273377E+03  d E =-.323780E-09
       N       E                     dE             d eps       ncg     rms          rms(c)
DAV:   1    -0.122747836618E+03   -0.98589E-09   -0.25475E-10   198   0.546E-10    0.692E-10
RMM:   2    -0.122747836617E+03    0.35652E-09    0.00000E+00     0   0.382E-10
 952 F= -.12274784E+03 E0= -.12273377E+03  d E =0.196451E-09
       N       E                     dE             d eps       ncg     rms          rms(c)
DAV:   1    -0.122747836617E+03    0.80399E-09   -0.89851E-11   198   0.562E-10    0.841E-10
RMM:   2    -0.122747836617E+03   -0.71668E-09    0.00000E+00     0   0.383E-10
 953 F= -.12274784E+03 E0= -.12273377E+03  d E =-.269210E-09
       N       E                     dE             d eps       ncg     rms          rms(c)
DAV:   1    -0.122747836617E+03   -0.62573E-09    0.26571E-12   198   0.504E-10    0.108E-09
RMM:   2    -0.122747836617E+03   -0.36380E-11    0.00000E+00     0   0.464E-10
 954 F= -.12274784E+03 E0= -.12273377E+03  d E =0.873115E-10
       N       E                     dE             d eps       ncg     rms          rms(c)
DAV:   1    -0.122747836617E+03    0.44383E-09   -0.61504E-11   198   0.509E-10    0.614E-10
RMM:   2    -0.122747836617E+03   -0.38926E-09    0.00000E+00     0   0.526E-10
 955 F= -.12274784E+03 E0= -.12273377E+03  d E =0.582077E-10
       N       E                     dE             d eps       ncg     rms          rms(c)
DAV:   1    -0.122747836617E+03    0.25466E-09   -0.16380E-10   198   0.375E-10    0.848E-10
RMM:   2    -0.122747836617E+03   -0.28012E-09    0.00000E+00     0   0.520E-10
 956 F= -.12274784E+03 E0= -.12273377E+03  d E =0.363798E-09
       N       E                     dE             d eps       ncg     rms          rms(c)
DAV:   1    -0.122747836617E+03   -0.30559E-09   -0.35321E-10   198   0.440E-10    0.645E-10
RMM:   2    -0.122747836617E+03   -0.27285E-09    0.00000E+00     0   0.369E-10
 957 F= -.12274784E+03 E0= -.12273377E+03  d E =-.298314E-09
       N       E                     dE             d eps       ncg     rms          rms(c)
DAV:   1    -0.122747836617E+03   -0.47294E-10   -0.16356E-10   198   0.502E-10    0.520E-10
RMM:   2    -0.122747836617E+03   -0.98225E-10    0.00000E+00     0   0.587E-10
 958 F= -.12274784E+03 E0= -.12273377E+03  d E =0.127329E-09
       N       E                     dE             d eps       ncg     rms          rms(c)
DAV:   1    -0.122747836617E+03   -0.50932E-10   -0.44154E-10   198   0.389E-10    0.460E-10
RMM:   2    -0.122747836617E+03   -0.10550E-09    0.00000E+00     0   0.319E-10
 959 F= -.12274784E+03 E0= -.12273377E+03  d E =-.582077E-10
       N       E                     dE             d eps       ncg     rms          rms(c)
DAV:   1    -0.122747836618E+03   -0.91677E-09   -0.20012E-10   198   0.397E-10    0.851E-10
RMM:   2    -0.122747836617E+03    0.64392E-09    0.00000E+00     0   0.394E-10
 960 F= -.12274784E+03 E0= -.12273377E+03  d E =-.167347E-09
       N       E                     dE             d eps       ncg     rms          rms(c)
DAV:   1    -0.122747836618E+03    0.34197E-09   -0.12628E-10   198   0.528E-10    0.929E-10
RMM:   2    -0.122747836617E+03    0.60027E-09    0.00000E+00     0   0.638E-10
 961 F= -.12274784E+03 E0= -.12273377E+03  d E =0.298314E-09
       N       E                     dE             d eps       ncg     rms          rms(c)
DAV:   1    -0.122747836617E+03    0.88403E-09   -0.12769E-10   198   0.695E-10    0.575E-10
RMM:   2    -0.122747836617E+03   -0.54206E-09    0.00000E+00     0   0.678E-10
 962 F= -.12274784E+03 E0= -.12273377E+03  d E =-.258296E-09
       N       E                     dE             d eps       ncg     rms          rms(c)
DAV:   1    -0.122747836619E+03   -0.24993E-08   -0.30761E-10   198   0.772E-10    0.737E-10
RMM:   2    -0.122747836617E+03    0.21573E-08    0.00000E+00     0   0.791E-10
 963 F= -.12274784E+03 E0= -.12273377E+03  d E =0.200089E-09
       N       E                     dE             d eps       ncg     rms          rms(c)
DAV:   1    -0.122747836618E+03    0.14916E-08   -0.12370E-10   198   0.744E-10    0.702E-10
RMM:   2    -0.122747836617E+03    0.47294E-09    0.00000E+00     0   0.539E-10
 964 F= -.12274784E+03 E0= -.12273377E+03  d E =-.192813E-09
       N       E                     dE             d eps       ncg     rms          rms(c)
DAV:   1    -0.122747836617E+03    0.10186E-08   -0.26483E-10   198   0.535E-10    0.466E-10
RMM:   2    -0.122747836617E+03   -0.53478E-09    0.00000E+00     0   0.448E-10
 965 F= -.12274784E+03 E0= -.12273377E+03  d E =0.109139E-10
       N       E                     dE             d eps       ncg     rms          rms(c)
DAV:   1    -0.122747836618E+03   -0.13570E-08   -0.21212E-10   198   0.532E-10    0.884E-10
RMM:   2    -0.122747836617E+03    0.10041E-08    0.00000E+00     0   0.536E-10
 966 F= -.12274784E+03 E0= -.12273377E+03  d E =0.181899E-09
       N       E                     dE             d eps       ncg     rms          rms(c)
DAV:   1    -0.122747836617E+03    0.75670E-09   -0.13777E-10   198   0.514E-10    0.828E-10
RMM:   2    -0.122747836617E+03   -0.10914E-10    0.00000E+00     0   0.577E-10
 967 F= -.12274784E+03 E0= -.12273377E+03  d E =-.258296E-09
       N       E                     dE             d eps       ncg     rms          rms(c)
DAV:   1    -0.122747836617E+03    0.18190E-10   -0.43214E-12   198   0.781E-10    0.615E-10
RMM:   2    -0.122747836617E+03   -0.72760E-11    0.00000E+00     0   0.414E-10
 968 F= -.12274784E+03 E0= -.12273377E+03  d E =0.218279E-10
       N       E                     dE             d eps       ncg     rms          rms(c)
DAV:   1    -0.122747836616E+03    0.85129E-09   -0.33644E-10   198   0.749E-10    0.782E-10
RMM:   2    -0.122747836617E+03   -0.76398E-09    0.00000E+00     0   0.561E-10
 969 F= -.12274784E+03 E0= -.12273377E+03  d E =0.945874E-10
       N       E                     dE             d eps       ncg     rms          rms(c)
DAV:   1    -0.122747836617E+03   -0.57480E-09   -0.21712E-10   198   0.735E-10    0.660E-10
RMM:   2    -0.122747836617E+03    0.13461E-09    0.00000E+00     0   0.586E-10
 970 F= -.12274784E+03 E0= -.12273377E+03  d E =0.323780E-09
       N       E                     dE             d eps       ncg     rms          rms(c)
DAV:   1    -0.122747836617E+03    0.19281E-09   -0.21531E-10   198   0.471E-10    0.696E-10
RMM:   2    -0.122747836617E+03   -0.44020E-09    0.00000E+00     0   0.630E-10
 971 F= -.12274784E+03 E0= -.12273377E+03  d E =-.381988E-09
       N       E                     dE             d eps       ncg     rms          rms(c)
DAV:   1    -0.122747836617E+03   -0.63665E-09   -0.19941E-10   198   0.606E-10    0.615E-10
RMM:   2    -0.122747836617E+03    0.49840E-09    0.00000E+00     0   0.492E-10
 972 F= -.12274784E+03 E0= -.12273377E+03  d E =0.301952E-09
       N       E                     dE             d eps       ncg     rms          rms(c)
DAV:   1    -0.122747836617E+03    0.15643E-09   -0.28570E-10   198   0.438E-10    0.708E-10
RMM:   2    -0.122747836617E+03    0.76398E-10    0.00000E+00     0   0.415E-10
 973 F= -.12274784E+03 E0= -.12273377E+03  d E =-.265572E-09
       N       E                     dE             d eps       ncg     rms          rms(c)
DAV:   1    -0.122747836617E+03    0.24738E-09   -0.21550E-10   198   0.512E-10    0.784E-10
RMM:   2    -0.122747836617E+03   -0.27649E-09    0.00000E+00     0   0.436E-10
 974 F= -.12274784E+03 E0= -.12273377E+03  d E =-.105501E-09
       N       E                     dE             d eps       ncg     rms          rms(c)
DAV:   1    -0.122747836616E+03    0.61846E-09   -0.21357E-10   198   0.508E-10    0.975E-10
RMM:   2    -0.122747836617E+03   -0.81127E-09    0.00000E+00     0   0.599E-10
 975 F= -.12274784E+03 E0= -.12273377E+03  d E =0.836735E-10
       N       E                     dE             d eps       ncg     rms          rms(c)
DAV:   1    -0.122747836617E+03   -0.37107E-09   -0.76799E-11   198   0.681E-10    0.672E-10
RMM:   2    -0.122747836617E+03   -0.83674E-10    0.00000E+00     0   0.472E-10
 976 F= -.12274784E+03 E0= -.12273377E+03  d E =0.356522E-09
       N       E                     dE             d eps       ncg     rms          rms(c)
DAV:   1    -0.122747836617E+03    0.31650E-09   -0.19854E-10   198   0.554E-10    0.900E-10
RMM:   2    -0.122747836617E+03   -0.93132E-09    0.00000E+00     0   0.471E-10
 977 F= -.12274784E+03 E0= -.12273377E+03  d E =-.531145E-09
       N       E                     dE             d eps       ncg     rms          rms(c)
DAV:   1    -0.122747836618E+03   -0.11569E-08   -0.24031E-11   198   0.597E-10    0.574E-10
RMM:   2    -0.122747836617E+03    0.64028E-09    0.00000E+00     0   0.533E-10
 978 F= -.12274784E+03 E0= -.12273377E+03  d E =0.414730E-09
       N       E                     dE             d eps       ncg     rms          rms(c)
DAV:   1    -0.122747836616E+03    0.12187E-08   -0.18621E-10   198   0.465E-10    0.666E-10
RMM:   2    -0.122747836617E+03   -0.94224E-09    0.00000E+00     0   0.509E-10
 979 F= -.12274784E+03 E0= -.12273377E+03  d E =-.363798E-09
       N       E                     dE             d eps       ncg     rms          rms(c)
DAV:   1    -0.122747836617E+03   -0.55661E-09   -0.34002E-10   198   0.621E-10    0.576E-10
RMM:   2    -0.122747836617E+03    0.13824E-09    0.00000E+00     0   0.786E-10
 980 F= -.12274784E+03 E0= -.12273377E+03  d E =0.523869E-09
       N       E                     dE             d eps       ncg     rms          rms(c)
DAV:   1    -0.122747836618E+03   -0.74215E-09   -0.16401E-10   198   0.902E-10    0.852E-10
RMM:   2    -0.122747836617E+03    0.69849E-09    0.00000E+00     0   0.510E-10
 981 F= -.12274784E+03 E0= -.12273377E+03  d E =-.181899E-09
       N       E                     dE             d eps       ncg     rms          rms(c)
DAV:   1    -0.122747836618E+03   -0.29104E-10   -0.10706E-10   198   0.669E-10    0.853E-10
RMM:   2    -0.122747836617E+03    0.66211E-09    0.00000E+00     0   0.397E-10
 982 F= -.12274784E+03 E0= -.12273377E+03  d E =-.654836E-10
       N       E                     dE             d eps       ncg     rms          rms(c)
DAV:   1    -0.122747836619E+03   -0.10077E-08   -0.29292E-10   198   0.544E-10    0.562E-10
RMM:   2    -0.122747836617E+03    0.16735E-08    0.00000E+00     0   0.598E-10
 983 F= -.12274784E+03 E0= -.12273377E+03  d E =0.363798E-11
       N       E                     dE             d eps       ncg     rms          rms(c)
DAV:   1    -0.122747836618E+03    0.12042E-08   -0.18544E-10   198   0.430E-10    0.692E-10
RMM:   2    -0.122747836617E+03    0.32014E-09    0.00000E+00     0   0.583E-10
 984 F= -.12274784E+03 E0= -.12273377E+03  d E =-.149157E-09
       N       E                     dE             d eps       ncg     rms          rms(c)
DAV:   1    -0.122747836618E+03   -0.17462E-09   -0.31113E-10   198   0.640E-10    0.764E-10
RMM:   2    -0.122747836617E+03    0.50932E-09    0.00000E+00     0   0.504E-10
 985 F= -.12274784E+03 E0= -.12273377E+03  d E =0.145519E-10
       N       E                     dE             d eps       ncg     rms          rms(c)
DAV:   1    -0.122747836618E+03   -0.43656E-09   -0.32289E-10   198   0.473E-10    0.629E-10
RMM:   2    -0.122747836617E+03    0.96770E-09    0.00000E+00     0   0.477E-10
 986 F= -.12274784E+03 E0= -.12273377E+03  d E =0.218279E-10
       N       E                     dE             d eps       ncg     rms          rms(c)
DAV:   1    -0.122747836616E+03    0.18990E-08   -0.55755E-11   198   0.469E-10    0.819E-10
RMM:   2    -0.122747836617E+03   -0.86584E-09    0.00000E+00     0   0.372E-10
 987 F= -.12274784E+03 E0= -.12273377E+03  d E =0.654836E-10
       N       E                     dE             d eps       ncg     rms          rms(c)
DAV:   1    -0.122747836618E+03   -0.14406E-08   -0.13709E-10   198   0.498E-10    0.755E-10
RMM:   2    -0.122747836617E+03    0.51296E-09    0.00000E+00     0   0.549E-10
 988 F= -.12274784E+03 E0= -.12273377E+03  d E =-.618456E-10
       N       E                     dE             d eps       ncg     rms          rms(c)
DAV:   1    -0.122747836618E+03   -0.16735E-09   -0.14551E-10   198   0.623E-10    0.683E-10
RMM:   2    -0.122747836617E+03    0.75670E-09    0.00000E+00     0   0.645E-10
 989 F= -.12274784E+03 E0= -.12273377E+03  d E =0.763976E-10
       N       E                     dE             d eps       ncg     rms          rms(c)
DAV:   1    -0.122747836617E+03    0.10659E-08   -0.45417E-11   198   0.756E-10    0.953E-10
RMM:   2    -0.122747836617E+03   -0.22555E-09    0.00000E+00     0   0.694E-10
 990 F= -.12274784E+03 E0= -.12273377E+03  d E =0.836735E-10
       N       E                     dE             d eps       ncg     rms          rms(c)
DAV:   1    -0.122747836618E+03   -0.68030E-09   -0.36520E-10   198   0.536E-10    0.565E-10
RMM:   2    -0.122747836617E+03    0.19281E-09    0.00000E+00     0   0.444E-10
 991 F= -.12274784E+03 E0= -.12273377E+03  d E =-.261934E-09
       N       E                     dE             d eps       ncg     rms          rms(c)
DAV:   1    -0.122747836617E+03    0.13097E-09   -0.36652E-10   198   0.532E-10    0.717E-10
RMM:   2    -0.122747836617E+03    0.43292E-09    0.00000E+00     0   0.417E-10
 992 F= -.12274784E+03 E0= -.12273377E+03  d E =0.371074E-09
       N       E                     dE             d eps       ncg     rms          rms(c)
DAV:   1    -0.122747836617E+03    0.28012E-09   -0.30669E-11   198   0.515E-10    0.662E-10
RMM:   2    -0.122747836617E+03    0.47294E-10    0.00000E+00     0   0.533E-10
 993 F= -.12274784E+03 E0= -.12273377E+03  d E =-.105501E-09
       N       E                     dE             d eps       ncg     rms          rms(c)
DAV:   1    -0.122747836616E+03    0.10878E-08   -0.25928E-10   198   0.433E-10    0.720E-10
RMM:   2    -0.122747836617E+03   -0.11496E-08    0.00000E+00     0   0.420E-10
 994 F= -.12274784E+03 E0= -.12273377E+03  d E =-.109139E-09
       N       E                     dE             d eps       ncg     rms          rms(c)
DAV:   1    -0.122747836618E+03   -0.17026E-08   -0.71989E-11   198   0.723E-10    0.884E-10
RMM:   2    -0.122747836617E+03    0.64028E-09    0.00000E+00     0   0.490E-10
 995 F= -.12274784E+03 E0= -.12273377E+03  d E =0.873115E-10
       N       E                     dE             d eps       ncg     rms          rms(c)
DAV:   1    -0.122747836616E+03    0.14479E-08   -0.29079E-10   198   0.734E-10    0.922E-10
RMM:   2    -0.122747836617E+03   -0.97134E-09    0.00000E+00     0   0.607E-10
 996 F= -.12274784E+03 E0= -.12273377E+03  d E =-.163709E-09
       N       E                     dE             d eps       ncg     rms          rms(c)
DAV:   1    -0.122747836616E+03    0.29104E-10   -0.26668E-10   198   0.546E-10    0.612E-10
RMM:   2    -0.122747836617E+03   -0.83674E-09    0.00000E+00     0   0.306E-10
 997 F= -.12274784E+03 E0= -.12273377E+03  d E =0.163709E-09
       N       E                     dE             d eps       ncg     rms          rms(c)
DAV:   1    -0.122747836617E+03   -0.98589E-09   -0.18089E-10   198   0.484E-10    0.650E-10
RMM:   2    -0.122747836617E+03    0.29468E-09    0.00000E+00     0   0.399E-10
 998 F= -.12274784E+03 E0= -.12273377E+03  d E =0.145519E-09
       N       E                     dE             d eps       ncg     rms          rms(c)
DAV:   1    -0.122747836618E+03   -0.10223E-08   -0.30708E-10   198   0.466E-10    0.694E-10
RMM:   2    -0.122747836617E+03    0.11496E-08    0.00000E+00     0   0.360E-10
 999 F= -.12274784E+03 E0= -.12273377E+03  d E =-.167347E-09
       N       E                     dE             d eps       ncg     rms          rms(c)
DAV:   1    -0.122747836617E+03    0.12842E-08   -0.27755E-10   198   0.445E-10    0.904E-10
RMM:   2    -0.122747836617E+03   -0.13461E-09    0.00000E+00     0   0.372E-10
1000 F= -.12274784E+03 E0= -.12273377E+03  d E =0.000000E+00
