  20  20   0   0
  0.2428329E+02  0.7890501E-09  0.6739701E-09  0.9132624E-09  0.5000000E-15
   1.0000000000000000E-004
  CAR 
 unknown system                          
     11.97224213    -22.74772468  301      1.68645196      1.00000000
    -22.748  0.0000E+00  0.0000E+00
    -22.632  0.0000E+00  0.0000E+00
    -22.516  0.0000E+00  0.0000E+00
    -22.401  0.0000E+00  0.0000E+00
    -22.285  0.0000E+00  0.0000E+00
    -22.169  0.0000E+00  0.0000E+00
    -22.053  0.0000E+00  0.0000E+00
    -21.938  0.0000E+00  0.0000E+00
    -21.822  0.0000E+00  0.0000E+00
    -21.706  0.0000E+00  0.0000E+00
    -21.590  0.0000E+00  0.0000E+00
    -21.475  0.0000E+00  0.0000E+00
    -21.359  0.2587E-07  0.2994E-08
    -21.243  0.1514E-01  0.1752E-02
    -21.127  0.1505E+01  0.1760E+00
    -21.012  0.5532E+00  0.2400E+00
    -20.896  0.1750E-03  0.2400E+00
    -20.780  0.3379E-11  0.2400E+00
    -20.665  0.0000E+00  0.2400E+00
    -20.549  0.0000E+00  0.2400E+00
    -20.433  0.0000E+00  0.2400E+00
    -20.317  0.0000E+00  0.2400E+00
    -20.202  0.0000E+00  0.2400E+00
    -20.086  0.0000E+00  0.2400E+00
    -19.970  0.0000E+00  0.2400E+00
    -19.854  0.0000E+00  0.2400E+00
    -19.739  0.0000E+00  0.2400E+00
    -19.623  0.0000E+00  0.2400E+00
    -19.507  0.0000E+00  0.2400E+00
    -19.391  0.0000E+00  0.2400E+00
    -19.276  0.0000E+00  0.2400E+00
    -19.160  0.0000E+00  0.2400E+00
    -19.044  0.0000E+00  0.2400E+00
    -18.929  0.0000E+00  0.2400E+00
    -18.813  0.0000E+00  0.2400E+00
    -18.697  0.0000E+00  0.2400E+00
    -18.581  0.0000E+00  0.2400E+00
    -18.466  0.0000E+00  0.2400E+00
    -18.350  0.0000E+00  0.2400E+00
    -18.234  0.0000E+00  0.2400E+00
    -18.118  0.0000E+00  0.2400E+00
    -18.003  0.0000E+00  0.2400E+00
    -17.887  0.0000E+00  0.2400E+00
    -17.771  0.0000E+00  0.2400E+00
    -17.655  0.0000E+00  0.2400E+00
    -17.540  0.0000E+00  0.2400E+00
    -17.424  0.0000E+00  0.2400E+00
    -17.308  0.0000E+00  0.2400E+00
    -17.193  0.0000E+00  0.2400E+00
    -17.077  0.0000E+00  0.2400E+00
    -16.961  0.0000E+00  0.2400E+00
    -16.845  0.0000E+00  0.2400E+00
    -16.730  0.0000E+00  0.2400E+00
    -16.614  0.0000E+00  0.2400E+00
    -16.498  0.0000E+00  0.2400E+00
    -16.382  0.0000E+00  0.2400E+00
    -16.267  0.0000E+00  0.2400E+00
    -16.151  0.0000E+00  0.2400E+00
    -16.035  0.0000E+00  0.2400E+00
    -15.919  0.0000E+00  0.2400E+00
    -15.804  0.0000E+00  0.2400E+00
    -15.688  0.0000E+00  0.2400E+00
    -15.572  0.0000E+00  0.2400E+00
    -15.457  0.0000E+00  0.2400E+00
    -15.341  0.0000E+00  0.2400E+00
    -15.225  0.0000E+00  0.2400E+00
    -15.109  0.0000E+00  0.2400E+00
    -14.994  0.0000E+00  0.2400E+00
    -14.878  0.0000E+00  0.2400E+00
    -14.762  0.0000E+00  0.2400E+00
    -14.646  0.0000E+00  0.2400E+00
    -14.531  0.7712E-10  0.2400E+00
    -14.415  0.1965E-03  0.2400E+00
    -14.299  0.1419E+00  0.2564E+00
    -14.183  0.2029E+00  0.2799E+00
    -14.068  0.6403E-03  0.2800E+00
    -13.952  0.2502E-09  0.2800E+00
    -13.836  0.0000E+00  0.2800E+00
    -13.721  0.0000E+00  0.2800E+00
    -13.605  0.0000E+00  0.2800E+00
    -13.489  0.0000E+00  0.2800E+00
    -13.373  0.0000E+00  0.2800E+00
    -13.258  0.0000E+00  0.2800E+00
    -13.142  0.0000E+00  0.2800E+00
    -13.026  0.0000E+00  0.2800E+00
    -12.910  0.3779E-14  0.2800E+00
    -12.795  0.9862E-06  0.2800E+00
    -12.679  0.1991E-01  0.2823E+00
    -12.563  0.2860E+00  0.3154E+00
    -12.447  0.3968E-01  0.3200E+00
    -12.332  0.8030E-05  0.3200E+00
    -12.216  0.1378E-12  0.3200E+00
    -12.100  0.0000E+00  0.3200E+00
    -11.985  0.0000E+00  0.3200E+00
    -11.869  0.0000E+00  0.3200E+00
    -11.753  0.0000E+00  0.3200E+00
    -11.637  0.0000E+00  0.3200E+00
    -11.522  0.0000E+00  0.3200E+00
    -11.406  0.5953E-13  0.3200E+00
    -11.290  0.6403E-05  0.3200E+00
    -11.174  0.5362E-01  0.3262E+00
    -11.059  0.2862E+00  0.3593E+00
    -10.943  0.5818E-01  0.3661E+00
    -10.827  0.2796E+00  0.3984E+00
    -10.711  0.1372E-01  0.4000E+00
    -10.596  0.3925E-03  0.4000E+00
    -10.480  0.1184E+00  0.4137E+00
    -10.364  0.2987E+00  0.4483E+00
    -10.249  0.2703E+00  0.4796E+00
    -10.133  0.3439E-02  0.4800E+00
    -10.017  0.2736E-07  0.4800E+00
     -9.901  0.1599E-16  0.4800E+00
     -9.786  0.0000E+00  0.4800E+00
     -9.670  0.0000E+00  0.4800E+00
     -9.554  0.0000E+00  0.4800E+00
     -9.438  0.0000E+00  0.4800E+00
     -9.323  0.0000E+00  0.4800E+00
     -9.207  0.0000E+00  0.4800E+00
     -9.091  0.0000E+00  0.4800E+00
     -8.975  0.0000E+00  0.4800E+00
     -8.860  0.0000E+00  0.4800E+00
     -8.744  0.0000E+00  0.4800E+00
     -8.628  0.0000E+00  0.4800E+00
     -8.513  0.0000E+00  0.4800E+00
     -8.397  0.0000E+00  0.4800E+00
     -8.281  0.0000E+00  0.4800E+00
     -8.165  0.0000E+00  0.4800E+00
     -8.050  0.0000E+00  0.4800E+00
     -7.934  0.0000E+00  0.4800E+00
     -7.818  0.0000E+00  0.4800E+00
     -7.702  0.0000E+00  0.4800E+00
     -7.587  0.0000E+00  0.4800E+00
     -7.471  0.0000E+00  0.4800E+00
     -7.355  0.0000E+00  0.4800E+00
     -7.239  0.5777E-10  0.4800E+00
     -7.124  0.1038E-03  0.4800E+00
     -7.008  0.3437E-01  0.4840E+00
     -6.892  0.1422E+00  0.5004E+00
     -6.777  0.1522E+00  0.5181E+00
     -6.661  0.1674E-01  0.5200E+00
     -6.545  0.3495E-05  0.5200E+00
     -6.429  0.5016E-13  0.5200E+00
     -6.314  0.4477E-16  0.5200E+00
     -6.198  0.4328E-07  0.5200E+00
     -6.082  0.1515E-02  0.5202E+00
     -5.966  0.1257E-01  0.5216E+00
     -5.851  0.2583E-02  0.5219E+00
     -5.735  0.6930E-01  0.5299E+00
     -5.619  0.1076E+00  0.5424E+00
     -5.503  0.1223E+00  0.5566E+00
     -5.388  0.2962E-01  0.5600E+00
     -5.272  0.1409E-03  0.5600E+00
     -5.156  0.9100E-10  0.5600E+00
     -5.041  0.0000E+00  0.5600E+00
     -4.925  0.0000E+00  0.5600E+00
     -4.809  0.0000E+00  0.5600E+00
     -4.693  0.0000E+00  0.5600E+00
     -4.578  0.3198E-17  0.5600E+00
     -4.462  0.8778E-08  0.5600E+00
     -4.346  0.9104E-03  0.5601E+00
     -4.230  0.5187E-01  0.5661E+00
     -4.115  0.2054E+00  0.5899E+00
     -3.999  0.8388E-01  0.5996E+00
     -3.883  0.1721E-01  0.6016E+00
     -3.767  0.3078E-01  0.6051E+00
     -3.652  0.9107E-01  0.6157E+00
     -3.536  0.1260E+00  0.6303E+00
     -3.420  0.7714E-01  0.6392E+00
     -3.305  0.1115E-01  0.6405E+00
     -3.189  0.1140E+00  0.6537E+00
     -3.073  0.1702E+00  0.6734E+00
     -2.957  0.5308E-01  0.6795E+00
     -2.842  0.4143E-02  0.6800E+00
     -2.726  0.2968E-01  0.6834E+00
     -2.610  0.2365E+00  0.7108E+00
     -2.494  0.7973E-01  0.7200E+00
     -2.379  0.1506E+00  0.7375E+00
     -2.263  0.1740E+00  0.7576E+00
     -2.147  0.2067E-01  0.7600E+00
     -2.031  0.9273E-05  0.7600E+00
     -1.916  0.1299E-03  0.7600E+00
     -1.800  0.3323E-01  0.7639E+00
     -1.684  0.2062E+00  0.7877E+00
     -1.569  0.1050E+00  0.7999E+00
     -1.453  0.1023E-02  0.8000E+00
     -1.337  0.1999E-08  0.8000E+00
     -1.221  0.6395E-17  0.8000E+00
     -1.106  0.1841E-07  0.8000E+00
     -0.990  0.1910E-02  0.8002E+00
     -0.874  0.8530E-01  0.8101E+00
     -0.758  0.1674E+00  0.8295E+00
     -0.643  0.7134E-01  0.8377E+00
     -0.527  0.1548E+00  0.8556E+00
     -0.411  0.1681E+00  0.8751E+00
     -0.295  0.1610E+00  0.8937E+00
     -0.180  0.1499E+00  0.9111E+00
     -0.064  0.1578E+00  0.9294E+00
      0.052  0.1845E+00  0.9507E+00
      0.167  0.6469E-01  0.9582E+00
      0.283  0.1051E+00  0.9704E+00
      0.399  0.2995E+00  0.1005E+01
      0.515  0.1336E+00  0.1020E+01
      0.630  0.1831E+00  0.1042E+01
      0.746  0.2078E+00  0.1066E+01
      0.862  0.3133E+00  0.1102E+01
      0.978  0.1176E+00  0.1116E+01
      1.093  0.1972E+00  0.1138E+01
      1.209  0.1811E+00  0.1159E+01
      1.325  0.1864E+00  0.1181E+01
      1.441  0.1276E+00  0.1196E+01
      1.556  0.3689E-01  0.1200E+01
      1.672  0.1073E-03  0.1200E+01
      1.788  0.2742E-10  0.1200E+01
      1.903  0.0000E+00  0.1200E+01
      2.019  0.0000E+00  0.1200E+01
      2.135  0.0000E+00  0.1200E+01
      2.251  0.0000E+00  0.1200E+01
      2.366  0.0000E+00  0.1200E+01
      2.482  0.0000E+00  0.1200E+01
      2.598  0.0000E+00  0.1200E+01
      2.714  0.0000E+00  0.1200E+01
      2.829  0.0000E+00  0.1200E+01
      2.945  0.0000E+00  0.1200E+01
      3.061  0.0000E+00  0.1200E+01
      3.177  0.1439E-15  0.1200E+01
      3.292  0.1147E-06  0.1200E+01
      3.408  0.3356E-02  0.1200E+01
      3.524  0.3596E-01  0.1205E+01
      3.639  0.7993E-01  0.1214E+01
      3.755  0.1253E+00  0.1228E+01
      3.871  0.7629E-01  0.1237E+01
      3.987  0.2467E-01  0.1240E+01
      4.102  0.9436E-04  0.1240E+01
      4.218  0.8455E-04  0.1240E+01
      4.334  0.1126E-01  0.1241E+01
      4.450  0.2810E-01  0.1245E+01
      4.565  0.7487E-01  0.1253E+01
      4.681  0.1498E+00  0.1271E+01
      4.797  0.1748E+00  0.1291E+01
      4.913  0.8508E-01  0.1301E+01
      5.028  0.1472E+00  0.1318E+01
      5.144  0.1999E-01  0.1320E+01
      5.260  0.7307E-05  0.1320E+01
      5.375  0.1284E-05  0.1320E+01
      5.491  0.1282E-01  0.1321E+01
      5.607  0.1065E+00  0.1334E+01
      5.723  0.6463E-01  0.1341E+01
      5.838  0.1815E+00  0.1362E+01
      5.954  0.1118E+00  0.1375E+01
      6.070  0.1042E+00  0.1387E+01
      6.186  0.1170E+00  0.1401E+01
      6.301  0.1209E+00  0.1415E+01
      6.417  0.1795E+00  0.1436E+01
      6.533  0.1043E+00  0.1448E+01
      6.649  0.3850E-01  0.1452E+01
      6.764  0.7997E-01  0.1461E+01
      6.880  0.1329E+00  0.1477E+01
      6.996  0.1180E+00  0.1490E+01
      7.111  0.1424E+00  0.1507E+01
      7.227  0.1294E+00  0.1522E+01
      7.343  0.4170E-01  0.1527E+01
      7.459  0.1188E+00  0.1540E+01
      7.574  0.6579E-01  0.1548E+01
      7.690  0.1492E+00  0.1565E+01
      7.806  0.2055E+00  0.1589E+01
      7.922  0.5058E-01  0.1595E+01
      8.037  0.4090E-01  0.1600E+01
      8.153  0.1162E+00  0.1613E+01
      8.269  0.1508E+00  0.1631E+01
      8.385  0.1125E+00  0.1644E+01
      8.500  0.6281E-01  0.1651E+01
      8.616  0.1028E+00  0.1663E+01
      8.732  0.2183E+00  0.1688E+01
      8.847  0.1222E+00  0.1702E+01
      8.963  0.2671E+00  0.1733E+01
      9.079  0.2125E+00  0.1758E+01
      9.195  0.1443E+00  0.1774E+01
      9.310  0.2229E+00  0.1800E+01
      9.426  0.1825E+00  0.1821E+01
      9.542  0.1050E+00  0.1833E+01
      9.658  0.2127E+00  0.1858E+01
      9.773  0.1187E+00  0.1872E+01
      9.889  0.1287E+00  0.1887E+01
     10.005  0.8539E-01  0.1897E+01
     10.121  0.4401E-01  0.1902E+01
     10.236  0.9697E-01  0.1913E+01
     10.352  0.2930E-01  0.1916E+01
     10.468  0.3172E-01  0.1920E+01
     10.583  0.3347E-03  0.1920E+01
     10.699  0.6256E-09  0.1920E+01
     10.815  0.0000E+00  0.1920E+01
     10.931  0.0000E+00  0.1920E+01
     11.046  0.0000E+00  0.1920E+01
     11.162  0.0000E+00  0.1920E+01
     11.278  0.0000E+00  0.1920E+01
     11.394  0.0000E+00  0.1920E+01
     11.509  0.0000E+00  0.1920E+01
     11.625  0.0000E+00  0.1920E+01
     11.741  0.0000E+00  0.1920E+01
     11.857  0.0000E+00  0.1920E+01
     11.972  0.0000E+00  0.1920E+01
