       N       E                     dE             d eps       ncg     rms          rms(c)
DAV:   1     0.745365164838E+03    0.74537E+03   -0.45998E+04  1536   0.943E+02
DAV:   2    -0.321278540922E+02   -0.77749E+03   -0.73577E+03  1920   0.237E+02
DAV:   3    -0.900007378364E+02   -0.57873E+02   -0.57438E+02  2080   0.713E+01
DAV:   4    -0.911501294352E+02   -0.11494E+01   -0.11483E+01  1920   0.115E+01
DAV:   5    -0.911909313070E+02   -0.40802E-01   -0.40800E-01  2304   0.208E+00    0.319E+01
DAV:   6    -0.881480515703E+02    0.30429E+01   -0.45688E+00  1952   0.521E+00    0.204E+01
DAV:   7    -0.879331962163E+02    0.21486E+00   -0.38873E+00  2112   0.431E+00    0.371E+00
DAV:   8    -0.878614294509E+02    0.71767E-01   -0.47645E-01  1888   0.172E+00    0.257E+00
DAV:   9    -0.878645630750E+02   -0.31336E-02   -0.62534E-02  2048   0.619E-01    0.754E-01
DAV:  10    -0.878650587860E+02   -0.49571E-03   -0.50931E-03  2176   0.198E-01    0.406E-01
DAV:  11    -0.878659149142E+02   -0.85613E-03   -0.16829E-03  2048   0.108E-01    0.873E-02
DAV:  12    -0.878658899247E+02    0.24989E-04   -0.91754E-05  2016   0.275E-02    0.453E-02
DAV:  13    -0.878659365032E+02   -0.46579E-04   -0.66850E-05  2048   0.200E-02    0.213E-02
DAV:  14    -0.878659466051E+02   -0.10102E-04   -0.11159E-05  1760   0.998E-03    0.221E-02
DAV:  15    -0.878659480530E+02   -0.14479E-05   -0.19062E-06  1504   0.424E-03
   1 F= -.87865948E+02 E0= -.87865948E+02  d E =-.878659E+02
       N       E                     dE             d eps       ncg     rms          rms(c)
DAV:   1    -0.878697156956E+02   -0.37691E-02   -0.58847E-01  1632   0.203E+00    0.861E-01
DAV:   2    -0.878709593241E+02   -0.12436E-02   -0.41008E-02  2048   0.597E-01    0.310E-01
DAV:   3    -0.878701448075E+02    0.81452E-03   -0.17441E-03  2144   0.129E-01    0.174E-01
DAV:   4    -0.878698926187E+02    0.25219E-03   -0.60905E-04  2048   0.683E-02    0.556E-02
DAV:   5    -0.878698919660E+02    0.65271E-06   -0.65104E-05  1920   0.237E-02
   2 F= -.87869892E+02 E0= -.87869892E+02  d E =-.394391E-02
       N       E                     dE             d eps       ncg     rms          rms(c)
DAV:   1    -0.878703587324E+02   -0.46611E-03   -0.34339E-02  1664   0.491E-01    0.183E-01
DAV:   2    -0.878704031659E+02   -0.44434E-04   -0.23804E-03  2048   0.146E-01    0.785E-02
DAV:   3    -0.878703520655E+02    0.51100E-04   -0.10431E-04  2080   0.311E-02    0.480E-02
DAV:   4    -0.878703305936E+02    0.21472E-04   -0.40316E-05  2048   0.178E-02    0.117E-02
DAV:   5    -0.878703293829E+02    0.12107E-05   -0.41815E-06  1216   0.640E-03
   3 F= -.87870329E+02 E0= -.87870329E+02  d E =-.438133E-02
       N       E                     dE             d eps       ncg     rms          rms(c)
DAV:   1    -0.878803107489E+02   -0.99802E-02   -0.41354E-01  1536   0.198E+00    0.547E-01
DAV:   2    -0.878776042819E+02    0.27065E-02   -0.26778E-02  2048   0.517E-01    0.285E-01
DAV:   3    -0.878764713520E+02    0.11329E-02   -0.17822E-03  1920   0.136E-01    0.146E-01
DAV:   4    -0.878761466405E+02    0.32471E-03   -0.51368E-04  2112   0.656E-02    0.654E-02
DAV:   5    -0.878761141869E+02    0.32454E-04   -0.37648E-05  1888   0.188E-02    0.320E-02
DAV:   6    -0.878761064090E+02    0.77779E-05   -0.41004E-06  1440   0.647E-03
   4 F= -.87876106E+02 E0= -.87876106E+02  d E =-.577703E-02
       N       E                     dE             d eps       ncg     rms          rms(c)
DAV:   1    -0.878951547869E+02   -0.19041E-01   -0.11953E+00  1536   0.336E+00    0.929E-01
DAV:   2    -0.878873568956E+02    0.77979E-02   -0.77309E-02  2048   0.879E-01    0.480E-01
DAV:   3    -0.878840974502E+02    0.32594E-02   -0.51072E-03  1984   0.230E-01    0.249E-01
DAV:   4    -0.878831637192E+02    0.93373E-03   -0.15052E-03  2112   0.113E-01    0.110E-01
DAV:   5    -0.878830848296E+02    0.78890E-04   -0.11278E-04  2112   0.330E-02    0.540E-02
DAV:   6    -0.878830694719E+02    0.15358E-04   -0.11797E-05  1536   0.110E-02    0.228E-02
DAV:   7    -0.878830654132E+02    0.40587E-05   -0.45431E-06  1408   0.793E-03
   5 F= -.87883065E+02 E0= -.87883065E+02  d E =-.127360E-01
       N       E                     dE             d eps       ncg     rms          rms(c)
DAV:   1    -0.879344578237E+02   -0.51388E-01   -0.47572E+00  1536   0.671E+00    0.186E+00
DAV:   2    -0.879036740671E+02    0.30784E-01   -0.30682E-01  2048   0.176E+00    0.959E-01
DAV:   3    -0.878907918424E+02    0.12882E-01   -0.20028E-02  1952   0.455E-01    0.504E-01
DAV:   4    -0.878870090764E+02    0.37828E-02   -0.62259E-03  2112   0.227E-01    0.213E-01
DAV:   5    -0.878867412443E+02    0.26783E-03   -0.45614E-04  2112   0.658E-02    0.106E-01
DAV:   6    -0.878867021346E+02    0.39110E-04   -0.56871E-05  2112   0.226E-02    0.537E-02
DAV:   7    -0.878866939887E+02    0.81459E-05   -0.95098E-06  1408   0.104E-02
   6 F= -.87886694E+02 E0= -.87886694E+02  d E =-.163646E-01
       N       E                     dE             d eps       ncg     rms          rms(c)
DAV:   1    -0.878941206533E+02   -0.74185E-02   -0.26350E-01  1600   0.165E+00    0.502E-01
DAV:   2    -0.878909934176E+02    0.31272E-02   -0.16283E-02  2048   0.411E-01    0.254E-01
DAV:   3    -0.878900292309E+02    0.96419E-03   -0.14920E-03  1952   0.119E-01    0.134E-01
DAV:   4    -0.878897657676E+02    0.26346E-03   -0.44128E-04  2112   0.603E-02    0.582E-02
DAV:   5    -0.878897455548E+02    0.20213E-04   -0.22601E-05  1760   0.149E-02    0.302E-02
DAV:   6    -0.878897360175E+02    0.95373E-05   -0.39948E-06  1440   0.643E-03
   7 F= -.87889736E+02 E0= -.87889736E+02  d E =-.304203E-02
       N       E                     dE             d eps       ncg     rms          rms(c)
DAV:   1    -0.879048204987E+02   -0.15075E-01   -0.70531E-01  1600   0.270E+00    0.822E-01
DAV:   2    -0.878964528217E+02    0.83677E-02   -0.43511E-02  2048   0.673E-01    0.415E-01
DAV:   3    -0.878938810760E+02    0.25717E-02   -0.39549E-03  1952   0.194E-01    0.221E-01
DAV:   4    -0.878931800958E+02    0.70098E-03   -0.11964E-03  2112   0.993E-02    0.944E-02
DAV:   5    -0.878931356453E+02    0.44450E-04   -0.62327E-05  1920   0.246E-02    0.491E-02
DAV:   6    -0.878931170301E+02    0.18615E-04   -0.93095E-06  1536   0.978E-03    0.149E-02
DAV:   7    -0.878931132987E+02    0.37314E-05   -0.26266E-06  1312   0.605E-03
   8 F= -.87893113E+02 E0= -.87893113E+02  d E =-.641931E-02
       N       E                     dE             d eps       ncg     rms          rms(c)
DAV:   1    -0.879408605887E+02   -0.47744E-01   -0.28106E+00  1568   0.539E+00    0.165E+00
DAV:   2    -0.879075942907E+02    0.33266E-01   -0.17274E-01  2048   0.134E+00    0.829E-01
DAV:   3    -0.878974316624E+02    0.10163E-01   -0.15457E-02  1984   0.384E-01    0.449E-01
DAV:   4    -0.878945975201E+02    0.28341E-02   -0.49432E-03  2112   0.201E-01    0.183E-01
DAV:   5    -0.878944545081E+02    0.14301E-03   -0.25625E-04  2016   0.492E-02    0.967E-02
DAV:   6    -0.878944041707E+02    0.50337E-04   -0.41294E-05  2048   0.188E-02    0.377E-02
DAV:   7    -0.878943958597E+02    0.83110E-05   -0.45816E-06  1408   0.770E-03
   9 F= -.87894396E+02 E0= -.87894396E+02  d E =-.770187E-02
       N       E                     dE             d eps       ncg     rms          rms(c)
DAV:   1    -0.878994090451E+02   -0.50049E-02   -0.28449E-01  1600   0.170E+00    0.522E-01
DAV:   2    -0.878959912619E+02    0.34178E-02   -0.17723E-02  2048   0.426E-01    0.261E-01
DAV:   3    -0.878949541553E+02    0.10371E-02   -0.16281E-03  1984   0.124E-01    0.136E-01
DAV:   4    -0.878947080200E+02    0.24614E-03   -0.45510E-04  2112   0.609E-02    0.622E-02
DAV:   5    -0.878947050084E+02    0.30116E-05   -0.22837E-05  1728   0.149E-02
  10 F= -.87894705E+02 E0= -.87894705E+02  d E =-.801102E-02
       N       E                     dE             d eps       ncg     rms          rms(c)
DAV:   1    -0.878972472643E+02   -0.25392E-02   -0.67020E-02  1536   0.754E-01    0.241E-01
DAV:   2    -0.878971292824E+02    0.11798E-03   -0.40535E-03  2048   0.193E-01    0.112E-01
DAV:   3    -0.878970210379E+02    0.10824E-03   -0.19085E-04  1952   0.460E-02    0.645E-02
DAV:   4    -0.878969721040E+02    0.48934E-04   -0.82513E-05  2080   0.269E-02    0.206E-02
DAV:   5    -0.878969684024E+02    0.37016E-05   -0.74137E-06  1184   0.833E-03
  11 F= -.87896968E+02 E0= -.87896968E+02  d E =-.226339E-02
       N       E                     dE             d eps       ncg     rms          rms(c)
DAV:   1    -0.879023600847E+02   -0.53880E-02   -0.53947E-01  1536   0.214E+00    0.690E-01
DAV:   2    -0.879013716549E+02    0.98843E-03   -0.32637E-02  2048   0.548E-01    0.307E-01
DAV:   3    -0.879004776260E+02    0.89403E-03   -0.15417E-03  1984   0.131E-01    0.178E-01
DAV:   4    -0.879000944299E+02    0.38320E-03   -0.66172E-04  2080   0.763E-02    0.617E-02
DAV:   5    -0.879000773982E+02    0.17032E-04   -0.65903E-05  1856   0.234E-02    0.462E-02
DAV:   6    -0.879000707701E+02    0.66281E-05   -0.56742E-06  1536   0.746E-03
  12 F= -.87900071E+02 E0= -.87900071E+02  d E =-.536576E-02
       N       E                     dE             d eps       ncg     rms          rms(c)
DAV:   1    -0.879020905244E+02   -0.20131E-02   -0.88516E-02  1536   0.776E-01    0.246E-01
DAV:   2    -0.879022901515E+02   -0.19963E-03   -0.49635E-03  2048   0.210E-01    0.951E-02
DAV:   3    -0.879022140897E+02    0.76062E-04   -0.16488E-04  2144   0.406E-02    0.608E-02
DAV:   4    -0.879021706732E+02    0.43417E-04   -0.76737E-05  2048   0.251E-02    0.175E-02
DAV:   5    -0.879021706524E+02    0.20764E-07   -0.13843E-05  1600   0.111E-02
  13 F= -.87902171E+02 E0= -.87902171E+02  d E =-.209988E-02
       N       E                     dE             d eps       ncg     rms          rms(c)
DAV:   1    -0.879036523632E+02   -0.14817E-02   -0.42591E-01  1536   0.171E+00    0.552E-01
DAV:   2    -0.879046154257E+02   -0.96306E-03   -0.24098E-02  2048   0.458E-01    0.206E-01
DAV:   3    -0.879042533637E+02    0.36206E-03   -0.79601E-04  2176   0.901E-02    0.132E-01
DAV:   4    -0.879040475117E+02    0.20585E-03   -0.35707E-04  2048   0.561E-02    0.385E-02
DAV:   5    -0.879040469847E+02    0.52704E-06   -0.68310E-05  1952   0.240E-02
  14 F= -.87904047E+02 E0= -.87904047E+02  d E =-.397621E-02
       N       E                     dE             d eps       ncg     rms          rms(c)
DAV:   1    -0.879051502088E+02   -0.11027E-02   -0.80260E-02  1536   0.714E-01    0.144E-01
DAV:   2    -0.879053196226E+02   -0.16941E-03   -0.40385E-03  2080   0.191E-01    0.767E-02
DAV:   3    -0.879052806183E+02    0.39004E-04   -0.16078E-04  2144   0.385E-02    0.493E-02
DAV:   4    -0.879052555496E+02    0.25069E-04   -0.33100E-05  2048   0.174E-02    0.205E-02
DAV:   5    -0.879052541634E+02    0.13862E-05   -0.96520E-06  1312   0.989E-03
  15 F= -.87905254E+02 E0= -.87905254E+02  d E =-.120718E-02
       N       E                     dE             d eps       ncg     rms          rms(c)
DAV:   1    -0.879068453642E+02   -0.15898E-02   -0.72149E-01  1536   0.214E+00    0.426E-01
DAV:   2    -0.879083188863E+02   -0.14735E-02   -0.35897E-02  2080   0.570E-01    0.247E-01
DAV:   3    -0.879079525595E+02    0.36633E-03   -0.14357E-03  2144   0.116E-01    0.155E-01
DAV:   4    -0.879077040790E+02    0.24848E-03   -0.31886E-04  2048   0.534E-02    0.660E-02
DAV:   5    -0.879076843859E+02    0.19693E-04   -0.10948E-04  2112   0.299E-02    0.294E-02
DAV:   6    -0.879076847020E+02   -0.31610E-06   -0.10725E-05  1536   0.996E-03
  16 F= -.87907685E+02 E0= -.87907685E+02  d E =-.363772E-02
       N       E                     dE             d eps       ncg     rms          rms(c)
DAV:   1    -0.879031813151E+02    0.45031E-02   -0.28907E+00  1536   0.427E+00    0.852E-01
DAV:   2    -0.879090850818E+02   -0.59038E-02   -0.14392E-01  2080   0.114E+00    0.495E-01
DAV:   3    -0.879076179575E+02    0.14671E-02   -0.57026E-03  2144   0.229E-01    0.311E-01
DAV:   4    -0.879066073083E+02    0.10106E-02   -0.13068E-03  2048   0.109E-01    0.133E-01
DAV:   5    -0.879065266831E+02    0.80625E-04   -0.43638E-04  2112   0.603E-02    0.593E-02
DAV:   6    -0.879065256530E+02    0.10301E-05   -0.46089E-05  2048   0.197E-02
  17 F= -.87906526E+02 E0= -.87906526E+02  d E =-.247867E-02
       N       E                     dE             d eps       ncg     rms          rms(c)
DAV:   1    -0.879068508627E+02   -0.32418E-03   -0.12599E+00  1536   0.283E+00    0.574E-01
DAV:   2    -0.879093698426E+02   -0.25190E-02   -0.62134E-02  2080   0.764E-01    0.326E-01
DAV:   3    -0.879087101663E+02    0.65968E-03   -0.25500E-03  2144   0.153E-01    0.208E-01
DAV:   4    -0.879082617537E+02    0.44841E-03   -0.56958E-04  2048   0.726E-02    0.854E-02
DAV:   5    -0.879082152777E+02    0.46476E-04   -0.19508E-04  2112   0.406E-02    0.393E-02
DAV:   6    -0.879082118568E+02    0.34209E-05   -0.20743E-05  1920   0.133E-02
  18 F= -.87908212E+02 E0= -.87908212E+02  d E =-.416487E-02
       N       E                     dE             d eps       ncg     rms          rms(c)
DAV:   1    -0.879094261251E+02   -0.12108E-02   -0.82496E-02  1792   0.746E-01    0.220E-01
DAV:   2    -0.879094596846E+02   -0.33560E-04   -0.37556E-03  2048   0.179E-01    0.872E-02
DAV:   3    -0.879093795028E+02    0.80182E-04   -0.16159E-04  2176   0.397E-02    0.594E-02
DAV:   4    -0.879093411344E+02    0.38368E-04   -0.70704E-05  2016   0.252E-02    0.188E-02
DAV:   5    -0.879093418895E+02   -0.75503E-06   -0.10295E-05  1280   0.974E-03
  19 F= -.87909342E+02 E0= -.87909342E+02  d E =-.113003E-02
       N       E                     dE             d eps       ncg     rms          rms(c)
DAV:   1    -0.879120733277E+02   -0.27322E-02   -0.74804E-01  1792   0.224E+00    0.667E-01
DAV:   2    -0.879125081115E+02   -0.43478E-03   -0.34578E-02  2048   0.538E-01    0.258E-01
DAV:   3    -0.879117954034E+02    0.71271E-03   -0.14316E-03  2176   0.118E-01    0.175E-01
DAV:   4    -0.879114410210E+02    0.35438E-03   -0.63915E-04  2048   0.754E-02    0.573E-02
DAV:   5    -0.879114419992E+02   -0.97815E-06   -0.10361E-04  1920   0.290E-02    0.345E-02
DAV:   6    -0.879114428698E+02   -0.87061E-06   -0.60999E-06  1440   0.804E-03
  20 F= -.87911443E+02 E0= -.87911443E+02  d E =-.323101E-02
       N       E                     dE             d eps       ncg     rms          rms(c)
DAV:   1    -0.879123025440E+02   -0.86054E-03   -0.29937E+00  1792   0.448E+00    0.133E+00
DAV:   2    -0.879139572126E+02   -0.16547E-02   -0.13827E-01  2048   0.107E+00    0.519E-01
DAV:   3    -0.879110962429E+02    0.28610E-02   -0.56885E-03  2144   0.235E-01    0.353E-01
DAV:   4    -0.879096567256E+02    0.14395E-02   -0.25757E-03  2048   0.150E-01    0.118E-01
DAV:   5    -0.879096513400E+02    0.53857E-05   -0.41010E-04  1888   0.573E-02    0.689E-02
DAV:   6    -0.879096497183E+02    0.16217E-05   -0.29788E-05  2048   0.162E-02
  21 F= -.87909650E+02 E0= -.87909650E+02  d E =-.143786E-02
       N       E                     dE             d eps       ncg     rms          rms(c)
DAV:   1    -0.879123119570E+02   -0.26606E-02   -0.16426E+00  1600   0.336E+00    0.963E-01
DAV:   2    -0.879142478495E+02   -0.19359E-02   -0.84518E-02  2048   0.858E-01    0.400E-01
DAV:   3    -0.879126984514E+02    0.15494E-02   -0.33097E-03  2240   0.183E-01    0.271E-01
DAV:   4    -0.879118090044E+02    0.88945E-03   -0.15036E-03  2016   0.125E-01    0.808E-02
DAV:   5    -0.879117943749E+02    0.14630E-04   -0.26610E-04  1952   0.469E-02    0.509E-02
DAV:   6    -0.879117862163E+02    0.81586E-05   -0.15131E-05  1760   0.119E-02
  22 F= -.87911786E+02 E0= -.87911786E+02  d E =-.357436E-02
       N       E                     dE             d eps       ncg     rms          rms(c)
DAV:   1    -0.879128593433E+02   -0.10650E-02   -0.13503E-01  1536   0.915E-01    0.171E-01
DAV:   2    -0.879132522195E+02   -0.39288E-03   -0.64455E-03  2048   0.236E-01    0.100E-01
DAV:   3    -0.879132081317E+02    0.44088E-04   -0.19995E-04  2112   0.439E-02    0.624E-02
DAV:   4    -0.879131757527E+02    0.32379E-04   -0.46786E-05  2048   0.210E-02    0.320E-02
DAV:   5    -0.879131724946E+02    0.32581E-05   -0.15452E-05  1504   0.124E-02
  23 F= -.87913172E+02 E0= -.87913172E+02  d E =-.138628E-02
       N       E                     dE             d eps       ncg     rms          rms(c)
DAV:   1    -0.879121795011E+02    0.99625E-03   -0.10077E+00  1536   0.250E+00    0.466E-01
DAV:   2    -0.879151980680E+02   -0.30186E-02   -0.48412E-02  2048   0.648E-01    0.273E-01
DAV:   3    -0.879148692874E+02    0.32878E-03   -0.14725E-03  2112   0.119E-01    0.174E-01
DAV:   4    -0.879146255749E+02    0.24371E-03   -0.35211E-04  2048   0.577E-02    0.911E-02
DAV:   5    -0.879145980422E+02    0.27533E-04   -0.13910E-04  2016   0.349E-02    0.293E-02
DAV:   6    -0.879145991437E+02   -0.11015E-05   -0.14754E-05  1664   0.117E-02
  24 F= -.87914599E+02 E0= -.87914599E+02  d E =-.281293E-02
       N       E                     dE             d eps       ncg     rms          rms(c)
DAV:   1    -0.879154537863E+02   -0.85574E-03   -0.16303E-01  1536   0.105E+00    0.244E-01
DAV:   2    -0.879157157269E+02   -0.26194E-03   -0.77660E-03  2048   0.254E-01    0.129E-01
DAV:   3    -0.879156118780E+02    0.10385E-03   -0.29077E-04  2112   0.529E-02    0.801E-02
DAV:   4    -0.879155534192E+02    0.58459E-04   -0.10615E-04  2080   0.348E-02    0.251E-02
DAV:   5    -0.879155541290E+02   -0.70982E-06   -0.17446E-05  1504   0.120E-02
  25 F= -.87915554E+02 E0= -.87915554E+02  d E =-.954985E-03
       N       E                     dE             d eps       ncg     rms          rms(c)
DAV:   1    -0.879157031724E+02   -0.14975E-03   -0.35607E-02  1536   0.493E-01    0.117E-01
DAV:   2    -0.879157599302E+02   -0.56758E-04   -0.17014E-03  2048   0.119E-01    0.589E-02
DAV:   3    -0.879157369935E+02    0.22937E-04   -0.63704E-05  2112   0.248E-02    0.365E-02
DAV:   4    -0.879157255813E+02    0.11412E-04   -0.21517E-05  1696   0.163E-02    0.111E-02
DAV:   5    -0.879157266436E+02   -0.10623E-05   -0.49639E-06  1120   0.696E-03
  26 F= -.87915727E+02 E0= -.87915727E+02  d E =-.112750E-02
