 vasp.6.3.2 27Jun22 (build Jun 14 2024 17:29:11) complex                         
 executed on             LinuxGNU date 2026.03.29  20:28:39
 running on   32 total cores
 distrk:  each k-point on   32 cores,    1 groups
 distr:  one band on NCORE=   1 cores,   32 groups


--------------------------------------------------------------------------------------------------------


 INCAR:
   EDIFF = 1e-05
   EDIFFG = -0.05
   ENCUT = 400.0
   IBRION = 2
   ISIF = 3
   ISMEAR = 0
   LCHARG = False
   LREAL = Auto
   LWAVE = False
   NSW = 100
   SIGMA = 0.05

 POTCAR:    PAW_PBE Na_pv 19Sep2006               
 POTCAR:    PAW_PBE P 06Sep2000                   
 POTCAR:    PAW_PBE S 06Sep2000                   
 -----------------------------------------------------------------------------
|                                                                             |
|           W    W    AA    RRRRR   N    N  II  N    N   GGGG   !!!           |
|           W    W   A  A   R    R  NN   N  II  NN   N  G    G  !!!           |
|           W    W  A    A  R    R  N N  N  II  N N  N  G       !!!           |
|           W WW W  AAAAAA  RRRRR   N  N N  II  N  N N  G  GGG   !            |
|           WW  WW  A    A  R   R   N   NN  II  N   NN  G    G                |
|           W    W  A    A  R    R  N    N  II  N    N   GGGG   !!!           |
|                                                                             |
|     For optimal performance we recommend to set                             |
|       NCORE = 2 up to number-of-cores-per-socket                            |
|     NCORE specifies how many cores store one orbital (NPAR=cpu/NCORE).      |
|     This setting can greatly improve the performance of VASP for DFT.       |
|     The default, NCORE=1 might be grossly inefficient on modern             |
|     multi-core architectures or massively parallel machines. Do your        |
|     own testing! More info at https://www.vasp.at/wiki/index.php/NCORE      |
|     Unfortunately you need to use the default for GW and RPA                |
|     calculations (for HF NCORE is supported but not extensively tested      |
|     yet).                                                                   |
|                                                                             |
 -----------------------------------------------------------------------------

 POTCAR:    PAW_PBE Na_pv 19Sep2006               
   SHA256 =  6a2f546d9e11350984debacf3dc457d8cffc0868e817d445faca461816a32b94 Na_pv/POTCAR          
   COPYR  = (c) Copyright 19Sep2006 Georg Kresse                                                    
   COPYR  = This file is part of the software VASP. Any use, copying, and all other rights are regul
   COPYR  = If you do not have a valid VASP license, you may not use, copy or distribute this file. 
   VRHFIN =Na: p6s1                                                                                 
   LEXCH  = PE                                                                                      
   EATOM  =   766.0439 eV,   56.3026 Ry                                                             
                                                                                                    
   TITEL  = PAW_PBE Na_pv 19Sep2006                                                                 
   LULTRA =        F    use ultrasoft PP ?                                                          
   IUNSCR =        1    unscreen: 0-lin 1-nonlin 2-no                                               
   RPACOR =    1.800    partial core radius                                                         
   POMASS =   22.990; ZVAL   =    7.000    mass and valenz                                          
   RCORE  =    2.200    outmost cutoff radius                                                       
   RWIGS  =    2.200; RWIGS  =    1.164    wigner-seitz radius (au A)                               
   ENMAX  =  259.561; ENMIN  =  194.671 eV                                                          
   ICORE  =        2    local potential                                                             
   LCOR   =        T    correct aug charges                                                         
   LPAW   =        T    paw PP                                                                      
   EAUG   =  368.056                                                                                
   DEXC   =    0.000                                                                                
   RMAX   =    2.245    core radius for proj-oper                                                   
   RAUG   =    1.300    factor for augmentation sphere                                              
   RDEP   =    2.259    radius for radial grids                                                     
   RDEPT  =    1.738    core radius for aug-charge                                                  
                                                                                                    
   Atomic configuration                                                                             
    5 entries                                                                                       
     n  l   j            E        occ.                                                              
     1  0  0.50     -1033.6933   2.0000                                                             
     2  0  0.50       -56.7526   2.0000                                                             
     2  1  1.50       -28.6721   6.0000                                                             
     3  0  0.50        -2.7440   1.0000                                                             
     3  2  1.50        -1.3606   0.0000                                                             
   Description                                                                                      
     l       E           TYP  RCUT    TYP  RCUT                                                     
     1    -28.6720912     23  2.000                                                                 
     1      6.8029130     23  2.000                                                                 
     0     -2.7439560     23  2.200                                                                 
     0     34.0145650     23  2.200                                                                 
     2     -1.3605826     23  2.200                                                                 
  local pseudopotential read in
  partial core-charges read in
  partial kinetic energy density read in
  atomic valenz-charges read in
  non local Contribution for L=           1  read in
    real space projection operators read in
  non local Contribution for L=           1  read in
    real space projection operators read in
  non local Contribution for L=           0  read in
    real space projection operators read in
  non local Contribution for L=           0  read in
    real space projection operators read in
    PAW grid and wavefunctions read in

   number of l-projection  operators is LMAX  =           4
   number of lm-projection operators is LMMAX =           8

 POTCAR:    PAW_PBE P 06Sep2000                   
   SHA256 =  df60c54a93efe35c9e85ae94c010c75e9f6960a95d5595d7cdba4096d109af88 P/POTCAR              
   COPYR  = (c) Copyright 06Sep2000 Georg Kresse                                                    
   COPYR  = This file is part of the software VASP. Any use, copying, and all other rights are regul
   COPYR  = If you do not have a valid VASP license, you may not use, copy or distribute this file. 
   VRHFIN =P : s2p3                                                                                 
   LEXCH  = PE                                                                                      
   EATOM  =   176.0430 eV,   12.9388 Ry                                                             
                                                                                                    
   TITEL  = PAW_PBE P 06Sep2000                                                                     
   LULTRA =        F    use ultrasoft PP ?                                                          
   IUNSCR =        1    unscreen: 0-lin 1-nonlin 2-no                                               
   RPACOR =    1.500    partial core radius                                                         
   POMASS =   30.974; ZVAL   =    5.000    mass and valenz                                          
   RCORE  =    1.900    outmost cutoff radius                                                       
   RWIGS  =    2.330; RWIGS  =    1.233    wigner-seitz radius (au A)                               
   ENMAX  =  255.040; ENMIN  =  191.280 eV                                                          
   ICORE  =        2    local potential                                                             
   LCOR   =        T    correct aug charges                                                         
   LPAW   =        T    paw PP                                                                      
   EAUG   =  342.924                                                                                
   DEXC   =    0.000                                                                                
   RMAX   =    1.935    core radius for proj-oper                                                   
   RAUG   =    1.300    factor for augmentation sphere                                              
   RDEP   =    1.931    radius for radial grids                                                     
   RDEPT  =    1.794    core radius for aug-charge                                                  
                                                                                                    
   Atomic configuration                                                                             
    6 entries                                                                                       
     n  l   j            E        occ.                                                              
     1  0  0.50     -2084.0982   2.0000                                                             
     2  0  0.50      -173.9859   2.0000                                                             
     2  1  1.50      -124.4865   6.0000                                                             
     3  0  0.50       -13.9692   2.0000                                                             
     3  1  0.50        -5.5067   3.0000                                                             
     3  2  1.50        -5.4423   0.0000                                                             
   Description                                                                                      
     l       E           TYP  RCUT    TYP  RCUT                                                     
     0    -13.9691527     23  1.900                                                                 
     0    -11.7794650     23  1.900                                                                 
     1     -5.5066937     23  1.900                                                                 
     1     -0.2556953     23  1.900                                                                 
     2     -5.4423304     23  1.900                                                                 
  local pseudopotential read in
  partial core-charges read in
  partial kinetic energy density read in
  atomic valenz-charges read in
  non local Contribution for L=           0  read in
    real space projection operators read in
  non local Contribution for L=           0  read in
    real space projection operators read in
  non local Contribution for L=           1  read in
    real space projection operators read in
  non local Contribution for L=           1  read in
    real space projection operators read in
    PAW grid and wavefunctions read in

   number of l-projection  operators is LMAX  =           4
   number of lm-projection operators is LMMAX =           8

 POTCAR:    PAW_PBE S 06Sep2000                   
   SHA256 =  0fc7481fb0695f01bdc6462160264c5c84044ae9ec85a907d398b887a2bc3132 S/POTCAR              
   COPYR  = (c) Copyright 06Sep2000 Georg Kresse                                                    
   COPYR  = This file is part of the software VASP. Any use, copying, and all other rights are regul
   COPYR  = If you do not have a valid VASP license, you may not use, copy or distribute this file. 
   VRHFIN =S : s2p4                                                                                 
   LEXCH  = PE                                                                                      
   EATOM  =   276.8230 eV,   20.3459 Ry                                                             
                                                                                                    
   TITEL  = PAW_PBE S 06Sep2000                                                                     
   LULTRA =        F    use ultrasoft PP ?                                                          
   IUNSCR =        1    unscreen: 0-lin 1-nonlin 2-no                                               
   RPACOR =    1.500    partial core radius                                                         
   POMASS =   32.066; ZVAL   =    6.000    mass and valenz                                          
   RCORE  =    1.900    outmost cutoff radius                                                       
   RWIGS  =    2.200; RWIGS  =    1.164    wigner-seitz radius (au A)                               
   ENMAX  =  258.689; ENMIN  =  194.016 eV                                                          
   ICORE  =        2    local potential                                                             
   LCOR   =        T    correct aug charges                                                         
   LPAW   =        T    paw PP                                                                      
   EAUG   =  335.092                                                                                
   DEXC   =    0.000                                                                                
   RMAX   =    1.942    core radius for proj-oper                                                   
   RAUG   =    1.300    factor for augmentation sphere                                              
   RDEP   =    1.954    radius for radial grids                                                     
   RDEPT  =    1.744    core radius for aug-charge                                                  
                                                                                                    
   Atomic configuration                                                                             
    6 entries                                                                                       
     n  l   j            E        occ.                                                              
     1  0  0.50     -2405.8406   2.0000                                                             
     2  0  0.50      -211.7007   2.0000                                                             
     2  1  1.50      -156.4958   6.0000                                                             
     3  0  0.50       -17.2562   2.0000                                                             
     3  1  0.50        -7.0085   4.0000                                                             
     3  2  1.50        -6.8029   0.0000                                                             
   Description                                                                                      
     l       E           TYP  RCUT    TYP  RCUT                                                     
     0    -17.2561641     23  1.900                                                                 
     0    -15.8743224     23  1.900                                                                 
     1     -7.0085400     23  1.900                                                                 
     1     -2.7779785     23  1.900                                                                 
     2     -6.8029130     23  1.900                                                                 
  local pseudopotential read in
  partial core-charges read in
  partial kinetic energy density read in
  atomic valenz-charges read in
  non local Contribution for L=           0  read in
    real space projection operators read in
  non local Contribution for L=           0  read in
    real space projection operators read in
  non local Contribution for L=           1  read in
    real space projection operators read in
  non local Contribution for L=           1  read in
    real space projection operators read in
    PAW grid and wavefunctions read in

   number of l-projection  operators is LMAX  =           4
   number of lm-projection operators is LMMAX =           8

 Optimization of the real space projectors (new method)

 maximal supplied QI-value         = 17.01
 optimisation between [QCUT,QGAM] = [ 10.20, 20.41] = [ 29.16,116.64] Ry 
 Optimized for a Real-space Cutoff    1.30 Angstroem

   l    n(q)    QCUT    max X(q) W(low)/X(q) W(high)/X(q)  e(spline) 
   1      7    10.205     4.940    0.23E-03    0.84E-03    0.11E-06
   1      7    10.205     6.253    0.40E-03    0.13E-02    0.18E-06
   0      8    10.205    37.438    0.23E-03    0.37E-03    0.42E-07
   0      8    10.205     9.606    0.16E-03    0.26E-03    0.31E-07
 Optimization of the real space projectors (new method)

 maximal supplied QI-value         = 19.84
 optimisation between [QCUT,QGAM] = [ 10.12, 20.44] = [ 28.68,116.96] Ry 
 Optimized for a Real-space Cutoff    1.23 Angstroem

   l    n(q)    QCUT    max X(q) W(low)/X(q) W(high)/X(q)  e(spline) 
   0      7    10.119   160.924    0.70E-04    0.27E-03    0.49E-07
   0      7    10.119   130.086    0.69E-04    0.27E-03    0.48E-07
   1      7    10.119    74.434    0.43E-03    0.59E-03    0.12E-06
   1      7    10.119    49.120    0.42E-03    0.58E-03    0.12E-06
 Optimization of the real space projectors (new method)

 maximal supplied QI-value         = 19.84
 optimisation between [QCUT,QGAM] = [ 10.12, 20.44] = [ 28.68,116.96] Ry 
 Optimized for a Real-space Cutoff    1.23 Angstroem

   l    n(q)    QCUT    max X(q) W(low)/X(q) W(high)/X(q)  e(spline) 
   0      7    10.119   187.594    0.62E-04    0.28E-03    0.52E-07
   0      7    10.119   164.243    0.61E-04    0.28E-03    0.52E-07
   1      7    10.119    67.533    0.45E-03    0.63E-03    0.13E-06
   1      7    10.119    50.729    0.44E-03    0.62E-03    0.12E-06
  PAW_PBE Na_pv 19Sep2006               :
 energy of atom  1       EATOM= -766.0439
 kinetic energy error for atom=    0.0103 (will be added to EATOM!!)
  PAW_PBE P 06Sep2000                   :
 energy of atom  2       EATOM= -176.0430
 kinetic energy error for atom=    0.0023 (will be added to EATOM!!)
  PAW_PBE S 06Sep2000                   :
 energy of atom  3       EATOM= -276.8230
 kinetic energy error for atom=    0.0046 (will be added to EATOM!!)


 POSCAR: Na4 P4 S12
  positions in direct lattice
  No initial velocities read in
 exchange correlation table for  LEXCH =        8
   RHO(1)=    0.500       N(1)  =     2000
   RHO(2)=  100.500       N(2)  =     4000



--------------------------------------------------------------------------------------------------------


 ion  position               nearest neighbor table
   1  0.514  0.713  0.709-
   2  0.014  0.287  0.291-
   3  0.486  0.287  0.291-
   4  0.986  0.713  0.709-
   5  0.750  0.213  0.612-  19 2.00  15 2.00  10 2.14  11 2.14   7 2.94
   6  0.250  0.787  0.388-  20 2.00  16 2.00   9 2.14  12 2.14   8 2.94
   7  0.750  0.323  0.923-  17 1.98  13 2.00  10 2.18  11 2.18   5 2.94
   8  0.250  0.677  0.077-  18 1.98  14 2.00   9 2.18  12 2.18   6 2.94
   9  0.052  0.765  0.228-   6 2.14   8 2.18
  10  0.552  0.235  0.772-   5 2.14   7 2.18
  11  0.948  0.235  0.772-   5 2.14   7 2.18
  12  0.448  0.765  0.228-   6 2.14   8 2.18
  13  0.750  0.617  0.951-   7 2.00
  14  0.250  0.383  0.049-   8 2.00
  15  0.750  0.450  0.480-   5 2.00
  16  0.250  0.550  0.520-   6 2.00
  17  0.750  0.145  0.096-   7 1.98
  18  0.250  0.855  0.904-   8 1.98
  19  0.750  0.949  0.514-   5 2.00
  20  0.250  0.051  0.486-   6 2.00

  LATTYP: Found a simple monoclinic cell.
 ALAT       =     6.7397010000
 B/A-ratio  =     1.1707494146
 C/A-ratio  =     1.3550488264
 COS(beta)  =    -0.0038283630
  
  Lattice vectors:
  
 A1 = (   0.0000000000,   6.7396516101,   0.0258020222)
 A2 = (   7.8905010000,   0.0000000000,   0.0000000000)
 A3 = (   0.0000000000,   0.0000000000,  -9.1326239300)


Analysis of symmetry for initial positions (statically):
=====================================================================
 Subroutine PRICEL returns:
 Original cell was already a primitive cell.
 

 Routine SETGRP: Setting up the symmetry group for a 
 simple monoclinic supercell.


 Subroutine GETGRP returns: Found  4 space group operations
 (whereof  2 operations were pure point group operations)
 out of a pool of  4 trial point group operations.


The static configuration has the point symmetry S_2 .
 The point group associated with its full space group is C_2h.


Analysis of symmetry for dynamics (positions and initial velocities):
=====================================================================
 Subroutine PRICEL returns:
 Original cell was already a primitive cell.
 

 Routine SETGRP: Setting up the symmetry group for a 
 simple monoclinic supercell.


 Subroutine GETGRP returns: Found  4 space group operations
 (whereof  2 operations were pure point group operations)
 out of a pool of  4 trial point group operations.


The dynamic configuration has the point symmetry S_2 .
 The point group associated with its full space group is C_2h.


 Subroutine INISYM returns: Found  4 space group operations
 (whereof  2 operations are pure point group operations),
 and found     1 'primitive' translations


----------------------------------------------------------------------------------------

                                     Primitive cell                                     

  volume of cell :     485.6659

  direct lattice vectors                    reciprocal lattice vectors
     7.890501000  0.000000000  0.000000000     0.126734665  0.000000000 -0.000000000
    -0.000000000  6.739651610  0.025802022     0.000000000  0.148375622  0.000000000
     0.000000000  0.000000000  9.132623930    -0.000000000 -0.000419199  0.109497556

  length of vectors
     7.890501000  6.739701000  9.132623930     0.126734665  0.148375622  0.109498358

  position of ions in fractional coordinates (direct lattice)
     0.513590000  0.713122000  0.709320000
     0.013590000  0.286878000  0.290680000
     0.486410000  0.286878000  0.290680000
     0.986410000  0.713122000  0.709320000
     0.750000000  0.212593000  0.612313000
     0.250000000  0.787407000  0.387687000
     0.750000000  0.322971000  0.923438000
     0.250000000  0.677029000  0.076562000
     0.051547000  0.765435000  0.228264000
     0.551547000  0.234565000  0.771736000
     0.948453000  0.234565000  0.771736000
     0.448453000  0.765435000  0.228264000
     0.750000000  0.617279000  0.951085000
     0.250000000  0.382721000  0.048915000
     0.750000000  0.450188000  0.479719000
     0.250000000  0.549812000  0.520281000
     0.750000000  0.145020000  0.096401000
     0.250000000  0.854980000  0.903599000
     0.750000000  0.948788000  0.513649000
     0.250000000  0.051212000  0.486351000

  ion indices of the primitive-cell ions
   primitive index   ion index
                 1           1
                 2           2
                 3           3
                 4           4
                 5           5
                 6           6
                 7           7
                 8           8
                 9           9
                10          10
                11          11
                12          12
                13          13
                14          14
                15          15
                16          16
                17          17
                18          18
                19          19
                20          20

----------------------------------------------------------------------------------------



 KPOINTS: pymatgen with grid density = 500 / numbe

Automatic generation of k-mesh.
 Grid dimensions read from file:
 generate k-points for:    2    3    2

 Generating k-lattice:

  Cartesian coordinates                     Fractional coordinates (reciprocal lattice)
     0.063367332  0.000000000 -0.000000000     0.500000000 -0.000000000  0.000000000
     0.000000000  0.049458541  0.000000000     0.000000000  0.333333333  0.000000000
    -0.000000000 -0.000209600  0.054748778     0.000000000 -0.000000000  0.500000000

  Length of vectors
     0.063367332  0.049458541  0.054749179

  Shift w.r.t. Gamma in fractional coordinates (k-lattice)
     0.000000000  0.000000000  0.000000000

 
 Subroutine IBZKPT returns following result:
 ===========================================
 
 Found      8 irreducible k-points:
 
 Following reciprocal coordinates:
            Coordinates               Weight
  0.000000  0.000000  0.000000      1.000000
  0.500000  0.000000  0.000000      1.000000
  0.000000  0.333333  0.000000      2.000000
  0.500000  0.333333  0.000000      2.000000
  0.000000  0.000000  0.500000      1.000000
  0.500000  0.000000  0.500000      1.000000
  0.000000  0.333333  0.500000      2.000000
  0.500000  0.333333  0.500000      2.000000
 
 Following cartesian coordinates:
            Coordinates               Weight
  0.000000  0.000000  0.000000      1.000000
  0.063367  0.000000  0.000000      1.000000
  0.000000  0.049459  0.000000      2.000000
  0.063367  0.049459  0.000000      2.000000
  0.000000 -0.000210  0.054749      1.000000
  0.063367 -0.000210  0.054749      1.000000
  0.000000  0.049249  0.054749      2.000000
  0.063367  0.049249  0.054749      2.000000
 


--------------------------------------------------------------------------------------------------------




 Dimension of arrays:
   k-points           NKPTS =      8   k-points in BZ     NKDIM =      8   number of bands    NBANDS=     96
   number of dos      NEDOS =    301   number of ions     NIONS =     20
   non local maximal  LDIM  =      4   non local SUM 2l+1 LMDIM =      8
   total plane-waves  NPLWV =  69120
   max r-space proj   IRMAX =   1363   max aug-charges    IRDMAX=   4683
   dimension x,y,z NGX =    40 NGY =   36 NGZ =   48
   dimension x,y,z NGXF=    80 NGYF=   72 NGZF=   96
   support grid    NGXF=    80 NGYF=   72 NGZF=   96
   ions per type =               4   4  12
   NGX,Y,Z   is equivalent  to a cutoff of   8.43,  8.88,  8.74 a.u.
   NGXF,Y,Z  is equivalent  to a cutoff of  16.86, 17.76, 17.48 a.u.

 SYSTEM =  unknown system                          
 POSCAR =  Na4 P4 S12                              

 Startparameter for this run:
   NWRITE =      2    write-flag & timer
   PREC   = normal    normal or accurate (medium, high low for compatibility)
   ISTART =      0    job   : 0-new  1-cont  2-samecut
   ICHARG =      2    charge: 1-file 2-atom 10-const
   ISPIN  =      1    spin polarized calculation?
   LNONCOLLINEAR =      F non collinear calculations
   LSORBIT =      F    spin-orbit coupling
   INIWAV =      1    electr: 0-lowe 1-rand  2-diag
   LASPH  =      F    aspherical Exc in radial PAW
 Electronic Relaxation 1
   ENCUT  =  400.0 eV  29.40 Ry    5.42 a.u.  12.87 10.99 14.89*2*pi/ulx,y,z
   ENINI  =  400.0     initial cutoff
   ENAUG  =  368.1 eV  augmentation charge cutoff
   NELM   =     60;   NELMIN=  2; NELMDL= -5     # of ELM steps 
   EDIFF  = 0.1E-04   stopping-criterion for ELM
   LREAL  =      T    real-space projection
   NLSPLINE    = F    spline interpolate recip. space projectors
   LCOMPAT=      F    compatible to vasp.4.4
   GGA_COMPAT  = T    GGA compatible to vasp.4.4-vasp.4.6
   LMAXPAW     = -100 max onsite density
   LMAXMIX     =    2 max onsite mixed and CHGCAR
   VOSKOWN=      0    Vosko Wilk Nusair interpolation
   ROPT   =   -0.00050  -0.00050  -0.00050
 Ionic relaxation
   EDIFFG = -.5E-01   stopping-criterion for IOM
   NSW    =    100    number of steps for IOM
   NBLOCK =      1;   KBLOCK =    100    inner block; outer block 
   IBRION =      2    ionic relax: 0-MD 1-quasi-New 2-CG
   NFREE  =      1    steps in history (QN), initial steepest desc. (CG)
   ISIF   =      3    stress and relaxation
   IWAVPR =     11    prediction:  0-non 1-charg 2-wave 3-comb
   ISYM   =      2    0-nonsym 1-usesym 2-fastsym
   LCORR  =      T    Harris-Foulkes like correction to forces

   POTIM  = 0.5000    time-step for ionic-motion
   TEIN   =    0.0    initial temperature
   TEBEG  =    0.0;   TEEND  =   0.0 temperature during run
   SMASS  =  -3.00    Nose mass-parameter (am)
   estimated Nose-frequenzy (Omega)   =  0.10E-29 period in steps = 0.13E+47 mass=  -0.142E-26a.u.
   SCALEE = 1.0000    scale energy and forces
   NPACO  =    256;   APACO  = 10.0  distance and # of slots for P.C.
   PSTRESS=    0.0 pullay stress

  Mass of Ions in am
   POMASS =  22.99 30.97 32.07
  Ionic Valenz
   ZVAL   =   7.00  5.00  6.00
  Atomic Wigner-Seitz radii
   RWIGS  =  -1.00 -1.00 -1.00
  virtual crystal weights 
   VCA    =   1.00  1.00  1.00
   NELECT =     120.0000    total number of electrons
   NUPDOWN=      -1.0000    fix difference up-down

 DOS related values:
   EMIN   =  10.00;   EMAX   =-10.00  energy-range for DOS
   EFERMI =   0.00
   ISMEAR =     0;   SIGMA  =   0.05  broadening in eV -4-tet -1-fermi 0-gaus

 Electronic relaxation 2 (details)
   IALGO  =     38    algorithm
   LDIAG  =      T    sub-space diagonalisation (order eigenvalues)
   LSUBROT=      F    optimize rotation matrix (better conditioning)
   TURBO    =      0    0=normal 1=particle mesh
   IRESTART =      0    0=no restart 2=restart with 2 vectors
   NREBOOT  =      0    no. of reboots
   NMIN     =      0    reboot dimension
   EREF     =   0.00    reference energy to select bands
   IMIX   =      4    mixing-type and parameters
     AMIX     =   0.40;   BMIX     =  1.00
     AMIX_MAG =   1.60;   BMIX_MAG =  1.00
     AMIN     =   0.10
     WC   =   100.;   INIMIX=   1;  MIXPRE=   1;  MAXMIX= -45

 Intra band minimization:
   WEIMIN = 0.0010     energy-eigenvalue tresh-hold
   EBREAK =  0.26E-07  absolut break condition
   DEPER  =   0.30     relativ break condition  

   TIME   =   0.40     timestep for ELM

  volume/ion in A,a.u.               =      24.28       163.87
  Fermi-wavevector in a.u.,A,eV,Ry     =   1.027281  1.941280 14.358321  1.055307
  Thomas-Fermi vector in A             =   2.161218

 Write flags
   LWAVE        =      F    write WAVECAR
   LDOWNSAMPLE  =      F    k-point downsampling of WAVECAR
   LCHARG       =      F    write CHGCAR
   LVTOT        =      F    write LOCPOT, total local potential
   LVHAR        =      F    write LOCPOT, Hartree potential only
   LELF         =      F    write electronic localiz. function (ELF)
   LORBIT       =      0    0 simple, 1 ext, 2 COOP (PROOUT), +10 PAW based schemes


 Dipole corrections
   LMONO  =      F    monopole corrections only (constant potential shift)
   LDIPOL =      F    correct potential (dipole corrections)
   IDIPOL =      0    1-x, 2-y, 3-z, 4-all directions 
   EPSILON=  1.0000000 bulk dielectric constant

 Exchange correlation treatment:
   GGA     =    --    GGA type
   LEXCH   =     8    internal setting for exchange type
   LIBXC   =     F    Libxc                    
   VOSKOWN =     0    Vosko Wilk Nusair interpolation
   LHFCALC =     F    Hartree Fock is set to
   LHFONE  =     F    Hartree Fock one center treatment
   AEXX    =    0.0000 exact exchange contribution

 Linear response parameters
   LEPSILON=     F    determine dielectric tensor
   LRPA    =     F    only Hartree local field effects (RPA)
   LNABLA  =     F    use nabla operator in PAW spheres
   LVEL    =     F    velocity operator in full k-point grid
   CSHIFT  =0.1000    complex shift for real part using Kramers Kronig
   OMEGAMAX=  -1.0    maximum frequency
   DEG_THRESHOLD= 0.2000000E-02 threshold for treating states as degnerate
   RTIME   =   -0.100 relaxation time in fs
  (WPLASMAI=    0.000 imaginary part of plasma frequency in eV, 0.658/RTIME)
   DFIELD  = 0.0000000 0.0000000 0.0000000 field for delta impulse in time

  Optional k-point grid parameters
   LKPOINTS_OPT  =     F    use optional k-point grid
   KPOINTS_OPT_MODE=     1    mode for optional k-point grid

 Orbital magnetization related:
   ORBITALMAG=     F  switch on orbital magnetization
   LCHIMAG   =     F  perturbation theory with respect to B field
   DQ        =  0.001000  dq finite difference perturbation B field
   LLRAUG    =     F  two centre corrections for induced B field



--------------------------------------------------------------------------------------------------------


 conjugate gradient relaxation of ions
 charge density and potential will be updated during run
 non-spin polarized calculation
 Variant of blocked Davidson
 Davidson routine will perform the subspace rotation
 perform sub-space diagonalisation
    after iterative eigenvector-optimisation
 modified Broyden-mixing scheme, WC =      100.0
 initial mixing is a Kerker type mixing with AMIX =  0.4000 and BMIX =      1.0000
 Hartree-type preconditioning will be used
 using additional bands           36
 real space projection scheme for non local part
 use partial core corrections
 calculate Harris-corrections to forces   (improved forces if not selfconsistent)
 use gradient corrections 
 use of overlap-Matrix (Vanderbilt PP)
 Gauss-broadening in eV      SIGMA  =   0.05


--------------------------------------------------------------------------------------------------------


  energy-cutoff  :      400.00
  volume of cell :      485.67
      direct lattice vectors                 reciprocal lattice vectors
     7.890501000  0.000000000  0.000000000     0.126734665  0.000000000 -0.000000000
    -0.000000000  6.739651610  0.025802022     0.000000000  0.148375622  0.000000000
     0.000000000  0.000000000  9.132623930    -0.000000000 -0.000419199  0.109497556

  length of vectors
     7.890501000  6.739701000  9.132623930     0.126734665  0.148375622  0.109498358



 k-points in units of 2pi/SCALE and weight: pymatgen with grid density = 500 / numbe
   0.00000000  0.00000000  0.00000000       0.083
   0.06336733  0.00000000  0.00000000       0.083
   0.00000000  0.04945854  0.00000000       0.167
   0.06336733  0.04945854  0.00000000       0.167
   0.00000000 -0.00020960  0.05474878       0.083
   0.06336733 -0.00020960  0.05474878       0.083
   0.00000000  0.04924894  0.05474878       0.167
   0.06336733  0.04924894  0.05474878       0.167

 k-points in reciprocal lattice and weights: pymatgen with grid density = 500 / numbe
   0.00000000  0.00000000  0.00000000       0.083
   0.50000000  0.00000000  0.00000000       0.083
   0.00000000  0.33333333  0.00000000       0.167
   0.50000000  0.33333333  0.00000000       0.167
   0.00000000  0.00000000  0.50000000       0.083
   0.50000000  0.00000000  0.50000000       0.083
   0.00000000  0.33333333  0.50000000       0.167
   0.50000000  0.33333333  0.50000000       0.167

 position of ions in fractional coordinates (direct lattice) 
   0.51359000  0.71312200  0.70932000
   0.01359000  0.28687800  0.29068000
   0.48641000  0.28687800  0.29068000
   0.98641000  0.71312200  0.70932000
   0.75000000  0.21259300  0.61231300
   0.25000000  0.78740700  0.38768700
   0.75000000  0.32297100  0.92343800
   0.25000000  0.67702900  0.07656200
   0.05154700  0.76543500  0.22826400
   0.55154700  0.23456500  0.77173600
   0.94845300  0.23456500  0.77173600
   0.44845300  0.76543500  0.22826400
   0.75000000  0.61727900  0.95108500
   0.25000000  0.38272100  0.04891500
   0.75000000  0.45018800  0.47971900
   0.25000000  0.54981200  0.52028100
   0.75000000  0.14502000  0.09640100
   0.25000000  0.85498000  0.90359900
   0.75000000  0.94878800  0.51364900
   0.25000000  0.05121200  0.48635100

 position of ions in cartesian coordinates  (Angst):
   4.05248241  4.80619384  6.49635280
   0.10723191  1.93345777  2.66207316
   3.83801859  1.93345777  2.66207316
   7.78326909  4.80619384  6.49635280
   5.91787575  1.43280275  5.59750969
   1.97262525  5.30684886  3.56091627
   5.91787575  2.17671202  8.44174528
   1.97262525  4.56293959  0.71668067
   0.40673166  5.15876523  2.10439904
   4.35198216  1.58088638  7.05402691
   7.48376934  1.58088638  7.05402691
   3.53851884  5.15876523  2.10439904
   5.91787575  4.16024541  8.70182868
   1.97262525  2.57940620  0.45659728
   5.91787575  3.03411028  4.39270898
   1.97262525  3.70554133  4.76571697
   5.91787575  0.97738428  0.88413589
   1.97262525  5.76226733  8.27429006
   5.91787575  6.39450057  4.71544380
   1.97262525  0.34515104  4.44298215



--------------------------------------------------------------------------------------------------------


 k-point   1 :   0.0000 0.0000 0.0000  plane waves:    8813
 k-point   2 :   0.5000 0.0000 0.0000  plane waves:    8790
 k-point   3 :   0.0000 0.3333 0.0000  plane waves:    8825
 k-point   4 :   0.5000 0.3333 0.0000  plane waves:    8842
 k-point   5 :   0.0000 0.0000 0.5000  plane waves:    8774
 k-point   6 :   0.5000 0.0000 0.5000  plane waves:    8816
 k-point   7 :   0.0000 0.3333 0.5000  plane waves:    8837
 k-point   8 :   0.5000 0.3333 0.5000  plane waves:    8840

 maximum and minimum number of plane-waves per node :      8842     8774

 maximum number of plane-waves:      8842
 maximum index in each direction: 
   IXMAX=   12   IYMAX=   10   IZMAX=   14
   IXMIN=  -13   IYMIN=  -11   IZMIN=  -15


 serial   3D FFT for wavefunctions
 parallel 3D FFT for charge:
    minimum data exchange during FFTs selected (reduces bandwidth)


 total amount of memory used by VASP MPI-rank0    40646. kBytes
=======================================================================

   base      :      30000. kBytes
   nonlr-proj:       2004. kBytes
   fftplans  :        981. kBytes
   grid      :       4135. kBytes
   one-center:         61. kBytes
   wavefun   :       3465. kBytes

     INWAV:  cpu time      0.0000: real time      0.0002
 Broyden mixing: mesh for mixing (old mesh)
   NGX = 25   NGY = 21   NGZ = 29
  (NGX  = 80   NGY  = 72   NGZ  = 96)
  gives a total of  15225 points

 initial charge density was supplied:
 charge density of overlapping atoms calculated
 number of electron     120.0000000 magnetization 
 keeping initial charge density in first step


--------------------------------------------------------------------------------------------------------


 Maximum index for non-local projection operator         1271
 Maximum index for augmentation-charges          298 (set IRDMAX)


--------------------------------------------------------------------------------------------------------


 First call to EWALD:  gamma=   0.225
 Maximum number of real-space cells 3x 3x 2
 Maximum number of reciprocal cells 3x 2x 3

    FEWALD:  cpu time      0.0007: real time      0.0008


--------------------------------------- Iteration      1(   1)  ---------------------------------------


    POTLOK:  cpu time      0.0186: real time      0.0189
    SETDIJ:  cpu time      0.0019: real time      0.0020
     EDDAV:  cpu time      0.7751: real time      0.7753
       DOS:  cpu time      0.0006: real time      0.0007
    --------------------------------------------
      LOOP:  cpu time      0.7961: real time      0.7969

 eigenvalue-minimisations  :  1536
 total energy-change (2. order) : 0.7453652E+03  (-0.4599817E+04)
 number of electron     120.0000000 magnetization 
 augmentation part      120.0000000 magnetization 

 Free energy of the ion-electron system (eV)
  ---------------------------------------------------
  alpha Z        PSCENC =       137.45956641
  Ewald energy   TEWEN  =     -4649.39104897
  -Hartree energ DENC   =     -1736.52973009
  -exchange      EXHF   =         0.00000000
  -V(xc)+E(xc)   XCENC  =       259.15412118
  PAW double counting   =      5178.24113804    -5461.60280872
  entropy T*S    EENTRO =        -0.01241178
  eigenvalues    EBANDS =       -72.07168533
  atomic energy  EATOM  =      7090.11802409
  Solvation  Ediel_sol  =         0.00000000
  ---------------------------------------------------
  free energy    TOTEN  =       745.36516484 eV

  energy without entropy =      745.37757662  energy(sigma->0) =      745.37137073


--------------------------------------------------------------------------------------------------------




--------------------------------------- Iteration      1(   2)  ---------------------------------------


     EDDAV:  cpu time      1.0011: real time      1.0024
       DOS:  cpu time      0.0002: real time      0.0003
    --------------------------------------------
      LOOP:  cpu time      1.0013: real time      1.0026

 eigenvalue-minimisations  :  1920
 total energy-change (2. order) :-0.7774930E+03  (-0.7357744E+03)
 number of electron     120.0000000 magnetization 
 augmentation part      120.0000000 magnetization 

 Free energy of the ion-electron system (eV)
  ---------------------------------------------------
  alpha Z        PSCENC =       137.45956641
  Ewald energy   TEWEN  =     -4649.39104897
  -Hartree energ DENC   =     -1736.52973009
  -exchange      EXHF   =         0.00000000
  -V(xc)+E(xc)   XCENC  =       259.15412118
  PAW double counting   =      5178.24113804    -5461.60280872
  entropy T*S    EENTRO =        -0.00000000
  eigenvalues    EBANDS =      -849.57711604
  atomic energy  EATOM  =      7090.11802409
  Solvation  Ediel_sol  =         0.00000000
  ---------------------------------------------------
  free energy    TOTEN  =       -32.12785409 eV

  energy without entropy =      -32.12785409  energy(sigma->0) =      -32.12785409


--------------------------------------------------------------------------------------------------------




--------------------------------------- Iteration      1(   3)  ---------------------------------------


     EDDAV:  cpu time      1.1775: real time      1.1791
       DOS:  cpu time      0.0002: real time      0.0003
    --------------------------------------------
      LOOP:  cpu time      1.1777: real time      1.1795

 eigenvalue-minimisations  :  2080
 total energy-change (2. order) :-0.5787288E+02  (-0.5743836E+02)
 number of electron     120.0000000 magnetization 
 augmentation part      120.0000000 magnetization 

 Free energy of the ion-electron system (eV)
  ---------------------------------------------------
  alpha Z        PSCENC =       137.45956641
  Ewald energy   TEWEN  =     -4649.39104897
  -Hartree energ DENC   =     -1736.52973009
  -exchange      EXHF   =         0.00000000
  -V(xc)+E(xc)   XCENC  =       259.15412118
  PAW double counting   =      5178.24113804    -5461.60280872
  entropy T*S    EENTRO =        -0.00000000
  eigenvalues    EBANDS =      -907.44999978
  atomic energy  EATOM  =      7090.11802409
  Solvation  Ediel_sol  =         0.00000000
  ---------------------------------------------------
  free energy    TOTEN  =       -90.00073784 eV

  energy without entropy =      -90.00073784  energy(sigma->0) =      -90.00073784


--------------------------------------------------------------------------------------------------------




--------------------------------------- Iteration      1(   4)  ---------------------------------------


     EDDAV:  cpu time      1.0434: real time      1.0448
       DOS:  cpu time      0.0002: real time      0.0003
    --------------------------------------------
      LOOP:  cpu time      1.0436: real time      1.0452

 eigenvalue-minimisations  :  1920
 total energy-change (2. order) :-0.1149392E+01  (-0.1148261E+01)
 number of electron     120.0000000 magnetization 
 augmentation part      120.0000000 magnetization 

 Free energy of the ion-electron system (eV)
  ---------------------------------------------------
  alpha Z        PSCENC =       137.45956641
  Ewald energy   TEWEN  =     -4649.39104897
  -Hartree energ DENC   =     -1736.52973009
  -exchange      EXHF   =         0.00000000
  -V(xc)+E(xc)   XCENC  =       259.15412118
  PAW double counting   =      5178.24113804    -5461.60280872
  entropy T*S    EENTRO =        -0.00000000
  eigenvalues    EBANDS =      -908.59939138
  atomic energy  EATOM  =      7090.11802409
  Solvation  Ediel_sol  =         0.00000000
  ---------------------------------------------------
  free energy    TOTEN  =       -91.15012944 eV

  energy without entropy =      -91.15012944  energy(sigma->0) =      -91.15012944


--------------------------------------------------------------------------------------------------------




--------------------------------------- Iteration      1(   5)  ---------------------------------------


     EDDAV:  cpu time      1.3340: real time      1.3370
       DOS:  cpu time      0.0003: real time      0.0004
    CHARGE:  cpu time      0.0270: real time      0.0272
    MIXING:  cpu time      0.0010: real time      0.0012
    --------------------------------------------
      LOOP:  cpu time      1.3623: real time      1.3657

 eigenvalue-minimisations  :  2304
 total energy-change (2. order) :-0.4080187E-01  (-0.4079960E-01)
 number of electron     120.0000193 magnetization 
 augmentation part        5.6933671 magnetization 

 Broyden mixing:
  rms(total) = 0.31937E+01    rms(broyden)= 0.31936E+01
  rms(prec ) = 0.33602E+01
  weight for this iteration     100.00

 Free energy of the ion-electron system (eV)
  ---------------------------------------------------
  alpha Z        PSCENC =       137.45956641
  Ewald energy   TEWEN  =     -4649.39104897
  -Hartree energ DENC   =     -1736.52973009
  -exchange      EXHF   =         0.00000000
  -V(xc)+E(xc)   XCENC  =       259.15412118
  PAW double counting   =      5178.24113804    -5461.60280872
  entropy T*S    EENTRO =        -0.00000000
  eigenvalues    EBANDS =      -908.64019325
  atomic energy  EATOM  =      7090.11802409
  Solvation  Ediel_sol  =         0.00000000
  ---------------------------------------------------
  free energy    TOTEN  =       -91.19093131 eV

  energy without entropy =      -91.19093131  energy(sigma->0) =      -91.19093131


--------------------------------------------------------------------------------------------------------




--------------------------------------- Iteration      1(   6)  ---------------------------------------


    POTLOK:  cpu time      0.0136: real time      0.0138
    SETDIJ:  cpu time      0.0014: real time      0.0014
     EDDAV:  cpu time      1.0594: real time      1.0616
       DOS:  cpu time      0.0002: real time      0.0004
    CHARGE:  cpu time      0.0259: real time      0.0259
    MIXING:  cpu time      0.0007: real time      0.0007
    --------------------------------------------
      LOOP:  cpu time      1.1012: real time      1.1037

 eigenvalue-minimisations  :  1952
 total energy-change (2. order) : 0.3042880E+01  (-0.4568771E+00)
 number of electron     120.0000191 magnetization 
 augmentation part        5.8369578 magnetization 

 Broyden mixing:
  rms(total) = 0.20448E+01    rms(broyden)= 0.20448E+01
  rms(prec ) = 0.20900E+01
  weight for this iteration     100.00

 eigenvalues of (default mixing * dielectric matrix)
  average eigenvalue GAMMA=   2.5612
  2.5612

 Free energy of the ion-electron system (eV)
  ---------------------------------------------------
  alpha Z        PSCENC =       137.45956641
  Ewald energy   TEWEN  =     -4649.39104897
  -Hartree energ DENC   =     -1759.32315589
  -exchange      EXHF   =         0.00000000
  -V(xc)+E(xc)   XCENC  =       261.96528453
  PAW double counting   =      7468.87058040    -7752.59667930
  entropy T*S    EENTRO =        -0.00000000
  eigenvalues    EBANDS =      -885.25062283
  atomic energy  EATOM  =      7090.11802409
  Solvation  Ediel_sol  =         0.00000000
  ---------------------------------------------------
  free energy    TOTEN  =       -88.14805157 eV

  energy without entropy =      -88.14805157  energy(sigma->0) =      -88.14805157


--------------------------------------------------------------------------------------------------------




--------------------------------------- Iteration      1(   7)  ---------------------------------------


    POTLOK:  cpu time      0.0136: real time      0.0137
    SETDIJ:  cpu time      0.0013: real time      0.0013
     EDDAV:  cpu time      1.1813: real time      1.1819
       DOS:  cpu time      0.0002: real time      0.0004
    CHARGE:  cpu time      0.0259: real time      0.0259
    MIXING:  cpu time      0.0005: real time      0.0005
    --------------------------------------------
      LOOP:  cpu time      1.2228: real time      1.2237

 eigenvalue-minimisations  :  2112
 total energy-change (2. order) : 0.2148554E+00  (-0.3887286E+00)
 number of electron     120.0000189 magnetization 
 augmentation part        5.9987603 magnetization 

 Broyden mixing:
  rms(total) = 0.37098E+00    rms(broyden)= 0.37097E+00
  rms(prec ) = 0.41095E+00
  weight for this iteration     100.00

 eigenvalues of (default mixing * dielectric matrix)
  average eigenvalue GAMMA=   1.7102
  1.1842  2.2361

 Free energy of the ion-electron system (eV)
  ---------------------------------------------------
  alpha Z        PSCENC =       137.45956641
  Ewald energy   TEWEN  =     -4649.39104897
  -Hartree energ DENC   =     -1784.21171532
  -exchange      EXHF   =         0.00000000
  -V(xc)+E(xc)   XCENC  =       265.09720525
  PAW double counting   =     12257.13361612   -12541.84174824
  entropy T*S    EENTRO =        -0.00000000
  eigenvalues    EBANDS =      -862.29709555
  atomic energy  EATOM  =      7090.11802409
  Solvation  Ediel_sol  =         0.00000000
  ---------------------------------------------------
  free energy    TOTEN  =       -87.93319622 eV

  energy without entropy =      -87.93319622  energy(sigma->0) =      -87.93319622


--------------------------------------------------------------------------------------------------------




--------------------------------------- Iteration      1(   8)  ---------------------------------------


    POTLOK:  cpu time      0.0135: real time      0.0137
    SETDIJ:  cpu time      0.0013: real time      0.0013
     EDDAV:  cpu time      1.0034: real time      1.0045
       DOS:  cpu time      0.0003: real time      0.0004
    CHARGE:  cpu time      0.0263: real time      0.0263
    MIXING:  cpu time      0.0006: real time      0.0006
    --------------------------------------------
      LOOP:  cpu time      1.0454: real time      1.0469

 eigenvalue-minimisations  :  1888
 total energy-change (2. order) : 0.7176677E-01  (-0.4764544E-01)
 number of electron     120.0000190 magnetization 
 augmentation part        5.9552578 magnetization 

 Broyden mixing:
  rms(total) = 0.25712E+00    rms(broyden)= 0.25712E+00
  rms(prec ) = 0.26377E+00
  weight for this iteration     100.00

 eigenvalues of (default mixing * dielectric matrix)
  average eigenvalue GAMMA=   1.6001
  2.5055  0.8823  1.4125

 Free energy of the ion-electron system (eV)
  ---------------------------------------------------
  alpha Z        PSCENC =       137.45956641
  Ewald energy   TEWEN  =     -4649.39104897
  -Hartree energ DENC   =     -1778.69204108
  -exchange      EXHF   =         0.00000000
  -V(xc)+E(xc)   XCENC  =       264.82078606
  PAW double counting   =     12377.88726464   -12662.82823466
  entropy T*S    EENTRO =        -0.00000000
  eigenvalues    EBANDS =      -867.23574594
  atomic energy  EATOM  =      7090.11802409
  Solvation  Ediel_sol  =         0.00000000
  ---------------------------------------------------
  free energy    TOTEN  =       -87.86142945 eV

  energy without entropy =      -87.86142945  energy(sigma->0) =      -87.86142945


--------------------------------------------------------------------------------------------------------




--------------------------------------- Iteration      1(   9)  ---------------------------------------


    POTLOK:  cpu time      0.0139: real time      0.0145
    SETDIJ:  cpu time      0.0013: real time      0.0013
     EDDAV:  cpu time      1.1365: real time      1.1373
       DOS:  cpu time      0.0002: real time      0.0004
    CHARGE:  cpu time      0.0259: real time      0.0259
    MIXING:  cpu time      0.0005: real time      0.0005
    --------------------------------------------
      LOOP:  cpu time      1.1784: real time      1.1799

 eigenvalue-minimisations  :  2048
 total energy-change (2. order) :-0.3133624E-02  (-0.6253352E-02)
 number of electron     120.0000190 magnetization 
 augmentation part        5.9392381 magnetization 

 Broyden mixing:
  rms(total) = 0.75449E-01    rms(broyden)= 0.75448E-01
  rms(prec ) = 0.77982E-01
  weight for this iteration     100.00

 eigenvalues of (default mixing * dielectric matrix)
  average eigenvalue GAMMA=   1.5157
  2.4063  1.3583  1.3583  0.9399

 Free energy of the ion-electron system (eV)
  ---------------------------------------------------
  alpha Z        PSCENC =       137.45956641
  Ewald energy   TEWEN  =     -4649.39104897
  -Hartree energ DENC   =     -1778.20206659
  -exchange      EXHF   =         0.00000000
  -V(xc)+E(xc)   XCENC  =       264.99075011
  PAW double counting   =     12765.72343128   -13050.79384867
  entropy T*S    EENTRO =        -0.00000000
  eigenvalues    EBANDS =      -867.76937073
  atomic energy  EATOM  =      7090.11802409
  Solvation  Ediel_sol  =         0.00000000
  ---------------------------------------------------
  free energy    TOTEN  =       -87.86456308 eV

  energy without entropy =      -87.86456308  energy(sigma->0) =      -87.86456308


--------------------------------------------------------------------------------------------------------




--------------------------------------- Iteration      1(  10)  ---------------------------------------


    POTLOK:  cpu time      0.0135: real time      0.0137
    SETDIJ:  cpu time      0.0013: real time      0.0013
     EDDAV:  cpu time      1.1745: real time      1.1750
       DOS:  cpu time      0.0002: real time      0.0004
    CHARGE:  cpu time      0.0259: real time      0.0259
    MIXING:  cpu time      0.0005: real time      0.0005
    --------------------------------------------
      LOOP:  cpu time      1.2160: real time      1.2169

 eigenvalue-minimisations  :  2176
 total energy-change (2. order) :-0.4957109E-03  (-0.5093074E-03)
 number of electron     120.0000190 magnetization 
 augmentation part        5.9412916 magnetization 

 Broyden mixing:
  rms(total) = 0.40561E-01    rms(broyden)= 0.40561E-01
  rms(prec ) = 0.41909E-01
  weight for this iteration     100.00

 eigenvalues of (default mixing * dielectric matrix)
  average eigenvalue GAMMA=   1.6742
  2.5602  2.5602  1.1412  1.0547  1.0547

 Free energy of the ion-electron system (eV)
  ---------------------------------------------------
  alpha Z        PSCENC =       137.45956641
  Ewald energy   TEWEN  =     -4649.39104897
  -Hartree energ DENC   =     -1778.34950511
  -exchange      EXHF   =         0.00000000
  -V(xc)+E(xc)   XCENC  =       265.00421614
  PAW double counting   =     12632.65884203   -12917.72226544
  entropy T*S    EENTRO =        -0.00000000
  eigenvalues    EBANDS =      -867.64288794
  atomic energy  EATOM  =      7090.11802409
  Solvation  Ediel_sol  =         0.00000000
  ---------------------------------------------------
  free energy    TOTEN  =       -87.86505879 eV

  energy without entropy =      -87.86505879  energy(sigma->0) =      -87.86505879


--------------------------------------------------------------------------------------------------------




--------------------------------------- Iteration      1(  11)  ---------------------------------------


    POTLOK:  cpu time      0.0136: real time      0.0138
    SETDIJ:  cpu time      0.0013: real time      0.0013
     EDDAV:  cpu time      1.1278: real time      1.1284
       DOS:  cpu time      0.0002: real time      0.0004
    CHARGE:  cpu time      0.0262: real time      0.0262
    MIXING:  cpu time      0.0005: real time      0.0005
    --------------------------------------------
      LOOP:  cpu time      1.1696: real time      1.1706

 eigenvalue-minimisations  :  2048
 total energy-change (2. order) :-0.8561283E-03  (-0.1682901E-03)
 number of electron     120.0000190 magnetization 
 augmentation part        5.9414607 magnetization 

 Broyden mixing:
  rms(total) = 0.87289E-02    rms(broyden)= 0.87288E-02
  rms(prec ) = 0.95277E-02
  weight for this iteration     100.00

 eigenvalues of (default mixing * dielectric matrix)
  average eigenvalue GAMMA=   1.5292
  2.3902  2.3902  1.2886  1.1065  1.1065  0.8935

 Free energy of the ion-electron system (eV)
  ---------------------------------------------------
  alpha Z        PSCENC =       137.45956641
  Ewald energy   TEWEN  =     -4649.39104897
  -Hartree energ DENC   =     -1778.41591356
  -exchange      EXHF   =         0.00000000
  -V(xc)+E(xc)   XCENC  =       265.03824206
  PAW double counting   =     12592.21467697   -12877.31133211
  entropy T*S    EENTRO =        -0.00000000
  eigenvalues    EBANDS =      -867.57812980
  atomic energy  EATOM  =      7090.11802409
  Solvation  Ediel_sol  =         0.00000000
  ---------------------------------------------------
  free energy    TOTEN  =       -87.86591491 eV

  energy without entropy =      -87.86591491  energy(sigma->0) =      -87.86591491


--------------------------------------------------------------------------------------------------------




--------------------------------------- Iteration      1(  12)  ---------------------------------------


    POTLOK:  cpu time      0.0135: real time      0.0137
    SETDIJ:  cpu time      0.0013: real time      0.0013
     EDDAV:  cpu time      1.0889: real time      1.0958
       DOS:  cpu time      0.0003: real time      0.0006
    CHARGE:  cpu time      0.0258: real time      0.0275
    MIXING:  cpu time      0.0006: real time      0.0006
    --------------------------------------------
      LOOP:  cpu time      1.1305: real time      1.1396

 eigenvalue-minimisations  :  2016
 total energy-change (2. order) : 0.2498948E-04  (-0.9175378E-05)
 number of electron     120.0000190 magnetization 
 augmentation part        5.9417964 magnetization 

 Broyden mixing:
  rms(total) = 0.45253E-02    rms(broyden)= 0.45253E-02
  rms(prec ) = 0.50780E-02
  weight for this iteration     100.00

 eigenvalues of (default mixing * dielectric matrix)
  average eigenvalue GAMMA=   1.5245
  2.3887  2.3887  1.6615  1.2105  1.2105  0.9058  0.9058

 Free energy of the ion-electron system (eV)
  ---------------------------------------------------
  alpha Z        PSCENC =       137.45956641
  Ewald energy   TEWEN  =     -4649.39104897
  -Hartree energ DENC   =     -1778.49711990
  -exchange      EXHF   =         0.00000000
  -V(xc)+E(xc)   XCENC  =       265.04211349
  PAW double counting   =     12587.03428854   -12872.13154298
  entropy T*S    EENTRO =        -0.00000000
  eigenvalues    EBANDS =      -867.50017060
  atomic energy  EATOM  =      7090.11802409
  Solvation  Ediel_sol  =         0.00000000
  ---------------------------------------------------
  free energy    TOTEN  =       -87.86588992 eV

  energy without entropy =      -87.86588992  energy(sigma->0) =      -87.86588992


--------------------------------------------------------------------------------------------------------




--------------------------------------- Iteration      1(  13)  ---------------------------------------


    POTLOK:  cpu time      0.0135: real time      0.0137
    SETDIJ:  cpu time      0.0015: real time      0.0015
     EDDAV:  cpu time      1.1330: real time      1.2138
       DOS:  cpu time      0.0002: real time      0.0004
    CHARGE:  cpu time      0.0260: real time      0.0260
    MIXING:  cpu time      0.0006: real time      0.0006
    --------------------------------------------
      LOOP:  cpu time      1.1748: real time      1.2560

 eigenvalue-minimisations  :  2048
 total energy-change (2. order) :-0.4657850E-04  (-0.6685029E-05)
 number of electron     120.0000190 magnetization 
 augmentation part        5.9421551 magnetization 

 Broyden mixing:
  rms(total) = 0.21268E-02    rms(broyden)= 0.21268E-02
  rms(prec ) = 0.23723E-02
  weight for this iteration     100.00

 eigenvalues of (default mixing * dielectric matrix)
  average eigenvalue GAMMA=   1.5417
  2.6607  2.4138  1.6095  1.6095  1.0713  1.0713  0.8509  1.0468

 Free energy of the ion-electron system (eV)
  ---------------------------------------------------
  alpha Z        PSCENC =       137.45956641
  Ewald energy   TEWEN  =     -4649.39104897
  -Hartree energ DENC   =     -1778.56447428
  -exchange      EXHF   =         0.00000000
  -V(xc)+E(xc)   XCENC  =       265.05122643
  PAW double counting   =     12582.00894539   -12867.11277393
  entropy T*S    EENTRO =        -0.00000000
  eigenvalues    EBANDS =      -867.43540165
  atomic energy  EATOM  =      7090.11802409
  Solvation  Ediel_sol  =         0.00000000
  ---------------------------------------------------
  free energy    TOTEN  =       -87.86593650 eV

  energy without entropy =      -87.86593650  energy(sigma->0) =      -87.86593650


--------------------------------------------------------------------------------------------------------




--------------------------------------- Iteration      1(  14)  ---------------------------------------


    POTLOK:  cpu time      0.0141: real time      0.0143
    SETDIJ:  cpu time      0.0014: real time      0.0014
     EDDAV:  cpu time      0.9908: real time      0.9914
       DOS:  cpu time      0.0002: real time      0.0004
    CHARGE:  cpu time      0.0260: real time      0.0260
    MIXING:  cpu time      0.0007: real time      0.0007
    --------------------------------------------
      LOOP:  cpu time      1.0331: real time      1.0341

 eigenvalue-minimisations  :  1760
 total energy-change (2. order) :-0.1010188E-04  (-0.1115862E-05)
 number of electron     120.0000190 magnetization 
 augmentation part        5.9420810 magnetization 

 Broyden mixing:
  rms(total) = 0.22115E-02    rms(broyden)= 0.22115E-02
  rms(prec ) = 0.22501E-02
  weight for this iteration     100.00

 eigenvalues of (default mixing * dielectric matrix)
  average eigenvalue GAMMA=   1.5482
  2.5980  2.2925  2.2925  1.2309  1.2309  1.3582  1.0449  0.9427  0.9427

 Free energy of the ion-electron system (eV)
  ---------------------------------------------------
  alpha Z        PSCENC =       137.45956641
  Ewald energy   TEWEN  =     -4649.39104897
  -Hartree energ DENC   =     -1778.57275975
  -exchange      EXHF   =         0.00000000
  -V(xc)+E(xc)   XCENC  =       265.05569224
  PAW double counting   =     12584.37516738   -12869.48284886
  entropy T*S    EENTRO =        -0.00000000
  eigenvalues    EBANDS =      -867.42773914
  atomic energy  EATOM  =      7090.11802409
  Solvation  Ediel_sol  =         0.00000000
  ---------------------------------------------------
  free energy    TOTEN  =       -87.86594661 eV

  energy without entropy =      -87.86594661  energy(sigma->0) =      -87.86594661


--------------------------------------------------------------------------------------------------------




--------------------------------------- Iteration      1(  15)  ---------------------------------------


    POTLOK:  cpu time      0.0137: real time      0.0139
    SETDIJ:  cpu time      0.0013: real time      0.0013
     EDDAV:  cpu time      0.8785: real time      0.8793
       DOS:  cpu time      0.0002: real time      0.0004
    --------------------------------------------
      LOOP:  cpu time      0.8937: real time      0.8949

 eigenvalue-minimisations  :  1504
 total energy-change (2. order) :-0.1447908E-05  (-0.1906156E-06)
 number of electron     120.0000190 magnetization 
 augmentation part        5.9420810 magnetization 

 Free energy of the ion-electron system (eV)
  ---------------------------------------------------
  alpha Z        PSCENC =       137.45956641
  Ewald energy   TEWEN  =     -4649.39104897
  -Hartree energ DENC   =     -1778.58343909
  -exchange      EXHF   =         0.00000000
  -V(xc)+E(xc)   XCENC  =       265.05655036
  PAW double counting   =     12583.71580080   -12868.82399662
  entropy T*S    EENTRO =        -0.00000000
  eigenvalues    EBANDS =      -867.41740503
  atomic energy  EATOM  =      7090.11802409
  Solvation  Ediel_sol  =         0.00000000
  ---------------------------------------------------
  free energy    TOTEN  =       -87.86594805 eV

  energy without entropy =      -87.86594805  energy(sigma->0) =      -87.86594805


--------------------------------------------------------------------------------------------------------




 average (electrostatic) potential at core
  the test charge radii are     0.9254  0.9587  0.9698
  (the norm of the test charge is              1.0000)
       1 -46.7627       2 -46.7627       3 -46.7627       4 -46.7627       5 -88.2197
       6 -88.2197       7 -88.1750       8 -88.1750       9 -89.6201      10 -89.6201
      11 -89.6201      12 -89.6201      13 -88.4992      14 -88.4992      15 -88.6030
      16 -88.6030      17 -88.4636      18 -88.4636      19 -88.5925      20 -88.5925



 E-fermi :   1.9896     XC(G=0):  -8.2044     alpha+bet : -8.3123

 Fermi energy:         1.9896105378

 k-point     1 :       0.0000    0.0000    0.0000
  band No.  band energies     occupation 
      1     -20.9677      2.00000
      2     -20.9673      2.00000
      3     -20.9655      2.00000
      4     -20.9653      2.00000
      5     -20.9524      2.00000
      6     -20.9520      2.00000
      7     -20.9432      2.00000
      8     -20.9422      2.00000
      9     -20.9412      2.00000
     10     -20.9407      2.00000
     11     -20.9376      2.00000
     12     -20.9376      2.00000
     13     -14.0856      2.00000
     14     -14.0089      2.00000
     15     -12.4119      2.00000
     16     -12.3069      2.00000
     17     -10.9021      2.00000
     18     -10.8797      2.00000
     19     -10.7549      2.00000
     20     -10.6580      2.00000
     21     -10.1904      2.00000
     22     -10.1056      2.00000
     23     -10.0669      2.00000
     24     -10.0594      2.00000
     25      -6.8070      2.00000
     26      -6.6555      2.00000
     27      -5.8951      2.00000
     28      -5.2192      2.00000
     29      -4.0746      2.00000
     30      -3.7885      2.00000
     31      -3.7482      2.00000
     32      -3.2380      2.00000
     33      -2.9946      2.00000
     34      -2.7929      2.00000
     35      -2.5074      2.00000
     36      -2.4347      2.00000
     37      -2.0973      2.00000
     38      -2.0027      2.00000
     39      -1.5233      2.00000
     40      -1.5085      2.00000
     41      -0.6546      2.00000
     42      -0.5367      2.00000
     43      -0.4514      2.00000
     44      -0.1304      2.00000
     45      -0.0370      2.00000
     46       0.0177      2.00000
     47       0.3776      2.00000
     48       0.4902      2.00000
     49       0.5295      2.00000
     50       0.5941      2.00000
     51       0.6764      2.00000
     52       0.9750      2.00000
     53       0.9760      2.00000
     54       1.0413      2.00000
     55       1.1714      2.00000
     56       1.1780      2.00000
     57       1.4092      2.00000
     58       1.5956      2.00000
     59       1.6489      2.00000
     60       1.6944      2.00000
     61       3.7242      0.00000
     62       4.1847      0.00000
     63       4.4641      0.00000
     64       4.6128      0.00000
     65       5.1215      0.00000
     66       5.1602      0.00000
     67       5.7485      0.00000
     68       5.8025      0.00000
     69       5.8409      0.00000
     70       5.8931      0.00000
     71       6.1086      0.00000
     72       6.5568      0.00000
     73       6.5765      0.00000
     74       6.6255      0.00000
     75       7.0937      0.00000
     76       7.3015      0.00000
     77       7.3135      0.00000
     78       7.6662      0.00000
     79       7.7667      0.00000
     80       8.0051      0.00000
     81       8.3650      0.00000
     82       8.5408      0.00000
     83       8.7048      0.00000
     84       8.9875      0.00000
     85       9.0058      0.00000
     86       9.0726      0.00000
     87       9.1693      0.00000
     88       9.4347      0.00000
     89       9.5220      0.00000
     90       9.5250      0.00000
     91       9.7407      0.00000
     92       9.8540      0.00000
     93      10.1864      0.00000
     94      10.2916      0.00000
     95      10.3970      0.00000
     96      10.5119      0.00000

 k-point     2 :       0.5000    0.0000    0.0000
  band No.  band energies     occupation 
      1     -20.9670      2.00000
      2     -20.9670      2.00000
      3     -20.9658      2.00000
      4     -20.9658      2.00000
      5     -20.9483      2.00000
      6     -20.9483      2.00000
      7     -20.9431      2.00000
      8     -20.9431      2.00000
      9     -20.9416      2.00000
     10     -20.9416      2.00000
     11     -20.9404      2.00000
     12     -20.9404      2.00000
     13     -14.0460      2.00000
     14     -14.0460      2.00000
     15     -12.3600      2.00000
     16     -12.3600      2.00000
     17     -10.9383      2.00000
     18     -10.9383      2.00000
     19     -10.6641      2.00000
     20     -10.6641      2.00000
     21     -10.1399      2.00000
     22     -10.1399      2.00000
     23     -10.0718      2.00000
     24     -10.0718      2.00000
     25      -6.7371      2.00000
     26      -6.7371      2.00000
     27      -5.5574      2.00000
     28      -5.5574      2.00000
     29      -3.9149      2.00000
     30      -3.9149      2.00000
     31      -3.4925      2.00000
     32      -3.4925      2.00000
     33      -2.8526      2.00000
     34      -2.8526      2.00000
     35      -2.5143      2.00000
     36      -2.5143      2.00000
     37      -2.0591      2.00000
     38      -2.0591      2.00000
     39      -1.5464      2.00000
     40      -1.5464      2.00000
     41      -0.4284      2.00000
     42      -0.4284      2.00000
     43      -0.2998      2.00000
     44      -0.2998      2.00000
     45       0.0953      2.00000
     46       0.0953      2.00000
     47       0.2365      2.00000
     48       0.2365      2.00000
     49       0.5861      2.00000
     50       0.5861      2.00000
     51       0.8135      2.00000
     52       0.8135      2.00000
     53       0.8444      2.00000
     54       0.8444      2.00000
     55       1.1630      2.00000
     56       1.1630      2.00000
     57       1.4000      2.00000
     58       1.4000      2.00000
     59       1.6560      2.00000
     60       1.6560      2.00000
     61       4.0192      0.00000
     62       4.0192      0.00000
     63       4.7167      0.00000
     64       4.7167      0.00000
     65       4.9263      0.00000
     66       4.9263      0.00000
     67       5.7238      0.00000
     68       5.7238      0.00000
     69       6.1604      0.00000
     70       6.1604      0.00000
     71       6.5657      0.00000
     72       6.5657      0.00000
     73       6.9303      0.00000
     74       6.9303      0.00000
     75       7.2166      0.00000
     76       7.2166      0.00000
     77       7.3564      0.00000
     78       7.3564      0.00000
     79       7.9853      0.00000
     80       7.9853      0.00000
     81       8.5655      0.00000
     82       8.5655      0.00000
     83       8.7008      0.00000
     84       8.7008      0.00000
     85       9.0598      0.00000
     86       9.0598      0.00000
     87       9.2664      0.00000
     88       9.2664      0.00000
     89       9.6030      0.00000
     90       9.6030      0.00000
     91       9.9371      0.00000
     92       9.9371      0.00000
     93      10.0490      0.00000
     94      10.0490      0.00000
     95      10.1769      0.00000
     96      10.1769      0.00000

 k-point     3 :       0.0000    0.3333    0.0000
  band No.  band energies     occupation 
      1     -20.9677      2.00000
      2     -20.9675      2.00000
      3     -20.9656      2.00000
      4     -20.9655      2.00000
      5     -20.9523      2.00000
      6     -20.9521      2.00000
      7     -20.9430      2.00000
      8     -20.9423      2.00000
      9     -20.9412      2.00000
     10     -20.9407      2.00000
     11     -20.9376      2.00000
     12     -20.9376      2.00000
     13     -14.0595      2.00000
     14     -14.0202      2.00000
     15     -12.3672      2.00000
     16     -12.3085      2.00000
     17     -10.8952      2.00000
     18     -10.8839      2.00000
     19     -10.6958      2.00000
     20     -10.6424      2.00000
     21     -10.2934      2.00000
     22     -10.2395      2.00000
     23     -10.1486      2.00000
     24     -10.1004      2.00000
     25      -6.6256      2.00000
     26      -6.5470      2.00000
     27      -5.6143      2.00000
     28      -5.2466      2.00000
     29      -4.0013      2.00000
     30      -3.8306      2.00000
     31      -3.6443      2.00000
     32      -3.2110      2.00000
     33      -3.0233      2.00000
     34      -2.7422      2.00000
     35      -2.5117      2.00000
     36      -2.3365      2.00000
     37      -2.1432      2.00000
     38      -2.0903      2.00000
     39      -1.6255      2.00000
     40      -1.3844      2.00000
     41      -0.7591      2.00000
     42      -0.6348      2.00000
     43      -0.5662      2.00000
     44      -0.3081      2.00000
     45      -0.0778      2.00000
     46       0.0635      2.00000
     47       0.1700      2.00000
     48       0.4875      2.00000
     49       0.5323      2.00000
     50       0.5505      2.00000
     51       0.7024      2.00000
     52       0.7510      2.00000
     53       0.8554      2.00000
     54       0.9543      2.00000
     55       1.0191      2.00000
     56       1.1420      2.00000
     57       1.3041      2.00000
     58       1.4217      2.00000
     59       1.5451      2.00000
     60       1.5785      2.00000
     61       3.8067      0.00000
     62       4.0803      0.00000
     63       4.8123      0.00000
     64       4.9761      0.00000
     65       5.2299      0.00000
     66       5.2410      0.00000
     67       5.7519      0.00000
     68       5.8152      0.00000
     69       6.2143      0.00000
     70       6.2622      0.00000
     71       6.3656      0.00000
     72       6.5542      0.00000
     73       6.8808      0.00000
     74       6.9844      0.00000
     75       7.2851      0.00000
     76       7.4282      0.00000
     77       7.6182      0.00000
     78       7.7448      0.00000
     79       7.9874      0.00000
     80       8.2157      0.00000
     81       8.5036      0.00000
     82       8.5350      0.00000
     83       8.5768      0.00000
     84       8.8922      0.00000
     85       8.9363      0.00000
     86       9.1525      0.00000
     87       9.2161      0.00000
     88       9.3007      0.00000
     89       9.4590      0.00000
     90       9.5242      0.00000
     91       9.6083      0.00000
     92       9.6348      0.00000
     93       9.8611      0.00000
     94       9.9067      0.00000
     95      10.0550      0.00000
     96      10.4654      0.00000

 k-point     4 :       0.5000    0.3333    0.0000
  band No.  band energies     occupation 
      1     -20.9671      2.00000
      2     -20.9671      2.00000
      3     -20.9660      2.00000
      4     -20.9660      2.00000
      5     -20.9484      2.00000
      6     -20.9484      2.00000
      7     -20.9431      2.00000
      8     -20.9431      2.00000
      9     -20.9417      2.00000
     10     -20.9417      2.00000
     11     -20.9404      2.00000
     12     -20.9404      2.00000
     13     -14.0380      2.00000
     14     -14.0380      2.00000
     15     -12.3378      2.00000
     16     -12.3378      2.00000
     17     -10.9235      2.00000
     18     -10.9235      2.00000
     19     -10.6539      2.00000
     20     -10.6539      2.00000
     21     -10.2555      2.00000
     22     -10.2555      2.00000
     23     -10.1221      2.00000
     24     -10.1221      2.00000
     25      -6.5875      2.00000
     26      -6.5875      2.00000
     27      -5.4122      2.00000
     28      -5.4122      2.00000
     29      -3.9096      2.00000
     30      -3.9096      2.00000
     31      -3.3514      2.00000
     32      -3.3514      2.00000
     33      -2.9804      2.00000
     34      -2.9804      2.00000
     35      -2.4307      2.00000
     36      -2.4307      2.00000
     37      -2.1311      2.00000
     38      -2.1311      2.00000
     39      -1.4800      2.00000
     40      -1.4800      2.00000
     41      -0.6248      2.00000
     42      -0.6248      2.00000
     43      -0.3903      2.00000
     44      -0.3903      2.00000
     45      -0.1622      2.00000
     46      -0.1622      2.00000
     47       0.2236      2.00000
     48       0.2236      2.00000
     49       0.5496      2.00000
     50       0.5496      2.00000
     51       0.7987      2.00000
     52       0.7987      2.00000
     53       0.9272      2.00000
     54       0.9272      2.00000
     55       1.0311      2.00000
     56       1.0311      2.00000
     57       1.2964      2.00000
     58       1.2964      2.00000
     59       1.5300      2.00000
     60       1.5300      2.00000
     61       3.9777      0.00000
     62       3.9777      0.00000
     63       4.8795      0.00000
     64       4.8795      0.00000
     65       5.1934      0.00000
     66       5.1934      0.00000
     67       6.0036      0.00000
     68       6.0036      0.00000
     69       6.3812      0.00000
     70       6.3812      0.00000
     71       6.7511      0.00000
     72       6.7511      0.00000
     73       7.0995      0.00000
     74       7.0995      0.00000
     75       7.2344      0.00000
     76       7.2344      0.00000
     77       7.5872      0.00000
     78       7.5872      0.00000
     79       7.9821      0.00000
     80       7.9821      0.00000
     81       8.4833      0.00000
     82       8.4833      0.00000
     83       9.0502      0.00000
     84       9.0502      0.00000
     85       9.1985      0.00000
     86       9.1985      0.00000
     87       9.2749      0.00000
     88       9.2749      0.00000
     89       9.5899      0.00000
     90       9.5899      0.00000
     91       9.6444      0.00000
     92       9.6444      0.00000
     93       9.9009      0.00000
     94       9.9009      0.00000
     95      10.1481      0.00000
     96      10.1481      0.00000

 k-point     5 :       0.0000    0.0000    0.5000
  band No.  band energies     occupation 
      1     -20.9676      2.00000
      2     -20.9673      2.00000
      3     -20.9655      2.00000
      4     -20.9653      2.00000
      5     -20.9523      2.00000
      6     -20.9520      2.00000
      7     -20.9431      2.00000
      8     -20.9422      2.00000
      9     -20.9412      2.00000
     10     -20.9407      2.00000
     11     -20.9376      2.00000
[...]
     32      -3.7154      2.00000
     33      -3.1321      2.00000
     34      -3.1321      2.00000
     35      -2.6645      2.00000
     36      -2.6645      2.00000
     37      -2.2983      2.00000
     38      -2.2983      2.00000
     39      -1.7457      2.00000
     40      -1.7457      2.00000
     41      -0.5851      2.00000
     42      -0.5851      2.00000
     43      -0.4502      2.00000
     44      -0.4502      2.00000
     45      -0.2602      2.00000
     46      -0.2602      2.00000
     47      -0.0239      2.00000
     48      -0.0239      2.00000
     49       0.3368      2.00000
     50       0.3368      2.00000
     51       0.5354      2.00000
     52       0.5354      2.00000
     53       0.6521      2.00000
     54       0.6521      2.00000
     55       1.0741      2.00000
     56       1.0741      2.00000
     57       1.1080      2.00000
     58       1.1080      2.00000
     59       1.2916      2.00000
     60       1.2916      2.00000
     61       3.5657      0.00000
     62       3.5657      0.00000
     63       4.5796      0.00000
     64       4.5796      0.00000
     65       4.7191      0.00000
     66       4.7191      0.00000
     67       5.5678      0.00000
     68       5.5678      0.00000
     69       6.0612      0.00000
     70       6.0612      0.00000
     71       6.3270      0.00000
     72       6.3270      0.00000
     73       6.6300      0.00000
     74       6.6300      0.00000
     75       7.0816      0.00000
     76       7.0816      0.00000
     77       7.4840      0.00000
     78       7.4840      0.00000
     79       7.6061      0.00000
     80       7.6061      0.00000
     81       8.1386      0.00000
     82       8.1386      0.00000
     83       8.6406      0.00000
     84       8.6406      0.00000
     85       8.7513      0.00000
     86       8.7513      0.00000
     87       8.8913      0.00000
     88       8.8913      0.00000
     89       9.2869      0.00000
     90       9.2869      0.00000
     91       9.4939      0.00000
     92       9.4939      0.00000
     93       9.7149      0.00000
     94       9.7149      0.00000
     95      10.1443      0.00000
     96      10.1443      0.00000

 k-point     7 :       0.0000    0.3333    0.5000
  band No.  band energies     occupation 
      1     -21.1695      2.00000
      2     -21.1694      2.00000
      3     -21.1677      2.00000
      4     -21.1676      2.00000
      5     -21.1466      2.00000
      6     -21.1465      2.00000
      7     -21.1449      2.00000
      8     -21.1446      2.00000
      9     -21.1439      2.00000
     10     -21.1436      2.00000
     11     -21.1339      2.00000
     12     -21.1339      2.00000
     13     -14.2950      2.00000
     14     -14.2802      2.00000
     15     -12.6438      2.00000
     16     -12.5921      2.00000
     17     -11.1296      2.00000
     18     -11.1252      2.00000
     19     -10.8893      2.00000
     20     -10.8661      2.00000
     21     -10.5088      2.00000
     22     -10.4605      2.00000
     23     -10.3743      2.00000
     24     -10.3408      2.00000
     25      -6.9321      2.00000
     26      -6.8810      2.00000
     27      -5.6255      2.00000
     28      -5.5707      2.00000
     29      -4.2461      2.00000
     30      -4.0884      2.00000
     31      -3.6368      2.00000
     32      -3.5496      2.00000
     33      -3.2608      2.00000
     34      -3.1085      2.00000
     35      -2.6289      2.00000
     36      -2.5739      2.00000
     37      -2.3598      2.00000
     38      -2.3133      2.00000
     39      -1.7586      2.00000
     40      -1.6569      2.00000
     41      -0.8727      2.00000
     42      -0.7994      2.00000
     43      -0.5106      2.00000
     44      -0.4829      2.00000
     45      -0.3323      2.00000
     46      -0.2538      2.00000
     47      -0.1520      2.00000
     48       0.0132      2.00000
     49       0.1229      2.00000
     50       0.2508      2.00000
     51       0.4365      2.00000
     52       0.7378      2.00000
     53       0.7885      2.00000
     54       0.8493      2.00000
     55       0.8499      2.00000
     56       0.8637      2.00000
     57       1.0057      2.00000
     58       1.0958      2.00000
     59       1.2173      2.00000
     60       1.2893      2.00000
     61       3.4502      0.00000
     62       3.8663      0.00000
     63       4.5665      0.00000
     64       4.7163      0.00000
     65       4.7732      0.00000
     66       5.0018      0.00000
     67       5.7057      0.00000
     68       5.8156      0.00000
     69       5.9168      0.00000
     70       5.9241      0.00000
     71       6.2080      0.00000
     72       6.3383      0.00000
     73       6.4696      0.00000
     74       6.7929      0.00000
     75       6.9768      0.00000
     76       7.3251      0.00000
     77       7.6218      0.00000
     78       7.6964      0.00000
     79       7.8010      0.00000
     80       7.9859      0.00000
     81       8.1360      0.00000
     82       8.3145      0.00000
     83       8.4375      0.00000
     84       8.6097      0.00000
     85       8.6438      0.00000
     86       8.6464      0.00000
     87       8.9032      0.00000
     88       9.0080      0.00000
     89       9.1425      0.00000
     90       9.2317      0.00000
     91       9.5135      0.00000
     92       9.6333      0.00000
     93       9.6549      0.00000
     94      10.0753      0.00000
     95      10.1463      0.00000
     96      10.3676      0.00000

 k-point     8 :       0.5000    0.3333    0.5000
  band No.  band energies     occupation 
      1     -21.1690      2.00000
      2     -21.1690      2.00000
      3     -21.1681      2.00000
      4     -21.1681      2.00000
      5     -21.1453      2.00000
      6     -21.1453      2.00000
      7     -21.1445      2.00000
      8     -21.1445      2.00000
      9     -21.1419      2.00000
     10     -21.1419      2.00000
     11     -21.1373      2.00000
     12     -21.1373      2.00000
     13     -14.2863      2.00000
     14     -14.2863      2.00000
     15     -12.6185      2.00000
     16     -12.6185      2.00000
     17     -11.1416      2.00000
     18     -11.1416      2.00000
     19     -10.8743      2.00000
     20     -10.8743      2.00000
     21     -10.4840      2.00000
     22     -10.4840      2.00000
     23     -10.3508      2.00000
     24     -10.3508      2.00000
     25      -6.9027      2.00000
     26      -6.9027      2.00000
     27      -5.5828      2.00000
     28      -5.5828      2.00000
     29      -4.1530      2.00000
     30      -4.1530      2.00000
     31      -3.5541      2.00000
     32      -3.5541      2.00000
     33      -3.1735      2.00000
     34      -3.1735      2.00000
     35      -2.6813      2.00000
     36      -2.6813      2.00000
     37      -2.3945      2.00000
     38      -2.3945      2.00000
     39      -1.6838      2.00000
     40      -1.6838      2.00000
     41      -0.8957      2.00000
     42      -0.8957      2.00000
     43      -0.4642      2.00000
     44      -0.4642      2.00000
     45      -0.1699      2.00000
     46      -0.1699      2.00000
     47       0.0234      2.00000
     48       0.0234      2.00000
     49       0.3575      2.00000
     50       0.3575      2.00000
     51       0.3931      2.00000
     52       0.3931      2.00000
     53       0.5808      2.00000
     54       0.5808      2.00000
     55       0.8407      2.00000
     56       0.8407      2.00000
     57       1.0086      2.00000
     58       1.0086      2.00000
     59       1.2371      2.00000
     60       1.2371      2.00000
     61       3.6864      0.00000
     62       3.6864      0.00000
     63       4.6719      0.00000
     64       4.6719      0.00000
     65       4.9020      0.00000
     66       4.9020      0.00000
     67       5.7924      0.00000
     68       5.7924      0.00000
     69       6.2378      0.00000
     70       6.2378      0.00000
     71       6.3244      0.00000
     72       6.3244      0.00000
     73       6.8816      0.00000
     74       6.8816      0.00000
     75       7.1742      0.00000
     76       7.1742      0.00000
     77       7.6663      0.00000
     78       7.6663      0.00000
     79       7.7491      0.00000
     80       7.7491      0.00000
     81       8.1366      0.00000
     82       8.1366      0.00000
     83       8.5966      0.00000
     84       8.5966      0.00000
     85       8.8801      0.00000
     86       8.8801      0.00000
     87       9.0479      0.00000
     88       9.0479      0.00000
     89       9.1570      0.00000
     90       9.1570      0.00000
     91       9.3545      0.00000
     92       9.3545      0.00000
     93       9.5923      0.00000
     94       9.5923      0.00000
     95       9.9332      0.00000
     96       9.9332      0.00000


--------------------------------------------------------------------------------------------------------


 soft charge-density along one line, spin component           1
         0         1         2         3         4         5         6         7         8         9
 total charge-density along one line

 pseudopotential strength for first ion, spin component:           1
-25.296   0.001   0.003   2.536  -0.000  -0.001   0.001   0.003
  0.001 -25.281   0.001  -0.000   2.530  -0.000  -0.003  -0.008
  0.003   0.001 -25.277  -0.001  -0.000   2.528   0.002   0.005
  2.536  -0.000  -0.001   6.580   0.000   0.000  -0.000   0.000
 -0.000   2.530  -0.000   0.000   6.581   0.000   0.000   0.000
 -0.001  -0.000   2.528   0.000   0.000   6.581  -0.000  -0.000
  0.001  -0.003   0.002  -0.000   0.000  -0.000   1.432   7.005
  0.003  -0.008   0.005   0.000   0.000  -0.000   7.005  34.032
 total augmentation occupancy for first ion, spin component:           1
  2.001  -0.000  -0.000  -0.001  -0.000  -0.000  -0.003   0.001
 -0.000   2.001  -0.000  -0.000  -0.003  -0.000   0.008  -0.003
 -0.000  -0.000   2.001  -0.000  -0.000  -0.004  -0.005   0.002
 -0.001  -0.000  -0.000   0.009   0.000   0.001  -0.001   0.000
 -0.000  -0.003  -0.000   0.000   0.015   0.001   0.006  -0.000
 -0.000  -0.000  -0.004   0.001   0.001   0.017  -0.003   0.000
 -0.003   0.008  -0.005  -0.001   0.006  -0.003   0.369  -0.001
  0.001  -0.003   0.002   0.000  -0.000   0.000  -0.001   0.000


------------------------ aborting loop because EDIFF is reached ----------------------------------------


    CHARGE:  cpu time      0.0261: real time      0.0261
    FORLOC:  cpu time      0.0019: real time      0.0019
    FORNL :  cpu time      0.1846: real time      0.1846
    STRESS:  cpu time      0.5562: real time      0.5566
    FORCOR:  cpu time      0.0135: real time      0.0135
    FORHAR:  cpu time      0.0043: real time      0.0043
    MIXING:  cpu time      0.0004: real time      0.0004
    OFIELD:  cpu time      0.0000: real time      0.0000

  FORCE on cell =-STRESS in cart. coord.  units (eV):
  Direction    XX          YY          ZZ          XY          YZ          ZX
  --------------------------------------------------------------------------------------
  Alpha Z   133.36379   133.36379   133.36379
  Ewald   -1743.45673 -1494.55731 -1300.28143    -0.00000    -9.07552    -0.00000
  Hartree   559.84497   581.98224   716.74605    -0.00000    -6.56470    -0.00000
  E(xc)    -475.22251  -474.80722  -474.27023     0.00000     0.22100    -0.00000
  Local    -792.76925 -1036.50462 -1350.60238    -0.00000    19.73115    -0.00000
  n-local   992.05799  1014.49381  1001.49686    -0.00000    -5.97271    -0.00000
  augment   -82.93216   -82.15363   -79.39622     0.00000     0.65503    -0.00000
  Kinetic  1409.14674  1358.41937  1353.14472     0.00000     0.88208    -0.00000
  Fock        0.00000     0.00000     0.00000     0.00000     0.00000     0.00000
  -------------------------------------------------------------------------------------
  Total       0.03283     0.23643     0.20117    -0.00000    -0.12369     0.00000
  in kB       0.10509     0.75671     0.64387    -0.00000    -0.39588     0.00000
  external pressure =        0.50 kB  Pullay stress =        0.00 kB


 VOLUME and BASIS-vectors are now :
 -----------------------------------------------------------------------------
  energy-cutoff  :      400.00
  volume of cell :      500.58
      direct lattice vectors                 reciprocal lattice vectors
     8.062312612  0.000000000  0.000000000     0.124033891  0.000000000 -0.000000000
    -0.000000000  6.789107379  0.111286140     0.000000000  0.147325060 -0.001847975
     0.000000000  0.114739031  9.147273184    -0.000000000 -0.001792363  0.109344679

  length of vectors
     8.062312612  6.790019412  9.147992771     0.124033891  0.147336650  0.109359369


 FORCES acting on ions
    electron-ion (+dipol)            ewald-force                    non-local-force                 convergence-correction
 -----------------------------------------------------------------------------------------------
   0.167E+02 -.209E+02 -.131E+02   -.171E+02 0.207E+02 0.137E+02   0.366E+00 0.229E+00 -.608E+00   0.612E-03 -.259E-03 0.300E-03
   0.167E+02 0.209E+02 0.131E+02   -.171E+02 -.207E+02 -.137E+02   0.366E+00 -.229E+00 0.608E+00   0.612E-03 0.259E-03 -.300E-03
   -.167E+02 0.209E+02 0.131E+02   0.171E+02 -.207E+02 -.137E+02   -.366E+00 -.229E+00 0.608E+00   -.612E-03 0.259E-03 -.300E-03
   -.167E+02 -.209E+02 -.131E+02   0.171E+02 0.207E+02 0.137E+02   -.366E+00 0.229E+00 -.608E+00   -.612E-03 -.259E-03 0.300E-03
   0.299E-13 0.175E+02 0.133E+02   -.931E-14 -.183E+02 -.174E+02   -.427E-16 0.798E+00 0.412E+01   -.743E-13 -.329E-03 -.192E-03
   -.453E-13 -.175E+02 -.133E+02   -.242E-14 0.183E+02 0.174E+02   0.427E-16 -.798E+00 -.412E+01   -.604E-14 0.329E-03 0.192E-03
   0.243E-14 0.947E+01 -.343E+02   0.148E-13 -.754E+01 0.392E+02   0.110E-15 -.192E+01 -.494E+01   0.164E-13 0.465E-03 0.643E-03
   -.166E-13 -.947E+01 0.343E+02   -.481E-14 0.754E+01 -.392E+02   -.110E-15 0.192E+01 0.494E+01   0.862E-13 -.465E-03 -.643E-03
   0.143E+03 -.372E+02 0.247E+02   -.147E+03 0.381E+02 -.248E+02   0.387E+01 -.890E+00 0.977E-01   -.224E-03 -.166E-03 -.936E-03
   0.143E+03 0.372E+02 -.247E+02   -.147E+03 -.381E+02 0.248E+02   0.387E+01 0.890E+00 -.977E-01   -.224E-03 0.166E-03 0.936E-03
   -.143E+03 0.372E+02 -.247E+02   0.147E+03 -.381E+02 0.248E+02   -.387E+01 0.890E+00 -.977E-01   0.224E-03 0.166E-03 0.936E-03
   -.143E+03 -.372E+02 0.247E+02   0.147E+03 0.381E+02 -.248E+02   -.387E+01 -.890E+00 0.977E-01   0.224E-03 -.166E-03 -.936E-03
   -.863E-13 -.108E+03 -.708E+02   -.351E-14 0.110E+03 0.717E+02   0.122E-15 -.204E+01 -.949E+00   -.436E-13 0.671E-03 -.596E-03
   -.191E-12 0.108E+03 0.708E+02   0.200E-13 -.110E+03 -.717E+02   -.122E-15 0.204E+01 0.949E+00   0.608E-13 -.671E-03 0.596E-03
   -.407E-13 -.844E+02 0.690E+02   -.171E-13 0.861E+02 -.703E+02   0.108E-15 -.175E+01 0.126E+01   0.110E-12 -.133E-04 0.659E-03
   -.132E-12 0.844E+02 -.690E+02   -.151E-13 -.861E+02 0.703E+02   -.108E-15 0.175E+01 -.126E+01   -.115E-12 0.133E-04 -.659E-03
   -.751E-13 0.915E+02 -.522E+02   -.688E-14 -.936E+02 0.535E+02   -.131E-15 0.214E+01 -.126E+01   -.242E-12 0.998E-03 -.117E-03
   -.191E-12 -.915E+02 0.522E+02   -.141E-13 0.936E+02 -.535E+02   0.131E-15 -.214E+01 0.126E+01   0.236E-12 -.998E-03 0.117E-03
   -.689E-13 0.716E+02 0.747E+02   -.461E-13 -.736E+02 -.760E+02   -.115E-15 0.193E+01 0.136E+01   -.197E-12 -.105E-02 0.165E-02
   -.180E-12 -.716E+02 -.747E+02   0.817E-14 0.736E+02 0.760E+02   0.115E-15 -.193E+01 -.136E+01   0.144E-12 0.105E-02 -.165E-02
 -----------------------------------------------------------------------------------------------
   -.200E-11 0.217E-11 0.269E-10   0.107E-13 0.284E-13 0.853E-13   -.181E-25 -.222E-15 0.222E-15   0.121E-12 0.988E-13 -.135E-12


 POSITION                                       TOTAL-FORCE (eV/Angst)
 -----------------------------------------------------------------------------------
      4.13410      4.88989      6.57687        -0.000211     -0.015919     -0.004458
      0.10294      2.01396      2.68169        -0.000211      0.015919      0.004458
      3.92821      2.01396      2.68169         0.000211      0.015919      0.004458
      7.95937      4.88989      6.57687         0.000211     -0.015919     -0.004458
      6.04673      1.49954      5.66261        -0.000000      0.002207      0.021029
      2.01558      5.40431      3.59595         0.000000     -0.002207     -0.021029
      6.04673      2.32851      8.48326        -0.000000      0.002212     -0.001690
      2.01558      4.57533      0.77530         0.000000     -0.002212      0.001690
      0.45070      5.20283      2.14321         0.033503     -0.013137     -0.002865
      4.48186      1.70101      7.11535         0.033503      0.013137      0.002865
      7.61161      1.70101      7.11535        -0.033503      0.013137      0.002865
      3.58045      5.20283      2.14321        -0.033503     -0.013137     -0.002865
      6.04673      4.31064      8.69647         0.000000     -0.011262      0.006357
      2.01558      2.59321      0.56208        -0.000000      0.011262     -0.006357
      6.04673      3.04953      4.39799        -0.000000      0.003323      0.045958
      2.01558      3.85432      4.86057         0.000000     -0.003323     -0.045958
      6.04673      1.06771      0.94320         0.000000     -0.009406      0.012418
      2.01558      5.83614      8.31536        -0.000000      0.009406     -0.012418
      6.04673      6.48032      4.93755         0.000000     -0.022944      0.013224
      2.01558      0.42352      4.32101        -0.000000      0.022944     -0.013224
 -----------------------------------------------------------------------------------
    total drift:                               -0.000000      0.000000      0.000000


--------------------------------------------------------------------------------------------------------



  FREE ENERGIE OF THE ION-ELECTRON SYSTEM (eV)
  ---------------------------------------------------
  free  energy   TOTEN  =       -87.91572664 eV

  energy  without entropy=      -87.91572664  energy(sigma->0) =      -87.91572664

 d Force = 0.2544753E-03[ 0.208E-03, 0.301E-03]  d Energy = 0.1725147E-03 0.820E-04
 d Force =-0.3852771E+00[-0.386E+00,-0.385E+00]  d Ewald  = 0.1084080E+00-0.494E+00


--------------------------------------------------------------------------------------------------------


    POTLOK:  cpu time      0.0154: real time      0.0154


--------------------------------------------------------------------------------------------------------




--------------------------------------------------------------------------------------------------------


  
 reached required accuracy - stopping structural energy minimisation
     LOOP+:  cpu time      5.5277: real time      5.5588
    4ORBIT:  cpu time      0.0000: real time      0.0000

 total amount of memory used by VASP MPI-rank0    40646. kBytes
=======================================================================

   base      :      30000. kBytes
   nonlr-proj:       2004. kBytes
   fftplans  :        981. kBytes
   grid      :       4135. kBytes
   one-center:         61. kBytes
   wavefun   :       3465. kBytes

  
  
 General timing and accounting informations for this job:
 ========================================================
  
                  Total CPU time used (sec):      196.357
                            User time (sec):      187.737
                          System time (sec):        8.620
                         Elapsed time (sec):      197.584
  
                   Maximum memory used (kb):      139492.
                   Average memory used (kb):          N/A
  
                          Minor page faults:      2286872
                          Major page faults:          149
                 Voluntary context switches:         1186
