  39  39   0   0
  0.2439952E+02  0.6834254E-09  0.1767185E-08  0.7880486E-09  0.5000000E-15
   1.0000000000000000E-004
  CAR 
 endpoint_relax                          
     10.03327245    -23.86395299  301      1.06887122      1.00000000
    -23.864  0.0000E+00  0.0000E+00
    -23.751  0.0000E+00  0.0000E+00
    -23.638  0.0000E+00  0.0000E+00
    -23.525 -0.4513E-30 -0.5099E-31
    -23.412 -0.3742E-26 -0.4229E-27
    -23.299 -0.1633E-22 -0.1846E-23
    -23.186 -0.3748E-19 -0.4237E-20
    -23.073 -0.4520E-16 -0.5111E-17
    -22.960 -0.2768E-13 -0.3133E-14
    -22.847 -0.9109E-11 -0.1032E-11
    -22.734 -0.1562E-08 -0.1775E-09
    -22.621 -0.1387E-06 -0.1585E-07
    -22.508 -0.6319E-05 -0.7299E-06
    -22.395 -0.1448E-03 -0.1710E-04
    -22.282 -0.1599E-02 -0.1978E-03
    -22.169 -0.7448E-02 -0.1039E-02
    -22.056 -0.4883E-02 -0.1591E-02
    -21.943  0.6222E-01  0.5439E-02
    -21.830  0.1811E+00  0.2590E-01
    -21.717  0.1903E+00  0.4740E-01
    -21.604  0.1093E+00  0.5975E-01
    -21.491  0.1813E+00  0.8024E-01
    -21.378  0.4681E+00  0.1331E+00
    -21.265  0.7773E+00  0.2210E+00
    -21.152  0.8026E+00  0.3117E+00
    -21.039  0.4848E+00  0.3664E+00
    -20.926  0.1459E+00  0.3829E+00
    -20.813 -0.2251E-02  0.3827E+00
    -20.700 -0.1738E-01  0.3807E+00
    -20.587 -0.5461E-02  0.3801E+00
    -20.474 -0.7370E-03  0.3800E+00
    -20.361 -0.4869E-04  0.3800E+00
    -20.248 -0.1634E-05  0.3800E+00
    -20.135 -0.2828E-07  0.3800E+00
    -20.022 -0.2549E-09  0.3800E+00
    -19.909 -0.1202E-11  0.3800E+00
    -19.796 -0.2987E-14  0.3800E+00
    -19.683  0.0000E+00  0.3800E+00
    -19.570  0.0000E+00  0.3800E+00
    -19.457  0.0000E+00  0.3800E+00
    -19.344  0.0000E+00  0.3800E+00
    -19.231  0.0000E+00  0.3800E+00
    -19.118  0.0000E+00  0.3800E+00
    -19.005  0.0000E+00  0.3800E+00
    -18.892  0.0000E+00  0.3800E+00
    -18.779  0.0000E+00  0.3800E+00
    -18.666  0.0000E+00  0.3800E+00
    -18.553  0.0000E+00  0.3800E+00
    -18.440  0.0000E+00  0.3800E+00
    -18.327  0.0000E+00  0.3800E+00
    -18.214  0.0000E+00  0.3800E+00
    -18.101  0.0000E+00  0.3800E+00
    -17.988  0.0000E+00  0.3800E+00
    -17.875  0.0000E+00  0.3800E+00
    -17.762  0.0000E+00  0.3800E+00
    -17.649  0.0000E+00  0.3800E+00
    -17.536  0.0000E+00  0.3800E+00
    -17.423  0.0000E+00  0.3800E+00
    -17.310  0.0000E+00  0.3800E+00
    -17.197  0.0000E+00  0.3800E+00
    -17.085  0.0000E+00  0.3800E+00
    -16.972  0.0000E+00  0.3800E+00
    -16.859  0.0000E+00  0.3800E+00
    -16.746  0.0000E+00  0.3800E+00
    -16.633  0.0000E+00  0.3800E+00
    -16.520  0.0000E+00  0.3800E+00
    -16.407  0.0000E+00  0.3800E+00
    -16.294  0.0000E+00  0.3800E+00
    -16.181  0.0000E+00  0.3800E+00
    -16.068  0.0000E+00  0.3800E+00
    -15.955  0.0000E+00  0.3800E+00
    -15.842  0.0000E+00  0.3800E+00
    -15.729  0.0000E+00  0.3800E+00
    -15.616  0.0000E+00  0.3800E+00
    -15.503  0.0000E+00  0.3800E+00
    -15.390  0.0000E+00  0.3800E+00
    -15.277  0.0000E+00  0.3800E+00
    -15.164  0.0000E+00  0.3800E+00
    -15.051  0.0000E+00  0.3800E+00
    -14.938  0.0000E+00  0.3800E+00
    -14.825  0.0000E+00  0.3800E+00
    -14.712  0.0000E+00  0.3800E+00
    -14.599  0.0000E+00  0.3800E+00
    -14.486  0.0000E+00  0.3800E+00
    -14.373  0.0000E+00  0.3800E+00
    -14.260  0.0000E+00  0.3800E+00
    -14.147 -0.2283E-29  0.3800E+00
    -14.034 -0.1698E-25  0.3800E+00
    -13.921 -0.6651E-22  0.3800E+00
    -13.808 -0.1370E-18  0.3800E+00
    -13.695 -0.1484E-15  0.3800E+00
    -13.582 -0.8152E-13  0.3800E+00
    -13.469 -0.2407E-10  0.3800E+00
    -13.356 -0.3700E-08  0.3800E+00
    -13.243 -0.2944E-06  0.3800E+00
    -13.130 -0.1200E-04  0.3800E+00
    -13.017 -0.2460E-03  0.3800E+00
    -12.904 -0.2430E-02  0.3797E+00
    -12.791 -0.1013E-01  0.3786E+00
    -12.678 -0.5153E-02  0.3780E+00
    -12.565  0.8100E-01  0.3871E+00
    -12.452  0.2512E+00  0.4155E+00
    -12.339  0.3535E+00  0.4554E+00
    -12.226  0.3030E+00  0.4897E+00
    -12.113  0.1716E+00  0.5091E+00
    -12.000  0.5064E-01  0.5148E+00
    -11.887 -0.3913E-02  0.5144E+00
    -11.774 -0.7067E-02  0.5136E+00
    -11.661 -0.1772E-02  0.5134E+00
    -11.548 -0.1883E-03  0.5133E+00
    -11.435 -0.9628E-05  0.5133E+00
    -11.322 -0.2471E-06  0.5133E+00
    -11.209 -0.3246E-08  0.5133E+00
    -11.096 -0.3995E-10  0.5133E+00
    -10.983 -0.2304E-08  0.5133E+00
    -10.870 -0.1527E-06  0.5133E+00
    -10.757 -0.5154E-05  0.5133E+00
    -10.644 -0.8664E-04  0.5133E+00
    -10.531 -0.6896E-03  0.5132E+00
    -10.418 -0.2176E-02  0.5130E+00
    -10.305  0.6984E-03  0.5131E+00
    -10.192  0.2060E-01  0.5154E+00
    -10.079  0.5511E-01  0.5216E+00
     -9.966  0.7597E-01  0.5302E+00
     -9.853  0.6098E-01  0.5371E+00
     -9.740  0.2252E-01  0.5397E+00
     -9.627 -0.7121E-02  0.5388E+00
     -9.514  0.1045E-01  0.5400E+00
     -9.401  0.1137E+00  0.5529E+00
     -9.288  0.2319E+00  0.5791E+00
     -9.175  0.2274E+00  0.6048E+00
     -9.062  0.1204E+00  0.6184E+00
     -8.949  0.2602E-01  0.6213E+00
     -8.836 -0.6019E-02  0.6206E+00
     -8.723 -0.4515E-02  0.6201E+00
     -8.610 -0.9133E-03  0.6200E+00
     -8.497 -0.8313E-04  0.6200E+00
     -8.384 -0.3727E-05  0.6200E+00
     -8.271 -0.8503E-07  0.6200E+00
     -8.158 -0.1002E-08  0.6200E+00
     -8.045 -0.6157E-11  0.6200E+00
     -7.932 -0.1981E-13  0.6200E+00
     -7.819 -0.2620E-16  0.6200E+00
     -7.706  0.0000E+00  0.6200E+00
     -7.593  0.0000E+00  0.6200E+00
     -7.480  0.0000E+00  0.6200E+00
     -7.367  0.0000E+00  0.6200E+00
     -7.254  0.0000E+00  0.6200E+00
     -7.141  0.0000E+00  0.6200E+00
     -7.028  0.0000E+00  0.6200E+00
     -6.915  0.0000E+00  0.6200E+00
     -6.802  0.0000E+00  0.6200E+00
     -6.689  0.0000E+00  0.6200E+00
     -6.576  0.0000E+00  0.6200E+00
     -6.463  0.0000E+00  0.6200E+00
     -6.350  0.0000E+00  0.6200E+00
     -6.237  0.0000E+00  0.6200E+00
     -6.124  0.0000E+00  0.6200E+00
     -6.011  0.0000E+00  0.6200E+00
     -5.898  0.0000E+00  0.6200E+00
     -5.785  0.0000E+00  0.6200E+00
     -5.672  0.0000E+00  0.6200E+00
     -5.559  0.0000E+00  0.6200E+00
     -5.446  0.0000E+00  0.6200E+00
     -5.333  0.0000E+00  0.6200E+00
     -5.220  0.0000E+00  0.6200E+00
     -5.107  0.0000E+00  0.6200E+00
     -4.994 -0.3202E-32  0.6200E+00
     -4.882 -0.3357E-28  0.6200E+00
     -4.769 -0.1850E-24  0.6200E+00
     -4.656 -0.5350E-21  0.6200E+00
     -4.543 -0.8118E-18  0.6200E+00
     -4.430 -0.6255E-15  0.6200E+00
     -4.317 -0.2581E-12  0.6200E+00
     -4.204 -0.5535E-10  0.6200E+00
     -4.091 -0.6138E-08  0.6200E+00
     -3.978 -0.3489E-06  0.6200E+00
     -3.865 -0.1001E-04  0.6200E+00
     -3.752 -0.1404E-03  0.6200E+00
     -3.639 -0.8955E-03  0.6199E+00
     -3.526 -0.1917E-02  0.6197E+00
     -3.413  0.3350E-02  0.6200E+00
     -3.300  0.2328E-01  0.6227E+00
     -3.187  0.5305E-01  0.6287E+00
     -3.074  0.7493E-01  0.6371E+00
     -2.961  0.6274E-01  0.6442E+00
     -2.848  0.2450E-01  0.6470E+00
     -2.735  0.4966E-03  0.6470E+00
     -2.622 -0.2545E-02  0.6468E+00
     -2.509 -0.7454E-03  0.6467E+00
     -2.396 -0.8851E-04  0.6467E+00
     -2.283 -0.5048E-05  0.6467E+00
     -2.170 -0.2677E-06  0.6467E+00
     -2.057 -0.4269E-05  0.6467E+00
     -1.944 -0.7334E-04  0.6467E+00
     -1.831 -0.5934E-03  0.6466E+00
     -1.718 -0.1940E-02  0.6464E+00
     -1.605 -0.2906E-03  0.6463E+00
     -1.492  0.1355E-01  0.6479E+00
     -1.379  0.4640E-01  0.6531E+00
     -1.266  0.9832E-01  0.6642E+00
     -1.153  0.1361E+00  0.6796E+00
     -1.040  0.1275E+00  0.6940E+00
     -0.927  0.8317E-01  0.7034E+00
     -0.814  0.3995E-01  0.7079E+00
     -0.701  0.4654E-01  0.7132E+00
     -0.588  0.6550E-01  0.7206E+00
     -0.475  0.3966E-01  0.7251E+00
     -0.362  0.1112E-01  0.7263E+00
     -0.249  0.4860E-01  0.7318E+00
     -0.136  0.1322E+00  0.7468E+00
     -0.023  0.1864E+00  0.7678E+00
      0.090  0.1974E+00  0.7901E+00
      0.203  0.1839E+00  0.8109E+00
      0.316  0.1789E+00  0.8311E+00
      0.429  0.1925E+00  0.8529E+00
      0.542  0.1728E+00  0.8724E+00
      0.655  0.1294E+00  0.8870E+00
      0.768  0.1181E+00  0.9004E+00
      0.881  0.1399E+00  0.9162E+00
      0.994  0.1293E+00  0.9308E+00
      1.107  0.6790E-01  0.9384E+00
      1.220  0.1780E-01  0.9404E+00
      1.333 -0.6152E-03  0.9404E+00
      1.446 -0.2425E-02  0.9401E+00
      1.559 -0.7797E-03  0.9400E+00
      1.672 -0.1048E-03  0.9400E+00
      1.785 -0.6690E-05  0.9400E+00
      1.898 -0.2119E-06  0.9400E+00
      2.011 -0.3403E-08  0.9400E+00
      2.124 -0.3347E-10  0.9400E+00
      2.237 -0.8052E-09  0.9400E+00
      2.350 -0.6172E-07  0.9400E+00
      2.463 -0.2399E-05  0.9400E+00
      2.576 -0.4602E-04  0.9400E+00
      2.689 -0.4076E-03  0.9399E+00
      2.802 -0.1314E-02  0.9398E+00
      2.915  0.1306E-02  0.9399E+00
      3.028  0.1505E-01  0.9416E+00
      3.141  0.2695E-01  0.9447E+00
      3.254  0.1709E-01  0.9466E+00
      3.367  0.2293E-02  0.9469E+00
      3.480 -0.1359E-02  0.9467E+00
      3.593 -0.5690E-03  0.9467E+00
      3.706 -0.7031E-03  0.9466E+00
      3.819 -0.2317E-02  0.9463E+00
      3.932  0.1813E-03  0.9463E+00
      4.045  0.2201E-01  0.9488E+00
      4.158  0.5718E-01  0.9553E+00
      4.271  0.6471E-01  0.9626E+00
      4.384  0.3451E-01  0.9665E+00
      4.497  0.5277E-02  0.9671E+00
      4.610 -0.2486E-02  0.9668E+00
      4.723 -0.1152E-02  0.9667E+00
      4.836 -0.1860E-03  0.9667E+00
      4.949 -0.1244E-03  0.9667E+00
      5.062 -0.8138E-03  0.9666E+00
      5.175 -0.2247E-02  0.9663E+00
      5.288  0.1804E-02  0.9665E+00
      5.401  0.2346E-01  0.9692E+00
      5.514  0.5619E-01  0.9755E+00
      5.627  0.7173E-01  0.9836E+00
      5.740  0.6677E-01  0.9912E+00
      5.853  0.7141E-01  0.9992E+00
      5.966  0.8593E-01  0.1009E+01
      6.079  0.8803E-01  0.1019E+01
      6.192  0.7322E-01  0.1027E+01
      6.305  0.4171E-01  0.1032E+01
      6.418  0.1429E-01  0.1033E+01
      6.531  0.2264E-01  0.1036E+01
      6.644  0.5542E-01  0.1042E+01
      6.757  0.7595E-01  0.1051E+01
      6.870  0.7704E-01  0.1060E+01
      6.983  0.6836E-01  0.1067E+01
      7.096  0.7173E-01  0.1075E+01
      7.209  0.8553E-01  0.1085E+01
      7.321  0.9007E-01  0.1095E+01
      7.434  0.1025E+00  0.1107E+01
      7.547  0.1187E+00  0.1120E+01
      7.660  0.1028E+00  0.1132E+01
      7.773  0.7589E-01  0.1140E+01
      7.886  0.9050E-01  0.1151E+01
      7.999  0.1112E+00  0.1163E+01
      8.112  0.7601E-01  0.1172E+01
      8.225  0.2017E-01  0.1174E+01
      8.338 -0.3163E-02  0.1174E+01
      8.451 -0.2900E-02  0.1173E+01
      8.564 -0.5929E-03  0.1173E+01
      8.677 -0.5323E-04  0.1173E+01
      8.790 -0.2330E-05  0.1173E+01
      8.903 -0.5153E-07  0.1173E+01
      9.016 -0.5853E-09  0.1173E+01
      9.129 -0.3446E-11  0.1173E+01
      9.242 -0.1056E-13  0.1173E+01
      9.355 -0.1310E-16  0.1173E+01
      9.468  0.0000E+00  0.1173E+01
      9.581  0.0000E+00  0.1173E+01
      9.694  0.0000E+00  0.1173E+01
      9.807  0.0000E+00  0.1173E+01
      9.920  0.0000E+00  0.1173E+01
     10.033  0.0000E+00  0.1173E+01
