       N       E                     dE             d eps       ncg     rms          rms(c)
DAV:   1     0.283850508034E+04    0.28385E+04   -0.11519E+05   368   0.143E+03
DAV:   2     0.292116543431E+03   -0.25464E+04   -0.24390E+04   368   0.413E+02
DAV:   3    -0.116582146963E+03   -0.40870E+03   -0.40077E+03   416   0.182E+02
DAV:   4    -0.147105460505E+03   -0.30523E+02   -0.30276E+02   416   0.454E+01
DAV:   5    -0.148350790890E+03   -0.12453E+01   -0.12424E+01   512   0.988E+00    0.196E+01
RMM:   6    -0.139619152463E+03    0.87316E+01   -0.14775E+01   388   0.681E+00    0.123E+01
RMM:   7    -0.139628113075E+03   -0.89606E-02   -0.13948E+01   414   0.503E+00    0.807E+00
RMM:   8    -0.139309299640E+03    0.31881E+00   -0.10979E+00   441   0.264E+00    0.496E+00
RMM:   9    -0.139482024325E+03   -0.17272E+00   -0.11639E+00   413   0.188E+00    0.228E+00
RMM:  10    -0.139297518104E+03    0.18451E+00   -0.15013E-01   420   0.109E+00    0.163E+00
RMM:  11    -0.139246094030E+03    0.51424E-01   -0.74968E-02   470   0.532E-01    0.130E+00
RMM:  12    -0.139237405451E+03    0.86886E-02   -0.39016E-02   479   0.334E-01    0.706E-01
RMM:  13    -0.139245205694E+03   -0.78002E-02   -0.86430E-03   405   0.202E-01    0.504E-01
RMM:  14    -0.139250407978E+03   -0.52023E-02   -0.81901E-03   368   0.180E-01    0.417E-01
RMM:  15    -0.139245706552E+03    0.47014E-02   -0.29686E-03   443   0.104E-01    0.169E-01
RMM:  16    -0.139245259090E+03    0.44746E-03   -0.14863E-03   434   0.707E-02    0.117E-01
RMM:  17    -0.139245560954E+03   -0.30186E-03   -0.66091E-04   337   0.520E-02    0.712E-02
RMM:  18    -0.139245477996E+03    0.82958E-04   -0.23341E-04   380   0.333E-02    0.381E-02
RMM:  19    -0.139245469678E+03    0.83185E-05   -0.44392E-05   319   0.165E-02
   1 F= -.13924547E+03 E0= -.13924501E+03  d E =-.139245E+03
       N       E                     dE             d eps       ncg     rms          rms(c)
DAV:   1    -0.139263589094E+03   -0.18111E-01   -0.98415E+00   416   0.582E+00    0.124E+00
RMM:   2    -0.139288413636E+03   -0.24825E-01   -0.27138E-01   442   0.158E+00    0.398E-01
RMM:   3    -0.139297773725E+03   -0.93601E-02   -0.10100E-01   496   0.804E-01    0.357E-01
RMM:   4    -0.139297675277E+03    0.98448E-04   -0.10824E-02   470   0.258E-01    0.355E-01
RMM:   5    -0.139297326743E+03    0.34853E-03   -0.17649E-03   425   0.102E-01    0.337E-01
RMM:   6    -0.139297347965E+03   -0.21222E-04   -0.22177E-04   417   0.391E-02    0.351E-01
RMM:   7    -0.139297234812E+03    0.11315E-03   -0.11470E-04   336   0.228E-02    0.288E-01
RMM:   8    -0.139297164867E+03    0.69945E-04   -0.14211E-03   432   0.507E-02    0.105E-01
RMM:   9    -0.139297141848E+03    0.23019E-04   -0.58682E-05   295   0.231E-02    0.982E-02
RMM:  10    -0.139297116360E+03    0.25488E-04   -0.30221E-05   284   0.139E-02    0.907E-02
RMM:  11    -0.139297111243E+03    0.51167E-05   -0.80725E-05   333   0.140E-02
   2 F= -.13929711E+03 E0= -.13929887E+03  d E =-.516416E-01
       N       E                     dE             d eps       ncg     rms          rms(c)
DAV:   1    -0.139245729710E+03    0.51387E-01   -0.25073E+01   400   0.941E+00    0.196E+00
RMM:   2    -0.139310452217E+03   -0.64723E-01   -0.70039E-01   440   0.251E+00    0.610E-01
RMM:   3    -0.139336819401E+03   -0.26367E-01   -0.27842E-01   496   0.134E+00    0.623E-01
RMM:   4    -0.139335840652E+03    0.97875E-03   -0.29716E-02   471   0.424E-01    0.623E-01
RMM:   5    -0.139335161670E+03    0.67898E-03   -0.43695E-03   449   0.162E-01    0.600E-01
RMM:   6    -0.139335315099E+03   -0.15343E-03   -0.62465E-04   441   0.616E-02    0.670E-01
RMM:   7    -0.139334675621E+03    0.63948E-03   -0.25396E-03   408   0.780E-02    0.171E-01
RMM:   8    -0.139334678568E+03   -0.29463E-05   -0.18566E-03   423   0.709E-02    0.183E-01
RMM:   9    -0.139334641928E+03    0.36640E-04   -0.10491E-04   339   0.297E-02    0.160E-01
RMM:  10    -0.139334564057E+03    0.77871E-04   -0.85491E-05   289   0.215E-02    0.852E-02
RMM:  11    -0.139334547155E+03    0.16902E-04   -0.27095E-04   371   0.260E-02    0.279E-02
RMM:  12    -0.139334541442E+03    0.57134E-05   -0.24938E-05   264   0.125E-02
   3 F= -.13933454E+03 E0= -.13933981E+03  d E =-.890718E-01
       N       E                     dE             d eps       ncg     rms          rms(c)
DAV:   1    -0.139332847369E+03    0.16998E-02   -0.98704E-01   400   0.184E+00    0.388E-01
RMM:   2    -0.139335040401E+03   -0.21930E-02   -0.23706E-02   440   0.470E-01    0.119E-01
RMM:   3    -0.139335872843E+03   -0.83244E-03   -0.81105E-03   479   0.242E-01    0.108E-01
RMM:   4    -0.139335760918E+03    0.11192E-03   -0.92934E-04   422   0.794E-02    0.921E-02
RMM:   5    -0.139335730154E+03    0.30764E-04   -0.13940E-04   369   0.321E-02    0.814E-02
RMM:   6    -0.139335726851E+03    0.33037E-05   -0.20495E-05   231   0.141E-02
   4 F= -.13933573E+03 E0= -.13934165E+03  d E =-.902572E-01
       N       E                     dE             d eps       ncg     rms          rms(c)
DAV:   1    -0.139339221157E+03   -0.34910E-02   -0.11170E+01   384   0.624E+00    0.902E-01
RMM:   2    -0.139361201748E+03   -0.21981E-01   -0.23262E-01   445   0.147E+00    0.280E-01
RMM:   3    -0.139368312832E+03   -0.71111E-02   -0.70790E-02   492   0.745E-01    0.311E-01
RMM:   4    -0.139367592650E+03    0.72018E-03   -0.91023E-03   461   0.257E-01    0.257E-01
RMM:   5    -0.139367425817E+03    0.16683E-03   -0.11770E-03   435   0.974E-02    0.235E-01
RMM:   6    -0.139367356433E+03    0.69384E-04   -0.20420E-04   368   0.382E-02    0.188E-01
RMM:   7    -0.139367294519E+03    0.61914E-04   -0.41812E-04   329   0.356E-02    0.693E-02
RMM:   8    -0.139367305060E+03   -0.10541E-04   -0.58880E-04   390   0.371E-02    0.849E-02
RMM:   9    -0.139367279174E+03    0.25886E-04   -0.35958E-05   275   0.169E-02    0.525E-02
RMM:  10    -0.139367263339E+03    0.15835E-04   -0.15171E-04   337   0.175E-02    0.255E-02
RMM:  11    -0.139367262349E+03    0.99007E-06   -0.89822E-06   201   0.872E-03
   5 F= -.13936726E+03 E0= -.13937413E+03  d E =-.315355E-01
       N       E                     dE             d eps       ncg     rms          rms(c)
DAV:   1    -0.139308519789E+03    0.58744E-01   -0.32277E+01   368   0.108E+01    0.156E+00
RMM:   2    -0.139374925426E+03   -0.66406E-01   -0.70845E-01   444   0.255E+00    0.487E-01
RMM:   3    -0.139396657391E+03   -0.21732E-01   -0.22380E-01   490   0.134E+00    0.512E-01
RMM:   4    -0.139395689563E+03    0.96783E-03   -0.30655E-02   474   0.461E-01    0.453E-01
RMM:   5    -0.139395148775E+03    0.54079E-03   -0.34887E-03   455   0.166E-01    0.421E-01
RMM:   6    -0.139394959525E+03    0.18925E-03   -0.44710E-04   405   0.586E-02    0.347E-01
RMM:   7    -0.139394766778E+03    0.19275E-03   -0.11284E-03   332   0.572E-02    0.131E-01
RMM:   8    -0.139394786229E+03   -0.19452E-04   -0.20023E-03   408   0.671E-02    0.168E-01
RMM:   9    -0.139394712454E+03    0.73775E-04   -0.11330E-04   308   0.288E-02    0.113E-01
RMM:  10    -0.139394641134E+03    0.71320E-04   -0.39760E-04   374   0.289E-02    0.331E-02
RMM:  11    -0.139394646467E+03   -0.53336E-05   -0.45068E-05   309   0.157E-02
   6 F= -.13939465E+03 E0= -.13940297E+03  d E =-.589196E-01
       N       E                     dE             d eps       ncg     rms          rms(c)
DAV:   1    -0.139386498315E+03    0.81428E-02   -0.43344E+00   400   0.383E+00    0.558E-01
RMM:   2    -0.139394698482E+03   -0.82002E-02   -0.87288E-02   446   0.891E-01    0.172E-01
RMM:   3    -0.139397297578E+03   -0.25991E-02   -0.25538E-02   490   0.447E-01    0.176E-01
RMM:   4    -0.139397049427E+03    0.24815E-03   -0.34772E-03   450   0.158E-01    0.142E-01
RMM:   5    -0.139396976145E+03    0.73282E-04   -0.40968E-04   410   0.594E-02    0.126E-01
RMM:   6    -0.139396951266E+03    0.24879E-04   -0.10051E-04   329   0.259E-02    0.942E-02
RMM:   7    -0.139396934683E+03    0.16583E-04   -0.14342E-04   295   0.215E-02    0.358E-02
RMM:   8    -0.139396940030E+03   -0.53477E-05   -0.14967E-04   344   0.198E-02    0.360E-02
RMM:   9    -0.139396932847E+03    0.71832E-05   -0.11010E-05   213   0.100E-02
   7 F= -.13939693E+03 E0= -.13940571E+03  d E =-.612060E-01
       N       E                     dE             d eps       ncg     rms          rms(c)
DAV:   1    -0.139381068319E+03    0.15872E-01   -0.19024E+01   368   0.812E+00    0.109E+00
RMM:   2    -0.139417762663E+03   -0.36694E-01   -0.38375E-01   441   0.182E+00    0.273E-01
RMM:   3    -0.139428168621E+03   -0.10406E-01   -0.10513E-01   485   0.943E-01    0.359E-01
RMM:   4    -0.139427220146E+03    0.94848E-03   -0.15950E-02   491   0.340E-01    0.282E-01
RMM:   5    -0.139426987374E+03    0.23277E-03   -0.14734E-03   457   0.111E-01    0.243E-01
RMM:   6    -0.139426817176E+03    0.17020E-03   -0.30516E-04   353   0.454E-02    0.180E-01
RMM:   7    -0.139426717695E+03    0.99481E-04   -0.90597E-04   363   0.471E-02    0.661E-02
RMM:   8    -0.139426731483E+03   -0.13788E-04   -0.44910E-04   361   0.369E-02    0.515E-02
RMM:   9    -0.139426701690E+03    0.29793E-04   -0.37611E-05   289   0.187E-02    0.307E-02
RMM:  10    -0.139426705189E+03   -0.34988E-05   -0.24813E-04   359   0.221E-02    0.293E-02
RMM:  11    -0.139426688996E+03    0.16193E-04   -0.36466E-05   285   0.123E-02    0.572E-03
RMM:  12    -0.139426692175E+03   -0.31788E-05   -0.29963E-05   237   0.737E-03
   8 F= -.13942669E+03 E0= -.13943655E+03  d E =-.297593E-01
       N       E                     dE             d eps       ncg     rms          rms(c)
DAV:   1    -0.139254870591E+03    0.17182E+00   -0.69798E+01   368   0.156E+01    0.227E+00
RMM:   2    -0.139402681798E+03   -0.14781E+00   -0.15563E+00   439   0.361E+00    0.549E-01
RMM:   3    -0.139446600957E+03   -0.43919E-01   -0.45222E-01   484   0.197E+00    0.708E-01
RMM:   4    -0.139443936516E+03    0.26644E-02   -0.65695E-02   498   0.680E-01    0.592E-01
RMM:   5    -0.139443077516E+03    0.85900E-03   -0.57051E-03   470   0.215E-01    0.521E-01
RMM:   6    -0.139442502240E+03    0.57528E-03   -0.88793E-04   410   0.819E-02    0.415E-01
RMM:   7    -0.139441916275E+03    0.58597E-03   -0.23802E-03   364   0.782E-02    0.179E-01
RMM:   8    -0.139442053679E+03   -0.13740E-03   -0.33435E-03   428   0.850E-02    0.135E-01
RMM:   9    -0.139441892139E+03    0.16154E-03   -0.22512E-04   299   0.357E-02    0.774E-02
RMM:  10    -0.139441919850E+03   -0.27711E-04   -0.13445E-03   407   0.533E-02    0.736E-02
RMM:  11    -0.139441827507E+03    0.92343E-04   -0.20201E-04   300   0.251E-02    0.131E-02
RMM:  12    -0.139441838821E+03   -0.11314E-04   -0.15436E-04   308   0.161E-02    0.252E-02
RMM:  13    -0.139441829486E+03    0.93357E-05   -0.23909E-05   254   0.112E-02
   9 F= -.13944183E+03 E0= -.13945319E+03  d E =-.448966E-01
       N       E                     dE             d eps       ncg     rms          rms(c)
DAV:   1    -0.139433124057E+03    0.87148E-02   -0.43286E+00   384   0.378E+00    0.518E-01
RMM:   2    -0.139441256435E+03   -0.81324E-02   -0.85793E-02   440   0.880E-01    0.144E-01
RMM:   3    -0.139443759917E+03   -0.25035E-02   -0.24397E-02   487   0.443E-01    0.172E-01
RMM:   4    -0.139443466613E+03    0.29330E-03   -0.34251E-03   471   0.157E-01    0.137E-01
RMM:   5    -0.139443407966E+03    0.58647E-04   -0.32484E-04   413   0.547E-02    0.119E-01
RMM:   6    -0.139443383383E+03    0.24582E-04   -0.73252E-05   326   0.232E-02    0.102E-01
RMM:   7    -0.139443351086E+03    0.32298E-04   -0.14846E-04   308   0.211E-02    0.431E-02
RMM:   8    -0.139443353456E+03   -0.23698E-05   -0.18588E-04   357   0.202E-02    0.299E-02
RMM:   9    -0.139443346764E+03    0.66914E-05   -0.10463E-05   210   0.984E-03
  10 F= -.13944335E+03 E0= -.13945440E+03  d E =-.464139E-01
       N       E                     dE             d eps       ncg     rms          rms(c)
DAV:   1    -0.139431674600E+03    0.11679E-01   -0.11168E+01   384   0.644E+00    0.926E-01
RMM:   2    -0.139454275546E+03   -0.22601E-01   -0.23527E-01   446   0.144E+00    0.230E-01
RMM:   3    -0.139460571334E+03   -0.62958E-02   -0.61365E-02   487   0.727E-01    0.323E-01
RMM:   4    -0.139459193436E+03    0.13779E-02   -0.77717E-03   487   0.258E-01    0.240E-01
RMM:   5    -0.139458999697E+03    0.19374E-03   -0.82588E-04   447   0.879E-02    0.204E-01
RMM:   6    -0.139458883215E+03    0.11648E-03   -0.23724E-04   362   0.392E-02    0.156E-01
RMM:   7    -0.139458824152E+03    0.59063E-04   -0.60591E-04   359   0.376E-02    0.638E-02
RMM:   8    -0.139458812784E+03    0.11368E-04   -0.24415E-04   349   0.284E-02    0.312E-02
RMM:   9    -0.139458797371E+03    0.15413E-04   -0.28424E-05   281   0.161E-02    0.148E-02
RMM:  10    -0.139458797229E+03    0.14124E-06   -0.43351E-05   283   0.112E-02
  11 F= -.13945880E+03 E0= -.13947033E+03  d E =-.154505E-01
       N       E                     dE             d eps       ncg     rms          rms(c)
DAV:   1    -0.139447827898E+03    0.10969E-01   -0.66473E+00   384   0.499E+00    0.712E-01
RMM:   2    -0.139461128333E+03   -0.13300E-01   -0.13845E-01   446   0.111E+00    0.171E-01
RMM:   3    -0.139464716039E+03   -0.35877E-02   -0.35304E-02   490   0.554E-01    0.241E-01
RMM:   4    -0.139464020923E+03    0.69512E-03   -0.43993E-03   489   0.194E-01    0.186E-01
RMM:   5    -0.139463904933E+03    0.11599E-03   -0.46605E-04   440   0.662E-02    0.158E-01
RMM:   6    -0.139463833105E+03    0.71828E-04   -0.14515E-04   346   0.300E-02    0.119E-01
RMM:   7    -0.139463798682E+03    0.34423E-04   -0.40317E-04   354   0.300E-02    0.460E-02
RMM:   8    -0.139463792682E+03    0.59998E-05   -0.12673E-04   337   0.213E-02    0.230E-02
RMM:   9    -0.139463783809E+03    0.88735E-05   -0.16527E-05   239   0.115E-02
  12 F= -.13946378E+03 E0= -.13947565E+03  d E =-.204370E-01
       N       E                     dE             d eps       ncg     rms          rms(c)
DAV:   1    -0.139462547112E+03    0.12456E-02   -0.65491E-01   416   0.157E+00    0.222E-01
RMM:   2    -0.139463866980E+03   -0.13199E-02   -0.13666E-02   446   0.350E-01    0.520E-02
RMM:   3    -0.139464196369E+03   -0.32939E-03   -0.32496E-03   475   0.171E-01    0.759E-02
RMM:   4    -0.139464144926E+03    0.51443E-04   -0.54766E-04   461   0.669E-02    0.610E-02
RMM:   5    -0.139464133231E+03    0.11695E-04   -0.47683E-05   286   0.226E-02    0.516E-02
RMM:   6    -0.139464124993E+03    0.82387E-05   -0.19357E-05   242   0.135E-02
  13 F= -.13946412E+03 E0= -.13947607E+03  d E =-.207782E-01
       N       E                     dE             d eps       ncg     rms          rms(c)
DAV:   1    -0.139443145159E+03    0.20988E-01   -0.12808E+01   400   0.724E+00    0.947E-01
RMM:   2    -0.139466910821E+03   -0.23766E-01   -0.25708E-01   441   0.166E+00    0.256E-01
RMM:   3    -0.139474369810E+03   -0.74590E-02   -0.79664E-02   492   0.855E-01    0.271E-01
RMM:   4    -0.139474695321E+03   -0.32551E-03   -0.90055E-03   491   0.282E-01    0.277E-01
RMM:   5    -0.139474423464E+03    0.27186E-03   -0.89908E-04   438   0.930E-02    0.242E-01
RMM:   6    -0.139474364374E+03    0.59089E-04   -0.16963E-04   403   0.388E-02    0.212E-01
RMM:   7    -0.139474303011E+03    0.61364E-04   -0.47603E-04   355   0.379E-02    0.864E-02
RMM:   8    -0.139474262803E+03    0.40208E-04   -0.45774E-04   392   0.357E-02    0.637E-02
RMM:   9    -0.139474260245E+03    0.25575E-05   -0.47207E-05   319   0.178E-02
  14 F= -.13947426E+03 E0= -.13948629E+03  d E =-.101353E-01
       N       E                     dE             d eps       ncg     rms          rms(c)
DAV:   1    -0.139468740142E+03    0.55227E-02   -0.28496E+00   400   0.338E+00    0.455E-01
RMM:   2    -0.139473921493E+03   -0.51814E-02   -0.56044E-02   443   0.757E-01    0.116E-01
RMM:   3    -0.139475480181E+03   -0.15587E-02   -0.16292E-02   492   0.388E-01    0.126E-01
RMM:   4    -0.139475520583E+03   -0.40402E-04   -0.18787E-03   481   0.129E-01    0.127E-01
RMM:   5    -0.139475457669E+03    0.62914E-04   -0.17687E-04   403   0.422E-02    0.106E-01
RMM:   6    -0.139475436925E+03    0.20745E-04   -0.53569E-05   300   0.201E-02    0.818E-02
RMM:   7    -0.139475436345E+03    0.57948E-06   -0.19762E-04   338   0.222E-02    0.272E-02
RMM:   8    -0.139475428379E+03    0.79662E-05   -0.45910E-05   316   0.139E-02
  15 F= -.13947543E+03 E0= -.13948746E+03  d E =-.113034E-01
       N       E                     dE             d eps       ncg     rms          rms(c)
DAV:   1    -0.139462783399E+03    0.12653E-01   -0.85002E+00   400   0.566E+00    0.686E-01
RMM:   2    -0.139477240233E+03   -0.14457E-01   -0.15427E-01   448   0.122E+00    0.171E-01
RMM:   3    -0.139481661026E+03   -0.44208E-02   -0.45573E-02   498   0.627E-01    0.196E-01
RMM:   4    -0.139481752377E+03   -0.91351E-04   -0.50069E-03   487   0.202E-01    0.190E-01
RMM:   5    -0.139481632723E+03    0.11965E-03   -0.47960E-04   424   0.670E-02    0.165E-01
RMM:   6    -0.139481574262E+03    0.58461E-04   -0.12261E-04   323   0.300E-02    0.121E-01
RMM:   7    -0.139481568731E+03    0.55303E-05   -0.46401E-04   372   0.337E-02    0.438E-02
RMM:   8    -0.139481561837E+03    0.68947E-05   -0.14569E-04   327   0.234E-02    0.501E-02
RMM:   9    -0.139481541276E+03    0.20561E-04   -0.21391E-05   275   0.135E-02    0.234E-02
RMM:  10    -0.139481549130E+03   -0.78543E-05   -0.17614E-04   342   0.171E-02    0.325E-02
RMM:  11    -0.139481536253E+03    0.12878E-04   -0.25492E-05   295   0.990E-03    0.511E-03
RMM:  12    -0.139481539463E+03   -0.32105E-05   -0.33242E-05   248   0.732E-03
  16 F= -.13948154E+03 E0= -.13949364E+03  d E =-.611108E-02
       N       E                     dE             d eps       ncg     rms          rms(c)
DAV:   1    -0.139473261609E+03    0.82746E-02   -0.43332E+00   400   0.404E+00    0.485E-01
RMM:   2    -0.139480552590E+03   -0.72910E-02   -0.77388E-02   448   0.863E-01    0.116E-01
RMM:   3    -0.139482748928E+03   -0.21963E-02   -0.22312E-02   494   0.440E-01    0.142E-01
RMM:   4    -0.139482773448E+03   -0.24520E-04   -0.25263E-03   485   0.146E-01    0.137E-01
RMM:   5    -0.139482716997E+03    0.56451E-04   -0.23145E-04   405   0.480E-02    0.119E-01
RMM:   6    -0.139482686903E+03    0.30093E-04   -0.61911E-05   305   0.222E-02    0.888E-02
RMM:   7    -0.139482680739E+03    0.61641E-05   -0.22908E-04   346   0.239E-02    0.323E-02
RMM:   8    -0.139482678130E+03    0.26096E-05   -0.92950E-05   331   0.177E-02
  17 F= -.13948268E+03 E0= -.13949483E+03  d E =-.724975E-02
       N       E                     dE             d eps       ncg     rms          rms(c)
DAV:   1    -0.139471798091E+03    0.10883E-01   -0.69236E+00   384   0.505E+00    0.632E-01
RMM:   2    -0.139484047613E+03   -0.12250E-01   -0.12893E-01   447   0.108E+00    0.138E-01
RMM:   3    -0.139487527245E+03   -0.34796E-02   -0.34823E-02   492   0.542E-01    0.200E-01
RMM:   4    -0.139487358767E+03    0.16848E-03   -0.41805E-03   486   0.187E-01    0.166E-01
RMM:   5    -0.139487259626E+03    0.99141E-04   -0.38451E-04   426   0.613E-02    0.139E-01
RMM:   6    -0.139487194841E+03    0.64785E-04   -0.14247E-04   313   0.293E-02    0.951E-02
RMM:   7    -0.139487195751E+03   -0.90953E-06   -0.38300E-04   364   0.301E-02    0.369E-02
RMM:   8    -0.139487183525E+03    0.12225E-04   -0.76666E-05   322   0.187E-02    0.242E-02
RMM:   9    -0.139487171368E+03    0.12158E-04   -0.42358E-05   274   0.124E-02    0.824E-03
RMM:  10    -0.139487173393E+03   -0.20259E-05   -0.16246E-05   227   0.813E-03
  18 F= -.13948717E+03 E0= -.13949934E+03  d E =-.449526E-02
       N       E                     dE             d eps       ncg     rms          rms(c)
DAV:   1    -0.139485079191E+03    0.20922E-02   -0.13054E+00   400   0.219E+00    0.271E-01
RMM:   2    -0.139487327890E+03   -0.22487E-02   -0.23487E-02   447   0.463E-01    0.573E-02
RMM:   3    -0.139487951970E+03   -0.62408E-03   -0.61767E-03   490   0.230E-01    0.848E-02
RMM:   4    -0.139487920553E+03    0.31417E-04   -0.74457E-04   466   0.791E-02    0.720E-02
RMM:   5    -0.139487903269E+03    0.17284E-04   -0.66684E-05   313   0.266E-02    0.604E-02
RMM:   6    -0.139487889980E+03    0.13289E-04   -0.31658E-05   285   0.151E-02    0.400E-02
RMM:   7    -0.139487891602E+03   -0.16218E-05   -0.79650E-05   312   0.144E-02
  19 F= -.13948789E+03 E0= -.13950006E+03  d E =-.521347E-02
       N       E                     dE             d eps       ncg     rms          rms(c)
DAV:   1    -0.139475471451E+03    0.12419E-01   -0.52235E+00   400   0.439E+00    0.549E-01
RMM:   2    -0.139484635306E+03   -0.91639E-02   -0.96669E-02   447   0.935E-01    0.119E-01
RMM:   3    -0.139487237481E+03   -0.26022E-02   -0.26122E-02   492   0.469E-01    0.169E-01
RMM:   4    -0.139487143824E+03    0.93657E-04   -0.31061E-03   485   0.161E-01    0.143E-01
RMM:   5    -0.139487067210E+03    0.76614E-04   -0.27474E-04   414   0.521E-02    0.118E-01
RMM:   6    -0.139487012167E+03    0.55043E-04   -0.13093E-04   305   0.265E-02    0.739E-02
RMM:   7    -0.139487027196E+03   -0.15029E-04   -0.33023E-04   359   0.277E-02    0.300E-02
RMM:   8    -0.139487012952E+03    0.14244E-04   -0.41083E-05   316   0.160E-02    0.211E-02
RMM:   9    -0.139487004080E+03    0.88721E-05   -0.48010E-05   279   0.115E-02
  20 F= -.13948700E+03 E0= -.13949916E+03  d E =-.432595E-02
       N       E                     dE             d eps       ncg     rms          rms(c)
DAV:   1    -0.139480487925E+03    0.65250E-02   -0.34091E+00   400   0.354E+00    0.436E-01
RMM:   2    -0.139486416264E+03   -0.59283E-02   -0.62464E-02   447   0.759E-01    0.996E-02
RMM:   3    -0.139488109537E+03   -0.16933E-02   -0.16971E-02   493   0.378E-01    0.136E-01
RMM:   4    -0.139488042914E+03    0.66622E-04   -0.20165E-03   476   0.129E-01    0.115E-01
RMM:   5    -0.139487992696E+03    0.50218E-04   -0.19462E-04   400   0.437E-02    0.967E-02
RMM:   6    -0.139487967527E+03    0.25169E-04   -0.59222E-05   302   0.204E-02    0.730E-02
RMM:   7    -0.139487963889E+03    0.36387E-05   -0.16282E-04   339   0.205E-02    0.292E-02
RMM:   8    -0.139487955188E+03    0.87006E-05   -0.45563E-05   313   0.135E-02
  21 F= -.13948796E+03 E0= -.13950012E+03  d E =-.527706E-02
       N       E                     dE             d eps       ncg     rms          rms(c)
DAV:   1    -0.139484950362E+03    0.30135E-02   -0.24874E+00   400   0.312E+00    0.387E-01
RMM:   2    -0.139489378957E+03   -0.44286E-02   -0.46808E-02   448   0.684E-01    0.962E-02
RMM:   3    -0.139490661781E+03   -0.12828E-02   -0.13111E-02   492   0.344E-01    0.116E-01
RMM:   4    -0.139490645270E+03    0.16511E-04   -0.15880E-03   473   0.116E-01    0.109E-01
RMM:   5    -0.139490606174E+03    0.39096E-04   -0.15289E-04   391   0.391E-02    0.943E-02
RMM:   6    -0.139490582097E+03    0.24077E-04   -0.51363E-05   291   0.190E-02    0.640E-02
RMM:   7    -0.139490584151E+03   -0.20542E-05   -0.26443E-04   362   0.239E-02    0.287E-02
RMM:   8    -0.139490579576E+03    0.45750E-05   -0.16196E-05   250   0.125E-02
  22 F= -.13949058E+03 E0= -.13950290E+03  d E =-.262439E-02
       N       E                     dE             d eps       ncg     rms          rms(c)
DAV:   1    -0.139488546511E+03    0.20376E-02   -0.12335E+00   400   0.217E+00    0.281E-01
RMM:   2    -0.139490744928E+03   -0.21984E-02   -0.23497E-02   448   0.477E-01    0.713E-02
RMM:   3    -0.139491385747E+03   -0.64082E-03   -0.64827E-03   485   0.240E-01    0.806E-02
RMM:   4    -0.139491379717E+03    0.60293E-05   -0.79122E-04   463   0.828E-02    0.752E-02
RMM:   5    -0.139491356291E+03    0.23427E-04   -0.76330E-05   327   0.285E-02    0.626E-02
RMM:   6    -0.139491343805E+03    0.12486E-04   -0.37272E-05   293   0.158E-02    0.364E-02
RMM:   7    -0.139491348043E+03   -0.42385E-05   -0.10121E-04   319   0.161E-02    0.179E-02
RMM:   8    -0.139491345508E+03    0.25346E-05   -0.69661E-06   209   0.922E-03
  23 F= -.13949135E+03 E0= -.13950378E+03  d E =-.339032E-02
       N       E                     dE             d eps       ncg     rms          rms(c)
DAV:   1    -0.139490887814E+03    0.46023E-03   -0.24086E-01   400   0.963E-01    0.124E-01
RMM:   2    -0.139491315412E+03   -0.42760E-03   -0.45745E-03   446   0.209E-01    0.310E-02
RMM:   3    -0.139491435556E+03   -0.12014E-03   -0.12126E-03   473   0.105E-01    0.357E-02
RMM:   4    -0.139491437365E+03   -0.18093E-05   -0.17961E-04   404   0.393E-02    0.343E-02
RMM:   5    -0.139491432871E+03    0.44940E-05   -0.14487E-05   219   0.150E-02
  24 F= -.13949143E+03 E0= -.13950392E+03  d E =-.347768E-02
       N       E                     dE             d eps       ncg     rms          rms(c)
DAV:   1    -0.139485954275E+03    0.54831E-02   -0.33803E+00   384   0.368E+00    0.442E-01
RMM:   2    -0.139491729783E+03   -0.57755E-02   -0.61351E-02   448   0.794E-01    0.123E-01
RMM:   3    -0.139493492645E+03   -0.17629E-02   -0.18299E-02   481   0.406E-01    0.126E-01
RMM:   4    -0.139493622484E+03   -0.12984E-03   -0.23860E-03   482   0.143E-01    0.127E-01
RMM:   5    -0.139493563716E+03    0.58767E-04   -0.23582E-04   405   0.469E-02    0.115E-01
RMM:   6    -0.139493547138E+03    0.16578E-04   -0.50804E-05   301   0.211E-02    0.905E-02
RMM:   7    -0.139493541412E+03    0.57267E-05   -0.34500E-04   386   0.294E-02    0.446E-02
RMM:   8    -0.139493539713E+03    0.16983E-05   -0.23851E-05   262   0.147E-02
  25 F= -.13949354E+03 E0= -.13950605E+03  d E =-.210684E-02
       N       E                     dE             d eps       ncg     rms          rms(c)
DAV:   1    -0.139492913050E+03    0.62836E-03   -0.37965E-01   400   0.123E+00    0.170E-01
RMM:   2    -0.139493552653E+03   -0.63960E-03   -0.70241E-03   447   0.260E-01    0.485E-02
RMM:   3    -0.139493753972E+03   -0.20132E-03   -0.19957E-03   478   0.133E-01    0.386E-02
RMM:   4    -0.139493764206E+03   -0.10234E-04   -0.26074E-04   429   0.478E-02    0.373E-02
RMM:   5    -0.139493753596E+03    0.10609E-04   -0.28511E-05   240   0.184E-02    0.293E-02
RMM:   6    -0.139493751703E+03    0.18939E-05   -0.10994E-05   214   0.117E-02
  26 F= -.13949375E+03 E0= -.13950627E+03  d E =-.231883E-02
       N       E                     dE             d eps       ncg     rms          rms(c)
DAV:   1    -0.139491136771E+03    0.26168E-02   -0.19049E+00   368   0.279E+00    0.346E-01
RMM:   2    -0.139494594420E+03   -0.34576E-02   -0.36802E-02   445   0.599E-01    0.679E-02
RMM:   3    -0.139495418946E+03   -0.82453E-03   -0.90404E-03   490   0.297E-01    0.849E-02
RMM:   4    -0.139495500753E+03   -0.81807E-04   -0.12488E-03   474   0.103E-01    0.765E-02
RMM:   5    -0.139495483968E+03    0.16786E-04   -0.94974E-05   337   0.317E-02    0.698E-02
RMM:   6    -0.139495474783E+03    0.91850E-05   -0.25238E-05   237   0.164E-02
  27 F= -.13949547E+03 E0= -.13950804E+03  d E =-.172308E-02
       N       E                     dE             d eps       ncg     rms          rms(c)
DAV:   1    -0.139494593840E+03    0.89013E-03   -0.59922E-01   400   0.157E+00    0.191E-01
RMM:   2    -0.139495631341E+03   -0.10375E-02   -0.11177E-02   446   0.330E-01    0.459E-02
RMM:   3    -0.139495893567E+03   -0.26223E-03   -0.27815E-03   489   0.162E-01    0.444E-02
RMM:   4    -0.139495919997E+03   -0.26430E-04   -0.37866E-04   437   0.571E-02    0.433E-02
RMM:   5    -0.139495906900E+03    0.13096E-04   -0.31766E-05   236   0.197E-02    0.340E-02
RMM:   6    -0.139495903401E+03    0.34990E-05   -0.15277E-05   223   0.130E-02
  28 F= -.13949590E+03 E0= -.13950850E+03  d E =-.215170E-02
       N       E                     dE             d eps       ncg     rms          rms(c)
DAV:   1    -0.139490173019E+03    0.57339E-02   -0.24069E+00   368   0.314E+00    0.391E-01
RMM:   2    -0.139494523068E+03   -0.43500E-02   -0.46350E-02   445   0.670E-01    0.802E-02
RMM:   3    -0.139495557209E+03   -0.10341E-02   -0.11260E-02   488   0.333E-01    0.932E-02
RMM:   4    -0.139495671242E+03   -0.11403E-03   -0.16343E-03   475   0.118E-01    0.869E-02
RMM:   5    -0.139495642394E+03    0.28848E-04   -0.12140E-04   375   0.356E-02    0.770E-02
RMM:   6    -0.139495631764E+03    0.10630E-04   -0.36056E-05   254   0.180E-02    0.631E-02
RMM:   7    -0.139495620933E+03    0.10830E-04   -0.14750E-04   338   0.198E-02    0.128E-02
RMM:   8    -0.139495622349E+03   -0.14159E-05   -0.20675E-05   249   0.118E-02
  29 F= -.13949562E+03 E0= -.13950827E+03  d E =-.187065E-02
       N       E                     dE             d eps       ncg     rms          rms(c)
DAV:   1    -0.139493387148E+03    0.22338E-02   -0.11411E+00   368   0.217E+00    0.264E-01
RMM:   2    -0.139495466203E+03   -0.20791E-02   -0.21987E-02   445   0.472E-01    0.536E-02
RMM:   3    -0.139495963987E+03   -0.49778E-03   -0.55086E-03   488   0.234E-01    0.695E-02
RMM:   4    -0.139496014560E+03   -0.50573E-04   -0.75184E-04   459   0.811E-02    0.648E-02
RMM:   5    -0.139496000284E+03    0.14276E-04   -0.62604E-05   290   0.265E-02    0.590E-02
RMM:   6    -0.139495994338E+03    0.59457E-05   -0.16392E-05   223   0.147E-02
  30 F= -.13949599E+03 E0= -.13950862E+03  d E =-.224264E-02
       N       E                     dE             d eps       ncg     rms          rms(c)
DAV:   1    -0.139494413316E+03    0.15870E-02   -0.12508E+00   384   0.230E+00    0.215E-01
RMM:   2    -0.139496386491E+03   -0.19732E-02   -0.20631E-02   446   0.459E-01    0.520E-02
RMM:   3    -0.139496938264E+03   -0.55177E-03   -0.56148E-03   484   0.234E-01    0.634E-02
RMM:   4    -0.139496992363E+03   -0.54099E-04   -0.75784E-04   495   0.830E-02    0.656E-02
RMM:   5    -0.139496978672E+03    0.13691E-04   -0.50225E-05   275   0.246E-02    0.588E-02
RMM:   6    -0.139496969430E+03    0.92417E-05   -0.21784E-05   234   0.154E-02
  31 F= -.13949697E+03 E0= -.13950966E+03  d E =-.975092E-03
       N       E                     dE             d eps       ncg     rms          rms(c)
DAV:   1    -0.139493409440E+03    0.35692E-02   -0.21607E+00   400   0.302E+00    0.289E-01
RMM:   2    -0.139496657508E+03   -0.32481E-02   -0.34826E-02   448   0.597E-01    0.809E-02
RMM:   3    -0.139497626659E+03   -0.96915E-03   -0.97663E-03   486   0.305E-01    0.688E-02
RMM:   4    -0.139497735693E+03   -0.10903E-03   -0.13231E-03   489   0.109E-01    0.721E-02
RMM:   5    -0.139497705971E+03    0.29722E-04   -0.98781E-05   333   0.334E-02    0.622E-02
RMM:   6    -0.139497697062E+03    0.89094E-05   -0.35517E-05   302   0.185E-02
  32 F= -.13949770E+03 E0= -.13951048E+03  d E =-.170272E-02
       N       E                     dE             d eps       ncg     rms          rms(c)
DAV:   1    -0.139497115564E+03    0.59041E-03   -0.36385E-01   416   0.124E+00    0.124E-01
RMM:   2    -0.139497638575E+03   -0.52301E-03   -0.57607E-03   446   0.242E-01    0.378E-02
RMM:   3    -0.139497804184E+03   -0.16561E-03   -0.16444E-03   482   0.124E-01    0.249E-02
RMM:   4    -0.139497823352E+03   -0.19169E-04   -0.22204E-04   411   0.446E-02    0.272E-02
RMM:   5    -0.139497816473E+03    0.68798E-05   -0.17903E-05   223   0.168E-02
  33 F= -.13949782E+03 E0= -.13951064E+03  d E =-.182213E-02
       N       E                     dE             d eps       ncg     rms          rms(c)
DAV:   1    -0.139496906630E+03    0.91672E-03   -0.69202E-01   368   0.176E+00    0.250E-01
RMM:   2    -0.139498368034E+03   -0.14614E-02   -0.15597E-02   443   0.406E-01    0.551E-02
RMM:   3    -0.139498744543E+03   -0.37651E-03   -0.39919E-03   487   0.203E-01    0.764E-02
RMM:   4    -0.139498747199E+03   -0.26560E-05   -0.57232E-04   477   0.717E-02    0.728E-02
RMM:   5    -0.139498729119E+03    0.18080E-04   -0.45572E-05   274   0.236E-02    0.601E-02
RMM:   6    -0.139498713112E+03    0.16007E-04   -0.57711E-05   303   0.165E-02    0.237E-02
RMM:   7    -0.139498719463E+03   -0.63515E-05   -0.71625E-05   310   0.142E-02
  34 F= -.13949872E+03 E0= -.13951145E+03  d E =-.902991E-03
       N       E                     dE             d eps       ncg     rms          rms(c)
DAV:   1    -0.139498362694E+03    0.35042E-03   -0.19760E-01   400   0.950E-01    0.145E-01
RMM:   2    -0.139498783593E+03   -0.42090E-03   -0.46549E-03   445   0.219E-01    0.325E-02
RMM:   3    -0.139498898796E+03   -0.11520E-03   -0.12033E-03   480   0.110E-01    0.376E-02
RMM:   4    -0.139498897261E+03    0.15350E-05   -0.16150E-04   423   0.393E-02    0.348E-02
RMM:   5    -0.139498890834E+03    0.64275E-05   -0.16441E-05   223   0.157E-02
  35 F= -.13949889E+03 E0= -.13951157E+03  d E =-.107436E-02
       N       E                     dE             d eps       ncg     rms          rms(c)
DAV:   1    -0.139498576392E+03    0.32087E-03   -0.30387E-01   400   0.118E+00    0.168E-01
RMM:   2    -0.139499210419E+03   -0.63403E-03   -0.68514E-03   447   0.266E-01    0.376E-02
RMM:   3    -0.139499363490E+03   -0.15307E-03   -0.16881E-03   479   0.133E-01    0.462E-02
RMM:   4    -0.139499378810E+03   -0.15321E-04   -0.25109E-04   406   0.478E-02    0.439E-02
RMM:   5    -0.139499374108E+03    0.47028E-05   -0.19560E-05   231   0.175E-02
  36 F= -.13949937E+03 E0= -.13951208E+03  d E =-.483274E-03
