 vasp.6.3.2 27Jun22 (build Jun 14 2024 17:29:11) complex                         
 executed on             LinuxGNU date 2026.04.03  10:22:30
 running on   16 total cores
 distrk:  each k-point on   16 cores,    1 groups
 distr:  one band on NCORE=   1 cores,   16 groups


--------------------------------------------------------------------------------------------------------


 INCAR:
   SYSTEM = endpoint_relax
   ENCUT = 400
   EDIFF = 1E-05
   PREC = Normal
   ALGO = Fast
   LREAL = Auto
   ISYM = 0
   IBRION = 2
   ISIF = 2
   NSW = 300
   EDIFFG = -0.02
   LWAVE = .TRUE.
   LCHARG = .FALSE.

 POTCAR:    PAW_PBE Na_pv 19Sep2006               
 POTCAR:    PAW_PBE In_d 06Sep2000                
 POTCAR:    PAW_PBE S 06Sep2000                   
 -----------------------------------------------------------------------------
|                                                                             |
|           W    W    AA    RRRRR   N    N  II  N    N   GGGG   !!!           |
|           W    W   A  A   R    R  NN   N  II  NN   N  G    G  !!!           |
|           W    W  A    A  R    R  N N  N  II  N N  N  G       !!!           |
|           W WW W  AAAAAA  RRRRR   N  N N  II  N  N N  G  GGG   !            |
|           WW  WW  A    A  R   R   N   NN  II  N   NN  G    G                |
|           W    W  A    A  R    R  N    N  II  N    N   GGGG   !!!           |
|                                                                             |
|     For optimal performance we recommend to set                             |
|       NCORE = 2 up to number-of-cores-per-socket                            |
|     NCORE specifies how many cores store one orbital (NPAR=cpu/NCORE).      |
|     This setting can greatly improve the performance of VASP for DFT.       |
|     The default, NCORE=1 might be grossly inefficient on modern             |
|     multi-core architectures or massively parallel machines. Do your        |
|     own testing! More info at https://www.vasp.at/wiki/index.php/NCORE      |
|     Unfortunately you need to use the default for GW and RPA                |
|     calculations (for HF NCORE is supported but not extensively tested      |
|     yet).                                                                   |
|                                                                             |
 -----------------------------------------------------------------------------

 POTCAR:    PAW_PBE Na_pv 19Sep2006               
   SHA256 =  6a2f546d9e11350984debacf3dc457d8cffc0868e817d445faca461816a32b94 Na_pv/POTCAR          
   COPYR  = (c) Copyright 19Sep2006 Georg Kresse                                                    
   COPYR  = This file is part of the software VASP. Any use, copying, and all other rights are regul
   COPYR  = If you do not have a valid VASP license, you may not use, copy or distribute this file. 
   VRHFIN =Na: p6s1                                                                                 
   LEXCH  = PE                                                                                      
   EATOM  =   766.0439 eV,   56.3026 Ry                                                             
                                                                                                    
   TITEL  = PAW_PBE Na_pv 19Sep2006                                                                 
   LULTRA =        F    use ultrasoft PP ?                                                          
   IUNSCR =        1    unscreen: 0-lin 1-nonlin 2-no                                               
   RPACOR =    1.800    partial core radius                                                         
   POMASS =   22.990; ZVAL   =    7.000    mass and valenz                                          
   RCORE  =    2.200    outmost cutoff radius                                                       
   RWIGS  =    2.200; RWIGS  =    1.164    wigner-seitz radius (au A)                               
   ENMAX  =  259.561; ENMIN  =  194.671 eV                                                          
   ICORE  =        2    local potential                                                             
   LCOR   =        T    correct aug charges                                                         
   LPAW   =        T    paw PP                                                                      
   EAUG   =  368.056                                                                                
   DEXC   =    0.000                                                                                
   RMAX   =    2.245    core radius for proj-oper                                                   
   RAUG   =    1.300    factor for augmentation sphere                                              
   RDEP   =    2.259    radius for radial grids                                                     
   RDEPT  =    1.738    core radius for aug-charge                                                  
                                                                                                    
   Atomic configuration                                                                             
    5 entries                                                                                       
     n  l   j            E        occ.                                                              
     1  0  0.50     -1033.6933   2.0000                                                             
     2  0  0.50       -56.7526   2.0000                                                             
     2  1  1.50       -28.6721   6.0000                                                             
     3  0  0.50        -2.7440   1.0000                                                             
     3  2  1.50        -1.3606   0.0000                                                             
   Description                                                                                      
     l       E           TYP  RCUT    TYP  RCUT                                                     
     1    -28.6720912     23  2.000                                                                 
     1      6.8029130     23  2.000                                                                 
     0     -2.7439560     23  2.200                                                                 
     0     34.0145650     23  2.200                                                                 
     2     -1.3605826     23  2.200                                                                 
  local pseudopotential read in
  partial core-charges read in
  partial kinetic energy density read in
  atomic valenz-charges read in
  non local Contribution for L=           1  read in
    real space projection operators read in
  non local Contribution for L=           1  read in
    real space projection operators read in
  non local Contribution for L=           0  read in
    real space projection operators read in
  non local Contribution for L=           0  read in
    real space projection operators read in
    PAW grid and wavefunctions read in

   number of l-projection  operators is LMAX  =           4
   number of lm-projection operators is LMMAX =           8

 POTCAR:    PAW_PBE In_d 06Sep2000                
   SHA256 =  bef4eefb233e1f458c7ef2e09e39e7114bb5a6a38c7ac356915527764429c513 In_d/POTCAR           
   COPYR  = (c) Copyright 06Sep2000 Georg Kresse                                                    
   COPYR  = This file is part of the software VASP. Any use, copying, and all other rights are regul
   COPYR  = If you do not have a valid VASP license, you may not use, copy or distribute this file. 
   VRHFIN =In: s2p1                                                                                 
   LEXCH  = PE                                                                                      
   EATOM  =  1576.8302 eV,  115.8937 Ry                                                             
                                                                                                    
   TITEL  = PAW_PBE In_d 06Sep2000                                                                  
   LULTRA =        F    use ultrasoft PP ?                                                          
   IUNSCR =        1    unscreen: 0-lin 1-nonlin 2-no                                               
   RPACOR =    2.200    partial core radius                                                         
   POMASS =  114.820; ZVAL   =   13.000    mass and valenz                                          
   RCORE  =    2.500    outmost cutoff radius                                                       
   RWIGS  =    3.170; RWIGS  =    1.677    wigner-seitz radius (au A)                               
   ENMAX  =  239.211; ENMIN  =  179.409 eV                                                          
   ICORE  =        3    local potential                                                             
   LCOR   =        T    correct aug charges                                                         
   LPAW   =        T    paw PP                                                                      
   EAUG   =  449.704                                                                                
   DEXC   =    0.000                                                                                
   RMAX   =    2.552    core radius for proj-oper                                                   
   RAUG   =    1.300    factor for augmentation sphere                                              
   RDEP   =    2.630    radius for radial grids                                                     
   RDEPT  =    2.033    core radius for aug-charge                                                  
                                                                                                    
   Atomic configuration                                                                             
   12 entries                                                                                       
     n  l   j            E        occ.                                                              
     1  0  0.50    -27747.9169   2.0000                                                             
     2  0  0.50     -4154.4438   2.0000                                                             
     2  1  1.50     -3728.4305   6.0000                                                             
     3  0  0.50      -788.3680   2.0000                                                             
     3  1  1.50      -648.9215   6.0000                                                             
     3  2  2.50      -432.5893  10.0000                                                             
     4  0  0.50      -119.6363   2.0000                                                             
     4  1  1.50       -78.1086   6.0000                                                             
     4  2  2.50       -18.6227  10.0000                                                             
     5  0  0.50        -8.2107   2.0000                                                             
     5  1  0.50        -2.5185   1.0000                                                             
     4  3  2.50        -2.7212   0.0000                                                             
   Description                                                                                      
     l       E           TYP  RCUT    TYP  RCUT                                                     
     2    -18.6226981     23  2.500                                                                 
     2     -1.3605826     23  2.500                                                                 
     0     -8.2107305     23  2.500                                                                 
     0     -6.1485975     23  2.500                                                                 
     1     -2.5184867     23  2.500                                                                 
     1      3.2427302     23  2.500                                                                 
     3     -1.3605826      7  2.500                                                                 
  local pseudopotential read in
  partial core-charges read in
  partial kinetic energy density read in
  atomic valenz-charges read in
  non local Contribution for L=           2  read in
    real space projection operators read in
  non local Contribution for L=           2  read in
    real space projection operators read in
  non local Contribution for L=           0  read in
    real space projection operators read in
  non local Contribution for L=           0  read in
    real space projection operators read in
  non local Contribution for L=           1  read in
    real space projection operators read in
  non local Contribution for L=           1  read in
    real space projection operators read in
    PAW grid and wavefunctions read in

   number of l-projection  operators is LMAX  =           6
   number of lm-projection operators is LMMAX =          18

 POTCAR:    PAW_PBE S 06Sep2000                   
   SHA256 =  0fc7481fb0695f01bdc6462160264c5c84044ae9ec85a907d398b887a2bc3132 S/POTCAR              
   COPYR  = (c) Copyright 06Sep2000 Georg Kresse                                                    
   COPYR  = This file is part of the software VASP. Any use, copying, and all other rights are regul
   COPYR  = If you do not have a valid VASP license, you may not use, copy or distribute this file. 
   VRHFIN =S : s2p4                                                                                 
   LEXCH  = PE                                                                                      
   EATOM  =   276.8230 eV,   20.3459 Ry                                                             
                                                                                                    
   TITEL  = PAW_PBE S 06Sep2000                                                                     
   LULTRA =        F    use ultrasoft PP ?                                                          
   IUNSCR =        1    unscreen: 0-lin 1-nonlin 2-no                                               
   RPACOR =    1.500    partial core radius                                                         
   POMASS =   32.066; ZVAL   =    6.000    mass and valenz                                          
   RCORE  =    1.900    outmost cutoff radius                                                       
   RWIGS  =    2.200; RWIGS  =    1.164    wigner-seitz radius (au A)                               
   ENMAX  =  258.689; ENMIN  =  194.016 eV                                                          
   ICORE  =        2    local potential                                                             
   LCOR   =        T    correct aug charges                                                         
   LPAW   =        T    paw PP                                                                      
   EAUG   =  335.092                                                                                
   DEXC   =    0.000                                                                                
   RMAX   =    1.942    core radius for proj-oper                                                   
   RAUG   =    1.300    factor for augmentation sphere                                              
   RDEP   =    1.954    radius for radial grids                                                     
   RDEPT  =    1.744    core radius for aug-charge                                                  
                                                                                                    
   Atomic configuration                                                                             
    6 entries                                                                                       
     n  l   j            E        occ.                                                              
     1  0  0.50     -2405.8406   2.0000                                                             
     2  0  0.50      -211.7007   2.0000                                                             
     2  1  1.50      -156.4958   6.0000                                                             
     3  0  0.50       -17.2562   2.0000                                                             
     3  1  0.50        -7.0085   4.0000                                                             
     3  2  1.50        -6.8029   0.0000                                                             
   Description                                                                                      
     l       E           TYP  RCUT    TYP  RCUT                                                     
     0    -17.2561641     23  1.900                                                                 
     0    -15.8743224     23  1.900                                                                 
     1     -7.0085400     23  1.900                                                                 
     1     -2.7779785     23  1.900                                                                 
     2     -6.8029130     23  1.900                                                                 
  local pseudopotential read in
  partial core-charges read in
  partial kinetic energy density read in
  atomic valenz-charges read in
  non local Contribution for L=           0  read in
    real space projection operators read in
  non local Contribution for L=           0  read in
    real space projection operators read in
  non local Contribution for L=           1  read in
    real space projection operators read in
  non local Contribution for L=           1  read in
    real space projection operators read in
    PAW grid and wavefunctions read in

   number of l-projection  operators is LMAX  =           4
   number of lm-projection operators is LMMAX =           8

 Optimization of the real space projectors (new method)

 maximal supplied QI-value         = 17.01
 optimisation between [QCUT,QGAM] = [ 10.20, 20.41] = [ 29.16,116.64] Ry 
 Optimized for a Real-space Cutoff    1.30 Angstroem

   l    n(q)    QCUT    max X(q) W(low)/X(q) W(high)/X(q)  e(spline) 
   1      7    10.205     4.940    0.23E-03    0.84E-03    0.11E-06
   1      7    10.205     6.253    0.40E-03    0.13E-02    0.18E-06
   0      8    10.205    37.438    0.23E-03    0.37E-03    0.42E-07
   0      8    10.205     9.606    0.16E-03    0.26E-03    0.31E-07
 Optimization of the real space projectors (new method)

 maximal supplied QI-value         = 15.12
 optimisation between [QCUT,QGAM] = [ 10.13, 20.41] = [ 28.73,116.64] Ry 
 Optimized for a Real-space Cutoff    1.38 Angstroem

   l    n(q)    QCUT    max X(q) W(low)/X(q) W(high)/X(q)  e(spline) 
   2      7    10.129     4.551    0.64E-04    0.18E-03    0.26E-07
   2      7    10.129     8.525    0.32E-03    0.27E-04    0.88E-07
   0      8    10.129   208.283    0.16E-03    0.21E-03    0.10E-06
   0      8    10.129   161.407    0.16E-03    0.21E-03    0.10E-06
   1      8    10.129   122.126    0.27E-03    0.20E-03    0.14E-06
   1      8    10.129    62.412    0.26E-03    0.19E-03    0.13E-06
 Optimization of the real space projectors (new method)

 maximal supplied QI-value         = 19.84
 optimisation between [QCUT,QGAM] = [ 10.12, 20.44] = [ 28.68,116.96] Ry 
 Optimized for a Real-space Cutoff    1.23 Angstroem

   l    n(q)    QCUT    max X(q) W(low)/X(q) W(high)/X(q)  e(spline) 
   0      7    10.119   187.594    0.62E-04    0.28E-03    0.52E-07
   0      7    10.119   164.243    0.61E-04    0.28E-03    0.52E-07
   1      7    10.119    67.533    0.45E-03    0.63E-03    0.13E-06
   1      7    10.119    50.729    0.44E-03    0.62E-03    0.12E-06
  PAW_PBE Na_pv 19Sep2006               :
 energy of atom  1       EATOM= -766.0439
 kinetic energy error for atom=    0.0103 (will be added to EATOM!!)
  PAW_PBE In_d 06Sep2000                :
 energy of atom  2       EATOM=-1576.8302
 kinetic energy error for atom=    0.0052 (will be added to EATOM!!)
  PAW_PBE S 06Sep2000                   :
 energy of atom  3       EATOM= -276.8230
 kinetic energy error for atom=    0.0046 (will be added to EATOM!!)


 POSCAR: JVASP-12818_Na5InS4 NEB image 06
  positions in direct lattice
  No initial velocities read in
 exchange correlation table for  LEXCH =        8
   RHO(1)=    0.500       N(1)  =     2000
   RHO(2)=  100.500       N(2)  =     4000



--------------------------------------------------------------------------------------------------------


 ion  position               nearest neighbor table
   1  0.331  0.375  0.839-  31 2.71  20 3.36
   2  0.344  0.010  0.335-  39 2.73  25 2.73  26 2.77  22 3.38
   3  0.344  0.240  0.335-  31 2.73  25 2.73  29 2.77  20 3.38
   4  0.656  0.490  0.665-  38 2.73  24 2.73  28 2.77  23 3.38
   5  0.975  0.125  0.529-
   6  0.025  0.375  0.471-
   7  0.669  0.125  0.161-  30 2.71  21 3.36
   8  0.000  0.000  0.000-
   9  0.000  0.250  0.000-
  10  0.656  0.760  0.665-  38 2.73  32 2.73  35 2.77  23 3.38
  11  0.344  0.510  0.335-  31 2.73  33 2.73  34 2.77  20 3.38
  12  0.344  0.740  0.335-  39 2.73  33 2.73  37 2.77  22 3.38
  13  0.656  0.990  0.665-  30 2.73  32 2.73  36 2.77  21 3.38
  14  0.975  0.625  0.529-
  15  0.025  0.875  0.471-
  16  0.669  0.625  0.161-  38 2.71  23 3.36
  17  0.331  0.875  0.839-  39 2.71  22 3.36
  18  0.000  0.500  0.000-
  19  0.000  0.750  0.000-
  20  0.639  0.375  0.176-  24 2.50  31 2.51  28 2.52  27 2.52   1 3.36   3 3.38  11 3.38
  21  0.361  0.125  0.824-  25 2.50  30 2.51  26 2.52  29 2.52   7 3.36  13 3.38
  22  0.639  0.875  0.176-  32 2.50  39 2.51  36 2.52  35 2.52  17 3.36  12 3.38   2 3.38
  23  0.361  0.625  0.824-  33 2.50  38 2.51  34 2.52  37 2.52  16 3.36  10 3.38   4 3.38
  24  0.761  0.375  0.880-  20 2.50   4 2.73
  25  0.239  0.125  0.120-  21 2.50   3 2.73   2 2.73
  26  0.233  0.010  0.672-  21 2.52   2 2.77
  27  0.767  0.260  0.328-  20 2.52
  28  0.767  0.490  0.328-  20 2.52   4 2.77
  29  0.233  0.240  0.672-  21 2.52   3 2.77
  30  0.729  0.125  0.821-  21 2.51   7 2.71  13 2.73
  31  0.271  0.375  0.179-  20 2.51   1 2.71  11 2.73   3 2.73
  32  0.761  0.875  0.880-  22 2.50  13 2.73  10 2.73
  33  0.239  0.625  0.120-  23 2.50  12 2.73  11 2.73
  34  0.233  0.510  0.672-  23 2.52  11 2.77
  35  0.767  0.760  0.328-  22 2.52  10 2.77
  36  0.767  0.990  0.328-  22 2.52  13 2.77
  37  0.233  0.740  0.672-  23 2.52  12 2.77
  38  0.729  0.625  0.821-  23 2.51  16 2.71   4 2.73  10 2.73
  39  0.271  0.875  0.179-  22 2.51  17 2.71   2 2.73  12 2.73


IMPORTANT INFORMATION: All symmetrisations will be switched off!
NOSYMM: (Re-)initialisation of all symmetry stuff for point group C_1.


----------------------------------------------------------------------------------------

                                     Primitive cell                                     

  volume of cell :     951.5811

  direct lattice vectors                    reciprocal lattice vectors
     6.833068891 -0.000000000 -0.127247023     0.146348793  0.000000000  0.000089461
    -0.000000000 17.671850551  0.000000000     0.000000000  0.056587169  0.000000000
    -0.004817206  0.000000000  7.880484692     0.002363109 -0.000000000  0.126897193

  length of vectors
     6.834253601 17.671850551  7.880486165     0.146348820  0.056587169  0.126919194

  position of ions in fractional coordinates (direct lattice)
     0.330857231  0.375000000  0.839203004
     0.343579326  0.010081620  0.335046513
     0.343579326  0.239918380  0.335046513
     0.656420674  0.489918380  0.664953487
     0.974932254  0.125000000  0.528779272
     0.025067746  0.375000000  0.471220728
     0.669142769  0.125000000  0.160796996
     0.000000000  0.000000000  0.000000000
     0.000000000  0.250000000  1.000000000
     0.656420674  0.760081620  0.664953487
     0.343579326  0.510081620  0.335046513
     0.343579326  0.739918380  0.335046513
     0.656420674  0.989918380  0.664953487
     0.974932254  0.625000000  0.528779272
     0.025067746  0.875000000  0.471220728
     0.669142769  0.625000000  0.160796996
     0.330857231  0.875000000  0.839203004
     0.000000000  0.500000000  1.000000000
     0.000000000  0.750000000  1.000000000
     0.638540005  0.375000000  0.176435958
     0.361459995  0.125000000  0.823564042
     0.638540005  0.875000000  0.176435958
     0.361459995  0.625000000  0.823564042
     0.760565672  0.375000000  0.880038541
     0.239434328  0.125000000  0.119961459
     0.233181450  0.009502762  0.671668979
     0.766818550  0.259502762  0.328331021
     0.766818550  0.490497238  0.328331021
     0.233181450  0.240497238  0.671668979
     0.728516862  0.125000000  0.821493095
     0.271483138  0.375000000  0.178506905
     0.760565672  0.875000000  0.880038541
     0.239434328  0.625000000  0.119961459
     0.233181450  0.509502762  0.671668979
     0.766818550  0.759502762  0.328331021
     0.766818550  0.990497238  0.328331021
     0.233181450  0.740497238  0.671668979
     0.728516862  0.625000000  0.821493095
     0.271483138  0.875000000  0.178506905

  ion indices of the primitive-cell ions
   primitive index   ion index
                 1           1
                 2           2
                 3           3
                 4           4
                 5           5
                 6           6
                 7           7
                 8           8
                 9           9
                10          10
                11          11
                12          12
                13          13
                14          14
                15          15
                16          16
                17          17
                18          18
                19          19
                20          20
                21          21
                22          22
                23          23
                24          24
                25          25
                26          26
                27          27
                28          28
                29          29
                30          30
                31          31
                32          32
                33          33
                34          34
                35          35
                36          36
                37          37
                38          38
                39          39

----------------------------------------------------------------------------------------



 KPOINTS: Gamma-point only                        

Automatic generation of k-mesh.
 Grid dimensions read from file:
 generate k-points for:    1    1    1

 Generating k-lattice:

  Cartesian coordinates                     Fractional coordinates (reciprocal lattice)
     0.146348793  0.000000000  0.000089461     1.000000000  0.000000000  0.000000000
     0.000000000  0.056587169  0.000000000     0.000000000  1.000000000  0.000000000
     0.002363109 -0.000000000  0.126897193     0.000000000 -0.000000000  1.000000000

  Length of vectors
     0.146348820  0.056587169  0.126919194

  Shift w.r.t. Gamma in fractional coordinates (k-lattice)
     0.000000000  0.000000000  0.000000000

 
 Subroutine IBZKPT returns following result:
 ===========================================
 
 Found      1 irreducible k-points:
 
 Following reciprocal coordinates:
            Coordinates               Weight
  0.000000  0.000000  0.000000      1.000000
 
 Following cartesian coordinates:
            Coordinates               Weight
  0.000000  0.000000  0.000000      1.000000
 


--------------------------------------------------------------------------------------------------------




 Dimension of arrays:
   k-points           NKPTS =      1   k-points in BZ     NKDIM =      1   number of bands    NBANDS=    176
   number of dos      NEDOS =    301   number of ions     NIONS =     39
   non local maximal  LDIM  =      6   non local SUM 2l+1 LMDIM =     18
   total plane-waves  NPLWV = 129600
   max r-space proj   IRMAX =   1551   max aug-charges    IRDMAX=   6082
   dimension x,y,z NGX =    36 NGY =   90 NGZ =   40
   dimension x,y,z NGXF=    72 NGYF=  180 NGZF=   80
   support grid    NGXF=    72 NGYF=  180 NGZF=   80
   ions per type =              19   4  16
   NGX,Y,Z   is equivalent  to a cutoff of   8.76,  8.47,  8.44 a.u.
   NGXF,Y,Z  is equivalent  to a cutoff of  17.51, 16.93, 16.88 a.u.

 SYSTEM =  endpoint_relax                          
 POSCAR =  JVASP-12818_Na5InS4 NEB image 06        

 Startparameter for this run:
   NWRITE =      2    write-flag & timer
   PREC   = normal    normal or accurate (medium, high low for compatibility)
   ISTART =      0    job   : 0-new  1-cont  2-samecut
   ICHARG =      2    charge: 1-file 2-atom 10-const
   ISPIN  =      1    spin polarized calculation?
   LNONCOLLINEAR =      F non collinear calculations
   LSORBIT =      F    spin-orbit coupling
   INIWAV =      1    electr: 0-lowe 1-rand  2-diag
   LASPH  =      F    aspherical Exc in radial PAW
 Electronic Relaxation 1
   ENCUT  =  400.0 eV  29.40 Ry    5.42 a.u.  11.14 28.82 12.85*2*pi/ulx,y,z
   ENINI  =  400.0     initial cutoff
   ENAUG  =  449.7 eV  augmentation charge cutoff
   NELM   =     60;   NELMIN=  2; NELMDL= -5     # of ELM steps 
   EDIFF  = 0.1E-04   stopping-criterion for ELM
   LREAL  =      T    real-space projection
   NLSPLINE    = F    spline interpolate recip. space projectors
   LCOMPAT=      F    compatible to vasp.4.4
   GGA_COMPAT  = T    GGA compatible to vasp.4.4-vasp.4.6
   LMAXPAW     = -100 max onsite density
   LMAXMIX     =    2 max onsite mixed and CHGCAR
   VOSKOWN=      0    Vosko Wilk Nusair interpolation
   ROPT   =   -0.00050  -0.00050  -0.00050
 Ionic relaxation
   EDIFFG = -.2E-01   stopping-criterion for IOM
   NSW    =    300    number of steps for IOM
   NBLOCK =      1;   KBLOCK =    300    inner block; outer block 
   IBRION =      2    ionic relax: 0-MD 1-quasi-New 2-CG
   NFREE  =      1    steps in history (QN), initial steepest desc. (CG)
   ISIF   =      2    stress and relaxation
   IWAVPR =     11    prediction:  0-non 1-charg 2-wave 3-comb
   ISYM   =      0    0-nonsym 1-usesym 2-fastsym
   LCORR  =      T    Harris-Foulkes like correction to forces

   POTIM  = 0.5000    time-step for ionic-motion
   TEIN   =    0.0    initial temperature
   TEBEG  =    0.0;   TEEND  =   0.0 temperature during run
   SMASS  =  -3.00    Nose mass-parameter (am)
   estimated Nose-frequenzy (Omega)   =  0.10E-29 period in steps = 0.13E+47 mass=  -0.107E-26a.u.
   SCALEE = 1.0000    scale energy and forces
   NPACO  =    256;   APACO  = 10.0  distance and # of slots for P.C.
   PSTRESS=    0.0 pullay stress

  Mass of Ions in am
   POMASS =  22.99114.82 32.07
  Ionic Valenz
   ZVAL   =   7.00 13.00  6.00
  Atomic Wigner-Seitz radii
   RWIGS  =  -1.00 -1.00 -1.00
  virtual crystal weights 
   VCA    =   1.00  1.00  1.00
   NELECT =     281.0000    total number of electrons
   NUPDOWN=      -1.0000    fix difference up-down

 DOS related values:
   EMIN   =  10.00;   EMAX   =-10.00  energy-range for DOS
   EFERMI =   0.00
   ISMEAR =     1;   SIGMA  =   0.20  broadening in eV -4-tet -1-fermi 0-gaus

 Electronic relaxation 2 (details)
   IALGO  =     68    algorithm
   LDIAG  =      T    sub-space diagonalisation (order eigenvalues)
   LSUBROT=      F    optimize rotation matrix (better conditioning)
   TURBO    =      0    0=normal 1=particle mesh
   IRESTART =      0    0=no restart 2=restart with 2 vectors
   NREBOOT  =      0    no. of reboots
   NMIN     =      0    reboot dimension
   EREF     =   0.00    reference energy to select bands
   IMIX   =      4    mixing-type and parameters
     AMIX     =   0.40;   BMIX     =  1.00
     AMIX_MAG =   1.60;   BMIX_MAG =  1.00
     AMIN     =   0.10
     WC   =   100.;   INIMIX=   1;  MIXPRE=   1;  MAXMIX= -45

 Intra band minimization:
   WEIMIN = 0.0010     energy-eigenvalue tresh-hold
   EBREAK =  0.14E-07  absolut break condition
   DEPER  =   0.30     relativ break condition  

   TIME   =   0.40     timestep for ELM

  volume/ion in A,a.u.               =      24.40       164.66
  Fermi-wavevector in a.u.,A,eV,Ry     =   1.090172  2.060126 16.170182  1.188475
  Thomas-Fermi vector in A             =   2.226391

 Write flags
   LWAVE        =      T    write WAVECAR
   LDOWNSAMPLE  =      F    k-point downsampling of WAVECAR
   LCHARG       =      F    write CHGCAR
   LVTOT        =      F    write LOCPOT, total local potential
   LVHAR        =      F    write LOCPOT, Hartree potential only
   LELF         =      F    write electronic localiz. function (ELF)
   LORBIT       =      0    0 simple, 1 ext, 2 COOP (PROOUT), +10 PAW based schemes


 Dipole corrections
   LMONO  =      F    monopole corrections only (constant potential shift)
   LDIPOL =      F    correct potential (dipole corrections)
   IDIPOL =      0    1-x, 2-y, 3-z, 4-all directions 
   EPSILON=  1.0000000 bulk dielectric constant

 Exchange correlation treatment:
   GGA     =    --    GGA type
   LEXCH   =     8    internal setting for exchange type
   LIBXC   =     F    Libxc                    
   VOSKOWN =     0    Vosko Wilk Nusair interpolation
   LHFCALC =     F    Hartree Fock is set to
   LHFONE  =     F    Hartree Fock one center treatment
   AEXX    =    0.0000 exact exchange contribution

 Linear response parameters
   LEPSILON=     F    determine dielectric tensor
   LRPA    =     F    only Hartree local field effects (RPA)
   LNABLA  =     F    use nabla operator in PAW spheres
   LVEL    =     F    velocity operator in full k-point grid
   CSHIFT  =0.1000    complex shift for real part using Kramers Kronig
   OMEGAMAX=  -1.0    maximum frequency
   DEG_THRESHOLD= 0.2000000E-02 threshold for treating states as degnerate
   RTIME   =   -0.100 relaxation time in fs
  (WPLASMAI=    0.000 imaginary part of plasma frequency in eV, 0.658/RTIME)
   DFIELD  = 0.0000000 0.0000000 0.0000000 field for delta impulse in time

  Optional k-point grid parameters
   LKPOINTS_OPT  =     F    use optional k-point grid
   KPOINTS_OPT_MODE=     1    mode for optional k-point grid

 Orbital magnetization related:
   ORBITALMAG=     F  switch on orbital magnetization
   LCHIMAG   =     F  perturbation theory with respect to B field
   DQ        =  0.001000  dq finite difference perturbation B field
   LLRAUG    =     F  two centre corrections for induced B field



--------------------------------------------------------------------------------------------------------


 conjugate gradient relaxation of ions
 charge density and potential will be updated during run
 non-spin polarized calculation
 RMM-DIIS sequential band-by-band and
  variant of blocked Davidson during initial phase
 perform sub-space diagonalisation
    before iterative eigenvector-optimisation
 modified Broyden-mixing scheme, WC =      100.0
 initial mixing is a Kerker type mixing with AMIX =  0.4000 and BMIX =      1.0000
 Hartree-type preconditioning will be used
 using additional bands           35
 real space projection scheme for non local part
 use partial core corrections
 calculate Harris-corrections to forces   (improved forces if not selfconsistent)
 use gradient corrections 
 use of overlap-Matrix (Vanderbilt PP)
 Methfessel and Paxton  Order N= 1 SIGMA  =   0.20


--------------------------------------------------------------------------------------------------------


  energy-cutoff  :      400.00
  volume of cell :      951.58
      direct lattice vectors                 reciprocal lattice vectors
     6.833068891 -0.000000000 -0.127247023     0.146348793  0.000000000  0.000089461
    -0.000000000 17.671850551  0.000000000     0.000000000  0.056587169  0.000000000
    -0.004817206  0.000000000  7.880484692     0.002363109 -0.000000000  0.126897193

  length of vectors
     6.834253601 17.671850551  7.880486165     0.146348820  0.056587169  0.126919194



 k-points in units of 2pi/SCALE and weight: Gamma-point only                        
   0.00000000  0.00000000  0.00000000       1.000

 k-points in reciprocal lattice and weights: Gamma-point only                        
   0.00000000  0.00000000  0.00000000       1.000

 position of ions in fractional coordinates (direct lattice) 
   0.33085723  0.37500000  0.83920300
   0.34357933  0.01008162  0.33504651
   0.34357933  0.23991838  0.33504651
   0.65642067  0.48991838  0.66495349
   0.97493225  0.12500000  0.52877927
   0.02506775  0.37500000  0.47122073
   0.66914277  0.12500000  0.16079700
   0.00000000  0.00000000  0.00000000
   0.00000000  0.25000000  0.00000000
   0.65642067  0.76008162  0.66495349
   0.34357933  0.51008162  0.33504651
   0.34357933  0.73991838  0.33504651
   0.65642067  0.98991838  0.66495349
   0.97493225  0.62500000  0.52877927
   0.02506775  0.87500000  0.47122073
   0.66914277  0.62500000  0.16079700
   0.33085723  0.87500000  0.83920300
   0.00000000  0.50000000  0.00000000
   0.00000000  0.75000000  0.00000000
   0.63854001  0.37500000  0.17643596
   0.36145999  0.12500000  0.82356404
   0.63854001  0.87500000  0.17643596
   0.36145999  0.62500000  0.82356404
   0.76056567  0.37500000  0.88003854
   0.23943433  0.12500000  0.11996146
   0.23318145  0.00950276  0.67166898
   0.76681855  0.25950276  0.32833102
   0.76681855  0.49049724  0.32833102
   0.23318145  0.24049724  0.67166898
   0.72851686  0.12500000  0.82149309
   0.27148314  0.37500000  0.17850691
   0.76056567  0.87500000  0.88003854
   0.23943433  0.62500000  0.11996146
   0.23318145  0.50950276  0.67166898
   0.76681855  0.75950276  0.32833102
   0.76681855  0.99049724  0.32833102
   0.23318145  0.74049724  0.67166898
   0.72851686  0.62500000  0.82149309
   0.27148314  0.87500000  0.17850691

 position of ions in cartesian coordinates  (Angst):
   2.25672764  6.62694396  6.57122583
   2.34608722  0.17816087  2.59660947
   2.34608722  4.23980176  2.59660947
   4.48216447  8.65776440  5.15662820
   6.65923202  2.20898132  4.04297973
   0.16901967  6.62694396  3.71025793
   4.57152405  2.20898132  1.18201184
   0.00000000  0.00000000  0.00000000
  -0.00000000  4.41796264  0.00000000
   4.48216447 13.43204879  5.15662820
   2.34608722  9.01408615  2.59660947
   2.34608722 13.07572704  2.59660947
   4.48216447 17.49368968  5.15662820
   6.65923202 11.04490659  4.04297973
   0.16901967 15.46286923  3.71025793
   4.57152405 11.04490659  1.18201184
   2.25672764 15.46286923  6.57122583
  -0.00000000  8.83592528  0.00000000
  -0.00000000 13.25388791  0.00000000
   4.36233792  6.62694396  1.30914855
   2.46591377  2.20898132  6.44408912
   4.36233792 15.46286923  1.30914855
   2.46591377 11.04490659  6.44408912
   5.19275831  6.62694396  6.83835054
   1.63549338  2.20898132  0.91488713
   1.59010934  0.16793139  5.26340546
   5.23814234  4.58589403  2.48983221
   5.23814234  8.66799388  2.48983221
   1.59010934  4.25003124  5.26340546
   4.97404861  2.20898132  6.38106216
   1.85420308  6.62694396  1.37217551
   5.19275831 15.46286923  6.83835054
   1.63549338 11.04490659  0.91488713
   1.59010934  9.00385667  5.26340546
   5.23814234 13.42181931  2.48983221
   5.23814234 17.50391916  2.48983221
   1.59010934 13.08595652  5.26340546
   4.97404861 11.04490659  6.38106216
   1.85420308 15.46286923  1.37217551



--------------------------------------------------------------------------------------------------------


 k-point   1 :   0.0000 0.0000 0.0000  plane waves:   17271

 maximum and minimum number of plane-waves per node :     17271    17271

 maximum number of plane-waves:     17271
 maximum index in each direction: 
   IXMAX=   11   IYMAX=   28   IZMAX=   12
   IXMIN=  -11   IYMIN=  -28   IZMIN=  -12


 serial   3D FFT for wavefunctions
 parallel 3D FFT for charge:
    minimum data exchange during FFTs selected (reduces bandwidth)


 total amount of memory used by VASP MPI-rank0    51295. kBytes
=======================================================================

   base      :      30000. kBytes
   nonlr-proj:       4685. kBytes
   fftplans  :       2971. kBytes
   grid      :       9930. kBytes
   one-center:        606. kBytes
   wavefun   :       3103. kBytes

     INWAV:  cpu time      0.0000: real time      0.0002
 Broyden mixing: mesh for mixing (old mesh)
   NGX = 23   NGY = 57   NGZ = 25
  (NGX  = 72   NGY  =180   NGZ  = 80)
  gives a total of  32775 points

 initial charge density was supplied:
 charge density of overlapping atoms calculated
 number of electron     281.0000000 magnetization 
 keeping initial charge density in first step


--------------------------------------------------------------------------------------------------------


 Maximum index for non-local projection operator         1449
 Maximum index for augmentation-charges          434 (set IRDMAX)


--------------------------------------------------------------------------------------------------------


 First call to EWALD:  gamma=   0.180
 Maximum number of real-space cells 4x 2x 3
 Maximum number of reciprocal cells 2x 5x 2

    FEWALD:  cpu time      0.0018: real time      0.0018


--------------------------------------- Iteration      1(   1)  ---------------------------------------


    POTLOK:  cpu time      0.0449: real time      0.0450
    SETDIJ:  cpu time      0.0053: real time      0.0054
     EDDAV:  cpu time      0.4815: real time      0.4817
       DOS:  cpu time      0.0005: real time      0.0006
    --------------------------------------------
      LOOP:  cpu time      0.5323: real time      0.5327

 eigenvalue-minimisations  :   368
 total energy-change (2. order) : 0.2838505E+04  (-0.1151911E+05)
 number of electron     281.0000000 magnetization 
 augmentation part      281.0000000 magnetization 

 Free energy of the ion-electron system (eV)
  ---------------------------------------------------
  alpha Z        PSCENC =       446.64426306
  Ewald energy   TEWEN  =    -14140.46107996
  -Hartree energ DENC   =     -7692.71216192
  -exchange      EXHF   =         0.00000000
  -V(xc)+E(xc)   XCENC  =       828.97529715
  PAW double counting   =     18548.11631799   -20142.72634554
  entropy T*S    EENTRO =        -0.03290313
  eigenvalues    EBANDS =      -300.33077686
  atomic energy  EATOM  =     25291.03246954
  Solvation  Ediel_sol  =         0.00000000
  ---------------------------------------------------
  free energy    TOTEN  =      2838.50508034 eV

  energy without entropy =     2838.53798347  energy(sigma->0) =     2838.51604805


--------------------------------------------------------------------------------------------------------




--------------------------------------- Iteration      1(   2)  ---------------------------------------


     EDDAV:  cpu time      0.4652: real time      0.4658
       DOS:  cpu time      0.0003: real time      0.0004
    --------------------------------------------
      LOOP:  cpu time      0.4655: real time      0.4662

 eigenvalue-minimisations  :   368
 total energy-change (2. order) :-0.2546389E+04  (-0.2439038E+04)
 number of electron     281.0000000 magnetization 
 augmentation part      281.0000000 magnetization 

 Free energy of the ion-electron system (eV)
  ---------------------------------------------------
  alpha Z        PSCENC =       446.64426306
  Ewald energy   TEWEN  =    -14140.46107996
  -Hartree energ DENC   =     -7692.71216192
  -exchange      EXHF   =         0.00000000
  -V(xc)+E(xc)   XCENC  =       828.97529715
  PAW double counting   =     18548.11631799   -20142.72634554
  entropy T*S    EENTRO =        -0.05564548
  eigenvalues    EBANDS =     -2846.69657142
  atomic energy  EATOM  =     25291.03246954
  Solvation  Ediel_sol  =         0.00000000
  ---------------------------------------------------
  free energy    TOTEN  =       292.11654343 eV

  energy without entropy =      292.17218891  energy(sigma->0) =      292.13509192


--------------------------------------------------------------------------------------------------------




--------------------------------------- Iteration      1(   3)  ---------------------------------------


     EDDAV:  cpu time      0.5158: real time      0.5160
       DOS:  cpu time      0.0003: real time      0.0004
    --------------------------------------------
      LOOP:  cpu time      0.5161: real time      0.5164

 eigenvalue-minimisations  :   416
 total energy-change (2. order) :-0.4086987E+03  (-0.4007747E+03)
 number of electron     281.0000000 magnetization 
 augmentation part      281.0000000 magnetization 

 Free energy of the ion-electron system (eV)
  ---------------------------------------------------
  alpha Z        PSCENC =       446.64426306
  Ewald energy   TEWEN  =    -14140.46107996
  -Hartree energ DENC   =     -7692.71216192
  -exchange      EXHF   =         0.00000000
  -V(xc)+E(xc)   XCENC  =       828.97529715
  PAW double counting   =     18548.11631799   -20142.72634554
  entropy T*S    EENTRO =         0.00159880
  eigenvalues    EBANDS =     -3255.45250609
  atomic energy  EATOM  =     25291.03246954
  Solvation  Ediel_sol  =         0.00000000
  ---------------------------------------------------
  free energy    TOTEN  =      -116.58214696 eV

  energy without entropy =     -116.58374576  energy(sigma->0) =     -116.58267989


--------------------------------------------------------------------------------------------------------




--------------------------------------- Iteration      1(   4)  ---------------------------------------


     EDDAV:  cpu time      0.5164: real time      0.5166
       DOS:  cpu time      0.0003: real time      0.0004
    --------------------------------------------
      LOOP:  cpu time      0.5167: real time      0.5170

 eigenvalue-minimisations  :   416
 total energy-change (2. order) :-0.3052331E+02  (-0.3027559E+02)
 number of electron     281.0000000 magnetization 
 augmentation part      281.0000000 magnetization 

 Free energy of the ion-electron system (eV)
  ---------------------------------------------------
  alpha Z        PSCENC =       446.64426306
  Ewald energy   TEWEN  =    -14140.46107996
  -Hartree energ DENC   =     -7692.71216192
  -exchange      EXHF   =         0.00000000
  -V(xc)+E(xc)   XCENC  =       828.97529715
  PAW double counting   =     18548.11631799   -20142.72634554
  entropy T*S    EENTRO =         0.01495970
  eigenvalues    EBANDS =     -3285.98918053
  atomic energy  EATOM  =     25291.03246954
  Solvation  Ediel_sol  =         0.00000000
  ---------------------------------------------------
  free energy    TOTEN  =      -147.10546050 eV

  energy without entropy =     -147.12042021  energy(sigma->0) =     -147.11044707


--------------------------------------------------------------------------------------------------------




--------------------------------------- Iteration      1(   5)  ---------------------------------------


     EDDAV:  cpu time      0.6128: real time      0.6135
       DOS:  cpu time      0.0004: real time      0.0005
    CHARGE:  cpu time      0.0290: real time      0.0290
    MIXING:  cpu time      0.0017: real time      0.0018
    --------------------------------------------
      LOOP:  cpu time      0.6440: real time      0.6448

 eigenvalue-minimisations  :   512
 total energy-change (2. order) :-0.1245330E+01  (-0.1242448E+01)
 number of electron     281.0000089 magnetization 
 augmentation part       99.2267046 magnetization 

 Broyden mixing:
  rms(total) = 0.19572E+01    rms(broyden)= 0.19572E+01
  rms(prec ) = 0.21468E+01
  weight for this iteration     100.00

 Free energy of the ion-electron system (eV)
  ---------------------------------------------------
  alpha Z        PSCENC =       446.64426306
  Ewald energy   TEWEN  =    -14140.46107996
  -Hartree energ DENC   =     -7692.71216192
  -exchange      EXHF   =         0.00000000
  -V(xc)+E(xc)   XCENC  =       828.97529715
  PAW double counting   =     18548.11631799   -20142.72634554
  entropy T*S    EENTRO =         0.01508601
  eigenvalues    EBANDS =     -3287.23463723
  atomic energy  EATOM  =     25291.03246954
  Solvation  Ediel_sol  =         0.00000000
  ---------------------------------------------------
  free energy    TOTEN  =      -148.35079089 eV

  energy without entropy =     -148.36587690  energy(sigma->0) =     -148.35581956


--------------------------------------------------------------------------------------------------------




--------------------------------------- Iteration      1(   6)  ---------------------------------------


    POTLOK:  cpu time      0.0406: real time      0.0409
    SETDIJ:  cpu time      0.0052: real time      0.0052
    EDDIAG:  cpu time      0.0922: real time      0.0922
  RMM-DIIS:  cpu time      0.2881: real time      0.2885
    ORTHCH:  cpu time      0.0151: real time      0.0151
       DOS:  cpu time      0.0003: real time      0.0005
    CHARGE:  cpu time      0.0283: real time      0.0283
    MIXING:  cpu time      0.0015: real time      0.0015
    --------------------------------------------
      LOOP:  cpu time      0.4712: real time      0.4720

 eigenvalue-minimisations  :   388
 total energy-change (2. order) : 0.8731638E+01  (-0.1477466E+01)
 number of electron     281.0000092 magnetization 
 augmentation part       99.9365519 magnetization 

 Broyden mixing:
  rms(total) = 0.12268E+01    rms(broyden)= 0.12268E+01
  rms(prec ) = 0.12940E+01
  weight for this iteration     100.00

 eigenvalues of (default mixing * dielectric matrix)
  average eigenvalue GAMMA=   1.6978
  1.6978

 Free energy of the ion-electron system (eV)
  ---------------------------------------------------
  alpha Z        PSCENC =       446.64426306
  Ewald energy   TEWEN  =    -14140.46107996
  -Hartree energ DENC   =     -7705.68166011
  -exchange      EXHF   =         0.00000000
  -V(xc)+E(xc)   XCENC  =       834.67848344
  PAW double counting   =     20984.45590289   -22572.68140678
  entropy T*S    EENTRO =        -0.00000994
  eigenvalues    EBANDS =     -3277.60611461
  atomic energy  EATOM  =     25291.03246954
  Solvation  Ediel_sol  =         0.00000000
  ---------------------------------------------------
  free energy    TOTEN  =      -139.61915246 eV

  energy without entropy =     -139.61914252  energy(sigma->0) =     -139.61914915


--------------------------------------------------------------------------------------------------------




--------------------------------------- Iteration      1(   7)  ---------------------------------------


    POTLOK:  cpu time      0.0386: real time      0.0388
    SETDIJ:  cpu time      0.0043: real time      0.0043
    EDDIAG:  cpu time      0.0885: real time      0.0885
  RMM-DIIS:  cpu time      0.3113: real time      0.3113
    ORTHCH:  cpu time      0.0147: real time      0.0147
       DOS:  cpu time      0.0003: real time      0.0004
    CHARGE:  cpu time      0.0354: real time      0.0355
    MIXING:  cpu time      0.0014: real time      0.0014
    --------------------------------------------
      LOOP:  cpu time      0.4945: real time      0.4949

 eigenvalue-minimisations  :   414
 total energy-change (2. order) :-0.8960612E-02  (-0.1394805E+01)
 number of electron     281.0000094 magnetization 
 augmentation part      100.3367395 magnetization 

 Broyden mixing:
  rms(total) = 0.80717E+00    rms(broyden)= 0.80716E+00
  rms(prec ) = 0.85081E+00
  weight for this iteration     100.00

 eigenvalues of (default mixing * dielectric matrix)
  average eigenvalue GAMMA=   1.4221
  0.9289  1.9153

 Free energy of the ion-electron system (eV)
  ---------------------------------------------------
  alpha Z        PSCENC =       446.64426306
  Ewald energy   TEWEN  =    -14140.46107996
  -Hartree energ DENC   =     -7724.13604533
  -exchange      EXHF   =         0.00000000
  -V(xc)+E(xc)   XCENC  =       839.22863982
  PAW double counting   =     24011.51865692   -25603.69727947
  entropy T*S    EENTRO =        -0.03478656
  eigenvalues    EBANDS =     -3259.72295110
  atomic energy  EATOM  =     25291.03246954
  Solvation  Ediel_sol  =         0.00000000
  ---------------------------------------------------
  free energy    TOTEN  =      -139.62811307 eV

  energy without entropy =     -139.59332651  energy(sigma->0) =     -139.61651755


--------------------------------------------------------------------------------------------------------




--------------------------------------- Iteration      1(   8)  ---------------------------------------


    POTLOK:  cpu time      0.0380: real time      0.0382
    SETDIJ:  cpu time      0.0043: real time      0.0043
    EDDIAG:  cpu time      0.0901: real time      0.0902
  RMM-DIIS:  cpu time      0.3270: real time      0.3271
    ORTHCH:  cpu time      0.0147: real time      0.0147
       DOS:  cpu time      0.0003: real time      0.0005
    CHARGE:  cpu time      0.0338: real time      0.0338
    MIXING:  cpu time      0.0015: real time      0.0015
    --------------------------------------------
      LOOP:  cpu time      0.5097: real time      0.5102

 eigenvalue-minimisations  :   441
 total energy-change (2. order) : 0.3188134E+00  (-0.1097893E+00)
 number of electron     281.0000094 magnetization 
 augmentation part      100.3166133 magnetization 

 Broyden mixing:
  rms(total) = 0.49579E+00    rms(broyden)= 0.49579E+00
  rms(prec ) = 0.51744E+00
  weight for this iteration     100.00

 eigenvalues of (default mixing * dielectric matrix)
  average eigenvalue GAMMA=   1.5821
  2.2702  1.7964  0.6797

 Free energy of the ion-electron system (eV)
  ---------------------------------------------------
  alpha Z        PSCENC =       446.64426306
  Ewald energy   TEWEN  =    -14140.46107996
  -Hartree energ DENC   =     -7721.48270554
  -exchange      EXHF   =         0.00000000
  -V(xc)+E(xc)   XCENC  =       839.42797013
  PAW double counting   =     25156.29124680   -26751.75866725
  entropy T*S    EENTRO =        -0.03473997
  eigenvalues    EBANDS =     -3258.96805645
  atomic energy  EATOM  =     25291.03246954
  Solvation  Ediel_sol  =         0.00000000
  ---------------------------------------------------
  free energy    TOTEN  =      -139.30929964 eV

  energy without entropy =     -139.27455967  energy(sigma->0) =     -139.29771965


--------------------------------------------------------------------------------------------------------




--------------------------------------- Iteration      1(   9)  ---------------------------------------


    POTLOK:  cpu time      0.0378: real time      0.0380
    SETDIJ:  cpu time      0.0043: real time      0.0043
    EDDIAG:  cpu time      0.0899: real time      0.0899
  RMM-DIIS:  cpu time      0.3049: real time      0.3050
    ORTHCH:  cpu time      0.0148: real time      0.0148
       DOS:  cpu time      0.0002: real time      0.0004
    CHARGE:  cpu time      0.0332: real time      0.0332
    MIXING:  cpu time      0.0015: real time      0.0015
    --------------------------------------------
      LOOP:  cpu time      0.4865: real time      0.4870

 eigenvalue-minimisations  :   413
 total energy-change (2. order) :-0.1727247E+00  (-0.1163944E+00)
 number of electron     281.0000094 magnetization 
 augmentation part      100.2101791 magnetization 

 Broyden mixing:
  rms(total) = 0.22750E+00    rms(broyden)= 0.22750E+00
  rms(prec ) = 0.32076E+00
  weight for this iteration     100.00

 eigenvalues of (default mixing * dielectric matrix)
  average eigenvalue GAMMA=   1.3259
  2.2522  1.7399  0.6558  0.6558

 Free energy of the ion-electron system (eV)
  ---------------------------------------------------
  alpha Z        PSCENC =       446.64426306
  Ewald energy   TEWEN  =    -14140.46107996
  -Hartree energ DENC   =     -7712.30724365
  -exchange      EXHF   =         0.00000000
  -V(xc)+E(xc)   XCENC  =       838.97450377
  PAW double counting   =     26412.88488514   -28011.98408342
  entropy T*S    EENTRO =        -0.00249692
  eigenvalues    EBANDS =     -3264.26324190
  atomic energy  EATOM  =     25291.03246954
  Solvation  Ediel_sol  =         0.00000000
  ---------------------------------------------------
  free energy    TOTEN  =      -139.48202432 eV

  energy without entropy =     -139.47952741  energy(sigma->0) =     -139.48119202


--------------------------------------------------------------------------------------------------------




--------------------------------------- Iteration      1(  10)  ---------------------------------------


    POTLOK:  cpu time      0.0378: real time      0.0380
    SETDIJ:  cpu time      0.0044: real time      0.0043
    EDDIAG:  cpu time      0.0894: real time      0.0895
  RMM-DIIS:  cpu time      0.3182: real time      0.3183
    ORTHCH:  cpu time      0.0147: real time      0.0147
       DOS:  cpu time      0.0003: real time      0.0004
    CHARGE:  cpu time      0.0328: real time      0.0328
    MIXING:  cpu time      0.0015: real time      0.0015
    --------------------------------------------
      LOOP:  cpu time      0.4989: real time      0.4996

 eigenvalue-minimisations  :   420
 total energy-change (2. order) : 0.1845062E+00  (-0.1501271E-01)
 number of electron     281.0000093 magnetization 
 augmentation part      100.2183148 magnetization 

 Broyden mixing:
  rms(total) = 0.16253E+00    rms(broyden)= 0.16253E+00
  rms(prec ) = 0.20271E+00
  weight for this iteration     100.00

 eigenvalues of (default mixing * dielectric matrix)
  average eigenvalue GAMMA=   1.1332
  1.9527  1.8052  0.7170  0.5955  0.5955

 Free energy of the ion-electron system (eV)
  ---------------------------------------------------
  alpha Z        PSCENC =       446.64426306
  Ewald energy   TEWEN  =    -14140.46107996
  -Hartree energ DENC   =     -7711.39531717
  -exchange      EXHF   =         0.00000000
  -V(xc)+E(xc)   XCENC  =       839.11556236
  PAW double counting   =     26513.93883382   -28113.15793759
  entropy T*S    EENTRO =         0.01866947
  eigenvalues    EBANDS =     -3265.03298164
  atomic energy  EATOM  =     25291.03246954
  Solvation  Ediel_sol  =         0.00000000
  ---------------------------------------------------
  free energy    TOTEN  =      -139.29751810 eV

  energy without entropy =     -139.31618758  energy(sigma->0) =     -139.30374126


--------------------------------------------------------------------------------------------------------




--------------------------------------- Iteration      1(  11)  ---------------------------------------


    POTLOK:  cpu time      0.0378: real time      0.0380
    SETDIJ:  cpu time      0.0043: real time      0.0043
    EDDIAG:  cpu time      0.0889: real time      0.0889
  RMM-DIIS:  cpu time      0.3496: real time      0.3496
    ORTHCH:  cpu time      0.0147: real time      0.0147
       DOS:  cpu time      0.0003: real time      0.0003
    CHARGE:  cpu time      0.0333: real time      0.0334
    MIXING:  cpu time      0.0016: real time      0.0016
    --------------------------------------------
      LOOP:  cpu time      0.5305: real time      0.5309

 eigenvalue-minimisations  :   470
 total energy-change (2. order) : 0.5142407E-01  (-0.7496784E-02)
 number of electron     281.0000094 magnetization 
 augmentation part      100.2162226 magnetization 

 Broyden mixing:
  rms(total) = 0.13027E+00    rms(broyden)= 0.13027E+00
  rms(prec ) = 0.13845E+00
  weight for this iteration     100.00

 eigenvalues of (default mixing * dielectric matrix)
  average eigenvalue GAMMA=   1.0265
  1.7862  1.7862  0.7972  0.6922  0.6922  0.4051

 Free energy of the ion-electron system (eV)
  ---------------------------------------------------
  alpha Z        PSCENC =       446.64426306
  Ewald energy   TEWEN  =    -14140.46107996
  -Hartree energ DENC   =     -7712.01004235
  -exchange      EXHF   =         0.00000000
  -V(xc)+E(xc)   XCENC  =       839.22264472
  PAW double counting   =     26389.21184103   -27988.06565734
  entropy T*S    EENTRO =         0.00963843
  eigenvalues    EBANDS =     -3264.83017117
  atomic energy  EATOM  =     25291.03246954
  Solvation  Ediel_sol  =         0.00000000
  ---------------------------------------------------
  free energy    TOTEN  =      -139.24609403 eV

  energy without entropy =     -139.25573246  energy(sigma->0) =     -139.24930684


--------------------------------------------------------------------------------------------------------




--------------------------------------- Iteration      1(  12)  ---------------------------------------


    POTLOK:  cpu time      0.0380: real time      0.0382
    SETDIJ:  cpu time      0.0042: real time      0.0042
    EDDIAG:  cpu time      0.0892: real time      0.0892
  RMM-DIIS:  cpu time      0.3594: real time      0.3595
    ORTHCH:  cpu time      0.0150: real time      0.0150
       DOS:  cpu time      0.0003: real time      0.0004
    CHARGE:  cpu time      0.0330: real time      0.0330
    MIXING:  cpu time      0.0016: real time      0.0016
    --------------------------------------------
      LOOP:  cpu time      0.5406: real time      0.5412

 eigenvalue-minimisations  :   479
 total energy-change (2. order) : 0.8688579E-02  (-0.3901572E-02)
 number of electron     281.0000094 magnetization 
 augmentation part      100.2316943 magnetization 

 Broyden mixing:
  rms(total) = 0.70555E-01    rms(broyden)= 0.70555E-01
  rms(prec ) = 0.73889E-01
  weight for this iteration     100.00

 eigenvalues of (default mixing * dielectric matrix)
  average eigenvalue GAMMA=   1.1484
  2.0723  2.0723  0.8613  0.8613  0.8626  0.8626  0.4463

 Free energy of the ion-electron system (eV)
  ---------------------------------------------------
  alpha Z        PSCENC =       446.64426306
  Ewald energy   TEWEN  =    -14140.46107996
  -Hartree energ DENC   =     -7712.92554057
  -exchange      EXHF   =         0.00000000
  -V(xc)+E(xc)   XCENC  =       839.29392442
  PAW double counting   =     26152.13229815   -27750.55530088
  entropy T*S    EENTRO =        -0.00232871
  eigenvalues    EBANDS =     -3264.39611051
  atomic energy  EATOM  =     25291.03246954
  Solvation  Ediel_sol  =         0.00000000
  ---------------------------------------------------
  free energy    TOTEN  =      -139.23740545 eV

  energy without entropy =     -139.23507674  energy(sigma->0) =     -139.23662921


--------------------------------------------------------------------------------------------------------




--------------------------------------- Iteration      1(  13)  ---------------------------------------


    POTLOK:  cpu time      0.0379: real time      0.0380
    SETDIJ:  cpu time      0.0043: real time      0.0043
    EDDIAG:  cpu time      0.0896: real time      0.0896
  RMM-DIIS:  cpu time      0.3060: real time      0.3061
    ORTHCH:  cpu time      0.0146: real time      0.0146
       DOS:  cpu time      0.0003: real time      0.0005
    CHARGE:  cpu time      0.0333: real time      0.0334
    MIXING:  cpu time      0.0017: real time      0.0017
    --------------------------------------------
      LOOP:  cpu time      0.4876: real time      0.4881

 eigenvalue-minimisations  :   405
 total energy-change (2. order) :-0.7800243E-02  (-0.8642953E-03)
 number of electron     281.0000094 magnetization 
 augmentation part      100.2296258 magnetization 

 Broyden mixing:
  rms(total) = 0.50392E-01    rms(broyden)= 0.50392E-01
  rms(prec ) = 0.60878E-01
  weight for this iteration     100.00

 eigenvalues of (default mixing * dielectric matrix)
  average eigenvalue GAMMA=   1.2943
  2.6884  2.6884  1.1946  1.1946  0.8183  0.6654  0.6654  0.4391

 Free energy of the ion-electron system (eV)
  ---------------------------------------------------
  alpha Z        PSCENC =       446.64426306
  Ewald energy   TEWEN  =    -14140.46107996
  -Hartree energ DENC   =     -7712.86974167
  -exchange      EXHF   =         0.00000000
  -V(xc)+E(xc)   XCENC  =       839.33805502
  PAW double counting   =     26032.57926089   -27631.17243306
  entropy T*S    EENTRO =         0.00881634
  eigenvalues    EBANDS =     -3264.34481586
  atomic energy  EATOM  =     25291.03246954
  Solvation  Ediel_sol  =         0.00000000
  ---------------------------------------------------
  free energy    TOTEN  =      -139.24520569 eV

  energy without entropy =     -139.25402204  energy(sigma->0) =     -139.24814448


--------------------------------------------------------------------------------------------------------




--------------------------------------- Iteration      1(  14)  ---------------------------------------


    POTLOK:  cpu time      0.0379: real time      0.0381
    SETDIJ:  cpu time      0.0042: real time      0.0042
    EDDIAG:  cpu time      0.0891: real time      0.0892
  RMM-DIIS:  cpu time      0.2759: real time      0.2760
    ORTHCH:  cpu time      0.0146: real time      0.0146
       DOS:  cpu time      0.0003: real time      0.0004
    CHARGE:  cpu time      0.0333: real time      0.0333
    MIXING:  cpu time      0.0017: real time      0.0017
    --------------------------------------------
      LOOP:  cpu time      0.4569: real time      0.4574

 eigenvalue-minimisations  :   368
 total energy-change (2. order) :-0.5202284E-02  (-0.8190093E-03)
 number of electron     281.0000094 magnetization 
 augmentation part      100.2283437 magnetization 

 Broyden mixing:
  rms(total) = 0.41714E-01    rms(broyden)= 0.41713E-01
  rms(prec ) = 0.66599E-01
  weight for this iteration     100.00

 eigenvalues of (default mixing * dielectric matrix)
  average eigenvalue GAMMA=   1.2124
  2.5267  2.5267  1.3615  1.3615  0.7154  0.7154  0.6280  0.6280  0.4482

 Free energy of the ion-electron system (eV)
  ---------------------------------------------------
  alpha Z        PSCENC =       446.64426306
  Ewald energy   TEWEN  =    -14140.46107996
  -Hartree energ DENC   =     -7712.95176015
  -exchange      EXHF   =         0.00000000
  -V(xc)+E(xc)   XCENC  =       839.41952454
  PAW double counting   =     25910.54871991   -27509.41498791
  entropy T*S    EENTRO =        -0.00228517
  eigenvalues    EBANDS =     -3264.06527185
  atomic energy  EATOM  =     25291.03246954
  Solvation  Ediel_sol  =         0.00000000
  ---------------------------------------------------
  free energy    TOTEN  =      -139.25040798 eV

  energy without entropy =     -139.24812281  energy(sigma->0) =     -139.24964625


--------------------------------------------------------------------------------------------------------




--------------------------------------- Iteration      1(  15)  ---------------------------------------


    POTLOK:  cpu time      0.0380: real time      0.0381
    SETDIJ:  cpu time      0.0043: real time      0.0043
    EDDIAG:  cpu time      0.0892: real time      0.0892
  RMM-DIIS:  cpu time      0.3320: real time      0.3320
    ORTHCH:  cpu time      0.0146: real time      0.0146
       DOS:  cpu time      0.0003: real time      0.0004
    CHARGE:  cpu time      0.0336: real time      0.0336
    MIXING:  cpu time      0.0017: real time      0.0017
    --------------------------------------------
      LOOP:  cpu time      0.5137: real time      0.5141

 eigenvalue-minimisations  :   443
 total energy-change (2. order) : 0.4701426E-02  (-0.2968602E-03)
 number of electron     281.0000094 magnetization 
 augmentation part      100.2267700 magnetization 

 Broyden mixing:
  rms(total) = 0.16922E-01    rms(broyden)= 0.16921E-01
  rms(prec ) = 0.19417E-01
  weight for this iteration     100.00

 eigenvalues of (default mixing * dielectric matrix)
  average eigenvalue GAMMA=   1.1327
  2.2791  2.2791  1.5029  1.5029  0.6874  0.6874  0.8045  0.5746  0.5746  0.4345

 Free energy of the ion-electron system (eV)
  ---------------------------------------------------
  alpha Z        PSCENC =       446.64426306
  Ewald energy   TEWEN  =    -14140.46107996
  -Hartree energ DENC   =     -7712.92701836
  -exchange      EXHF   =         0.00000000
  -V(xc)+E(xc)   XCENC  =       839.43998406
  PAW double counting   =     25951.98608073   -27550.91199947
  entropy T*S    EENTRO =        -0.00347128
  eigenvalues    EBANDS =     -3264.04493488
  atomic energy  EATOM  =     25291.03246954
  Solvation  Ediel_sol  =         0.00000000
  ---------------------------------------------------
  free energy    TOTEN  =      -139.24570655 eV

  energy without entropy =     -139.24223527  energy(sigma->0) =     -139.24454946


--------------------------------------------------------------------------------------------------------




--------------------------------------- Iteration      1(  16)  ---------------------------------------


    POTLOK:  cpu time      0.0379: real time      0.0382
    SETDIJ:  cpu time      0.0043: real time      0.0043
    EDDIAG:  cpu time      0.0898: real time      0.0898
  RMM-DIIS:  cpu time      0.3283: real time      0.3285
    ORTHCH:  cpu time      0.0158: real time      0.0158
       DOS:  cpu time      0.0003: real time      0.0005
    CHARGE:  cpu time      0.0332: real time      0.0334
    MIXING:  cpu time      0.0019: real time      0.0019
    --------------------------------------------
      LOOP:  cpu time      0.5115: real time      0.5123

 eigenvalue-minimisations  :   434
 total energy-change (2. order) : 0.4474615E-03  (-0.1486262E-03)
 number of electron     281.0000094 magnetization 
 augmentation part      100.2315422 magnetization 

 Broyden mixing:
  rms(total) = 0.11669E-01    rms(broyden)= 0.11668E-01
  rms(prec ) = 0.13048E-01
  weight for this iteration     100.00

 eigenvalues of (default mixing * dielectric matrix)
  average eigenvalue GAMMA=   1.2838
  2.8357  2.8357  1.7725  1.7725  0.9696  0.9696  0.6840  0.6840  0.5789  0.5789
  0.4401

 Free energy of the ion-electron system (eV)
  ---------------------------------------------------
  alpha Z        PSCENC =       446.64426306
  Ewald energy   TEWEN  =    -14140.46107996
  -Hartree energ DENC   =     -7713.28948770
  -exchange      EXHF   =         0.00000000
  -V(xc)+E(xc)   XCENC  =       839.47704414
  PAW double counting   =     25957.74663839   -27556.60705132
  entropy T*S    EENTRO =        -0.00190436
  eigenvalues    EBANDS =     -3263.78615088
  atomic energy  EATOM  =     25291.03246954
  Solvation  Ediel_sol  =         0.00000000
  ---------------------------------------------------
  free energy    TOTEN  =      -139.24525909 eV

  energy without entropy =     -139.24335473  energy(sigma->0) =     -139.24462430


--------------------------------------------------------------------------------------------------------




--------------------------------------- Iteration      1(  17)  ---------------------------------------


    POTLOK:  cpu time      0.0382: real time      0.0429
    SETDIJ:  cpu time      0.0044: real time      0.0044
    EDDIAG:  cpu time      0.0893: real time      0.0893
  RMM-DIIS:  cpu time      0.2553: real time      0.2554
    ORTHCH:  cpu time      0.0150: real time      0.0150
       DOS:  cpu time      0.0003: real time      0.0004
    CHARGE:  cpu time      0.0329: real time      0.0329
    MIXING:  cpu time      0.0019: real time      0.0019
    --------------------------------------------
      LOOP:  cpu time      0.4373: real time      0.4423

 eigenvalue-minimisations  :   337
 total energy-change (2. order) :-0.3018636E-03  (-0.6609123E-04)
 number of electron     281.0000094 magnetization 
 augmentation part      100.2319526 magnetization 

 Broyden mixing:
  rms(total) = 0.71170E-02    rms(broyden)= 0.71169E-02
  rms(prec ) = 0.92610E-02
  weight for this iteration     100.00

 eigenvalues of (default mixing * dielectric matrix)
  average eigenvalue GAMMA=   1.2430
  3.0067  2.4915  1.7666  1.7666  1.0682  1.0682  0.6743  0.6743  0.7290  0.6157
  0.6157  0.4394

 Free energy of the ion-electron system (eV)
  ---------------------------------------------------
  alpha Z        PSCENC =       446.64426306
  Ewald energy   TEWEN  =    -14140.46107996
  -Hartree energ DENC   =     -7713.60214769
  -exchange      EXHF   =         0.00000000
  -V(xc)+E(xc)   XCENC  =       839.49600716
  PAW double counting   =     25919.10885329   -27517.99945149
  entropy T*S    EENTRO =         0.00037607
  eigenvalues    EBANDS =     -3263.46485093
  atomic energy  EATOM  =     25291.03246954
  Solvation  Ediel_sol  =         0.00000000
  ---------------------------------------------------
  free energy    TOTEN  =      -139.24556095 eV

  energy without entropy =     -139.24593703  energy(sigma->0) =     -139.24568631


--------------------------------------------------------------------------------------------------------




--------------------------------------- Iteration      1(  18)  ---------------------------------------


    POTLOK:  cpu time      0.0379: real time      0.0381
    SETDIJ:  cpu time      0.0042: real time      0.0042
    EDDIAG:  cpu time      0.0893: real time      0.0895
  RMM-DIIS:  cpu time      0.2961: real time      0.2962
    ORTHCH:  cpu time      0.0149: real time      0.0149
       DOS:  cpu time      0.0002: real time      0.0004
    CHARGE:  cpu time      0.0332: real time      0.0332
    MIXING:  cpu time      0.0020: real time      0.0020
    --------------------------------------------
      LOOP:  cpu time      0.4779: real time      0.4786

 eigenvalue-minimisations  :   380
 total energy-change (2. order) : 0.8295787E-04  (-0.2334125E-04)
 number of electron     281.0000094 magnetization 
 augmentation part      100.2326593 magnetization 

 Broyden mixing:
  rms(total) = 0.38117E-02    rms(broyden)= 0.38115E-02
  rms(prec ) = 0.49297E-02
  weight for this iteration     100.00

 eigenvalues of (default mixing * dielectric matrix)
  average eigenvalue GAMMA=   1.1840
  3.1218  2.4070  1.8001  1.8001  1.1030  1.1030  0.6774  0.6774  0.7637  0.6037
  0.6037  0.4392  0.2919

 Free energy of the ion-electron system (eV)
  ---------------------------------------------------
  alpha Z        PSCENC =       446.64426306
  Ewald energy   TEWEN  =    -14140.46107996
  -Hartree energ DENC   =     -7713.59465649
  -exchange      EXHF   =         0.00000000
  -V(xc)+E(xc)   XCENC  =       839.50014825
  PAW double counting   =     25914.66797021   -27513.56104342
  entropy T*S    EENTRO =        -0.00112406
  eigenvalues    EBANDS =     -3263.47242514
  atomic energy  EATOM  =     25291.03246954
  Solvation  Ediel_sol  =         0.00000000
  ---------------------------------------------------
  free energy    TOTEN  =      -139.24547800 eV

  energy without entropy =     -139.24435394  energy(sigma->0) =     -139.24510331


--------------------------------------------------------------------------------------------------------




--------------------------------------- Iteration      1(  19)  ---------------------------------------


    POTLOK:  cpu time      0.0380: real time      0.0382
    SETDIJ:  cpu time      0.0042: real time      0.0042
    EDDIAG:  cpu time      0.0891: real time      0.0891
  RMM-DIIS:  cpu time      0.2528: real time      0.2528
    ORTHCH:  cpu time      0.0149: real time      0.0149
       DOS:  cpu time      0.0003: real time      0.0003
    --------------------------------------------
      LOOP:  cpu time      0.3993: real time      0.3996

 eigenvalue-minimisations  :   319
 total energy-change (2. order) : 0.8318497E-05  (-0.4439168E-05)
 number of electron     281.0000094 magnetization 
 augmentation part      100.2326593 magnetization 

 Free energy of the ion-electron system (eV)
  ---------------------------------------------------
  alpha Z        PSCENC =       446.64426306
  Ewald energy   TEWEN  =    -14140.46107996
  -Hartree energ DENC   =     -7713.58731938
  -exchange      EXHF   =         0.00000000
  -V(xc)+E(xc)   XCENC  =       839.49959745
  PAW double counting   =     25915.25654226   -27514.15121438
  entropy T*S    EENTRO =        -0.00136797
  eigenvalues    EBANDS =     -3263.47736029
  atomic energy  EATOM  =     25291.03246954
  Solvation  Ediel_sol  =         0.00000000
  ---------------------------------------------------
  free energy    TOTEN  =      -139.24546968 eV

  energy without entropy =     -139.24410170  energy(sigma->0) =     -139.24501369


--------------------------------------------------------------------------------------------------------




 average (electrostatic) potential at core
  the test charge radii are     0.9254  1.0774  0.9698
  (the norm of the test charge is              1.0000)
       1 -47.0673       2 -47.0916       3 -46.9715       4 -47.0078       5 -47.4832
       6 -47.5224       7 -47.0700       8 -47.1714       9 -47.0116      10 -47.0980
      11 -47.0856      12 -47.0889      13 -47.0139      14 -47.6597      15 -47.6640
      16 -47.1911      17 -47.2115      18 -47.1429      19 -47.2208      20 -98.9272
      21 -98.9754      22 -99.0511      23 -99.0620      24 -88.3646      25 -88.5195
      26 -88.5175      27 -88.4240      28 -88.4485      29 -88.5217      30 -88.4387
      31 -88.6352      32 -88.4776      33 -88.4504      34 -88.5269      35 -88.4906
      36 -88.5010      37 -88.4993      38 -88.5943      39 -88.5610



 E-fermi :   1.1294     XC(G=0):  -8.0800     alpha+bet : -8.3453

 Fermi energy:         1.1294058584

 k-point     1 :       0.0000    0.0000    0.0000
  band No.  band energies     occupation 
      1     -21.8693      2.00000
      2     -21.8655      2.00000
      3     -21.8604      2.00000
      4     -21.8558      2.00000
      5     -21.8362      2.00000
      6     -21.8314      2.00000
      7     -21.7224      2.00000
      8     -21.7216      2.00000
      9     -21.6940      2.00000
     10     -21.6866      2.00000
     11     -21.6845      2.00000
     12     -21.6497      2.00000
     13     -21.4431      2.00000
     14     -21.4259      2.00000
     15     -21.4157      2.00000
     16     -21.4116      2.00000
     17     -21.4070      2.00000
     18     -21.3975      2.00000
     19     -21.3953      2.00000
     20     -21.3924      2.00000
     21     -21.3799      2.00000
     22     -21.3776      2.00000
     23     -21.3613      2.00000
     24     -21.3576      2.00000
     25     -21.3469      2.00000
     26     -21.3342      2.00000
     27     -21.3137      2.00000
     28     -21.3133      2.00000
     29     -21.3126      2.00000
     30     -21.3075      2.00000
     31     -21.3014      2.00000
     32     -21.2996      2.00000
     33     -21.2987      2.00000
     34     -21.2968      2.00000
     35     -21.2924      2.00000
     36     -21.2884      2.00000
     37     -21.2828      2.00000
     38     -21.2815      2.00000
     39     -21.2762      2.00000
     40     -21.2761      2.00000
     41     -21.2706      2.00000
     42     -21.2698      2.00000
     43     -21.2645      2.00000
     44     -21.2527      2.00000
     45     -21.2469      2.00000
     46     -21.2268      2.00000
     47     -21.2229      2.00000
     48     -21.2209      2.00000
     49     -21.2172      2.00000
     50     -21.2135      2.00000
     51     -21.1983      2.00000
     52     -21.1960      2.00000
     53     -21.1885      2.00000
     54     -21.1877      2.00000
     55     -21.1844      2.00000
     56     -21.1797      2.00000
     57     -21.1449      2.00000
     58     -12.4820      2.00000
     59     -12.4782      2.00000
     60     -12.4745      2.00000
     61     -12.4721      2.00000
     62     -12.4666      2.00000
     63     -12.4637      2.00000
     64     -12.3968      2.00000
[...]
     47     -21.1744      2.00000
     48     -21.1716      2.00000
     49     -21.1690      2.00000
     50     -21.1662      2.00000
     51     -21.1422      2.00000
     52     -21.0961      2.00000
     53     -21.0818      2.00000
     54     -21.0742      2.00000
     55     -21.0552      2.00000
     56     -21.0540      2.00000
     57     -21.0350      2.00000
     58     -12.5078      2.00000
     59     -12.5016      2.00000
     60     -12.4943      2.00000
     61     -12.4898      2.00000
     62     -12.4848      2.00000
     63     -12.4830      2.00000
     64     -12.4054      2.00000
     65     -12.3937      2.00000
     66     -12.3800      2.00000
     67     -12.3792      2.00000
     68     -12.3683      2.00000
     69     -12.3649      2.00000
     70     -12.3090      2.00000
     71     -12.3046      2.00000
     72     -12.2924      2.00000
     73     -12.2865      2.00000
     74     -12.1895      2.00000
     75     -12.1874      2.00000
     76     -12.1708      2.00000
     77     -12.1648      2.00000
     78     -10.1546      2.00000
     79     -10.0384      2.00000
     80      -9.9845      2.00000
     81      -9.8742      2.00000
     82      -9.4133      2.00000
     83      -9.3741      2.00000
     84      -9.3556      2.00000
     85      -9.3389      2.00000
     86      -9.3220      2.00000
     87      -9.3200      2.00000
     88      -9.2934      2.00000
     89      -9.2565      2.00000
     90      -9.2417      2.00000
     91      -9.1661      2.00000
     92      -9.1607      2.00000
     93      -9.1296      2.00000
     94      -3.2872      2.00000
     95      -3.1409      2.00000
     96      -3.0877      2.00000
     97      -3.0006      2.00000
     98      -1.4483      2.00000
     99      -1.2980      2.00000
    100      -1.2626      2.00000
    101      -1.2191      2.00000
    102      -1.1911      2.00000
    103      -1.1462      2.00000
    104      -1.0490      2.00000
    105      -1.0167      2.00000
    106      -0.9755      2.00000
    107      -0.7032      2.00000
    108      -0.6645      2.00000
    109      -0.5623      2.00000
    110      -0.2186      2.00000
    111      -0.1889      2.00000
    112      -0.1651      2.00000
    113      -0.1333      2.00000
    114      -0.0910      2.00000
    115      -0.0355      2.00000
    116      -0.0076      2.00000
    117       0.0137      2.00000
    118       0.0604      2.00000
    119       0.0887      2.00000
    120       0.1220      2.00000
    121       0.1396      2.00000
    122       0.1911      2.00000
    123       0.2362      2.00000
    124       0.2678      2.00000
    125       0.3484      2.00000
    126       0.3694      2.00001
    127       0.3841      2.00001
    128       0.4039      2.00003
    129       0.4259      2.00005
    130       0.4797      2.00025
    131       0.5107      2.00057
    132       0.5586      2.00183
    133       0.6451      2.01070
    134       0.6794      2.01887
    135       0.7166      2.03192
    136       0.8417      2.06819
    137       0.8668      2.05235
    138       0.8939      2.01351
    139       0.9141      1.96600
    140       0.9272      1.92543
    141       1.0795      0.91027
    142       3.0909     -0.00000
    143       4.0940     -0.00000
    144       4.1746     -0.00000
    145       4.2654     -0.00000
    146       5.4260     -0.00000
    147       5.5462     -0.00000
    148       5.5936     -0.00000
    149       5.7182     -0.00000
    150       5.8385     -0.00000
    151       5.9090     -0.00000
    152       5.9580     -0.00000
    153       6.0782     -0.00000
    154       6.1145     -0.00000
    155       6.2407     -0.00000
    156       6.5642      0.00000
    157       6.6520      0.00000
    158       6.7405      0.00000
    159       6.8486      0.00000
    160       6.8858      0.00000
    161       7.0432      0.00000
    162       7.1149      0.00000
    163       7.1932      0.00000
    164       7.2358      0.00000
    165       7.3553      0.00000
    166       7.4030      0.00000
    167       7.4880      0.00000
    168       7.5045      0.00000
    169       7.5745      0.00000
    170       7.6113      0.00000
    171       7.7062      0.00000
    172       7.8561      0.00000
    173       7.9082      0.00000
    174       7.9154      0.00000
    175       8.0126      0.00000
    176       8.0333      0.00000


--------------------------------------------------------------------------------------------------------


 soft charge-density along one line, spin component           1
         0         1         2         3         4         5         6         7         8         9
 total charge-density along one line

 pseudopotential strength for first ion, spin component:           1
-25.283   0.010   0.003   2.529  -0.004  -0.001   0.004   0.013
  0.010 -25.288   0.001  -0.004   2.531  -0.000  -0.005  -0.016
  0.003   0.001 -25.288  -0.001  -0.000   2.531  -0.002  -0.006
  2.529  -0.004  -0.001   6.583   0.001   0.000  -0.000  -0.000
 -0.004   2.531  -0.000   0.001   6.582   0.000   0.000  -0.000
 -0.001  -0.000   2.531   0.000   0.000   6.583   0.000   0.000
  0.004  -0.005  -0.002  -0.000   0.000   0.000   1.433   7.010
  0.013  -0.016  -0.006  -0.000  -0.000   0.000   7.010  34.058
 total augmentation occupancy for first ion, spin component:           1
  2.001  -0.000  -0.000  -0.001  -0.001  -0.001  -0.013   0.005
 -0.000   2.001  -0.000  -0.001  -0.000  -0.000   0.017  -0.006
 -0.000  -0.000   2.002  -0.001  -0.000  -0.001   0.006  -0.002
 -0.001  -0.001  -0.001   0.020   0.004   0.004  -0.009   0.000
 -0.001  -0.000  -0.000   0.004   0.021   0.002   0.009  -0.000
 -0.001  -0.000  -0.001   0.004   0.002   0.022   0.006   0.000
 -0.013   0.017   0.006  -0.009   0.009   0.006   0.546  -0.001
  0.005  -0.006  -0.002   0.000  -0.000   0.000  -0.001   0.000


------------------------ aborting loop because EDIFF is reached ----------------------------------------


    CHARGE:  cpu time      0.0277: real time      0.0277
    FORLOC:  cpu time      0.0106: real time      0.0106
    FORNL :  cpu time      0.1213: real time      0.1213
    STRESS:  cpu time      0.3576: real time      0.3576
    FORCOR:  cpu time      0.0461: real time      0.0461
    FORHAR:  cpu time      0.0185: real time      0.0185
    MIXING:  cpu time      0.0013: real time      0.0013
    OFIELD:  cpu time      0.0000: real time      0.0000

  FORCE on cell =-STRESS in cart. coord.  units (eV):
  Direction    XX          YY          ZZ          XY          YZ          ZX
  --------------------------------------------------------------------------------------
  Alpha Z   446.64426   446.64426   446.64426
  Ewald   -4695.40829 -4732.48800 -4792.38911   -37.81529     5.81563    68.36606
  Hartree  2633.48985  2535.05824  2469.03404   -27.84983     6.50344    48.55075
  E(xc)   -1325.80681 -1325.64043 -1325.72429    -0.03597    -0.00424     0.05734
  Local   -1722.97144 -1599.36610 -1482.87452    65.15111   -12.28886  -116.94682
  n-local   875.95180   887.97187   893.00332     0.02735    -0.27861    -0.05322
  augment  1159.51032  1161.52350  1159.73063     0.11411     0.03713     0.03197
  Kinetic  2621.48390  2626.32760  2631.65846     1.02653     0.23767     0.34659
  Fock        0.00000     0.00000     0.00000     0.00000     0.00000     0.00000
  -------------------------------------------------------------------------------------
  Total      -7.10640     0.03093    -0.91721     0.61803     0.02215     0.35266
  in kB     -11.96505     0.05208    -1.54431     1.04057     0.03730     0.59378
  external pressure =       -4.49 kB  Pullay stress =        0.00 kB


 VOLUME and BASIS-vectors are now :
 -----------------------------------------------------------------------------
  energy-cutoff  :      400.00
  volume of cell :      951.58
      direct lattice vectors                 reciprocal lattice vectors
     6.833068891  0.000000000 -0.127247023     0.146348793  0.000000000  0.000089461
    -0.000000000 17.671850551  0.000000000    -0.000000000  0.056587169 -0.000000000
    -0.004817206  0.000000000  7.880484692     0.002363109 -0.000000000  0.126897193

  length of vectors
     6.834253601 17.671850551  7.880486165     0.146348820  0.056587169  0.126919194


 FORCES acting on ions
    electron-ion (+dipol)            ewald-force                    non-local-force                 convergence-correction
 -----------------------------------------------------------------------------------------------
   0.126E+02 0.349E+02 0.628E+02   -.122E+02 -.358E+02 -.615E+02   -.426E+00 0.956E+00 -.127E+01   0.118E-01 -.198E-01 -.260E-02
   0.276E+02 -.590E+02 -.277E+02   -.279E+02 0.579E+02 0.270E+02   0.329E+00 0.110E+01 0.701E+00   -.605E-02 0.139E-01 -.768E-02
   0.935E+01 0.204E+02 -.479E+02   -.947E+01 -.187E+02 0.473E+02   0.124E+00 -.166E+01 0.627E+00   -.103E-01 0.155E-01 -.583E-02
   -.226E+02 0.671E+02 0.271E+02   0.229E+02 -.662E+02 -.259E+02   -.244E+00 -.884E+00 -.116E+01   0.112E-01 0.692E-02 0.864E-02
   0.233E+02 -.177E+02 0.433E+02   -.234E+02 0.203E+02 -.399E+02   0.149E+00 -.259E+01 -.346E+01   -.164E-01 0.136E-01 -.617E-02
   -.123E+02 0.208E+02 -.513E+02   0.113E+02 -.222E+02 0.493E+02   0.108E+01 0.137E+01 0.201E+01   -.120E-02 -.128E-01 -.109E-02
   -.288E+02 -.229E+02 -.492E+02   0.286E+02 0.232E+02 0.472E+02   0.201E+00 -.339E+00 0.200E+01   0.230E-02 0.716E-02 0.560E-02
   -.204E+01 -.193E+02 -.410E+01   0.205E+01 0.197E+02 0.358E+01   -.493E-02 -.382E+00 0.518E+00   -.182E-02 0.800E-02 0.376E-02
   0.301E+01 -.121E+02 0.108E+02   -.393E+01 0.124E+02 -.115E+02   0.921E+00 -.265E+00 0.674E+00   -.395E-02 0.625E-02 -.594E-02
   -.254E+02 -.317E+02 0.250E+02   0.255E+02 0.303E+02 -.240E+02   -.125E+00 0.142E+01 -.959E+00   -.266E-02 -.637E-02 -.353E-02
   0.247E+02 0.110E+01 -.296E+02   -.250E+02 -.290E+01 0.286E+02   0.291E+00 0.181E+01 0.950E+00   0.510E-03 -.138E-01 0.155E-02
   0.257E+02 0.340E+02 -.246E+02   -.257E+02 -.328E+02 0.236E+02   0.381E-01 -.123E+01 0.102E+01   0.301E-02 -.446E-02 -.385E-02
   -.250E+02 0.209E+01 0.297E+02   0.251E+02 -.376E+00 -.286E+02   -.143E+00 -.173E+01 -.106E+01   -.111E-02 0.134E-01 -.940E-02
   0.139E+02 0.150E+02 0.532E+02   -.138E+02 -.151E+02 -.502E+02   -.741E-01 0.106E+00 -.304E+01   0.292E-02 -.135E-01 0.530E-02
   -.153E+02 -.149E+02 -.530E+02   0.151E+02 0.151E+02 0.499E+02   0.228E+00 -.114E+00 0.308E+01   -.805E-02 0.639E-02 -.107E-02
   -.334E+02 0.164E+02 -.418E+02   0.332E+02 -.166E+02 0.404E+02   0.204E+00 0.184E+00 0.140E+01   0.118E-01 -.122E-01 -.382E-02
   0.331E+02 -.134E+02 0.428E+02   -.329E+02 0.137E+02 -.413E+02   -.171E+00 -.281E+00 -.143E+01   -.552E-02 0.409E-02 0.102E-01
   0.469E+01 0.222E+02 0.544E+00   -.435E+01 -.231E+02 -.103E+01   -.338E+00 0.925E+00 0.487E+00   0.938E-02 0.454E-02 0.356E-02
   -.228E+00 0.153E+01 -.760E+00   0.143E+00 -.150E+01 0.775E+00   0.852E-01 -.171E-01 -.195E-01   0.357E-03 -.103E-01 0.480E-02
   -.697E+01 0.371E+02 -.309E+02   0.661E+01 -.376E+02 0.298E+02   0.357E+00 0.497E+00 0.111E+01   0.391E-02 -.166E-01 -.226E-02
   -.190E+02 -.782E+02 0.540E+02   0.197E+02 0.784E+02 -.535E+02   -.714E+00 -.252E+00 -.471E+00   0.667E-02 0.163E-01 -.558E-02
   -.121E+02 -.268E+02 -.193E+02   0.115E+02 0.269E+02 0.189E+02   0.598E+00 -.158E+00 0.310E+00   -.126E-01 0.435E-02 -.423E-02
   0.133E+02 0.267E+02 0.189E+02   -.127E+02 -.269E+02 -.185E+02   -.649E+00 0.192E+00 -.482E+00   0.621E-02 -.139E-01 0.141E-01
   -.367E+02 0.497E+02 0.121E+03   0.378E+02 -.507E+02 -.124E+03   -.112E+01 0.102E+01 0.310E+01   -.986E-02 -.170E-01 -.458E-02
   0.483E+02 -.270E+02 -.923E+02   -.497E+02 0.272E+02 0.950E+02   0.137E+01 -.232E+00 -.277E+01   0.416E-02 -.877E-03 0.751E-02
   0.513E+02 0.378E+02 0.469E+02   -.525E+02 -.400E+02 -.480E+02   0.119E+01 0.216E+01 0.112E+01   0.144E-02 0.147E-01 0.494E-02
   -.321E+02 0.666E+02 -.776E+02   0.331E+02 -.690E+02 0.792E+02   -.975E+00 0.237E+01 -.158E+01   0.103E-01 0.785E-03 0.152E-01
   -.463E+02 -.418E+02 -.446E+02   0.475E+02 0.440E+02 0.459E+02   -.115E+01 -.222E+01 -.129E+01   0.218E-02 -.283E-02 -.102E-01
   0.125E+02 -.767E+02 0.477E+02   -.138E+02 0.793E+02 -.491E+02   0.123E+01 -.257E+01 0.137E+01   0.556E-04 0.106E-01 0.777E-02
   -.726E+02 -.545E+02 0.295E+02   0.756E+02 0.549E+02 -.296E+02   -.304E+01 -.399E+00 0.107E+00   0.148E-02 0.213E-01 -.509E-02
   0.922E+02 0.286E+02 -.126E+02   -.949E+02 -.289E+02 0.125E+02   0.270E+01 0.340E+00 0.721E-01   -.629E-02 -.177E-01 0.942E-02
   -.497E+02 -.109E+02 0.868E+02   0.512E+02 0.109E+02 -.897E+02   -.156E+01 -.337E-01 0.285E+01   0.591E-02 0.531E-02 0.158E-01
   0.491E+02 0.130E+02 -.893E+02   -.506E+02 -.131E+02 0.921E+02   0.154E+01 0.945E-01 -.287E+01   -.932E-02 -.251E-02 -.187E-01
   0.459E+02 0.104E+03 0.441E+02   -.470E+02 -.106E+03 -.453E+02   0.113E+01 0.256E+01 0.114E+01   -.192E-01 -.495E-02 0.260E-02
   -.477E+02 0.712E+02 -.412E+02   0.490E+02 -.736E+02 0.425E+02   -.131E+01 0.239E+01 -.121E+01   0.272E-02 -.468E-02 -.999E-02
   -.501E+02 -.960E+02 -.476E+02   0.514E+02 0.984E+02 0.490E+02   -.129E+01 -.249E+01 -.134E+01   0.716E-02 0.168E-01 0.605E-02
   0.477E+02 -.684E+02 0.424E+02   -.490E+02 0.708E+02 -.437E+02   0.130E+01 -.240E+01 0.126E+01   -.578E-03 -.878E-02 0.747E-02
   -.897E+02 0.150E+02 0.327E+01   0.925E+02 -.152E+02 -.324E+01   -.282E+01 0.179E+00 -.340E-01   -.128E-02 -.216E-01 0.110E-01
   0.878E+02 -.131E+02 -.559E+01   -.907E+02 0.131E+02 0.557E+01   0.286E+01 -.425E-01 0.269E-01   0.122E-01 0.664E-02 -.123E-01
 -----------------------------------------------------------------------------------------------
   -.170E+01 0.626E+00 -.152E+01   -.568E-13 -.103E-12 -.120E-12   0.175E+01 -.597E+00 0.148E+01   0.141E-02 -.823E-02 0.214E-01


 POSITION                                       TOTAL-FORCE (eV/Angst)
 -----------------------------------------------------------------------------------
      2.47701      6.41494      6.52586         0.007000     -0.005581      0.001111
      2.27346      0.23129      2.60673        -0.004983      0.004257     -0.001913
      2.46640      4.27623      2.68052        -0.009413      0.006150     -0.001001
      4.47836      8.64025      5.18107         0.006053      0.006971     -0.002098
      6.39478      2.52850      4.09306        -0.007413     -0.004481      0.000331
      0.03677      6.46935      3.88117         0.001602     -0.002084      0.003540
      4.51470      2.19202      1.15082         0.002742     -0.003113      0.000420
     -0.01942      0.06495     -0.04564         0.000602      0.004964      0.000433
     -0.17342      4.32916     -0.18386         0.001197      0.000353     -0.001545
      4.46913     13.45155      5.15409        -0.003424      0.001617     -0.003288
      2.33469      8.98761      2.63435         0.002185     -0.002785     -0.002236
      2.36367     13.06221      2.59980         0.000762      0.000446      0.002194
      4.46950     17.48878      5.15866        -0.001846     -0.000565     -0.002525
      6.63717     11.02024      4.05951         0.002772     -0.000014      0.002575
      0.19902     15.48350      3.71967        -0.002558     -0.000470     -0.000092
      4.58554     11.00944      1.16085         0.003401     -0.002071      0.003610
      2.26643     15.47921      6.60616        -0.002350      0.001919     -0.000781
      0.15759      8.72016      0.00370         0.003197      0.003459      0.003249
     -0.00049     13.24951      0.00929        -0.000598      0.000404      0.000956
      4.49459      6.66925      1.28637         0.002859      0.008015     -0.002019
      2.41705      2.27086      6.38070         0.000706     -0.003476     -0.002837
      4.41518     15.48011      1.33992        -0.008116     -0.005691     -0.013679
      2.41387     11.04073      6.43311         0.001977      0.003752      0.007693
      5.27123      6.65542      6.81545         0.005559      0.009323     -0.000893
      1.64645      2.26052      0.89166        -0.004190      0.008236     -0.002660
      1.57329      0.14068      5.26581        -0.003975     -0.003456     -0.006975
      5.28405      4.54529      2.36650         0.005205     -0.004269      0.001792
      5.29418      8.71835      2.54878        -0.005748     -0.000895      0.001562
      1.46232      4.27263      5.22603        -0.004351     -0.004368     -0.000639
      4.91762      2.18796      6.38520         0.008158     -0.007584      0.001305
      1.95666      6.63428      1.36226        -0.001970      0.000201     -0.001085
      5.19815     15.46407      6.84645        -0.006152      0.001922      0.011115
      1.64866     11.03644      0.92836         0.006937     -0.002098     -0.000673
      1.61851      8.93142      5.29294         0.009722      0.002223     -0.001722
      5.24863     13.38584      2.50160        -0.010488      0.008453     -0.001817
      5.22969     17.55599      2.51326        -0.002109     -0.010134     -0.000185
      1.57835     13.12641      5.25746         0.004568     -0.012946      0.004250
      4.94392     11.05996      6.35826        -0.005360      0.005214      0.005832
      1.88306     15.46985      1.40575         0.007839     -0.001800     -0.001303
 -----------------------------------------------------------------------------------
    total drift:                                0.050731      0.021691     -0.019527


--------------------------------------------------------------------------------------------------------



  FREE ENERGIE OF THE ION-ELECTRON SYSTEM (eV)
  ---------------------------------------------------
  free  energy   TOTEN  =      -139.49937411 eV

  energy  without entropy=     -139.53749166  energy(sigma->0) =     -139.51207996

 d Force = 0.3915900E-03[ 0.191E-03, 0.592E-03]  d Energy = 0.4832738E-03-0.917E-04
 d Force =-0.1378372E+00[-0.142E+00,-0.133E+00]  d Ewald  =-0.1378354E+00-0.180E-05


--------------------------------------------------------------------------------------------------------


    POTLOK:  cpu time      0.0428: real time      0.0428


--------------------------------------------------------------------------------------------------------


 Conjugate gradient step on ions:
 trial-energy change:   -0.000483  1 .order   -0.000392   -0.000592   -0.000191
  (g-gl).g = 0.260E-03      g.g   = 0.291E-03  gl.gl    = 0.666E-03
 g(Force)  = 0.291E-03   g(Stress)= 0.000E+00 ortho     =-0.485E-05
 gamma     =   0.39089
 trial     =   2.04628
 opt step  =   2.41825  (harmonic =   3.02122) maximal distance =0.00339054
 next E    =  -139.499392   (d E  =  -0.00050)


--------------------------------------------------------------------------------------------------------


  
 reached required accuracy - stopping structural energy minimisation
 writing wavefunctions
     LOOP+:  cpu time      3.1413: real time      3.1557
    4ORBIT:  cpu time      0.0000: real time      0.0000

 total amount of memory used by VASP MPI-rank0    51295. kBytes
=======================================================================

   base      :      30000. kBytes
   nonlr-proj:       4685. kBytes
   fftplans  :       2971. kBytes
   grid      :       9930. kBytes
   one-center:        606. kBytes
   wavefun   :       3103. kBytes

  
  
 General timing and accounting informations for this job:
 ========================================================
  
                  Total CPU time used (sec):      179.374
                            User time (sec):      171.820
                          System time (sec):        7.554
                         Elapsed time (sec):      183.549
  
                   Maximum memory used (kb):      164228.
                   Average memory used (kb):          N/A
  
                          Minor page faults:      1299037
                          Major page faults:          195
                 Voluntary context switches:         1761
