  16  16   1   0
  0.1928087E+02  0.6756921E-09  0.6756921E-09  0.6756921E-09  0.5000000E-15
   1.0000000000000000E-004
  CAR 
 static                                  
     19.56256947    -49.81557970 2000      4.39640281      1.00000000
    -49.816  0.0000E+00  0.0000E+00
    -49.781  0.0000E+00  0.0000E+00
    -49.746  0.0000E+00  0.0000E+00
    -49.711  0.0000E+00  0.0000E+00
    -49.677  0.0000E+00  0.0000E+00
    -49.642  0.0000E+00  0.0000E+00
    -49.607  0.0000E+00  0.0000E+00
    -49.573  0.0000E+00  0.0000E+00
    -49.538  0.0000E+00  0.0000E+00
    -49.503  0.0000E+00  0.0000E+00
    -49.469  0.0000E+00  0.0000E+00
    -49.434  0.0000E+00  0.0000E+00
    -49.399  0.0000E+00  0.0000E+00
    -49.364  0.0000E+00  0.0000E+00
    -49.330  0.0000E+00  0.0000E+00
    -49.295  0.0000E+00  0.0000E+00
    -49.260  0.0000E+00  0.0000E+00
    -49.226  0.0000E+00  0.0000E+00
    -49.191  0.0000E+00  0.0000E+00
    -49.156  0.0000E+00  0.0000E+00
    -49.121  0.0000E+00  0.0000E+00
    -49.087  0.0000E+00  0.0000E+00
    -49.052  0.0000E+00  0.0000E+00
    -49.017  0.0000E+00  0.0000E+00
    -48.983  0.0000E+00  0.0000E+00
    -48.948  0.0000E+00  0.0000E+00
    -48.913  0.0000E+00  0.0000E+00
    -48.879  0.0000E+00  0.0000E+00
    -48.844  0.0000E+00  0.0000E+00
    -48.809  0.0000E+00  0.0000E+00
    -48.774  0.0000E+00  0.0000E+00
    -48.740  0.0000E+00  0.0000E+00
    -48.705  0.0000E+00  0.0000E+00
    -48.670  0.0000E+00  0.0000E+00
    -48.636  0.0000E+00  0.0000E+00
    -48.601  0.0000E+00  0.0000E+00
    -48.566  0.0000E+00  0.0000E+00
    -48.531  0.0000E+00  0.0000E+00
    -48.497  0.0000E+00  0.0000E+00
    -48.462  0.0000E+00  0.0000E+00
    -48.427  0.0000E+00  0.0000E+00
    -48.393  0.0000E+00  0.0000E+00
    -48.358  0.0000E+00  0.0000E+00
    -48.323  0.0000E+00  0.0000E+00
    -48.288  0.0000E+00  0.0000E+00
    -48.254  0.0000E+00  0.0000E+00
    -48.219  0.0000E+00  0.0000E+00
    -48.184  0.0000E+00  0.0000E+00
    -48.150  0.0000E+00  0.0000E+00
    -48.115  0.0000E+00  0.0000E+00
    -48.080  0.0000E+00  0.0000E+00
    -48.046  0.0000E+00  0.0000E+00
    -48.011  0.0000E+00  0.0000E+00
    -47.976  0.0000E+00  0.0000E+00
    -47.941  0.0000E+00  0.0000E+00
    -47.907  0.0000E+00  0.0000E+00
    -47.872  0.0000E+00  0.0000E+00
    -47.837  0.0000E+00  0.0000E+00
    -47.803  0.0000E+00  0.0000E+00
    -47.768  0.0000E+00  0.0000E+00
    -47.733  0.0000E+00  0.0000E+00
    -47.698  0.0000E+00  0.0000E+00
    -47.664  0.0000E+00  0.0000E+00
    -47.629  0.0000E+00  0.0000E+00
    -47.594  0.0000E+00  0.0000E+00
    -47.560  0.0000E+00  0.0000E+00
    -47.525  0.0000E+00  0.0000E+00
    -47.490  0.0000E+00  0.0000E+00
    -47.456  0.0000E+00  0.0000E+00
    -47.421  0.0000E+00  0.0000E+00
    -47.386  0.0000E+00  0.0000E+00
    -47.351  0.0000E+00  0.0000E+00
    -47.317  0.0000E+00  0.0000E+00
    -47.282  0.0000E+00  0.0000E+00
    -47.247  0.0000E+00  0.0000E+00
    -47.213  0.0000E+00  0.0000E+00
    -47.178  0.0000E+00  0.0000E+00
    -47.143  0.0000E+00  0.0000E+00
    -47.108  0.0000E+00  0.0000E+00
    -47.074  0.0000E+00  0.0000E+00
    -47.039  0.0000E+00  0.0000E+00
    -47.004  0.0000E+00  0.0000E+00
    -46.970  0.0000E+00  0.0000E+00
    -46.935  0.1382E-11  0.4797E-13
    -46.900  0.1983E-08  0.6887E-10
    -46.866  0.1107E-05  0.3850E-07
    -46.831  0.2416E-03  0.8423E-05
    -46.796  0.2074E-01  0.7281E-03
    -46.761  0.7061E+00  0.2523E-01
    -46.727  0.9635E+01  0.3596E+00
    -46.692  0.5326E+02  0.2208E+01
    -46.657  0.1204E+03  0.6387E+01
    -46.623  0.1119E+03  0.1027E+02
    -46.588  0.4273E+02  0.1175E+02
    -46.553  0.6665E+01  0.1199E+02
    -46.518  0.4204E+00  0.1200E+02
    -46.484  0.1061E-01  0.1200E+02
    -46.449  0.1060E-03  0.1200E+02
    -46.414  0.4162E-06  0.1200E+02
    -46.380  0.6382E-09  0.1200E+02
    -46.345  0.3823E-12  0.1200E+02
    -46.310  0.0000E+00  0.1200E+02
    -46.276  0.0000E+00  0.1200E+02
    -46.241  0.0000E+00  0.1200E+02
    -46.206  0.0000E+00  0.1200E+02
    -46.171  0.0000E+00  0.1200E+02
    -46.137  0.0000E+00  0.1200E+02
    -46.102  0.0000E+00  0.1200E+02
    -46.067  0.0000E+00  0.1200E+02
    -46.033  0.0000E+00  0.1200E+02
    -45.998  0.0000E+00  0.1200E+02
    -45.963  0.0000E+00  0.1200E+02
    -45.928  0.0000E+00  0.1200E+02
    -45.894  0.0000E+00  0.1200E+02
    -45.859  0.0000E+00  0.1200E+02
    -45.824  0.0000E+00  0.1200E+02
    -45.790  0.0000E+00  0.1200E+02
    -45.755  0.0000E+00  0.1200E+02
    -45.720  0.0000E+00  0.1200E+02
    -45.686  0.0000E+00  0.1200E+02
    -45.651  0.0000E+00  0.1200E+02
    -45.616  0.0000E+00  0.1200E+02
    -45.581  0.0000E+00  0.1200E+02
    -45.547  0.0000E+00  0.1200E+02
    -45.512  0.0000E+00  0.1200E+02
    -45.477  0.0000E+00  0.1200E+02
    -45.443  0.0000E+00  0.1200E+02
    -45.408  0.0000E+00  0.1200E+02
    -45.373  0.0000E+00  0.1200E+02
    -45.338  0.0000E+00  0.1200E+02
    -45.304  0.0000E+00  0.1200E+02
    -45.269  0.0000E+00  0.1200E+02
    -45.234  0.0000E+00  0.1200E+02
    -45.200  0.0000E+00  0.1200E+02
    -45.165  0.0000E+00  0.1200E+02
    -45.130  0.0000E+00  0.1200E+02
    -45.096  0.0000E+00  0.1200E+02
    -45.061  0.0000E+00  0.1200E+02
    -45.026  0.0000E+00  0.1200E+02
    -44.991  0.0000E+00  0.1200E+02
    -44.957  0.0000E+00  0.1200E+02
    -44.922  0.0000E+00  0.1200E+02
    -44.887  0.0000E+00  0.1200E+02
    -44.853  0.0000E+00  0.1200E+02
    -44.818  0.0000E+00  0.1200E+02
    -44.783  0.0000E+00  0.1200E+02
    -44.748  0.0000E+00  0.1200E+02
    -44.714  0.0000E+00  0.1200E+02
    -44.679  0.0000E+00  0.1200E+02
    -44.644  0.0000E+00  0.1200E+02
    -44.610  0.0000E+00  0.1200E+02
    -44.575  0.0000E+00  0.1200E+02
    -44.540  0.0000E+00  0.1200E+02
    -44.505  0.0000E+00  0.1200E+02
    -44.471  0.0000E+00  0.1200E+02
    -44.436  0.0000E+00  0.1200E+02
    -44.401  0.0000E+00  0.1200E+02
    -44.367  0.0000E+00  0.1200E+02
    -44.332  0.0000E+00  0.1200E+02
    -44.297  0.0000E+00  0.1200E+02
    -44.263  0.0000E+00  0.1200E+02
    -44.228  0.0000E+00  0.1200E+02
    -44.193  0.0000E+00  0.1200E+02
    -44.158  0.0000E+00  0.1200E+02
    -44.124  0.0000E+00  0.1200E+02
    -44.089  0.0000E+00  0.1200E+02
    -44.054  0.0000E+00  0.1200E+02
    -44.020  0.0000E+00  0.1200E+02
    -43.985  0.0000E+00  0.1200E+02
    -43.950  0.0000E+00  0.1200E+02
    -43.915  0.0000E+00  0.1200E+02
    -43.881  0.0000E+00  0.1200E+02
    -43.846  0.0000E+00  0.1200E+02
    -43.811  0.0000E+00  0.1200E+02
    -43.777  0.0000E+00  0.1200E+02
    -43.742  0.0000E+00  0.1200E+02
    -43.707  0.0000E+00  0.1200E+02
    -43.673  0.0000E+00  0.1200E+02
    -43.638  0.0000E+00  0.1200E+02
    -43.603  0.0000E+00  0.1200E+02
    -43.568  0.0000E+00  0.1200E+02
    -43.534  0.0000E+00  0.1200E+02
    -43.499  0.0000E+00  0.1200E+02
    -43.464  0.0000E+00  0.1200E+02
    -43.430  0.0000E+00  0.1200E+02
    -43.395  0.0000E+00  0.1200E+02
    -43.360  0.0000E+00  0.1200E+02
    -43.325  0.0000E+00  0.1200E+02
    -43.291  0.0000E+00  0.1200E+02
    -43.256  0.0000E+00  0.1200E+02
    -43.221  0.0000E+00  0.1200E+02
    -43.187  0.0000E+00  0.1200E+02
    -43.152  0.0000E+00  0.1200E+02
    -43.117  0.0000E+00  0.1200E+02
    -43.083  0.0000E+00  0.1200E+02
    -43.048  0.0000E+00  0.1200E+02
    -43.013  0.0000E+00  0.1200E+02
    -42.978  0.0000E+00  0.1200E+02
    -42.944  0.0000E+00  0.1200E+02
    -42.909  0.0000E+00  0.1200E+02
    -42.874  0.0000E+00  0.1200E+02
    -42.840  0.0000E+00  0.1200E+02
    -42.805  0.0000E+00  0.1200E+02
    -42.770  0.0000E+00  0.1200E+02
    -42.735  0.0000E+00  0.1200E+02
    -42.701  0.0000E+00  0.1200E+02
    -42.666  0.0000E+00  0.1200E+02
    -42.631  0.0000E+00  0.1200E+02
    -42.597  0.0000E+00  0.1200E+02
    -42.562  0.0000E+00  0.1200E+02
    -42.527  0.0000E+00  0.1200E+02
    -42.493  0.0000E+00  0.1200E+02
    -42.458  0.0000E+00  0.1200E+02
    -42.423  0.0000E+00  0.1200E+02
    -42.388  0.0000E+00  0.1200E+02
    -42.354  0.0000E+00  0.1200E+02
    -42.319  0.0000E+00  0.1200E+02
    -42.284  0.0000E+00  0.1200E+02
    -42.250  0.0000E+00  0.1200E+02
    -42.215  0.0000E+00  0.1200E+02
    -42.180  0.0000E+00  0.1200E+02
    -42.145  0.0000E+00  0.1200E+02
    -42.111  0.0000E+00  0.1200E+02
    -42.076  0.0000E+00  0.1200E+02
    -42.041  0.0000E+00  0.1200E+02
    -42.007  0.0000E+00  0.1200E+02
    -41.972  0.0000E+00  0.1200E+02
    -41.937  0.0000E+00  0.1200E+02
    -41.903  0.0000E+00  0.1200E+02
    -41.868  0.0000E+00  0.1200E+02
    -41.833  0.0000E+00  0.1200E+02
    -41.798  0.0000E+00  0.1200E+02
    -41.764  0.0000E+00  0.1200E+02
    -41.729  0.0000E+00  0.1200E+02
    -41.694  0.0000E+00  0.1200E+02
    -41.660  0.0000E+00  0.1200E+02
    -41.625  0.0000E+00  0.1200E+02
    -41.590  0.0000E+00  0.1200E+02
    -41.555  0.0000E+00  0.1200E+02
    -41.521  0.0000E+00  0.1200E+02
    -41.486  0.0000E+00  0.1200E+02
    -41.451  0.0000E+00  0.1200E+02
    -41.417  0.0000E+00  0.1200E+02
    -41.382  0.0000E+00  0.1200E+02
    -41.347  0.0000E+00  0.1200E+02
    -41.313  0.0000E+00  0.1200E+02
    -41.278  0.0000E+00  0.1200E+02
    -41.243  0.0000E+00  0.1200E+02
    -41.208  0.0000E+00  0.1200E+02
    -41.174  0.0000E+00  0.1200E+02
    -41.139  0.0000E+00  0.1200E+02
    -41.104  0.0000E+00  0.1200E+02
    -41.070  0.0000E+00  0.1200E+02
    -41.035  0.0000E+00  0.1200E+02
    -41.000  0.0000E+00  0.1200E+02
    -40.965  0.0000E+00  0.1200E+02
    -40.931  0.0000E+00  0.1200E+02
    -40.896  0.0000E+00  0.1200E+02
    -40.861  0.0000E+00  0.1200E+02
    -40.827  0.0000E+00  0.1200E+02
    -40.792  0.0000E+00  0.1200E+02
    -40.757  0.0000E+00  0.1200E+02
    -40.722  0.0000E+00  0.1200E+02
    -40.688  0.0000E+00  0.1200E+02
    -40.653  0.0000E+00  0.1200E+02
    -40.618  0.0000E+00  0.1200E+02
    -40.584  0.0000E+00  0.1200E+02
    -40.549  0.0000E+00  0.1200E+02
    -40.514  0.0000E+00  0.1200E+02
    -40.480  0.0000E+00  0.1200E+02
    -40.445  0.0000E+00  0.1200E+02
    -40.410  0.0000E+00  0.1200E+02
    -40.375  0.0000E+00  0.1200E+02
    -40.341  0.0000E+00  0.1200E+02
    -40.306  0.0000E+00  0.1200E+02
    -40.271  0.0000E+00  0.1200E+02
    -40.237  0.0000E+00  0.1200E+02
    -40.202  0.0000E+00  0.1200E+02
    -40.167  0.0000E+00  0.1200E+02
    -40.132  0.0000E+00  0.1200E+02
    -40.098  0.0000E+00  0.1200E+02
    -40.063  0.0000E+00  0.1200E+02
    -40.028  0.0000E+00  0.1200E+02
    -39.994  0.0000E+00  0.1200E+02
    -39.959  0.0000E+00  0.1200E+02
    -39.924  0.0000E+00  0.1200E+02
    -39.890  0.0000E+00  0.1200E+02
    -39.855  0.0000E+00  0.1200E+02
    -39.820  0.0000E+00  0.1200E+02
    -39.785  0.0000E+00  0.1200E+02
    -39.751  0.0000E+00  0.1200E+02
    -39.716  0.0000E+00  0.1200E+02
    -39.681  0.0000E+00  0.1200E+02
    -39.647  0.0000E+00  0.1200E+02
    -39.612  0.0000E+00  0.1200E+02
    -39.577  0.0000E+00  0.1200E+02
    -39.542  0.0000E+00  0.1200E+02
    -39.508  0.0000E+00  0.1200E+02
    -39.473  0.0000E+00  0.1200E+02
    -39.438  0.0000E+00  0.1200E+02
    -39.404  0.0000E+00  0.1200E+02
    -39.369  0.0000E+00  0.1200E+02
    -39.334  0.0000E+00  0.1200E+02
    -39.300  0.0000E+00  0.1200E+02
    -39.265  0.0000E+00  0.1200E+02
    -39.230  0.0000E+00  0.1200E+02
    -39.195  0.0000E+00  0.1200E+02
    -39.161  0.0000E+00  0.1200E+02
    -39.126  0.0000E+00  0.1200E+02
    -39.091  0.0000E+00  0.1200E+02
    -39.057  0.0000E+00  0.1200E+02
    -39.022  0.0000E+00  0.1200E+02
    -38.987  0.0000E+00  0.1200E+02
    -38.952  0.0000E+00  0.1200E+02
    -38.918  0.0000E+00  0.1200E+02
    -38.883  0.0000E+00  0.1200E+02
    -38.848  0.0000E+00  0.1200E+02
    -38.814  0.0000E+00  0.1200E+02
    -38.779  0.0000E+00  0.1200E+02
    -38.744  0.0000E+00  0.1200E+02
    -38.710  0.0000E+00  0.1200E+02
    -38.675  0.0000E+00  0.1200E+02
    -38.640  0.0000E+00  0.1200E+02
    -38.605  0.0000E+00  0.1200E+02
    -38.571  0.0000E+00  0.1200E+02
    -38.536  0.0000E+00  0.1200E+02
    -38.501  0.0000E+00  0.1200E+02
    -38.467  0.0000E+00  0.1200E+02
    -38.432  0.0000E+00  0.1200E+02
    -38.397  0.0000E+00  0.1200E+02
    -38.362  0.0000E+00  0.1200E+02
    -38.328  0.0000E+00  0.1200E+02
    -38.293  0.0000E+00  0.1200E+02
    -38.258  0.0000E+00  0.1200E+02
    -38.224  0.0000E+00  0.1200E+02
    -38.189  0.0000E+00  0.1200E+02
    -38.154  0.0000E+00  0.1200E+02
    -38.120  0.0000E+00  0.1200E+02
    -38.085  0.0000E+00  0.1200E+02
    -38.050  0.0000E+00  0.1200E+02
    -38.015  0.0000E+00  0.1200E+02
    -37.981  0.0000E+00  0.1200E+02
    -37.946  0.0000E+00  0.1200E+02
    -37.911  0.0000E+00  0.1200E+02
    -37.877  0.0000E+00  0.1200E+02
    -37.842  0.0000E+00  0.1200E+02
    -37.807  0.0000E+00  0.1200E+02
    -37.772  0.0000E+00  0.1200E+02
    -37.738  0.0000E+00  0.1200E+02
    -37.703  0.0000E+00  0.1200E+02
    -37.668  0.0000E+00  0.1200E+02
    -37.634  0.0000E+00  0.1200E+02
    -37.599  0.0000E+00  0.1200E+02
    -37.564  0.0000E+00  0.1200E+02
    -37.530  0.0000E+00  0.1200E+02
    -37.495  0.0000E+00  0.1200E+02
    -37.460  0.0000E+00  0.1200E+02
    -37.425  0.0000E+00  0.1200E+02
    -37.391  0.0000E+00  0.1200E+02
    -37.356  0.0000E+00  0.1200E+02
    -37.321  0.0000E+00  0.1200E+02
    -37.287  0.0000E+00  0.1200E+02
    -37.252  0.0000E+00  0.1200E+02
    -37.217  0.0000E+00  0.1200E+02
    -37.182  0.0000E+00  0.1200E+02
    -37.148  0.0000E+00  0.1200E+02
    -37.113  0.0000E+00  0.1200E+02
    -37.078  0.0000E+00  0.1200E+02
    -37.044  0.0000E+00  0.1200E+02
    -37.009  0.0000E+00  0.1200E+02
    -36.974  0.0000E+00  0.1200E+02
    -36.939  0.0000E+00  0.1200E+02
    -36.905  0.0000E+00  0.1200E+02
    -36.870  0.0000E+00  0.1200E+02
    -36.835  0.0000E+00  0.1200E+02
    -36.801  0.0000E+00  0.1200E+02
    -36.766  0.0000E+00  0.1200E+02
    -36.731  0.0000E+00  0.1200E+02
    -36.697  0.0000E+00  0.1200E+02
    -36.662  0.0000E+00  0.1200E+02
    -36.627  0.0000E+00  0.1200E+02
    -36.592  0.0000E+00  0.1200E+02
    -36.558  0.0000E+00  0.1200E+02
    -36.523  0.0000E+00  0.1200E+02
    -36.488  0.0000E+00  0.1200E+02
    -36.454  0.0000E+00  0.1200E+02
    -36.419  0.0000E+00  0.1200E+02
    -36.384  0.0000E+00  0.1200E+02
    -36.349  0.0000E+00  0.1200E+02
    -36.315  0.0000E+00  0.1200E+02
    -36.280  0.0000E+00  0.1200E+02
    -36.245  0.0000E+00  0.1200E+02
    -36.211  0.0000E+00  0.1200E+02
    -36.176  0.0000E+00  0.1200E+02
    -36.141  0.0000E+00  0.1200E+02
    -36.107  0.0000E+00  0.1200E+02
    -36.072  0.0000E+00  0.1200E+02
    -36.037  0.0000E+00  0.1200E+02
    -36.002  0.0000E+00  0.1200E+02
    -35.968  0.0000E+00  0.1200E+02
    -35.933  0.0000E+00  0.1200E+02
    -35.898  0.0000E+00  0.1200E+02
    -35.864  0.0000E+00  0.1200E+02
    -35.829  0.0000E+00  0.1200E+02
    -35.794  0.0000E+00  0.1200E+02
    -35.759  0.0000E+00  0.1200E+02
    -35.725  0.0000E+00  0.1200E+02
    -35.690  0.0000E+00  0.1200E+02
    -35.655  0.0000E+00  0.1200E+02
    -35.621  0.0000E+00  0.1200E+02
    -35.586  0.0000E+00  0.1200E+02
    -35.551  0.0000E+00  0.1200E+02
    -35.517  0.0000E+00  0.1200E+02
    -35.482  0.0000E+00  0.1200E+02
    -35.447  0.0000E+00  0.1200E+02
    -35.412  0.0000E+00  0.1200E+02
    -35.378  0.0000E+00  0.1200E+02
    -35.343  0.0000E+00  0.1200E+02
    -35.308  0.0000E+00  0.1200E+02
    -35.274  0.0000E+00  0.1200E+02
    -35.239  0.0000E+00  0.1200E+02
    -35.204  0.0000E+00  0.1200E+02
    -35.169  0.0000E+00  0.1200E+02
    -35.135  0.0000E+00  0.1200E+02
    -35.100  0.0000E+00  0.1200E+02
    -35.065  0.0000E+00  0.1200E+02
    -35.031  0.0000E+00  0.1200E+02
    -34.996  0.0000E+00  0.1200E+02
    -34.961  0.0000E+00  0.1200E+02
    -34.927  0.0000E+00  0.1200E+02
    -34.892  0.0000E+00  0.1200E+02
    -34.857  0.0000E+00  0.1200E+02
    -34.822  0.0000E+00  0.1200E+02
    -34.788  0.0000E+00  0.1200E+02
    -34.753  0.0000E+00  0.1200E+02
    -34.718  0.0000E+00  0.1200E+02
    -34.684  0.0000E+00  0.1200E+02
    -34.649  0.0000E+00  0.1200E+02
    -34.614  0.0000E+00  0.1200E+02
    -34.579  0.0000E+00  0.1200E+02
    -34.545  0.0000E+00  0.1200E+02
    -34.510  0.0000E+00  0.1200E+02
    -34.475  0.0000E+00  0.1200E+02
    -34.441  0.0000E+00  0.1200E+02
    -34.406  0.0000E+00  0.1200E+02
    -34.371  0.0000E+00  0.1200E+02
    -34.337  0.0000E+00  0.1200E+02
    -34.302  0.0000E+00  0.1200E+02
    -34.267  0.0000E+00  0.1200E+02
    -34.232  0.0000E+00  0.1200E+02
    -34.198  0.0000E+00  0.1200E+02
    -34.163  0.0000E+00  0.1200E+02
    -34.128  0.0000E+00  0.1200E+02
    -34.094  0.0000E+00  0.1200E+02
    -34.059  0.0000E+00  0.1200E+02
    -34.024  0.0000E+00  0.1200E+02
    -33.989  0.0000E+00  0.1200E+02
    -33.955  0.0000E+00  0.1200E+02
    -33.920  0.0000E+00  0.1200E+02
    -33.885  0.0000E+00  0.1200E+02
    -33.851  0.0000E+00  0.1200E+02
    -33.816  0.0000E+00  0.1200E+02
    -33.781  0.0000E+00  0.1200E+02
    -33.747  0.0000E+00  0.1200E+02
    -33.712  0.0000E+00  0.1200E+02
    -33.677  0.0000E+00  0.1200E+02
    -33.642  0.0000E+00  0.1200E+02
    -33.608  0.0000E+00  0.1200E+02
    -33.573  0.0000E+00  0.1200E+02
    -33.538  0.0000E+00  0.1200E+02
    -33.504  0.0000E+00  0.1200E+02
    -33.469  0.0000E+00  0.1200E+02
    -33.434  0.0000E+00  0.1200E+02
    -33.399  0.0000E+00  0.1200E+02
    -33.365  0.0000E+00  0.1200E+02
    -33.330  0.0000E+00  0.1200E+02
    -33.295  0.0000E+00  0.1200E+02
    -33.261  0.0000E+00  0.1200E+02
    -33.226  0.0000E+00  0.1200E+02
    -33.191  0.0000E+00  0.1200E+02
    -33.156  0.0000E+00  0.1200E+02
    -33.122  0.0000E+00  0.1200E+02
    -33.087  0.0000E+00  0.1200E+02
    -33.052  0.0000E+00  0.1200E+02
    -33.018  0.0000E+00  0.1200E+02
    -32.983  0.0000E+00  0.1200E+02
    -32.948  0.0000E+00  0.1200E+02
    -32.914  0.0000E+00  0.1200E+02
    -32.879  0.0000E+00  0.1200E+02
    -32.844  0.0000E+00  0.1200E+02
    -32.809  0.0000E+00  0.1200E+02
    -32.775  0.0000E+00  0.1200E+02
    -32.740  0.0000E+00  0.1200E+02
    -32.705  0.0000E+00  0.1200E+02
    -32.671  0.0000E+00  0.1200E+02
    -32.636  0.0000E+00  0.1200E+02
    -32.601  0.0000E+00  0.1200E+02
    -32.566  0.0000E+00  0.1200E+02
    -32.532  0.0000E+00  0.1200E+02
    -32.497  0.0000E+00  0.1200E+02
    -32.462  0.0000E+00  0.1200E+02
    -32.428  0.0000E+00  0.1200E+02
    -32.393  0.0000E+00  0.1200E+02
    -32.358  0.0000E+00  0.1200E+02
    -32.324  0.0000E+00  0.1200E+02
    -32.289  0.0000E+00  0.1200E+02
    -32.254  0.0000E+00  0.1200E+02
    -32.219  0.0000E+00  0.1200E+02
    -32.185  0.0000E+00  0.1200E+02
    -32.150  0.0000E+00  0.1200E+02
    -32.115  0.0000E+00  0.1200E+02
    -32.081  0.0000E+00  0.1200E+02
    -32.046  0.0000E+00  0.1200E+02
    -32.011  0.0000E+00  0.1200E+02
    -31.976  0.0000E+00  0.1200E+02
    -31.942  0.0000E+00  0.1200E+02
    -31.907  0.0000E+00  0.1200E+02
    -31.872  0.0000E+00  0.1200E+02
    -31.838  0.0000E+00  0.1200E+02
    -31.803  0.0000E+00  0.1200E+02
    -31.768  0.0000E+00  0.1200E+02
    -31.734  0.0000E+00  0.1200E+02
    -31.699  0.0000E+00  0.1200E+02
    -31.664  0.0000E+00  0.1200E+02
    -31.629  0.0000E+00  0.1200E+02
    -31.595  0.0000E+00  0.1200E+02
    -31.560  0.0000E+00  0.1200E+02
    -31.525  0.0000E+00  0.1200E+02
    -31.491  0.0000E+00  0.1200E+02
    -31.456  0.0000E+00  0.1200E+02
    -31.421  0.0000E+00  0.1200E+02
    -31.386  0.0000E+00  0.1200E+02
    -31.352  0.0000E+00  0.1200E+02
    -31.317  0.0000E+00  0.1200E+02
    -31.282  0.0000E+00  0.1200E+02
    -31.248  0.0000E+00  0.1200E+02
    -31.213  0.0000E+00  0.1200E+02
    -31.178  0.0000E+00  0.1200E+02
    -31.144  0.0000E+00  0.1200E+02
    -31.109  0.0000E+00  0.1200E+02
    -31.074  0.0000E+00  0.1200E+02
    -31.039  0.0000E+00  0.1200E+02
    -31.005  0.0000E+00  0.1200E+02
    -30.970  0.0000E+00  0.1200E+02
    -30.935  0.0000E+00  0.1200E+02
    -30.901  0.0000E+00  0.1200E+02
    -30.866  0.0000E+00  0.1200E+02
    -30.831  0.0000E+00  0.1200E+02
    -30.796  0.0000E+00  0.1200E+02
    -30.762  0.0000E+00  0.1200E+02
    -30.727  0.0000E+00  0.1200E+02
    -30.692  0.0000E+00  0.1200E+02
    -30.658  0.0000E+00  0.1200E+02
    -30.623  0.0000E+00  0.1200E+02
    -30.588  0.0000E+00  0.1200E+02
    -30.554  0.0000E+00  0.1200E+02
    -30.519  0.0000E+00  0.1200E+02
    -30.484  0.0000E+00  0.1200E+02
    -30.449  0.0000E+00  0.1200E+02
    -30.415  0.0000E+00  0.1200E+02
    -30.380  0.0000E+00  0.1200E+02
    -30.345  0.0000E+00  0.1200E+02
    -30.311  0.0000E+00  0.1200E+02
    -30.276  0.0000E+00  0.1200E+02
    -30.241  0.0000E+00  0.1200E+02
    -30.206  0.0000E+00  0.1200E+02
    -30.172  0.0000E+00  0.1200E+02
    -30.137  0.0000E+00  0.1200E+02
    -30.102  0.0000E+00  0.1200E+02
    -30.068  0.0000E+00  0.1200E+02
    -30.033  0.0000E+00  0.1200E+02
    -29.998  0.0000E+00  0.1200E+02
    -29.964  0.0000E+00  0.1200E+02
    -29.929  0.0000E+00  0.1200E+02
    -29.894  0.0000E+00  0.1200E+02
    -29.859  0.0000E+00  0.1200E+02
    -29.825  0.0000E+00  0.1200E+02
    -29.790  0.0000E+00  0.1200E+02
    -29.755  0.0000E+00  0.1200E+02
    -29.721  0.0000E+00  0.1200E+02
    -29.686  0.0000E+00  0.1200E+02
    -29.651  0.0000E+00  0.1200E+02
    -29.616  0.0000E+00  0.1200E+02
    -29.582  0.0000E+00  0.1200E+02
    -29.547  0.0000E+00  0.1200E+02
    -29.512  0.0000E+00  0.1200E+02
    -29.478  0.0000E+00  0.1200E+02
    -29.443  0.0000E+00  0.1200E+02
    -29.408  0.0000E+00  0.1200E+02
    -29.373  0.0000E+00  0.1200E+02
    -29.339  0.0000E+00  0.1200E+02
    -29.304  0.0000E+00  0.1200E+02
    -29.269  0.0000E+00  0.1200E+02
    -29.235  0.0000E+00  0.1200E+02
    -29.200  0.0000E+00  0.1200E+02
    -29.165  0.0000E+00  0.1200E+02
    -29.131  0.0000E+00  0.1200E+02
    -29.096  0.0000E+00  0.1200E+02
    -29.061  0.0000E+00  0.1200E+02
    -29.026  0.0000E+00  0.1200E+02
    -28.992  0.0000E+00  0.1200E+02
    -28.957  0.0000E+00  0.1200E+02
    -28.922  0.0000E+00  0.1200E+02
    -28.888  0.0000E+00  0.1200E+02
    -28.853  0.0000E+00  0.1200E+02
    -28.818  0.0000E+00  0.1200E+02
    -28.783  0.0000E+00  0.1200E+02
    -28.749  0.0000E+00  0.1200E+02
    -28.714  0.0000E+00  0.1200E+02
    -28.679  0.0000E+00  0.1200E+02
    -28.645  0.0000E+00  0.1200E+02
    -28.610  0.0000E+00  0.1200E+02
    -28.575  0.0000E+00  0.1200E+02
    -28.541  0.0000E+00  0.1200E+02
    -28.506  0.0000E+00  0.1200E+02
    -28.471  0.0000E+00  0.1200E+02
    -28.436  0.0000E+00  0.1200E+02
    -28.402  0.0000E+00  0.1200E+02
    -28.367  0.0000E+00  0.1200E+02
    -28.332  0.0000E+00  0.1200E+02
    -28.298  0.0000E+00  0.1200E+02
    -28.263  0.0000E+00  0.1200E+02
    -28.228  0.0000E+00  0.1200E+02
    -28.193  0.0000E+00  0.1200E+02
    -28.159  0.0000E+00  0.1200E+02
    -28.124  0.0000E+00  0.1200E+02
    -28.089  0.0000E+00  0.1200E+02
    -28.055  0.0000E+00  0.1200E+02
    -28.020  0.0000E+00  0.1200E+02
    -27.985  0.0000E+00  0.1200E+02
    -27.951  0.0000E+00  0.1200E+02
    -27.916  0.0000E+00  0.1200E+02
    -27.881  0.0000E+00  0.1200E+02
    -27.846  0.0000E+00  0.1200E+02
    -27.812  0.0000E+00  0.1200E+02
    -27.777  0.0000E+00  0.1200E+02
    -27.742  0.0000E+00  0.1200E+02
    -27.708  0.0000E+00  0.1200E+02
    -27.673  0.0000E+00  0.1200E+02
    -27.638  0.0000E+00  0.1200E+02
    -27.603  0.0000E+00  0.1200E+02
    -27.569  0.0000E+00  0.1200E+02
    -27.534  0.0000E+00  0.1200E+02
    -27.499  0.0000E+00  0.1200E+02
    -27.465  0.0000E+00  0.1200E+02
    -27.430  0.0000E+00  0.1200E+02
    -27.395  0.0000E+00  0.1200E+02
    -27.361  0.0000E+00  0.1200E+02
    -27.326  0.0000E+00  0.1200E+02
    -27.291  0.0000E+00  0.1200E+02
    -27.256  0.0000E+00  0.1200E+02
    -27.222  0.0000E+00  0.1200E+02
    -27.187  0.0000E+00  0.1200E+02
    -27.152  0.0000E+00  0.1200E+02
    -27.118  0.0000E+00  0.1200E+02
    -27.083  0.0000E+00  0.1200E+02
    -27.048  0.0000E+00  0.1200E+02
    -27.013  0.0000E+00  0.1200E+02
    -26.979  0.0000E+00  0.1200E+02
    -26.944  0.0000E+00  0.1200E+02
    -26.909  0.0000E+00  0.1200E+02
    -26.875  0.0000E+00  0.1200E+02
    -26.840  0.0000E+00  0.1200E+02
    -26.805  0.0000E+00  0.1200E+02
    -26.771  0.0000E+00  0.1200E+02
    -26.736  0.0000E+00  0.1200E+02
    -26.701  0.0000E+00  0.1200E+02
    -26.666  0.0000E+00  0.1200E+02
    -26.632  0.0000E+00  0.1200E+02
    -26.597  0.0000E+00  0.1200E+02
    -26.562  0.0000E+00  0.1200E+02
    -26.528  0.0000E+00  0.1200E+02
    -26.493  0.0000E+00  0.1200E+02
    -26.458  0.0000E+00  0.1200E+02
    -26.423  0.0000E+00  0.1200E+02
    -26.389  0.0000E+00  0.1200E+02
    -26.354  0.0000E+00  0.1200E+02
    -26.319  0.0000E+00  0.1200E+02
    -26.285  0.0000E+00  0.1200E+02
    -26.250  0.0000E+00  0.1200E+02
    -26.215  0.0000E+00  0.1200E+02
    -26.181  0.0000E+00  0.1200E+02
    -26.146  0.0000E+00  0.1200E+02
    -26.111  0.0000E+00  0.1200E+02
    -26.076  0.0000E+00  0.1200E+02
    -26.042  0.0000E+00  0.1200E+02
    -26.007  0.0000E+00  0.1200E+02
    -25.972  0.0000E+00  0.1200E+02
    -25.938  0.0000E+00  0.1200E+02
    -25.903  0.0000E+00  0.1200E+02
    -25.868  0.0000E+00  0.1200E+02
    -25.833  0.0000E+00  0.1200E+02
    -25.799  0.0000E+00  0.1200E+02
    -25.764  0.0000E+00  0.1200E+02
    -25.729  0.0000E+00  0.1200E+02
    -25.695  0.0000E+00  0.1200E+02
    -25.660  0.0000E+00  0.1200E+02
    -25.625  0.0000E+00  0.1200E+02
    -25.590  0.0000E+00  0.1200E+02
    -25.556  0.0000E+00  0.1200E+02
    -25.521  0.0000E+00  0.1200E+02
    -25.486  0.0000E+00  0.1200E+02
    -25.452  0.0000E+00  0.1200E+02
    -25.417  0.0000E+00  0.1200E+02
    -25.382  0.0000E+00  0.1200E+02
    -25.348  0.0000E+00  0.1200E+02
    -25.313  0.0000E+00  0.1200E+02
    -25.278  0.0000E+00  0.1200E+02
    -25.243  0.0000E+00  0.1200E+02
    -25.209  0.0000E+00  0.1200E+02
    -25.174  0.0000E+00  0.1200E+02
    -25.139  0.0000E+00  0.1200E+02
    -25.105  0.0000E+00  0.1200E+02
    -25.070  0.0000E+00  0.1200E+02
    -25.035  0.0000E+00  0.1200E+02
    -25.000  0.0000E+00  0.1200E+02
    -24.966  0.0000E+00  0.1200E+02
    -24.931  0.0000E+00  0.1200E+02
    -24.896  0.0000E+00  0.1200E+02
    -24.862  0.0000E+00  0.1200E+02
    -24.827  0.0000E+00  0.1200E+02
    -24.792  0.0000E+00  0.1200E+02
    -24.758  0.0000E+00  0.1200E+02
    -24.723  0.0000E+00  0.1200E+02
    -24.688  0.0000E+00  0.1200E+02
    -24.653  0.0000E+00  0.1200E+02
    -24.619  0.0000E+00  0.1200E+02
    -24.584  0.0000E+00  0.1200E+02
    -24.549  0.0000E+00  0.1200E+02
    -24.515  0.0000E+00  0.1200E+02
    -24.480  0.0000E+00  0.1200E+02
    -24.445  0.0000E+00  0.1200E+02
    -24.410  0.0000E+00  0.1200E+02
    -24.376  0.0000E+00  0.1200E+02
    -24.341  0.0000E+00  0.1200E+02
    -24.306  0.0000E+00  0.1200E+02
    -24.272  0.0000E+00  0.1200E+02
    -24.237  0.0000E+00  0.1200E+02
    -24.202  0.0000E+00  0.1200E+02
    -24.168  0.0000E+00  0.1200E+02
    -24.133  0.0000E+00  0.1200E+02
    -24.098  0.0000E+00  0.1200E+02
    -24.063  0.0000E+00  0.1200E+02
    -24.029  0.0000E+00  0.1200E+02
    -23.994  0.0000E+00  0.1200E+02
    -23.959  0.0000E+00  0.1200E+02
    -23.925  0.0000E+00  0.1200E+02
    -23.890  0.0000E+00  0.1200E+02
    -23.855  0.0000E+00  0.1200E+02
    -23.820  0.0000E+00  0.1200E+02
    -23.786  0.0000E+00  0.1200E+02
    -23.751  0.0000E+00  0.1200E+02
    -23.716  0.0000E+00  0.1200E+02
    -23.682  0.0000E+00  0.1200E+02
    -23.647  0.0000E+00  0.1200E+02
    -23.612  0.0000E+00  0.1200E+02
    -23.578  0.0000E+00  0.1200E+02
    -23.543  0.0000E+00  0.1200E+02
    -23.508  0.0000E+00  0.1200E+02
    -23.473  0.0000E+00  0.1200E+02
    -23.439  0.0000E+00  0.1200E+02
    -23.404  0.0000E+00  0.1200E+02
    -23.369  0.0000E+00  0.1200E+02
    -23.335  0.0000E+00  0.1200E+02
    -23.300  0.0000E+00  0.1200E+02
    -23.265  0.0000E+00  0.1200E+02
    -23.230  0.0000E+00  0.1200E+02
    -23.196  0.0000E+00  0.1200E+02
    -23.161  0.0000E+00  0.1200E+02
    -23.126  0.0000E+00  0.1200E+02
    -23.092  0.0000E+00  0.1200E+02
    -23.057  0.0000E+00  0.1200E+02
    -23.022  0.0000E+00  0.1200E+02
    -22.988  0.0000E+00  0.1200E+02
    -22.953  0.0000E+00  0.1200E+02
    -22.918  0.0000E+00  0.1200E+02
    -22.883  0.0000E+00  0.1200E+02
    -22.849  0.0000E+00  0.1200E+02
    -22.814  0.0000E+00  0.1200E+02
    -22.779  0.0000E+00  0.1200E+02
    -22.745  0.0000E+00  0.1200E+02
    -22.710  0.0000E+00  0.1200E+02
    -22.675  0.0000E+00  0.1200E+02
    -22.640  0.0000E+00  0.1200E+02
    -22.606  0.0000E+00  0.1200E+02
    -22.571  0.0000E+00  0.1200E+02
    -22.536  0.0000E+00  0.1200E+02
    -22.502  0.0000E+00  0.1200E+02
    -22.467  0.0000E+00  0.1200E+02
    -22.432  0.0000E+00  0.1200E+02
    -22.398  0.0000E+00  0.1200E+02
    -22.363  0.0000E+00  0.1200E+02
    -22.328  0.0000E+00  0.1200E+02
    -22.293  0.0000E+00  0.1200E+02
    -22.259  0.0000E+00  0.1200E+02
    -22.224  0.0000E+00  0.1200E+02
    -22.189  0.0000E+00  0.1200E+02
    -22.155  0.0000E+00  0.1200E+02
    -22.120  0.0000E+00  0.1200E+02
    -22.085  0.0000E+00  0.1200E+02
    -22.050  0.0000E+00  0.1200E+02
    -22.016  0.0000E+00  0.1200E+02
    -21.981  0.0000E+00  0.1200E+02
    -21.946  0.0000E+00  0.1200E+02
    -21.912  0.0000E+00  0.1200E+02
    -21.877  0.0000E+00  0.1200E+02
    -21.842  0.0000E+00  0.1200E+02
    -21.807  0.0000E+00  0.1200E+02
    -21.773  0.0000E+00  0.1200E+02
    -21.738  0.0000E+00  0.1200E+02
    -21.703  0.0000E+00  0.1200E+02
    -21.669  0.0000E+00  0.1200E+02
    -21.634  0.0000E+00  0.1200E+02
    -21.599  0.0000E+00  0.1200E+02
    -21.565  0.0000E+00  0.1200E+02
    -21.530  0.0000E+00  0.1200E+02
    -21.495  0.0000E+00  0.1200E+02
    -21.460  0.0000E+00  0.1200E+02
    -21.426  0.0000E+00  0.1200E+02
    -21.391  0.0000E+00  0.1200E+02
    -21.356  0.0000E+00  0.1200E+02
    -21.322  0.0000E+00  0.1200E+02
    -21.287  0.0000E+00  0.1200E+02
    -21.252  0.0000E+00  0.1200E+02
    -21.217  0.0000E+00  0.1200E+02
    -21.183  0.0000E+00  0.1200E+02