  79  79   0   0
  0.2352942E+02  0.1210264E-08  0.7093817E-09  0.2165102E-08  0.0000000E+00
   1.0000000000000000E-004
  CAR 
 NEB_refined                             
      8.96518404    -23.89892574  301      0.87463234      1.00000000
    -23.899  0.0000E+00  0.0000E+00
    -23.789  0.0000E+00  0.0000E+00
    -23.680  0.0000E+00  0.0000E+00
    -23.570 -0.8860E-31 -0.9706E-32
    -23.461 -0.6278E-27 -0.6879E-28
    -23.351 -0.2371E-23 -0.2598E-24
    -23.242 -0.4911E-20 -0.5383E-21
    -23.132 -0.5581E-17 -0.6120E-18
    -23.023 -0.3372E-14 -0.3700E-15
    -22.913 -0.1143E-11 -0.1256E-12
    -22.803 -0.2115E-09 -0.2330E-10
    -22.694 -0.2130E-07 -0.2356E-08
    -22.584 -0.1160E-05 -0.1294E-06
    -22.475 -0.3383E-04 -0.3835E-05
    -22.365 -0.5191E-03 -0.6070E-04
    -22.256 -0.4037E-02 -0.5029E-03
    -22.146 -0.1439E-01 -0.2079E-02
    -22.037 -0.1272E-01 -0.3473E-02
    -21.927  0.6647E-01  0.3809E-02
    -21.818  0.3161E+00  0.3843E-01
    -21.708  0.8033E+00  0.1264E+00
    -21.598  0.1239E+01  0.2621E+00
    -21.489  0.1126E+01  0.3854E+00
    -21.379  0.6112E+00  0.4524E+00
    -21.270  0.1783E+00  0.4719E+00
    -21.160 -0.3043E-02  0.4716E+00
    -21.051 -0.2339E-01  0.4690E+00
    -20.941 -0.8124E-02  0.4682E+00
    -20.832 -0.1278E-02  0.4680E+00
    -20.722 -0.1044E-03  0.4680E+00
    -20.613 -0.4587E-05  0.4680E+00
    -20.503 -0.1098E-06  0.4680E+00
    -20.393 -0.1438E-08  0.4680E+00
    -20.284 -0.1034E-10  0.4680E+00
    -20.174 -0.4081E-13  0.4680E+00
    -20.065 -0.8919E-16  0.4680E+00
    -19.955  0.0000E+00  0.4680E+00
    -19.846  0.0000E+00  0.4680E+00
    -19.736  0.0000E+00  0.4680E+00
    -19.627  0.0000E+00  0.4680E+00
    -19.517  0.0000E+00  0.4680E+00
    -19.407  0.0000E+00  0.4680E+00
    -19.298  0.0000E+00  0.4680E+00
    -19.188  0.0000E+00  0.4680E+00
    -19.079  0.0000E+00  0.4680E+00
    -18.969  0.0000E+00  0.4680E+00
    -18.860  0.0000E+00  0.4680E+00
    -18.750  0.0000E+00  0.4680E+00
    -18.641  0.0000E+00  0.4680E+00
    -18.531  0.0000E+00  0.4680E+00
    -18.422  0.0000E+00  0.4680E+00
    -18.312  0.0000E+00  0.4680E+00
    -18.202  0.0000E+00  0.4680E+00
    -18.093  0.0000E+00  0.4680E+00
    -17.983  0.0000E+00  0.4680E+00
    -17.874  0.0000E+00  0.4680E+00
    -17.764  0.0000E+00  0.4680E+00
    -17.655  0.0000E+00  0.4680E+00
    -17.545  0.0000E+00  0.4680E+00
    -17.436  0.0000E+00  0.4680E+00
    -17.326  0.0000E+00  0.4680E+00
    -17.217  0.0000E+00  0.4680E+00
    -17.107  0.0000E+00  0.4680E+00
    -16.997  0.0000E+00  0.4680E+00
    -16.888  0.0000E+00  0.4680E+00
    -16.778  0.0000E+00  0.4680E+00
    -16.669  0.0000E+00  0.4680E+00
    -16.559  0.0000E+00  0.4680E+00
    -16.450  0.0000E+00  0.4680E+00
    -16.340  0.0000E+00  0.4680E+00
    -16.231  0.0000E+00  0.4680E+00
    -16.121  0.0000E+00  0.4680E+00
    -16.012  0.0000E+00  0.4680E+00
    -15.902  0.0000E+00  0.4680E+00
    -15.792  0.0000E+00  0.4680E+00
    -15.683  0.0000E+00  0.4680E+00
    -15.573  0.0000E+00  0.4680E+00
    -15.464  0.0000E+00  0.4680E+00
    -15.354  0.0000E+00  0.4680E+00
    -15.245  0.0000E+00  0.4680E+00
    -15.135  0.0000E+00  0.4680E+00
    -15.026  0.0000E+00  0.4680E+00
    -14.916  0.0000E+00  0.4680E+00
    -14.807  0.0000E+00  0.4680E+00
    -14.697  0.0000E+00  0.4680E+00
    -14.587  0.0000E+00  0.4680E+00
    -14.478  0.0000E+00  0.4680E+00
    -14.368  0.0000E+00  0.4680E+00
    -14.259  0.0000E+00  0.4680E+00
    -14.149  0.0000E+00  0.4680E+00
    -14.040  0.0000E+00  0.4680E+00
    -13.930  0.0000E+00  0.4680E+00
    -13.821  0.0000E+00  0.4680E+00
    -13.711  0.0000E+00  0.4680E+00
    -13.602  0.0000E+00  0.4680E+00
    -13.492  0.0000E+00  0.4680E+00
    -13.382  0.0000E+00  0.4680E+00
    -13.273  0.0000E+00  0.4680E+00
    -13.163  0.0000E+00  0.4680E+00
    -13.054  0.0000E+00  0.4680E+00
    -12.944  0.0000E+00  0.4680E+00
    -12.835  0.0000E+00  0.4680E+00
    -12.725  0.0000E+00  0.4680E+00
    -12.616  0.0000E+00  0.4680E+00
    -12.506  0.0000E+00  0.4680E+00
    -12.396  0.0000E+00  0.4680E+00
    -12.287  0.0000E+00  0.4680E+00
    -12.177 -0.4710E-29  0.4680E+00
    -12.068 -0.2254E-25  0.4680E+00
    -11.958 -0.5902E-22  0.4680E+00
    -11.849 -0.8459E-19  0.4680E+00
    -11.739 -0.6433E-16  0.4680E+00
    -11.630 -0.2751E-13  0.4680E+00
    -11.520 -0.6411E-11  0.4680E+00
    -11.411 -0.8148E-09  0.4680E+00
    -11.301 -0.5632E-07  0.4680E+00
    -11.191 -0.2105E-05  0.4680E+00
    -11.082 -0.4202E-04  0.4680E+00
    -10.972 -0.4352E-03  0.4679E+00
    -10.863 -0.2147E-02  0.4677E+00
    -10.753 -0.3209E-02  0.4674E+00
    -10.644  0.1124E-01  0.4686E+00
    -10.534  0.5471E-01  0.4746E+00
    -10.425  0.9703E-01  0.4852E+00
    -10.315  0.9030E-01  0.4951E+00
    -10.206  0.4146E-01  0.4997E+00
    -10.096 -0.1025E-02  0.4995E+00
     -9.986 -0.5575E-02  0.4989E+00
     -9.877  0.5246E-01  0.5047E+00
     -9.767  0.1809E+00  0.5245E+00
     -9.658  0.2931E+00  0.5566E+00
     -9.548  0.2586E+00  0.5849E+00
     -9.439  0.1096E+00  0.5969E+00
     -9.329  0.6826E-02  0.5977E+00
     -9.220 -0.1084E-01  0.5965E+00
     -9.110 -0.3869E-02  0.5961E+00
     -9.001 -0.5641E-03  0.5960E+00
     -8.891 -0.4130E-04  0.5960E+00
     -8.781 -0.1605E-05  0.5960E+00
     -8.672 -0.3379E-07  0.5960E+00
     -8.562 -0.3890E-09  0.5960E+00
     -8.453 -0.2457E-11  0.5960E+00
     -8.343 -0.8537E-14  0.5960E+00
     -8.234 -0.8108E-17  0.5960E+00
     -8.124  0.0000E+00  0.5960E+00
     -8.015  0.0000E+00  0.5960E+00
     -7.905  0.0000E+00  0.5960E+00
     -7.796  0.0000E+00  0.5960E+00
     -7.686  0.0000E+00  0.5960E+00
     -7.576  0.0000E+00  0.5960E+00
     -7.467  0.0000E+00  0.5960E+00
     -7.357  0.0000E+00  0.5960E+00
     -7.248  0.0000E+00  0.5960E+00
     -7.138  0.0000E+00  0.5960E+00
     -7.029  0.0000E+00  0.5960E+00
     -6.919  0.0000E+00  0.5960E+00
     -6.810  0.0000E+00  0.5960E+00
     -6.700  0.0000E+00  0.5960E+00
     -6.590  0.0000E+00  0.5960E+00
     -6.481  0.0000E+00  0.5960E+00
     -6.371  0.0000E+00  0.5960E+00
     -6.262  0.0000E+00  0.5960E+00
     -6.152  0.0000E+00  0.5960E+00
     -6.043  0.0000E+00  0.5960E+00
     -5.933  0.0000E+00  0.5960E+00
     -5.824  0.0000E+00  0.5960E+00
     -5.714  0.0000E+00  0.5960E+00
     -5.605  0.0000E+00  0.5960E+00
     -5.495  0.0000E+00  0.5960E+00
     -5.385  0.0000E+00  0.5960E+00
     -5.276  0.0000E+00  0.5960E+00
     -5.166  0.0000E+00  0.5960E+00
     -5.057  0.0000E+00  0.5960E+00
     -4.947 -0.4028E-31  0.5960E+00
     -4.838 -0.2645E-27  0.5960E+00
     -4.728 -0.9473E-24  0.5960E+00
     -4.619 -0.1853E-20  0.5960E+00
     -4.509 -0.1978E-17  0.5960E+00
     -4.400 -0.1118E-14  0.5960E+00
     -4.290 -0.3520E-12  0.5960E+00
     -4.180 -0.6034E-10  0.5960E+00
     -4.071 -0.5612E-08  0.5960E+00
     -3.961 -0.2823E-06  0.5960E+00
     -3.852 -0.7638E-05  0.5960E+00
     -3.742 -0.1097E-03  0.5960E+00
     -3.633 -0.8074E-03  0.5959E+00
     -3.523 -0.2652E-02  0.5956E+00
     -3.414 -0.5188E-03  0.5956E+00
     -3.304  0.2161E-01  0.5979E+00
     -3.195  0.6605E-01  0.6052E+00
     -3.085  0.9508E-01  0.6156E+00
     -2.975  0.7766E-01  0.6241E+00
     -2.866  0.3515E-01  0.6279E+00
     -2.756  0.5088E-02  0.6285E+00
     -2.647 -0.2718E-02  0.6282E+00
     -2.537 -0.1416E-02  0.6280E+00
     -2.428 -0.2631E-03  0.6280E+00
     -2.318 -0.2902E-04  0.6280E+00
     -2.209 -0.9709E-04  0.6280E+00
     -2.099 -0.8870E-03  0.6279E+00
     -1.990 -0.3911E-02  0.6275E+00
     -1.880 -0.4692E-02  0.6269E+00
     -1.770  0.2216E-01  0.6294E+00
     -1.661  0.9452E-01  0.6397E+00
     -1.551  0.1649E+00  0.6578E+00
     -1.442  0.1822E+00  0.6778E+00
     -1.332  0.1679E+00  0.6961E+00
     -1.223  0.1424E+00  0.7117E+00
     -1.113  0.8947E-01  0.7215E+00
     -1.004  0.2571E-01  0.7244E+00
     -0.894 -0.7513E-02  0.7235E+00
     -0.785  0.7430E-02  0.7244E+00
     -0.675  0.7384E-01  0.7324E+00
     -0.565  0.1406E+00  0.7478E+00
     -0.456  0.1491E+00  0.7642E+00
     -0.346  0.1322E+00  0.7787E+00
     -0.237  0.1312E+00  0.7930E+00
     -0.127  0.1464E+00  0.8091E+00
     -0.018  0.1555E+00  0.8261E+00
      0.092  0.1476E+00  0.8423E+00
      0.201  0.1521E+00  0.8589E+00
      0.311  0.1745E+00  0.8781E+00
      0.421  0.2039E+00  0.9004E+00
      0.530  0.2306E+00  0.9256E+00
      0.640  0.2182E+00  0.9495E+00
      0.749  0.1617E+00  0.9673E+00
      0.859  0.9041E-01  0.9772E+00
      0.968  0.3034E-01  0.9805E+00
      1.078  0.7833E-03  0.9806E+00
      1.187 -0.3679E-02  0.9802E+00
      1.297 -0.1386E-02  0.9800E+00
      1.406 -0.2265E-03  0.9800E+00
      1.516 -0.1882E-04  0.9800E+00
      1.626 -0.8278E-06  0.9800E+00
      1.735 -0.1954E-07  0.9800E+00
      1.845 -0.2494E-09  0.9800E+00
      1.954 -0.1726E-11  0.9800E+00
      2.064 -0.6486E-14  0.9800E+00
      2.173 -0.1622E-16  0.9800E+00
      2.283 -0.2045E-18  0.9800E+00
      2.392 -0.1410E-15  0.9800E+00
      2.502 -0.5390E-13  0.9800E+00
      2.611 -0.1117E-10  0.9800E+00
      2.721 -0.1245E-08  0.9800E+00
      2.831 -0.7412E-07  0.9800E+00
      2.940 -0.2322E-05  0.9800E+00
      3.050 -0.3722E-04  0.9800E+00
      3.159 -0.2849E-03  0.9800E+00
      3.269 -0.8094E-03  0.9799E+00
      3.378  0.9109E-03  0.9800E+00
      3.488  0.9038E-02  0.9810E+00
      3.597  0.1618E-01  0.9827E+00
      3.707  0.1088E-01  0.9839E+00
      3.816  0.1868E-02  0.9841E+00
      3.926 -0.1042E-02  0.9840E+00
      4.036 -0.1492E-02  0.9839E+00
      4.145 -0.1134E-02  0.9837E+00
      4.255  0.8375E-02  0.9847E+00
      4.364  0.2720E-01  0.9876E+00
      4.474  0.2990E-01  0.9909E+00
      4.583  0.1180E-01  0.9922E+00
      4.693 -0.1302E-02  0.9921E+00
      4.802 -0.3342E-02  0.9917E+00
      4.912  0.4452E-02  0.9922E+00
      5.021  0.2579E-01  0.9950E+00
      5.131  0.4217E-01  0.9996E+00
      5.241  0.4412E-01  0.1004E+01
      5.350  0.5562E-01  0.1011E+01
      5.460  0.7742E-01  0.1019E+01
      5.569  0.9773E-01  0.1030E+01
      5.679  0.1169E+00  0.1043E+01
      5.788  0.1267E+00  0.1056E+01
      5.898  0.1106E+00  0.1069E+01
      6.007  0.7889E-01  0.1077E+01
      6.117  0.7212E-01  0.1085E+01
      6.227  0.8742E-01  0.1095E+01
      6.336  0.8984E-01  0.1105E+01
      6.446  0.8643E-01  0.1114E+01
      6.555  0.1013E+00  0.1125E+01
      6.665  0.1174E+00  0.1138E+01
      6.774  0.1139E+00  0.1150E+01
      6.884  0.1084E+00  0.1162E+01
      6.993  0.8913E-01  0.1172E+01
      7.103  0.3963E-01  0.1176E+01
      7.212  0.2342E-02  0.1177E+01
      7.322 -0.4188E-02  0.1176E+01
      7.432 -0.1431E-02  0.1176E+01
      7.541 -0.1958E-03  0.1176E+01
      7.651 -0.1321E-04  0.1176E+01
      7.760 -0.4656E-06  0.1176E+01
      7.870 -0.8782E-08  0.1176E+01
      7.979 -0.8963E-10  0.1176E+01
      8.089 -0.4978E-12  0.1176E+01
      8.198 -0.1516E-14  0.1176E+01
      8.308  0.0000E+00  0.1176E+01
      8.417  0.0000E+00  0.1176E+01
      8.527  0.0000E+00  0.1176E+01
      8.637  0.0000E+00  0.1176E+01
      8.746  0.0000E+00  0.1176E+01
      8.856  0.0000E+00  0.1176E+01
      8.965  0.0000E+00  0.1176E+01
