       N       E                     dE             d eps       ncg     rms          rms(c)
DAV:   1     0.466099312639E+04    0.46610E+04   -0.19995E+05   633   0.140E+03
DAV:   2     0.355504053666E+03   -0.43055E+04   -0.41370E+04   633   0.402E+02
DAV:   3    -0.280754814386E+03   -0.63626E+03   -0.62835E+03   693   0.167E+02
DAV:   4    -0.321408958943E+03   -0.40654E+02   -0.40203E+02   672   0.385E+01
DAV:   5    -0.323267296126E+03   -0.18583E+01   -0.18552E+01   852   0.857E+00    0.268E+01
RMM:   6    -0.305550790301E+03    0.17717E+02   -0.30604E+01   635   0.586E+00    0.178E+01
RMM:   7    -0.304784510812E+03    0.76628E+00   -0.37929E+01   632   0.546E+00    0.110E+01
RMM:   8    -0.304244794811E+03    0.53972E+00   -0.25221E+00   716   0.282E+00    0.626E+00
RMM:   9    -0.304334346590E+03   -0.89552E-01   -0.25111E+00   652   0.188E+00    0.272E+00
RMM:  10    -0.304132024836E+03    0.20232E+00   -0.23604E-01   683   0.103E+00    0.200E+00
RMM:  11    -0.304091041987E+03    0.40983E-01   -0.11810E-01   788   0.472E-01    0.135E+00
RMM:  12    -0.304089324558E+03    0.17174E-02   -0.10103E-01   678   0.328E-01    0.831E-01
RMM:  13    -0.304084678859E+03    0.46457E-02   -0.14127E-02   706   0.189E-01    0.612E-01
RMM:  14    -0.304088768953E+03   -0.40901E-02   -0.11503E-02   619   0.160E-01    0.287E-01
RMM:  15    -0.304089620058E+03   -0.85111E-03   -0.58136E-03   683   0.105E-01    0.288E-01
RMM:  16    -0.304088440945E+03    0.11791E-02   -0.25643E-03   680   0.705E-02    0.195E-01
RMM:  17    -0.304088687973E+03   -0.24703E-03   -0.16207E-03   654   0.546E-02    0.103E-01
RMM:  18    -0.304088692654E+03   -0.46806E-05   -0.29786E-04   620   0.297E-02    0.556E-02
RMM:  19    -0.304088665651E+03    0.27003E-04   -0.16525E-04   557   0.180E-02    0.441E-02
RMM:  20    -0.304088617657E+03    0.47994E-04   -0.43392E-05   517   0.114E-02    0.946E-03
RMM:  21    -0.304088619787E+03   -0.21302E-05   -0.25908E-05   428   0.747E-03
   1 F= -.30408862E+03 E0= -.30413600E+03  d E =-.304089E+03
       N       E                     dE             d eps       ncg     rms          rms(c)
DAV:   1    -0.304088618774E+03   -0.11167E-05   -0.32869E-06   345   0.562E-03    0.412E-03
RMM:   2    -0.304088619328E+03   -0.55440E-06   -0.19603E-06   341   0.309E-03
   2 F= -.30408862E+03 E0= -.30413598E+03  d E =0.459098E-06
       N       E                     dE             d eps       ncg     rms          rms(c)
DAV:   1    -0.304088619082E+03   -0.30820E-06   -0.16166E-06   393   0.372E-03    0.272E-03
RMM:   2    -0.304088619340E+03   -0.25790E-06   -0.12690E-07   194   0.145E-03
   3 F= -.30408862E+03 E0= -.30413598E+03  d E =-.117070E-07
       N       E                     dE             d eps       ncg     rms          rms(c)
DAV:   1    -0.304088619106E+03   -0.23938E-07   -0.88602E-07   429   0.250E-03    0.177E-03
RMM:   2    -0.304088619148E+03   -0.42128E-07   -0.22769E-08    85   0.113E-03
   4 F= -.30408862E+03 E0= -.30413598E+03  d E =0.191838E-06
       N       E                     dE             d eps       ncg     rms          rms(c)
DAV:   1    -0.304088619136E+03   -0.30581E-07   -0.50861E-07   375   0.153E-03    0.122E-03
RMM:   2    -0.304088619155E+03   -0.19187E-07   -0.46654E-10    65   0.911E-04
   5 F= -.30408862E+03 E0= -.30413598E+03  d E =-.763976E-08
       N       E                     dE             d eps       ncg     rms          rms(c)
DAV:   1    -0.304088619071E+03    0.64814E-07   -0.26106E-07   366   0.137E-03    0.620E-04
RMM:   2    -0.304088619058E+03    0.13562E-07   -0.87724E-10    51   0.712E-04
   6 F= -.30408862E+03 E0= -.30413598E+03  d E =0.975633E-07
       N       E                     dE             d eps       ncg     rms          rms(c)
DAV:   1    -0.304088619060E+03    0.11336E-07   -0.14220E-07   366   0.736E-04    0.834E-04
RMM:   2    -0.304088619079E+03   -0.18437E-07    0.60195-222    54   0.443E-04
   7 F= -.30408862E+03 E0= -.30413598E+03  d E =-.206637E-07
       N       E                     dE             d eps       ncg     rms          rms(c)
DAV:   1    -0.304088619074E+03   -0.13926E-07   -0.58049E-08   339   0.677E-04    0.405E-04
RMM:   2    -0.304088619084E+03   -0.96989E-08    0.28489-257    37   0.303E-04
   8 F= -.30408862E+03 E0= -.30413598E+03  d E =-.518776E-08
       N       E                     dE             d eps       ncg     rms          rms(c)
DAV:   1    -0.304088619073E+03    0.56752E-09   -0.32290E-08   339   0.430E-04    0.191E-04
RMM:   2    -0.304088619072E+03    0.11205E-08    0.77206-247    40   0.259E-04
   9 F= -.30408862E+03 E0= -.30413599E+03  d E =0.113869E-07
       N       E                     dE             d eps       ncg     rms          rms(c)
DAV:   1    -0.304088619073E+03    0.54570E-09   -0.12754E-08   339   0.255E-04    0.318E-04
RMM:   2    -0.304088619065E+03    0.81200E-08    0.87897-290    29   0.150E-04
  10 F= -.30408862E+03 E0= -.30413599E+03  d E =0.754517E-08
       N       E                     dE             d eps       ncg     rms          rms(c)
DAV:   1    -0.304088619060E+03    0.13068E-07   -0.88070E-09   339   0.262E-04    0.155E-04
RMM:   2    -0.304088619060E+03   -0.65484E-10    0.10150-289    27   0.126E-04
  11 F= -.30408862E+03 E0= -.30413599E+03  d E =0.488217E-08
       N       E                     dE             d eps       ncg     rms          rms(c)
DAV:   1    -0.304088619058E+03    0.20955E-08   -0.51251E-09   339   0.179E-04    0.633E-05
RMM:   2    -0.304088619057E+03    0.11496E-08    0.00000E+00    20   0.109E-04
  12 F= -.30408862E+03 E0= -.30413599E+03  d E =0.331056E-08
       N       E                     dE             d eps       ncg     rms          rms(c)
DAV:   1    -0.304088619056E+03    0.22046E-08   -0.18105E-09   339   0.107E-04    0.132E-04
RMM:   2    -0.304088619058E+03   -0.25611E-08    0.00000E+00    20   0.655E-05
  13 F= -.30408862E+03 E0= -.30413599E+03  d E =-.150612E-08
       N       E                     dE             d eps       ncg     rms          rms(c)
DAV:   1    -0.304088619058E+03   -0.23065E-08   -0.12361E-09   339   0.110E-04    0.733E-05
RMM:   2    -0.304088619059E+03   -0.13388E-08    0.00000E+00    18   0.508E-05
  14 F= -.30408862E+03 E0= -.30413599E+03  d E =-.108412E-08
       N       E                     dE             d eps       ncg     rms          rms(c)
DAV:   1    -0.304088619060E+03   -0.17171E-08   -0.16475E-09   339   0.964E-05    0.374E-05
RMM:   2    -0.304088619058E+03    0.11278E-08    0.00000E+00    17   0.499E-05
  15 F= -.30408862E+03 E0= -.30413599E+03  d E =0.749424E-09
       N       E                     dE             d eps       ncg     rms          rms(c)
DAV:   1    -0.304088619057E+03    0.24957E-08   -0.38636E-10   339   0.507E-05    0.367E-05
RMM:   2    -0.304088619058E+03   -0.65484E-09    0.00000E+00    14   0.316E-05
  16 F= -.30408862E+03 E0= -.30413599E+03  d E =0.713044E-09
       N       E                     dE             d eps       ncg     rms          rms(c)
DAV:   1    -0.304088619058E+03   -0.14261E-08   -0.26239E-10   312   0.507E-05    0.146E-05
RMM:   2    -0.304088619057E+03    0.11787E-08    0.00000E+00    14   0.263E-05
  17 F= -.30408862E+03 E0= -.30413599E+03  d E =0.407454E-09
       N       E                     dE             d eps       ncg     rms          rms(c)
DAV:   1    -0.304088619058E+03    0.18190E-09   -0.32904E-10   312   0.260E-05    0.400E-05
RMM:   2    -0.304088619057E+03    0.10914E-08    0.00000E+00    13   0.199E-05
  18 F= -.30408862E+03 E0= -.30413599E+03  d E =0.945874E-10
       N       E                     dE             d eps       ncg     rms          rms(c)
DAV:   1    -0.304088619057E+03    0.11787E-08   -0.11785E-10   312   0.340E-05    0.231E-05
RMM:   2    -0.304088619057E+03   -0.16007E-09    0.00000E+00    13   0.138E-05
  19 F= -.30408862E+03 E0= -.30413599E+03  d E =-.727596E-10
       N       E                     dE             d eps       ncg     rms          rms(c)
DAV:   1    -0.304088619057E+03    0.28376E-09   -0.34863E-10   312   0.337E-05    0.890E-06
RMM:   2    -0.304088619057E+03   -0.58208E-09    0.00000E+00    13   0.127E-05
  20 F= -.30408862E+03 E0= -.30413599E+03  d E =-.138243E-09
       N       E                     dE             d eps       ncg     rms          rms(c)
DAV:   1    -0.304088619058E+03   -0.14916E-08    0.14618E-10   312   0.133E-05    0.773E-06
RMM:   2    -0.304088619057E+03    0.11642E-08    0.00000E+00    13   0.823E-06
  21 F= -.30408862E+03 E0= -.30413599E+03  d E =0.254659E-09
       N       E                     dE             d eps       ncg     rms          rms(c)
DAV:   1    -0.304088619058E+03    0.74215E-09   -0.23808E-10   312   0.118E-05    0.280E-06
RMM:   2    -0.304088619057E+03    0.25466E-09    0.00000E+00    13   0.691E-06
  22 F= -.30408862E+03 E0= -.30413599E+03  d E =-.167347E-09
       N       E                     dE             d eps       ncg     rms          rms(c)
DAV:   1    -0.304088619057E+03    0.36380E-09    0.20193E-12   312   0.686E-06    0.108E-05
RMM:   2    -0.304088619057E+03   -0.10914E-09    0.00000E+00    12   0.517E-06
  23 F= -.30408862E+03 E0= -.30413599E+03  d E =0.000000E+00
       N       E                     dE             d eps       ncg     rms          rms(c)
DAV:   1    -0.304088619058E+03   -0.30559E-09   -0.15812E-10   312   0.930E-06    0.586E-06
RMM:   2    -0.304088619057E+03    0.64756E-09    0.00000E+00    12   0.359E-06
  24 F= -.30408862E+03 E0= -.30413599E+03  d E =0.451109E-09
       N       E                     dE             d eps       ncg     rms          rms(c)
DAV:   1    -0.304088619056E+03    0.12078E-08    0.12156E-11   312   0.867E-06    0.191E-06
RMM:   2    -0.304088619057E+03   -0.10405E-08    0.00000E+00    11   0.305E-06
  25 F= -.30408862E+03 E0= -.30413599E+03  d E =-.480213E-09
       N       E                     dE             d eps       ncg     rms          rms(c)
DAV:   1    -0.304088619056E+03    0.71304E-09   -0.85779E-11   312   0.324E-06    0.180E-06
RMM:   2    -0.304088619057E+03   -0.17608E-08    0.00000E+00    12   0.206E-06
  26 F= -.30408862E+03 E0= -.30413599E+03  d E =-.727596E-11
       N       E                     dE             d eps       ncg     rms          rms(c)
DAV:   1    -0.304088619057E+03   -0.17753E-08   -0.39466E-11   312   0.306E-06    0.672E-07
RMM:   2    -0.304088619057E+03   -0.58208E-10    0.00000E+00    10   0.164E-06
  27 F= -.30408862E+03 E0= -.30413599E+03  d E =-.727596E-10
       N       E                     dE             d eps       ncg     rms          rms(c)
DAV:   1    -0.304088619056E+03    0.96770E-09   -0.11176E-11   312   0.165E-06    0.254E-06
RMM:   2    -0.304088619057E+03   -0.72760E-09    0.00000E+00    10   0.129E-06
  28 F= -.30408862E+03 E0= -.30413599E+03  d E =0.298314E-09
       N       E                     dE             d eps       ncg     rms          rms(c)
DAV:   1    -0.304088619056E+03   -0.72760E-11   -0.12612E-10   312   0.233E-06    0.150E-06
RMM:   2    -0.304088619057E+03   -0.10477E-08    0.00000E+00    10   0.976E-07
  29 F= -.30408862E+03 E0= -.30413599E+03  d E =-.327418E-09
       N       E                     dE             d eps       ncg     rms          rms(c)
DAV:   1    -0.304088619058E+03   -0.15789E-08   -0.16785E-10   312   0.235E-06    0.382E-07
RMM:   2    -0.304088619057E+03    0.57480E-09    0.00000E+00    10   0.833E-07
  30 F= -.30408862E+03 E0= -.30413599E+03  d E =0.436557E-10
       N       E                     dE             d eps       ncg     rms          rms(c)
DAV:   1    -0.304088619057E+03    0.80763E-09   -0.44263E-11   312   0.871E-07    0.416E-07
RMM:   2    -0.304088619057E+03   -0.22555E-09    0.00000E+00    10   0.554E-07
  31 F= -.30408862E+03 E0= -.30413599E+03  d E =0.727596E-11
       N       E                     dE             d eps       ncg     rms          rms(c)
DAV:   1    -0.304088619058E+03   -0.72032E-09   -0.10385E-10   312   0.767E-07    0.185E-07
RMM:   2    -0.304088619057E+03    0.61118E-09    0.00000E+00    10   0.407E-07
  32 F= -.30408862E+03 E0= -.30413599E+03  d E =0.116415E-09
       N       E                     dE             d eps       ncg     rms          rms(c)
DAV:   1    -0.304088619058E+03    0.72760E-10   -0.10238E-11   312   0.417E-07    0.551E-07
RMM:   2    -0.304088619057E+03    0.91677E-09    0.00000E+00     8   0.327E-07
  33 F= -.30408862E+03 E0= -.30413599E+03  d E =0.378350E-09
       N       E                     dE             d eps       ncg     rms          rms(c)
DAV:   1    -0.304088619057E+03    0.64028E-09   -0.27009E-10   312   0.558E-07    0.310E-07
RMM:   2    -0.304088619057E+03    0.94587E-10    0.00000E+00    10   0.233E-07
  34 F= -.30408862E+03 E0= -.30413599E+03  d E =-.181899E-09
       N       E                     dE             d eps       ncg     rms          rms(c)
DAV:   1    -0.304088619057E+03    0.36380E-09    0.49429E-11   312   0.490E-07    0.914E-08
RMM:   2    -0.304088619057E+03   -0.30559E-09    0.00000E+00     8   0.198E-07
  35 F= -.30408862E+03 E0= -.30413599E+03  d E =-.363798E-10
       N       E                     dE             d eps       ncg     rms          rms(c)
DAV:   1    -0.304088619058E+03   -0.85856E-09   -0.46987E-11   312   0.215E-07    0.914E-08
RMM:   2    -0.304088619057E+03    0.45839E-09    0.00000E+00     7   0.132E-07
  36 F= -.30408862E+03 E0= -.30413599E+03  d E =-.945874E-10
       N       E                     dE             d eps       ncg     rms          rms(c)
DAV:   1    -0.304088619057E+03    0.61846E-09   -0.10753E-10   312   0.187E-07    0.389E-08
RMM:   2    -0.304088619057E+03   -0.10186E-09    0.00000E+00     6   0.105E-07
  37 F= -.30408862E+03 E0= -.30413599E+03  d E =0.582077E-10
       N       E                     dE             d eps       ncg     rms          rms(c)
DAV:   1    -0.304088619057E+03    0.43656E-10    0.67563E-11   312   0.107E-07    0.113E-07
RMM:   2    -0.304088619057E+03   -0.45111E-09    0.00000E+00     7   0.854E-08
  38 F= -.30408862E+03 E0= -.30413599E+03  d E =-.305590E-09
       N       E                     dE             d eps       ncg     rms          rms(c)
DAV:   1    -0.304088619059E+03   -0.15061E-08    0.13587E-10   312   0.134E-07    0.666E-08
RMM:   2    -0.304088619057E+03    0.14043E-08    0.00000E+00     5   0.630E-08
  39 F= -.30408862E+03 E0= -.30413599E+03  d E =0.349246E-09
       N       E                     dE             d eps       ncg     rms          rms(c)
DAV:   1    -0.304088619057E+03    0.11933E-08   -0.88054E-11   312   0.114E-07    0.238E-08
RMM:   2    -0.304088619057E+03    0.36380E-10    0.00000E+00     6   0.571E-08
  40 F= -.30408862E+03 E0= -.30413599E+03  d E =-.174623E-09
       N       E                     dE             d eps       ncg     rms          rms(c)
DAV:   1    -0.304088619057E+03    0.31287E-09   -0.29920E-10   312   0.605E-08    0.229E-08
RMM:   2    -0.304088619057E+03   -0.30559E-09    0.00000E+00     4   0.358E-08
  41 F= -.30408862E+03 E0= -.30413599E+03  d E =-.291038E-10
       N       E                     dE             d eps       ncg     rms          rms(c)
DAV:   1    -0.304088619058E+03   -0.64756E-09   -0.10667E-10   312   0.498E-08    0.887E-09
RMM:   2    -0.304088619057E+03    0.49477E-09    0.00000E+00     6   0.292E-08
  42 F= -.30408862E+03 E0= -.30413599E+03  d E =0.152795E-09
       N       E                     dE             d eps       ncg     rms          rms(c)
DAV:   1    -0.304088619057E+03    0.10259E-08   -0.15501E-11   312   0.300E-08    0.274E-08
RMM:   2    -0.304088619057E+03   -0.60390E-09    0.00000E+00     4   0.244E-08
  43 F= -.30408862E+03 E0= -.30413599E+03  d E =-.727596E-10
       N       E                     dE             d eps       ncg     rms          rms(c)
DAV:   1    -0.304088619058E+03   -0.11860E-08    0.55033E-11   312   0.359E-08    0.149E-08
RMM:   2    -0.304088619057E+03    0.56752E-09    0.00000E+00     4   0.162E-08
  44 F= -.30408862E+03 E0= -.30413599E+03  d E =-.145519E-10
       N       E                     dE             d eps       ncg     rms          rms(c)
DAV:   1    -0.304088619059E+03   -0.73487E-09   -0.21686E-10   312   0.268E-08    0.558E-09
RMM:   2    -0.304088619057E+03    0.13897E-08    0.00000E+00     3   0.147E-08
  45 F= -.30408862E+03 E0= -.30413599E+03  d E =0.873115E-10
       N       E                     dE             d eps       ncg     rms          rms(c)
DAV:   1    -0.304088619058E+03    0.83674E-09    0.18087E-10   312   0.162E-08    0.608E-09
RMM:   2    -0.304088619057E+03    0.35652E-09    0.00000E+00     4   0.102E-08
  46 F= -.30408862E+03 E0= -.30413599E+03  d E =-.196451E-09
       N       E                     dE             d eps       ncg     rms          rms(c)
DAV:   1    -0.304088619057E+03    0.97498E-09    0.13806E-11   312   0.135E-08    0.241E-09
RMM:   2    -0.304088619057E+03   -0.52387E-09    0.00000E+00     2   0.786E-09
  47 F= -.30408862E+03 E0= -.30413599E+03  d E =0.945874E-10
       N       E                     dE             d eps       ncg     rms          rms(c)
DAV:   1    -0.304088619058E+03   -0.80036E-09   -0.49606E-11   312   0.815E-09    0.713E-09
RMM:   2    -0.304088619057E+03    0.24011E-09    0.00000E+00     3   0.656E-09
  48 F= -.30408862E+03 E0= -.30413599E+03  d E =-.363798E-10
       N       E                     dE             d eps       ncg     rms          rms(c)
DAV:   1    -0.304088619057E+03    0.19645E-09   -0.16625E-10   312   0.970E-09    0.385E-09
RMM:   2    -0.304088619057E+03   -0.87311E-10    0.00000E+00     4   0.440E-09
  49 F= -.30408862E+03 E0= -.30413599E+03  d E =-.130967E-09
       N       E                     dE             d eps       ncg     rms          rms(c)
DAV:   1    -0.304088619057E+03   -0.10186E-09    0.86165E-11   312   0.719E-09    0.135E-09
RMM:   2    -0.304088619057E+03    0.13824E-09    0.00000E+00     2   0.387E-09
  50 F= -.30408862E+03 E0= -.30413599E+03  d E =0.123691E-09
       N       E                     dE             d eps       ncg     rms          rms(c)
DAV:   1    -0.304088619057E+03    0.61846E-09   -0.14727E-10   312   0.423E-09    0.151E-09
RMM:   2    -0.304088619057E+03   -0.43656E-09    0.00000E+00     2   0.267E-09
  51 F= -.30408862E+03 E0= -.30413599E+03  d E =0.436557E-10
       N       E                     dE             d eps       ncg     rms          rms(c)
DAV:   1    -0.304088619058E+03   -0.11933E-08   -0.85944E-11   312   0.344E-09    0.695E-10
RMM:   2    -0.304088619057E+03    0.72032E-09    0.00000E+00     2   0.211E-09
  52 F= -.30408862E+03 E0= -.30413599E+03  d E =-.363798E-10
       N       E                     dE             d eps       ncg     rms          rms(c)
DAV:   1    -0.304088619057E+03    0.88039E-09   -0.15056E-10   312   0.219E-09    0.178E-09
RMM:   2    -0.304088619057E+03   -0.24738E-09    0.00000E+00     2   0.173E-09
  53 F= -.30408862E+03 E0= -.30413599E+03  d E =-.873115E-10
       N       E                     dE             d eps       ncg     rms          rms(c)
DAV:   1    -0.304088619057E+03    0.30559E-09   -0.58951E-11   312   0.265E-09    0.109E-09
RMM:   2    -0.304088619057E+03   -0.44383E-09    0.00000E+00     2   0.129E-09
  54 F= -.30408862E+03 E0= -.30413599E+03  d E =0.109139E-09
       N       E                     dE             d eps       ncg     rms          rms(c)
DAV:   1    -0.304088619058E+03   -0.12005E-08   -0.10463E-10   312   0.222E-09    0.371E-10
RMM:   2    -0.304088619057E+03    0.67666E-09    0.00000E+00     2   0.109E-09
  55 F= -.30408862E+03 E0= -.30413599E+03  d E =-.800355E-10
       N       E                     dE             d eps       ncg     rms          rms(c)
DAV:   1    -0.304088619058E+03    0.29104E-09   -0.70223E-11   312   0.121E-09    0.650E-10
RMM:   2    -0.304088619057E+03    0.43656E-09    0.00000E+00     2   0.754E-10
  56 F= -.30408862E+03 E0= -.30413599E+03  d E =0.509317E-10
       N       E                     dE             d eps       ncg     rms          rms(c)
DAV:   1    -0.304088619058E+03   -0.20373E-09   -0.14057E-11   312   0.961E-10    0.571E-10
RMM:   2    -0.304088619057E+03    0.63301E-09    0.00000E+00     2   0.623E-10
  57 F= -.30408862E+03 E0= -.30413599E+03  d E =-.727596E-11
       N       E                     dE             d eps       ncg     rms          rms(c)
DAV:   1    -0.304088619056E+03    0.15425E-08   -0.18145E-10   312   0.107E-09    0.213E-10
RMM:   2    -0.304088619057E+03   -0.94587E-09    0.00000E+00     2   0.525E-10
  58 F= -.30408862E+03 E0= -.30413599E+03  d E =-.363798E-10
       N       E                     dE             d eps       ncg     rms          rms(c)
DAV:   1    -0.304088619056E+03    0.87311E-10   -0.76318E-11   312   0.623E-10    0.271E-10
RMM:   2    -0.304088619057E+03   -0.11132E-08    0.00000E+00     2   0.393E-10
  59 F= -.30408862E+03 E0= -.30413599E+03  d E =-.800355E-10
       N       E                     dE             d eps       ncg     rms          rms(c)
DAV:   1    -0.304088619057E+03   -0.98225E-09   -0.22591E-11   312   0.468E-10    0.279E-10
RMM:   2    -0.304088619057E+03   -0.43656E-10    0.00000E+00     2   0.333E-10
  60 F= -.30408862E+03 E0= -.30413599E+03  d E =0.873115E-10
       N       E                     dE             d eps       ncg     rms          rms(c)
DAV:   1    -0.304088619056E+03    0.17317E-08   -0.66939E-11   312   0.427E-10    0.286E-10
RMM:   2    -0.304088619057E+03   -0.16735E-08    0.00000E+00     2   0.257E-10
  61 F= -.30408862E+03 E0= -.30413599E+03  d E =0.101863E-09
       N       E                     dE             d eps       ncg     rms          rms(c)
DAV:   1    -0.304088619057E+03   -0.15716E-08   -0.23664E-11   312   0.415E-10    0.272E-10
RMM:   2    -0.304088619057E+03   -0.18917E-09    0.00000E+00     2   0.229E-10
  62 F= -.30408862E+03 E0= -.30413599E+03  d E =-.873115E-10
       N       E                     dE             d eps       ncg     rms          rms(c)
DAV:   1    -0.304088619058E+03   -0.10477E-08   -0.48118E-11   312   0.349E-10    0.250E-10
RMM:   2    -0.304088619057E+03    0.80763E-09    0.00000E+00     2   0.190E-10
  63 F= -.30408862E+03 E0= -.30413599E+03  d E =-.509317E-10
       N       E                     dE             d eps       ncg     rms          rms(c)
DAV:   1    -0.304088619056E+03    0.17753E-08   -0.84527E-11   312   0.340E-10    0.306E-10
RMM:   2    -0.304088619057E+03   -0.96770E-09    0.00000E+00     2   0.179E-10
  64 F= -.30408862E+03 E0= -.30413599E+03  d E =0.000000E+00
       N       E                     dE             d eps       ncg     rms          rms(c)
DAV:   1    -0.304088619057E+03   -0.95315E-09   -0.79132E-11   312   0.421E-10    0.289E-10
RMM:   2    -0.304088619057E+03    0.43656E-10    0.00000E+00     2   0.172E-10
  65 F= -.30408862E+03 E0= -.30413599E+03  d E =0.582077E-10
       N       E                     dE             d eps       ncg     rms          rms(c)
DAV:   1    -0.304088619058E+03   -0.31287E-09   -0.23032E-11   312   0.315E-10    0.309E-10
RMM:   2    -0.304088619057E+03    0.31287E-09    0.00000E+00     2   0.139E-10
  66 F= -.30408862E+03 E0= -.30413599E+03  d E =-.436557E-10
       N       E                     dE             d eps       ncg     rms          rms(c)
DAV:   1    -0.304088619058E+03   -0.29104E-10   -0.55332E-11   312   0.248E-10    0.336E-10
RMM:   2    -0.304088619057E+03    0.29104E-09    0.00000E+00     2   0.135E-10
  67 F= -.30408862E+03 E0= -.30413599E+03  d E =-.509317E-10
       N       E                     dE             d eps       ncg     rms          rms(c)
DAV:   1    -0.304088619058E+03   -0.29104E-10   -0.14682E-10   312   0.357E-10    0.179E-10
RMM:   2    -0.304088619057E+03    0.32742E-09    0.00000E+00     2   0.123E-10
  68 F= -.30408862E+03 E0= -.30413599E+03  d E =0.727596E-11
       N       E                     dE             d eps       ncg     rms          rms(c)
DAV:   1    -0.304088619057E+03    0.36380E-09   -0.17076E-10   312   0.193E-10    0.273E-10
RMM:   2    -0.304088619057E+03    0.50932E-10    0.00000E+00     2   0.117E-10
  69 F= -.30408862E+03 E0= -.30413599E+03  d E =0.873115E-10
       N       E                     dE             d eps       ncg     rms          rms(c)
DAV:   1    -0.304088619058E+03   -0.28376E-09    0.94230E-12   312   0.155E-10    0.299E-10
RMM:   2    -0.304088619057E+03    0.23283E-09    0.00000E+00     2   0.110E-10
  70 F= -.30408862E+03 E0= -.30413599E+03  d E =-.101863E-09
       N       E                     dE             d eps       ncg     rms          rms(c)
DAV:   1    -0.304088619057E+03    0.51659E-09   -0.12346E-10   312   0.267E-10    0.166E-10
RMM:   2    -0.304088619057E+03   -0.20373E-09    0.00000E+00     2   0.101E-10
  71 F= -.30408862E+03 E0= -.30413599E+03  d E =0.800355E-10
       N       E                     dE             d eps       ncg     rms          rms(c)
DAV:   1    -0.304088619057E+03   -0.14552E-10   -0.49778E-12   312   0.111E-10    0.372E-10
RMM:   2    -0.304088619057E+03   -0.11642E-09    0.00000E+00     2   0.105E-10
  72 F= -.30408862E+03 E0= -.30413599E+03  d E =0.727596E-10
       N       E                     dE             d eps       ncg     rms          rms(c)
DAV:   1    -0.304088619056E+03    0.10405E-08   -0.82237E-11   312   0.253E-10    0.253E-10
RMM:   2    -0.304088619057E+03   -0.12151E-08    0.00000E+00     2   0.100E-10
  73 F= -.30408862E+03 E0= -.30413599E+03  d E =-.582077E-10
       N       E                     dE             d eps       ncg     rms          rms(c)
DAV:   1    -0.304088619057E+03   -0.66211E-09   -0.85017E-11   312   0.206E-10    0.310E-10
RMM:   2    -0.304088619057E+03   -0.56025E-09    0.00000E+00     2   0.975E-11
  74 F= -.30408862E+03 E0= -.30413599E+03  d E =-.727596E-11
       N       E                     dE             d eps       ncg     rms          rms(c)
DAV:   1    -0.304088619058E+03   -0.12078E-08   -0.14500E-10   312   0.226E-10    0.361E-10
RMM:   2    -0.304088619057E+03    0.68394E-09    0.00000E+00     2   0.105E-10
  75 F= -.30408862E+03 E0= -.30413599E+03  d E =0.363798E-10
       N       E                     dE             d eps       ncg     rms          rms(c)
DAV:   1    -0.304088619056E+03    0.21901E-08   -0.20327E-10   312   0.370E-10    0.336E-10
RMM:   2    -0.304088619057E+03   -0.14843E-08    0.00000E+00     2   0.961E-11
  76 F= -.30408862E+03 E0= -.30413599E+03  d E =0.218279E-10
       N       E                     dE             d eps       ncg     rms          rms(c)
DAV:   1    -0.304088619056E+03   -0.36380E-09   -0.22313E-10   312   0.186E-10    0.300E-10
RMM:   2    -0.304088619057E+03   -0.12296E-08    0.00000E+00     2   0.963E-11
  77 F= -.30408862E+03 E0= -.30413599E+03  d E =-.109139E-09
       N       E                     dE             d eps       ncg     rms          rms(c)
DAV:   1    -0.304088619057E+03   -0.53842E-09   -0.34310E-11   312   0.266E-10    0.169E-10
RMM:   2    -0.304088619057E+03   -0.54570E-09    0.00000E+00     2   0.914E-11
  78 F= -.30408862E+03 E0= -.30413599E+03  d E =0.145519E-09
       N       E                     dE             d eps       ncg     rms          rms(c)
DAV:   1    -0.304088619057E+03    0.72760E-11   -0.24411E-11   312   0.174E-10    0.300E-10
RMM:   2    -0.304088619057E+03   -0.55297E-09    0.00000E+00     2   0.877E-11
  79 F= -.30408862E+03 E0= -.30413599E+03  d E =0.000000E+00
       N       E                     dE             d eps       ncg     rms          rms(c)
DAV:   1    -0.304088619058E+03   -0.10768E-08   -0.39321E-11   312   0.136E-10    0.283E-10
RMM:   2    -0.304088619057E+03    0.37835E-09    0.00000E+00     2   0.940E-11
  80 F= -.30408862E+03 E0= -.30413599E+03  d E =-.145519E-09
       N       E                     dE             d eps       ncg     rms          rms(c)
DAV:   1    -0.304088619059E+03   -0.12515E-08   -0.14595E-10   312   0.267E-10    0.223E-10
RMM:   2    -0.304088619057E+03    0.18117E-08    0.00000E+00     2   0.924E-11
  81 F= -.30408862E+03 E0= -.30413599E+03  d E =0.181899E-09
       N       E                     dE             d eps       ncg     rms          rms(c)
DAV:   1    -0.304088619057E+03    0.20300E-08   -0.13058E-10   312   0.210E-10    0.219E-10
RMM:   2    -0.304088619057E+03   -0.34925E-09    0.00000E+00     2   0.878E-11
  82 F= -.30408862E+03 E0= -.30413599E+03  d E =-.130967E-09
       N       E                     dE             d eps       ncg     rms          rms(c)
DAV:   1    -0.304088619057E+03    0.41473E-09   -0.16052E-10   312   0.152E-10    0.291E-10
RMM:   2    -0.304088619057E+03   -0.76398E-09    0.00000E+00     2   0.918E-11
  83 F= -.30408862E+03 E0= -.30413599E+03  d E =0.000000E+00
       N       E                     dE             d eps       ncg     rms          rms(c)
DAV:   1    -0.304088619057E+03   -0.50932E-09    0.12682E-11   312   0.221E-10    0.263E-10
RMM:   2    -0.304088619057E+03   -0.28376E-09    0.00000E+00     2   0.897E-11
  84 F= -.30408862E+03 E0= -.30413599E+03  d E =-.291038E-10
       N       E                     dE             d eps       ncg     rms          rms(c)
DAV:   1    -0.304088619058E+03   -0.40745E-09    0.16563E-11   312   0.226E-10    0.246E-10
RMM:   2    -0.304088619057E+03    0.25466E-09    0.00000E+00     1   0.974E-11
  85 F= -.30408862E+03 E0= -.30413599E+03  d E =0.130967E-09
       N       E                     dE             d eps       ncg     rms          rms(c)
DAV:   1    -0.304088619058E+03   -0.84401E-09    0.10217E-10   312   0.161E-10    0.385E-10
RMM:   2    -0.304088619057E+03    0.10696E-08    0.00000E+00     2   0.965E-11
  86 F= -.30408862E+03 E0= -.30413599E+03  d E =-.291038E-10
       N       E                     dE             d eps       ncg     rms          rms(c)
DAV:   1    -0.304088619057E+03    0.14334E-08   -0.64380E-11   306   0.152E-10    0.192E-10
RMM:   2    -0.304088619057E+03   -0.45111E-09    0.00000E+00     1   0.723E-11
  87 F= -.30408862E+03 E0= -.30413599E+03  d E =-.873115E-10
       N       E                     dE             d eps       ncg     rms          rms(c)
DAV:   1    -0.304088619058E+03   -0.12442E-08   -0.76047E-11   294   0.175E-10    0.239E-10
RMM:   2    -0.304088619057E+03    0.80036E-09    0.00000E+00     1   0.797E-11
  88 F= -.30408862E+03 E0= -.30413599E+03  d E =0.727596E-11
       N       E                     dE             d eps       ncg     rms          rms(c)
DAV:   1    -0.304088619058E+03    0.58208E-09   -0.11923E-10   294   0.200E-10    0.248E-10
RMM:   2    -0.304088619057E+03    0.21100E-09    0.00000E+00     1   0.714E-11
  89 F= -.30408862E+03 E0= -.30413599E+03  d E =-.727596E-11
       N       E                     dE             d eps       ncg     rms          rms(c)
DAV:   1    -0.304088619058E+03   -0.75670E-09   -0.11914E-10   294   0.146E-10    0.278E-10
RMM:   2    -0.304088619057E+03    0.90949E-09    0.00000E+00     1   0.869E-11
  90 F= -.30408862E+03 E0= -.30413599E+03  d E =-.582077E-10
       N       E                     dE             d eps       ncg     rms          rms(c)
DAV:   1    -0.304088619057E+03    0.16953E-08   -0.60964E-11   294   0.338E-10    0.204E-10
RMM:   2    -0.304088619057E+03   -0.64028E-09    0.00000E+00     1   0.817E-11
  91 F= -.30408862E+03 E0= -.30413599E+03  d E =0.145519E-09
       N       E                     dE             d eps       ncg     rms          rms(c)
DAV:   1    -0.304088619056E+03    0.85129E-09   -0.87010E-11   294   0.197E-10    0.316E-10
RMM:   2    -0.304088619057E+03   -0.14697E-08    0.00000E+00     1   0.922E-11
  92 F= -.30408862E+03 E0= -.30413599E+03  d E =0.218279E-10
       N       E                     dE             d eps       ncg     rms          rms(c)
DAV:   1    -0.304088619058E+03   -0.24957E-08   -0.13327E-10   294   0.249E-10    0.392E-10
RMM:   2    -0.304088619057E+03    0.96043E-09    0.00000E+00     1   0.105E-10
  93 F= -.30408862E+03 E0= -.30413599E+03  d E =-.654836E-10
       N       E                     dE             d eps       ncg     rms          rms(c)
DAV:   1    -0.304088619058E+03    0.30559E-09   -0.15675E-11   294   0.349E-10    0.203E-10
RMM:   2    -0.304088619057E+03    0.69122E-09    0.00000E+00     1   0.780E-11
  94 F= -.30408862E+03 E0= -.30413599E+03  d E =0.363798E-10
       N       E                     dE             d eps       ncg     rms          rms(c)
DAV:   1    -0.304088619057E+03    0.75670E-09   -0.68838E-11   294   0.177E-10    0.170E-10
RMM:   2    -0.304088619057E+03   -0.72760E-10    0.00000E+00     1   0.639E-11
  95 F= -.30408862E+03 E0= -.30413599E+03  d E =-.727596E-11
       N       E                     dE             d eps       ncg     rms          rms(c)
DAV:   1    -0.304088619057E+03    0.36380E-10   -0.12450E-10   294   0.941E-11    0.274E-10
RMM:   2    -0.304088619057E+03   -0.12369E-09    0.00000E+00     1   0.649E-11
  96 F= -.30408862E+03 E0= -.30413599E+03  d E =-.145519E-10
       N       E                     dE             d eps       ncg     rms          rms(c)
DAV:   1    -0.304088619058E+03   -0.90222E-09   -0.11953E-10   294   0.151E-10    0.200E-10
RMM:   2    -0.304088619057E+03    0.72032E-09    0.00000E+00     1   0.607E-11
  97 F= -.30408862E+03 E0= -.30413599E+03  d E =-.582077E-10
       N       E                     dE             d eps       ncg     rms          rms(c)
DAV:   1    -0.304088619058E+03   -0.13097E-09   -0.20188E-10   294   0.159E-10    0.170E-10
RMM:   2    -0.304088619057E+03    0.94587E-09    0.00000E+00     1   0.610E-11
  98 F= -.30408862E+03 E0= -.30413599E+03  d E =0.945874E-10
       N       E                     dE             d eps       ncg     rms          rms(c)
DAV:   1    -0.304088619057E+03    0.11496E-08   -0.28644E-11   294   0.120E-10    0.289E-10
RMM:   2    -0.304088619057E+03   -0.30559E-09    0.00000E+00     1   0.726E-11
  99 F= -.30408862E+03 E0= -.30413599E+03  d E =-.101863E-09
       N       E                     dE             d eps       ncg     rms          rms(c)
DAV:   1    -0.304088619057E+03    0.23283E-09   -0.10903E-10   294   0.245E-10    0.242E-10
RMM:   2    -0.304088619057E+03   -0.55297E-09    0.00000E+00     1   0.699E-11
 100 F= -.30408862E+03 E0= -.30413599E+03  d E =-.145519E-10
       N       E                     dE             d eps       ncg     rms          rms(c)
DAV:   1    -0.304088619057E+03    0.31287E-09   -0.22990E-10   294   0.197E-10    0.280E-10
RMM:   2    -0.304088619057E+03   -0.83674E-09    0.00000E+00     1   0.791E-11
 101 F= -.30408862E+03 E0= -.30413599E+03  d E =0.291038E-10
       N       E                     dE             d eps       ncg     rms          rms(c)
DAV:   1    -0.304088619058E+03   -0.17681E-08   -0.19849E-10   294   0.301E-10    0.272E-10
RMM:   2    -0.304088619057E+03    0.97498E-09    0.00000E+00     1   0.760E-11
 102 F= -.30408862E+03 E0= -.30413599E+03  d E =0.436557E-10
       N       E                     dE             d eps       ncg     rms          rms(c)
DAV:   1    -0.304088619057E+03    0.15280E-08   -0.63107E-11   294   0.168E-10    0.297E-10
RMM:   2    -0.304088619057E+03   -0.55297E-09    0.00000E+00     1   0.970E-11
 103 F= -.30408862E+03 E0= -.30413599E+03  d E =0.000000E+00
       N       E                     dE             d eps       ncg     rms          rms(c)
DAV:   1    -0.304088619058E+03   -0.97498E-09   -0.41016E-11   294   0.395E-10    0.322E-10
RMM:   2    -0.304088619058E+03    0.25466E-09    0.00000E+00     1   0.106E-10
 104 F= -.30408862E+03 E0= -.30413599E+03  d E =-.167347E-09
       N       E                     dE             d eps       ncg     rms          rms(c)
DAV:   1    -0.304088619058E+03   -0.19645E-09   -0.64061E-11   294   0.366E-10    0.225E-10
RMM:   2    -0.304088619057E+03    0.49477E-09    0.00000E+00     1   0.819E-11
 105 F= -.30408862E+03 E0= -.30413599E+03  d E =0.436557E-10
       N       E                     dE             d eps       ncg     rms          rms(c)
DAV:   1    -0.304088619058E+03    0.29104E-09   -0.12798E-10   294   0.295E-10    0.453E-10
RMM:   2    -0.304088619057E+03    0.35652E-09    0.00000E+00     1   0.126E-10
 106 F= -.30408862E+03 E0= -.30413599E+03  d E =0.152795E-09
       N       E                     dE             d eps       ncg     rms          rms(c)
DAV:   1    -0.304088619058E+03   -0.19645E-09    0.15678E-10   294   0.477E-10    0.316E-10
RMM:   2    -0.304088619057E+03    0.48749E-09    0.00000E+00     1   0.741E-11
 107 F= -.30408862E+03 E0= -.30413599E+03  d E =-.654836E-10
       N       E                     dE             d eps       ncg     rms          rms(c)
DAV:   1    -0.304088619056E+03    0.20591E-08   -0.90697E-11   294   0.229E-10    0.261E-10
RMM:   2    -0.304088619057E+03   -0.14770E-08    0.00000E+00     1   0.811E-11
 108 F= -.30408862E+03 E0= -.30413599E+03  d E =0.945874E-10
       N       E                     dE             d eps       ncg     rms          rms(c)
DAV:   1    -0.304088619057E+03   -0.12951E-08    0.94827E-11   294   0.260E-10    0.162E-10
RMM:   2    -0.304088619057E+03   -0.22555E-09    0.00000E+00     1   0.684E-11
 109 F= -.30408862E+03 E0= -.30413599E+03  d E =-.436557E-10
       N       E                     dE             d eps       ncg     rms          rms(c)
DAV:   1    -0.304088619058E+03   -0.60390E-09   -0.51944E-11   294   0.150E-10    0.351E-10
RMM:   2    -0.304088619057E+03    0.30559E-09    0.00000E+00     1   0.997E-11
 110 F= -.30408862E+03 E0= -.30413599E+03  d E =-.727596E-10
       N       E                     dE             d eps       ncg     rms          rms(c)
DAV:   1    -0.304088619059E+03   -0.12151E-08   -0.11181E-10   294   0.311E-10    0.222E-10
RMM:   2    -0.304088619057E+03    0.15425E-08    0.00000E+00     1   0.709E-11
 111 F= -.30408862E+03 E0= -.30413599E+03  d E =0.218279E-10
       N       E                     dE             d eps       ncg     rms          rms(c)
DAV:   1    -0.304088619058E+03    0.90222E-09   -0.59585E-11   294   0.184E-10    0.228E-10
RMM:   2    -0.304088619057E+03    0.74215E-09    0.00000E+00     1   0.768E-11
 112 F= -.30408862E+03 E0= -.30413599E+03  d E =0.101863E-09
       N       E                     dE             d eps       ncg     rms          rms(c)
DAV:   1    -0.304088619057E+03    0.88039E-09   -0.22061E-10   294   0.233E-10    0.239E-10
RMM:   2    -0.304088619057E+03   -0.29104E-09    0.00000E+00     1   0.823E-11
 113 F= -.30408862E+03 E0= -.30413599E+03  d E =-.152795E-09
       N       E                     dE             d eps       ncg     rms          rms(c)
DAV:   1    -0.304088619057E+03    0.50204E-09   -0.16727E-10   294   0.201E-10    0.217E-10
RMM:   2    -0.304088619057E+03   -0.72760E-09    0.00000E+00     1   0.832E-11
 114 F= -.30408862E+03 E0= -.30413599E+03  d E =0.654836E-10
       N       E                     dE             d eps       ncg     rms          rms(c)
DAV:   1    -0.304088619058E+03   -0.11350E-08   -0.25164E-10   294   0.225E-10    0.212E-10
RMM:   2    -0.304088619057E+03    0.39290E-09    0.00000E+00     1   0.845E-11
 115 F= -.30408862E+03 E0= -.30413599E+03  d E =-.145519E-10
       N       E                     dE             d eps       ncg     rms          rms(c)
DAV:   1    -0.304088619059E+03   -0.10186E-08   -0.13336E-10   294   0.194E-10    0.387E-10
RMM:   2    -0.304088619057E+03    0.14188E-08    0.00000E+00     1   0.101E-10
 116 F= -.30408862E+03 E0= -.30413599E+03  d E =0.727596E-11
       N       E                     dE             d eps       ncg     rms          rms(c)
DAV:   1    -0.304088619057E+03    0.17099E-08   -0.13963E-10   294   0.234E-10    0.271E-10
RMM:   2    -0.304088619057E+03   -0.29831E-09    0.00000E+00     1   0.891E-11
 117 F= -.30408862E+03 E0= -.30413599E+03  d E =-.727596E-11
       N       E                     dE             d eps       ncg     rms          rms(c)
DAV:   1    -0.304088619058E+03   -0.91677E-09   -0.34166E-10   294   0.207E-10    0.226E-10
RMM:   2    -0.304088619057E+03    0.61846E-09    0.00000E+00     1   0.918E-11
 118 F= -.30408862E+03 E0= -.30413599E+03  d E =0.000000E+00
       N       E                     dE             d eps       ncg     rms          rms(c)
DAV:   1    -0.304088619057E+03    0.13606E-08    0.98720E-11   294   0.244E-10    0.204E-10
RMM:   2    -0.304088619057E+03   -0.73487E-09    0.00000E+00     1   0.793E-11
 119 F= -.30408862E+03 E0= -.30413599E+03  d E =0.727596E-11
       N       E                     dE             d eps       ncg     rms          rms(c)
DAV:   1    -0.304088619056E+03    0.20373E-09   -0.16292E-10   294   0.131E-10    0.285E-10
RMM:   2    -0.304088619057E+03   -0.96043E-09    0.00000E+00     1   0.708E-11
 120 F= -.30408862E+03 E0= -.30413599E+03  d E =-.218279E-10
       N       E                     dE             d eps       ncg     rms          rms(c)
DAV:   1    -0.304088619057E+03   -0.38563E-09    0.60721E-11   294   0.138E-10    0.300E-10
RMM:   2    -0.304088619057E+03   -0.61118E-09    0.00000E+00     1   0.859E-11
 121 F= -.30408862E+03 E0= -.30413599E+03  d E =-.363798E-10
       N       E                     dE             d eps       ncg     rms          rms(c)
DAV:   1    -0.304088619058E+03   -0.12005E-08    0.15423E-10   294   0.350E-10    0.201E-10
RMM:   2    -0.304088619057E+03    0.64028E-09    0.00000E+00     1   0.763E-11
 122 F= -.30408862E+03 E0= -.30413599E+03  d E =0.509317E-10
       N       E                     dE             d eps       ncg     rms          rms(c)
DAV:   1    -0.304088619058E+03   -0.35652E-09   -0.10719E-11   294   0.182E-10    0.377E-10
RMM:   2    -0.304088619057E+03    0.10186E-08    0.00000E+00     1   0.984E-11
 123 F= -.30408862E+03 E0= -.30413599E+03  d E =0.218279E-10
       N       E                     dE             d eps       ncg     rms          rms(c)
DAV:   1    -0.304088619058E+03    0.82218E-09   -0.22823E-10   294   0.253E-10    0.284E-10
RMM:   2    -0.304088619057E+03    0.20373E-09    0.00000E+00     1   0.797E-11
 124 F= -.30408862E+03 E0= -.30413599E+03  d E =0.727596E-11
       N       E                     dE             d eps       ncg     rms          rms(c)
DAV:   1    -0.304088619057E+03    0.26921E-09   -0.46151E-11   294   0.282E-10    0.392E-10
RMM:   2    -0.304088619057E+03   -0.94587E-10    0.00000E+00     1   0.110E-10
 125 F= -.30408862E+03 E0= -.30413599E+03  d E =-.291038E-10
       N       E                     dE             d eps       ncg     rms          rms(c)
DAV:   1    -0.304088619057E+03   -0.15280E-09   -0.13146E-10   294   0.291E-10    0.306E-10
RMM:   2    -0.304088619057E+03    0.94587E-10    0.00000E+00     1   0.766E-11
 126 F= -.30408862E+03 E0= -.30413599E+03  d E =0.363798E-10
       N       E                     dE             d eps       ncg     rms          rms(c)
DAV:   1    -0.304088619057E+03    0.41473E-09   -0.12921E-11   294   0.139E-10    0.384E-10
RMM:   2    -0.304088619057E+03   -0.40745E-09    0.00000E+00     1   0.981E-11
 127 F= -.30408862E+03 E0= -.30413599E+03  d E =-.873115E-10
       N       E                     dE             d eps       ncg     rms          rms(c)
DAV:   1    -0.304088619057E+03    0.39290E-09   -0.74205E-11   294   0.266E-10    0.183E-10
RMM:   2    -0.304088619057E+03   -0.76398E-09    0.00000E+00     1   0.847E-11
 128 F= -.30408862E+03 E0= -.30413599E+03  d E =0.363798E-10
       N       E                     dE             d eps       ncg     rms          rms(c)
DAV:   1    -0.304088619057E+03    0.65484E-10   -0.84900E-11   294   0.215E-10    0.159E-10
RMM:   2    -0.304088619057E+03   -0.71304E-09    0.00000E+00     1   0.748E-11
 129 F= -.30408862E+03 E0= -.30413599E+03  d E =0.116415E-09
       N       E                     dE             d eps       ncg     rms          rms(c)
DAV:   1    -0.304088619057E+03   -0.14552E-10    0.18361E-10   294   0.153E-10    0.295E-10
RMM:   2    -0.304088619057E+03   -0.83674E-09    0.00000E+00     1   0.102E-10
 130 F= -.30408862E+03 E0= -.30413599E+03  d E =-.138243E-09
       N       E                     dE             d eps       ncg     rms          rms(c)
DAV:   1    -0.304088619056E+03    0.13097E-09   -0.16317E-10   294   0.276E-10    0.316E-10
RMM:   2    -0.304088619057E+03   -0.93132E-09    0.00000E+00     1   0.848E-11
 131 F= -.30408862E+03 E0= -.30413599E+03  d E =0.363798E-10
       N       E                     dE             d eps       ncg     rms          rms(c)
DAV:   1    -0.304088619058E+03   -0.19354E-08   -0.21135E-11   294   0.217E-10    0.364E-10
RMM:   2    -0.304088619057E+03    0.95315E-09    0.00000E+00     1   0.886E-11
 132 F= -.30408862E+03 E0= -.30413599E+03  d E =-.509317E-10
       N       E                     dE             d eps       ncg     rms          rms(c)
DAV:   1    -0.304088619057E+03    0.11714E-08   -0.76231E-11   294   0.246E-10    0.291E-10
RMM:   2    -0.304088619057E+03   -0.18190E-09    0.00000E+00     1   0.889E-11
 133 F= -.30408862E+03 E0= -.30413599E+03  d E =0.363798E-10
       N       E                     dE             d eps       ncg     rms          rms(c)
DAV:   1    -0.304088619057E+03    0.59663E-09   -0.18366E-10   294   0.331E-10    0.316E-10
RMM:   2    -0.304088619057E+03   -0.72032E-09    0.00000E+00     1   0.903E-11
 134 F= -.30408862E+03 E0= -.30413599E+03  d E =0.582077E-10
       N       E                     dE             d eps       ncg     rms          rms(c)
DAV:   1    -0.304088619057E+03   -0.12369E-09   -0.21604E-10   294   0.267E-10    0.274E-10
RMM:   2    -0.304088619057E+03   -0.53842E-09    0.00000E+00     1   0.785E-11
 135 F= -.30408862E+03 E0= -.30413599E+03  d E =0.582077E-10
       N       E                     dE             d eps       ncg     rms          rms(c)
DAV:   1    -0.304088619058E+03   -0.15934E-08   -0.77114E-11   294   0.177E-10    0.284E-10
RMM:   2    -0.304088619057E+03    0.98953E-09    0.00000E+00     1   0.927E-11
 136 F= -.30408862E+03 E0= -.30413599E+03  d E =-.654836E-10
       N       E                     dE             d eps       ncg     rms          rms(c)
DAV:   1    -0.304088619058E+03    0.53114E-09   -0.63458E-11   294   0.247E-10    0.228E-10
RMM:   2    -0.304088619057E+03    0.48021E-09    0.00000E+00     1   0.777E-11
 137 F= -.30408862E+03 E0= -.30413599E+03  d E =0.218279E-10
       N       E                     dE             d eps       ncg     rms          rms(c)
DAV:   1    -0.304088619057E+03    0.12806E-08   -0.50430E-11   294   0.123E-10    0.285E-10
RMM:   2    -0.304088619057E+03   -0.88039E-09    0.00000E+00     1   0.904E-11
 138 F= -.30408862E+03 E0= -.30413599E+03  d E =-.800355E-10
       N       E                     dE             d eps       ncg     rms          rms(c)
DAV:   1    -0.304088619057E+03   -0.91677E-09   -0.24121E-10   294   0.286E-10    0.171E-10
RMM:   2    -0.304088619057E+03   -0.36380E-10    0.00000E+00     1   0.750E-11
 139 F= -.30408862E+03 E0= -.30413599E+03  d E =-.727596E-10
       N       E                     dE             d eps       ncg     rms          rms(c)
DAV:   1    -0.304088619056E+03    0.11642E-08   -0.58844E-12   294   0.150E-10    0.332E-10
RMM:   2    -0.304088619057E+03   -0.11205E-08    0.00000E+00     1   0.900E-11
 140 F= -.30408862E+03 E0= -.30413599E+03  d E =0.800355E-10
       N       E                     dE             d eps       ncg     rms          rms(c)
DAV:   1    -0.304088619058E+03   -0.15643E-08   -0.16348E-10   294   0.212E-10    0.256E-10
RMM:   2    -0.304088619057E+03    0.36380E-09    0.00000E+00     1   0.830E-11
 141 F= -.30408862E+03 E0= -.30413599E+03  d E =-.800355E-10
       N       E                     dE             d eps       ncg     rms          rms(c)
DAV:   1    -0.304088619058E+03   -0.53842E-09    0.99252E-11   294   0.254E-10    0.240E-10
RMM:   2    -0.304088619057E+03    0.10041E-08    0.00000E+00     1   0.787E-11
 142 F= -.30408862E+03 E0= -.30413599E+03  d E =0.101863E-09
       N       E                     dE             d eps       ncg     rms          rms(c)
DAV:   1    -0.304088619057E+03    0.12587E-08   -0.64548E-11   294   0.157E-10    0.258E-10
RMM:   2    -0.304088619057E+03   -0.23283E-09    0.00000E+00     1   0.848E-11
 143 F= -.30408862E+03 E0= -.30413599E+03  d E =0.218279E-10
       N       E                     dE             d eps       ncg     rms          rms(c)
DAV:   1    -0.304088619057E+03    0.31287E-09   -0.85550E-12   294   0.169E-10    0.350E-10
RMM:   2    -0.304088619057E+03   -0.58935E-09    0.00000E+00     1   0.997E-11
 144 F= -.30408862E+03 E0= -.30413599E+03  d E =-.436557E-10
       N       E                     dE             d eps       ncg     rms          rms(c)
DAV:   1    -0.304088619058E+03   -0.11132E-08    0.14943E-10   294   0.376E-10    0.232E-10
RMM:   2    -0.304088619057E+03    0.51659E-09    0.00000E+00     1   0.860E-11
 145 F= -.30408862E+03 E0= -.30413599E+03  d E =-.727596E-11
       N       E                     dE             d eps       ncg     rms          rms(c)
DAV:   1    -0.304088619057E+03    0.51659E-09   -0.11800E-10   294   0.205E-10    0.219E-10
RMM:   2    -0.304088619057E+03   -0.72760E-11    0.00000E+00     1   0.881E-11
 146 F= -.30408862E+03 E0= -.30413599E+03  d E =-.727596E-11
       N       E                     dE             d eps       ncg     rms          rms(c)
DAV:   1    -0.304088619057E+03    0.29104E-10   -0.10204E-10   294   0.177E-10    0.283E-10
RMM:   2    -0.304088619057E+03   -0.72760E-11    0.00000E+00     1   0.821E-11
 147 F= -.30408862E+03 E0= -.30413599E+03  d E =0.291038E-10
       N       E                     dE             d eps       ncg     rms          rms(c)
DAV:   1    -0.304088619057E+03    0.50932E-09    0.75805E-11   294   0.200E-10    0.256E-10
RMM:   2    -0.304088619057E+03   -0.49477E-09    0.00000E+00     1   0.868E-11
 148 F= -.30408862E+03 E0= -.30413599E+03  d E =0.218279E-10
       N       E                     dE             d eps       ncg     rms          rms(c)
DAV:   1    -0.304088619057E+03   -0.24011E-09    0.12626E-10   294   0.266E-10    0.374E-10
RMM:   2    -0.304088619057E+03   -0.34197E-09    0.00000E+00     1   0.111E-10
 149 F= -.30408862E+03 E0= -.30413599E+03  d E =-.873115E-10
       N       E                     dE             d eps       ncg     rms          rms(c)
DAV:   1    -0.304088619057E+03   -0.16007E-09   -0.54630E-11   294   0.268E-10    0.277E-10
RMM:   2    -0.304088619057E+03   -0.50932E-10    0.00000E+00     1   0.891E-11
 150 F= -.30408862E+03 E0= -.30413599E+03  d E =0.130967E-09
       N       E                     dE             d eps       ncg     rms          rms(c)
DAV:   1    -0.304088619058E+03   -0.91677E-09   -0.35890E-11   294   0.236E-10    0.244E-10
RMM:   2    -0.304088619057E+03    0.85129E-09    0.00000E+00     1   0.792E-11
 151 F= -.30408862E+03 E0= -.30413599E+03  d E =-.145519E-10
       N       E                     dE             d eps       ncg     rms          rms(c)
DAV:   1    -0.304088619058E+03    0.72760E-11   -0.25660E-10   294   0.201E-10    0.207E-10
RMM:   2    -0.304088619057E+03    0.80763E-09    0.00000E+00     1   0.772E-11
 152 F= -.30408862E+03 E0= -.30413599E+03  d E =-.363798E-10
       N       E                     dE             d eps       ncg     rms          rms(c)
DAV:   1    -0.304088619057E+03    0.15498E-08   -0.51421E-11   294   0.148E-10    0.309E-10
RMM:   2    -0.304088619057E+03   -0.77125E-09    0.00000E+00     1   0.915E-11
 153 F= -.30408862E+03 E0= -.30413599E+03  d E =-.291038E-10
       N       E                     dE             d eps       ncg     rms          rms(c)
DAV:   1    -0.304088619056E+03    0.50204E-09   -0.59988E-11   294   0.271E-10    0.179E-10
RMM:   2    -0.304088619057E+03   -0.12878E-08    0.00000E+00     1   0.841E-11
 154 F= -.30408862E+03 E0= -.30413599E+03  d E =-.145519E-10
       N       E                     dE             d eps       ncg     rms          rms(c)
DAV:   1    -0.304088619057E+03   -0.11350E-08   -0.17398E-10   294   0.189E-10    0.269E-10
RMM:   2    -0.304088619057E+03   -0.17462E-09    0.00000E+00     1   0.918E-11
 155 F= -.30408862E+03 E0= -.30413599E+03  d E =-.218279E-10
       N       E                     dE             d eps       ncg     rms          rms(c)
DAV:   1    -0.304088619057E+03    0.19645E-09   -0.66658E-11   294   0.196E-10    0.248E-10
RMM:   2    -0.304088619057E+03   -0.33469E-09    0.00000E+00     1   0.709E-11
 156 F= -.30408862E+03 E0= -.30413599E+03  d E =0.363798E-10
       N       E                     dE             d eps       ncg     rms          rms(c)
DAV:   1    -0.304088619058E+03   -0.10914E-08   -0.43685E-11   294   0.161E-10    0.267E-10
RMM:   2    -0.304088619057E+03    0.82218E-09    0.00000E+00     1   0.719E-11
 157 F= -.30408862E+03 E0= -.30413599E+03  d E =0.654836E-10
       N       E                     dE             d eps       ncg     rms          rms(c)
DAV:   1    -0.304088619059E+03   -0.36380E-09   -0.24923E-10   294   0.219E-10    0.315E-10
RMM:   2    -0.304088619057E+03    0.11860E-08    0.00000E+00     1   0.919E-11
 158 F= -.30408862E+03 E0= -.30413599E+03  d E =0.000000E+00
       N       E                     dE             d eps       ncg     rms          rms(c)
DAV:   1    -0.304088619057E+03    0.19863E-08   -0.23521E-10   294   0.329E-10    0.247E-10
RMM:   2    -0.304088619057E+03   -0.80036E-09    0.00000E+00     1   0.932E-11
 159 F= -.30408862E+03 E0= -.30413599E+03  d E =0.000000E+00
       N       E                     dE             d eps       ncg     rms          rms(c)
DAV:   1    -0.304088619058E+03   -0.12078E-08   -0.18750E-10   294   0.249E-10    0.306E-10
RMM:   2    -0.304088619057E+03    0.34925E-09    0.00000E+00     1   0.940E-11
 160 F= -.30408862E+03 E0= -.30413599E+03  d E =-.582077E-10
       N       E                     dE             d eps       ncg     rms          rms(c)
DAV:   1    -0.304088619059E+03   -0.15571E-08    0.39882E-11   294   0.285E-10    0.229E-10
RMM:   2    -0.304088619057E+03    0.18190E-08    0.00000E+00     1   0.662E-11
 161 F= -.30408862E+03 E0= -.30413599E+03  d E =-.873115E-10
       N       E                     dE             d eps       ncg     rms          rms(c)
DAV:   1    -0.304088619056E+03    0.34561E-08    0.74800E-11   294   0.133E-10    0.327E-10
RMM:   2    -0.304088619057E+03   -0.14988E-08    0.00000E+00     1   0.932E-11
 162 F= -.30408862E+03 E0= -.30413599E+03  d E =0.138243E-09
       N       E                     dE             d eps       ncg     rms          rms(c)
DAV:   1    -0.304088619057E+03   -0.11933E-08   -0.18850E-11   294   0.269E-10    0.281E-10
RMM:   2    -0.304088619057E+03   -0.28376E-09    0.00000E+00     1   0.781E-11
 163 F= -.30408862E+03 E0= -.30413599E+03  d E =0.218279E-10
       N       E                     dE             d eps       ncg     rms          rms(c)
DAV:   1    -0.304088619058E+03   -0.12078E-08   -0.23235E-11   294   0.164E-10    0.157E-10
RMM:   2    -0.304088619057E+03    0.85129E-09    0.00000E+00     1   0.655E-11
 164 F= -.30408862E+03 E0= -.30413599E+03  d E =-.727596E-10
       N       E                     dE             d eps       ncg     rms          rms(c)
DAV:   1    -0.304088619057E+03    0.82218E-09   -0.10313E-10   294   0.122E-10    0.265E-10
RMM:   2    -0.304088619057E+03    0.80036E-10    0.00000E+00     1   0.741E-11
 165 F= -.30408862E+03 E0= -.30413599E+03  d E =0.509317E-10
       N       E                     dE             d eps       ncg     rms          rms(c)
DAV:   1    -0.304088619058E+03   -0.96043E-09   -0.23716E-10   294   0.187E-10    0.262E-10
RMM:   2    -0.304088619057E+03    0.94587E-09    0.00000E+00     1   0.819E-11
 166 F= -.30408862E+03 E0= -.30413599E+03  d E =-.945874E-10
       N       E                     dE             d eps       ncg     rms          rms(c)
DAV:   1    -0.304088619058E+03    0.68394E-09   -0.12811E-10   294   0.303E-10    0.286E-10
RMM:   2    -0.304088619057E+03    0.38563E-09    0.00000E+00     1   0.898E-11
 167 F= -.30408862E+03 E0= -.30413599E+03  d E =0.123691E-09
       N       E                     dE             d eps       ncg     rms          rms(c)
DAV:   1    -0.304088619058E+03   -0.72760E-11   -0.99946E-11   294   0.315E-10    0.257E-10
RMM:   2    -0.304088619057E+03    0.30559E-09    0.00000E+00     1   0.798E-11
 168 F= -.30408862E+03 E0= -.30413599E+03  d E =-.873115E-10
       N       E                     dE             d eps       ncg     rms          rms(c)
DAV:   1    -0.304088619057E+03    0.34925E-09   -0.14472E-10   294   0.160E-10    0.186E-10
RMM:   2    -0.304088619057E+03    0.94587E-10    0.00000E+00     1   0.712E-11
 169 F= -.30408862E+03 E0= -.30413599E+03  d E =0.138243E-09
       N       E                     dE             d eps       ncg     rms          rms(c)
DAV:   1    -0.304088619058E+03   -0.63301E-09   -0.32662E-11   294   0.888E-11    0.304E-10
RMM:   2    -0.304088619057E+03    0.55297E-09    0.00000E+00     1   0.764E-11
 170 F= -.30408862E+03 E0= -.30413599E+03  d E =-.174623E-09
       N       E                     dE             d eps       ncg     rms          rms(c)
DAV:   1    -0.304088619058E+03   -0.13097E-09   -0.11853E-10   294   0.207E-10    0.366E-10
RMM:   2    -0.304088619057E+03    0.66211E-09    0.00000E+00     1   0.112E-10
 171 F= -.30408862E+03 E0= -.30413599E+03  d E =-.218279E-10
       N       E                     dE             d eps       ncg     rms          rms(c)
DAV:   1    -0.304088619058E+03    0.22555E-09    0.54247E-11   294   0.239E-10    0.348E-10
RMM:   2    -0.304088619057E+03    0.58208E-09    0.00000E+00     1   0.888E-11
 172 F= -.30408862E+03 E0= -.30413599E+03  d E =0.145519E-09
       N       E                     dE             d eps       ncg     rms          rms(c)
DAV:   1    -0.304088619057E+03    0.74942E-09    0.69065E-12   294   0.172E-10    0.215E-10
RMM:   2    -0.304088619057E+03   -0.18190E-09    0.00000E+00     1   0.782E-11
 173 F= -.30408862E+03 E0= -.30413599E+03  d E =-.145519E-10
       N       E                     dE             d eps       ncg     rms          rms(c)
DAV:   1    -0.304088619057E+03   -0.21828E-09   -0.19392E-10   294   0.102E-10    0.349E-10
RMM:   2    -0.304088619057E+03    0.72760E-11    0.00000E+00     1   0.922E-11
 174 F= -.30408862E+03 E0= -.30413599E+03  d E =-.291038E-10
       N       E                     dE             d eps       ncg     rms          rms(c)
DAV:   1    -0.304088619056E+03    0.96770E-09   -0.13799E-10   294   0.199E-10    0.240E-10
RMM:   2    -0.304088619057E+03   -0.10477E-08    0.00000E+00     1   0.807E-11
 175 F= -.30408862E+03 E0= -.30413599E+03  d E =-.873115E-10
       N       E                     dE             d eps       ncg     rms          rms(c)
DAV:   1    -0.304088619058E+03   -0.17171E-08   -0.35707E-11   294   0.258E-10    0.236E-10
RMM:   2    -0.304088619057E+03    0.72032E-09    0.00000E+00     1   0.753E-11
 176 F= -.30408862E+03 E0= -.30413599E+03  d E =0.509317E-10
       N       E                     dE             d eps       ncg     rms          rms(c)
DAV:   1    -0.304088619059E+03   -0.62573E-09   -0.12167E-10   294   0.128E-10    0.238E-10
RMM:   2    -0.304088619057E+03    0.12878E-08    0.00000E+00     1   0.758E-11
 177 F= -.30408862E+03 E0= -.30413599E+03  d E =-.582077E-10
       N       E                     dE             d eps       ncg     rms          rms(c)
DAV:   1    -0.304088619058E+03    0.58208E-09   -0.13163E-10   294   0.285E-10    0.196E-10
RMM:   2    -0.304088619057E+03    0.74942E-09    0.00000E+00     1   0.692E-11
 178 F= -.30408862E+03 E0= -.30413599E+03  d E =0.436557E-10
       N       E                     dE             d eps       ncg     rms          rms(c)
DAV:   1    -0.304088619058E+03    0.50932E-09    0.54698E-11   294   0.127E-10    0.248E-10
RMM:   2    -0.304088619057E+03    0.29831E-09    0.00000E+00     1   0.656E-11
 179 F= -.30408862E+03 E0= -.30413599E+03  d E =0.582077E-10
       N       E                     dE             d eps       ncg     rms          rms(c)
DAV:   1    -0.304088619057E+03    0.27649E-09   -0.18478E-11   294   0.146E-10    0.326E-10
RMM:   2    -0.304088619057E+03    0.10914E-09    0.00000E+00     1   0.799E-11
 180 F= -.30408862E+03 E0= -.30413599E+03  d E =0.873115E-10
       N       E                     dE             d eps       ncg     rms          rms(c)
DAV:   1    -0.304088619058E+03   -0.27649E-09   -0.13011E-10   294   0.247E-10    0.332E-10
RMM:   2    -0.304088619057E+03    0.32014E-09    0.00000E+00     1   0.855E-11
 181 F= -.30408862E+03 E0= -.30413599E+03  d E =-.654836E-10
       N       E                     dE             d eps       ncg     rms          rms(c)
DAV:   1    -0.304088619057E+03    0.91677E-09   -0.11416E-10   294   0.117E-10    0.281E-10
RMM:   2    -0.304088619057E+03   -0.60390E-09    0.00000E+00     1   0.695E-11
 182 F= -.30408862E+03 E0= -.30413599E+03  d E =-.727596E-11
       N       E                     dE             d eps       ncg     rms          rms(c)
DAV:   1    -0.304088619057E+03   -0.27649E-09   -0.86286E-11   294   0.185E-10    0.264E-10
RMM:   2    -0.304088619057E+03   -0.45111E-09    0.00000E+00     1   0.738E-11
 183 F= -.30408862E+03 E0= -.30413599E+03  d E =-.123691E-09
       N       E                     dE             d eps       ncg     rms          rms(c)
DAV:   1    -0.304088619057E+03   -0.40018E-09   -0.17786E-11   294   0.238E-10    0.182E-10
RMM:   2    -0.304088619057E+03    0.87311E-10    0.00000E+00     1   0.773E-11
 184 F= -.30408862E+03 E0= -.30413599E+03  d E =0.138243E-09
       N       E                     dE             d eps       ncg     rms          rms(c)
DAV:   1    -0.304088619058E+03   -0.80036E-09   -0.25671E-10   294   0.170E-10    0.269E-10
RMM:   2    -0.304088619057E+03    0.85129E-09    0.00000E+00     1   0.789E-11
 185 F= -.30408862E+03 E0= -.30413599E+03  d E =-.363798E-10
       N       E                     dE             d eps       ncg     rms          rms(c)
DAV:   1    -0.304088619057E+03    0.13606E-08   -0.20562E-11   294   0.191E-10    0.233E-10
RMM:   2    -0.304088619057E+03   -0.59663E-09    0.00000E+00     1   0.782E-11
 186 F= -.30408862E+03 E0= -.30413599E+03  d E =-.873115E-10
       N       E                     dE             d eps       ncg     rms          rms(c)
DAV:   1    -0.304088619057E+03   -0.38563E-09   -0.62169E-11   294   0.205E-10    0.337E-10
RMM:   2    -0.304088619057E+03   -0.13824E-09    0.00000E+00     1   0.890E-11
 187 F= -.30408862E+03 E0= -.30413599E+03  d E =0.727596E-10
       N       E                     dE             d eps       ncg     rms          rms(c)
DAV:   1    -0.304088619058E+03   -0.12515E-08   -0.13126E-10   294   0.283E-10    0.309E-10
RMM:   2    -0.304088619057E+03    0.11642E-08    0.00000E+00     1   0.784E-11
 188 F= -.30408862E+03 E0= -.30413599E+03  d E =0.509317E-10
       N       E                     dE             d eps       ncg     rms          rms(c)
DAV:   1    -0.304088619058E+03    0.24738E-09   -0.41605E-11   294   0.268E-10    0.228E-10
RMM:   2    -0.304088619057E+03    0.82218E-09    0.00000E+00     1   0.868E-11
 189 F= -.30408862E+03 E0= -.30413599E+03  d E =-.945874E-10
       N       E                     dE             d eps       ncg     rms          rms(c)
DAV:   1    -0.304088619056E+03    0.21100E-08   -0.77450E-11   294   0.108E-10    0.226E-10
RMM:   2    -0.304088619057E+03   -0.11787E-08    0.00000E+00     1   0.720E-11
 190 F= -.30408862E+03 E0= -.30413599E+03  d E =0.109139E-09
       N       E                     dE             d eps       ncg     rms          rms(c)
DAV:   1    -0.304088619057E+03   -0.12587E-08   -0.16084E-10   294   0.165E-10    0.268E-10
RMM:   2    -0.304088619057E+03   -0.58208E-10    0.00000E+00     1   0.753E-11
 191 F= -.30408862E+03 E0= -.30413599E+03  d E =-.138243E-09
       N       E                     dE             d eps       ncg     rms          rms(c)
DAV:   1    -0.304088619058E+03   -0.21828E-09    0.13774E-10   294   0.205E-10    0.287E-10
RMM:   2    -0.304088619057E+03    0.29104E-09    0.00000E+00     1   0.820E-11
 192 F= -.30408862E+03 E0= -.30413599E+03  d E =0.130967E-09
       N       E                     dE             d eps       ncg     rms          rms(c)
DAV:   1    -0.304088619057E+03    0.11642E-09   -0.73398E-11   294   0.242E-10    0.344E-10
RMM:   2    -0.304088619057E+03    0.87311E-10    0.00000E+00     1   0.108E-10
 193 F= -.30408862E+03 E0= -.30413599E+03  d E =-.873115E-10
       N       E                     dE             d eps       ncg     rms          rms(c)
DAV:   1    -0.304088619057E+03    0.31287E-09   -0.15016E-10   294   0.330E-10    0.224E-10
RMM:   2    -0.304088619057E+03   -0.16735E-09    0.00000E+00     1   0.963E-11
 194 F= -.30408862E+03 E0= -.30413599E+03  d E =0.582077E-10
       N       E                     dE             d eps       ncg     rms          rms(c)
DAV:   1    -0.304088619056E+03    0.11496E-08   -0.20036E-10   294   0.215E-10    0.285E-10
RMM:   2    -0.304088619057E+03   -0.13897E-08    0.00000E+00     1   0.925E-11
 195 F= -.30408862E+03 E0= -.30413599E+03  d E =-.727596E-10
       N       E                     dE             d eps       ncg     rms          rms(c)
DAV:   1    -0.304088619057E+03   -0.61118E-09   -0.11378E-10   294   0.241E-10    0.187E-10
RMM:   2    -0.304088619057E+03   -0.73487E-09    0.00000E+00     1   0.672E-11
 196 F= -.30408862E+03 E0= -.30413599E+03  d E =0.436557E-10
       N       E                     dE             d eps       ncg     rms          rms(c)
DAV:   1    -0.304088619057E+03   -0.53114E-09   -0.12163E-10   294   0.120E-10    0.253E-10
RMM:   2    -0.304088619057E+03   -0.13824E-09    0.00000E+00     1   0.764E-11
 197 F= -.30408862E+03 E0= -.30413599E+03  d E =0.654836E-10
       N       E                     dE             d eps       ncg     rms          rms(c)
DAV:   1    -0.304088619058E+03   -0.77125E-09   -0.12358E-10   294   0.175E-10    0.206E-10
RMM:   2    -0.304088619057E+03    0.59663E-09    0.00000E+00     1   0.675E-11
 198 F= -.30408862E+03 E0= -.30413599E+03  d E =-.363798E-10
       N       E                     dE             d eps       ncg     rms          rms(c)
DAV:   1    -0.304088619057E+03    0.44383E-09   -0.16510E-10   294   0.173E-10    0.253E-10
RMM:   2    -0.304088619057E+03    0.80036E-10    0.00000E+00     1   0.708E-11
 199 F= -.30408862E+03 E0= -.30413599E+03  d E =-.727596E-10
       N       E                     dE             d eps       ncg     rms          rms(c)
DAV:   1    -0.304088619058E+03   -0.17462E-09    0.20091E-11   294   0.916E-11    0.343E-10
RMM:   2    -0.304088619057E+03    0.24011E-09    0.00000E+00     1   0.828E-11
 200 F= -.30408862E+03 E0= -.30413599E+03  d E =-.145519E-10
       N       E                     dE             d eps       ncg     rms          rms(c)
DAV:   1    -0.304088619057E+03    0.25466E-09   -0.15825E-10   294   0.211E-10    0.253E-10
RMM:   2    -0.304088619057E+03    0.12369E-09    0.00000E+00     1   0.959E-11
 201 F= -.30408862E+03 E0= -.30413599E+03  d E =0.138243E-09
       N       E                     dE             d eps       ncg     rms          rms(c)
DAV:   1    -0.304088619057E+03    0.50204E-09   -0.17315E-10   294   0.259E-10    0.234E-10
RMM:   2    -0.304088619057E+03   -0.42928E-09    0.00000E+00     1   0.771E-11
 202 F= -.30408862E+03 E0= -.30413599E+03  d E =-.509317E-10
       N       E                     dE             d eps       ncg     rms          rms(c)
DAV:   1    -0.304088619059E+03   -0.18044E-08   -0.11833E-10   294   0.103E-10    0.327E-10
RMM:   2    -0.304088619057E+03    0.12442E-08    0.00000E+00     1   0.913E-11
 203 F= -.30408862E+03 E0= -.30413599E+03  d E =-.130967E-09
       N       E                     dE             d eps       ncg     rms          rms(c)
DAV:   1    -0.304088619058E+03    0.65484E-09   -0.39728E-11   294   0.264E-10    0.180E-10
RMM:   2    -0.304088619057E+03    0.75670E-09    0.00000E+00     1   0.681E-11
 204 F= -.30408862E+03 E0= -.30413599E+03  d E =0.167347E-09
       N       E                     dE             d eps       ncg     rms          rms(c)
DAV:   1    -0.304088619058E+03    0.72760E-10   -0.68936E-11   294   0.134E-10    0.231E-10
RMM:   2    -0.304088619057E+03    0.61118E-09    0.00000E+00     1   0.671E-11
 205 F= -.30408862E+03 E0= -.30413599E+03  d E =-.727596E-10
       N       E                     dE             d eps       ncg     rms          rms(c)
DAV:   1    -0.304088619059E+03   -0.54570E-09   -0.12935E-10   294   0.191E-10    0.255E-10
RMM:   2    -0.304088619057E+03    0.12587E-08    0.00000E+00     1   0.797E-11
 206 F= -.30408862E+03 E0= -.30413599E+03  d E =0.101863E-09
       N       E                     dE             d eps       ncg     rms          rms(c)
DAV:   1    -0.304088619058E+03    0.36380E-09   -0.97140E-11   294   0.209E-10    0.210E-10
RMM:   2    -0.304088619057E+03    0.78580E-09    0.00000E+00     1   0.740E-11
 207 F= -.30408862E+03 E0= -.30413599E+03  d E =-.109139E-09
       N       E                     dE             d eps       ncg     rms          rms(c)
DAV:   1    -0.304088619056E+03    0.16662E-08    0.64070E-11   294   0.955E-11    0.301E-10
RMM:   2    -0.304088619057E+03   -0.85856E-09    0.00000E+00     1   0.703E-11
 208 F= -.30408862E+03 E0= -.30413599E+03  d E =0.218279E-10
       N       E                     dE             d eps       ncg     rms          rms(c)
DAV:   1    -0.304088619058E+03   -0.14770E-08   -0.99086E-11   294   0.161E-10    0.284E-10
RMM:   2    -0.304088619057E+03    0.53842E-09    0.00000E+00     1   0.868E-11
 209 F= -.30408862E+03 E0= -.30413599E+03  d E =-.800355E-10
       N       E                     dE             d eps       ncg     rms          rms(c)
DAV:   1    -0.304088619056E+03    0.18408E-08   -0.86560E-11   294   0.210E-10    0.210E-10
RMM:   2    -0.304088619057E+03   -0.12587E-08    0.00000E+00     1   0.894E-11
 210 F= -.30408862E+03 E0= -.30413599E+03  d E =0.436557E-10
       N       E                     dE             d eps       ncg     rms          rms(c)
DAV:   1    -0.304088619057E+03   -0.10186E-08   -0.56896E-11   294   0.184E-10    0.290E-10
RMM:   2    -0.304088619057E+03   -0.29104E-09    0.00000E+00     1   0.749E-11
 211 F= -.30408862E+03 E0= -.30413599E+03  d E =-.509317E-10
       N       E                     dE             d eps       ncg     rms          rms(c)
DAV:   1    -0.304088619057E+03   -0.18190E-09    0.13122E-11   294   0.196E-10    0.202E-10
RMM:   2    -0.304088619057E+03   -0.14552E-10    0.00000E+00     1   0.630E-11
 212 F= -.30408862E+03 E0= -.30413599E+03  d E =0.945874E-10
       N       E                     dE             d eps       ncg     rms          rms(c)
DAV:   1    -0.304088619057E+03    0.55297E-09    0.50129E-12   294   0.748E-11    0.288E-10
RMM:   2    -0.304088619057E+03   -0.50932E-09    0.00000E+00     1   0.750E-11
 213 F= -.30408862E+03 E0= -.30413599E+03  d E =0.582077E-10
       N       E                     dE             d eps       ncg     rms          rms(c)
DAV:   1    -0.304088619057E+03   -0.48749E-09    0.19990E-12   294   0.209E-10    0.207E-10
RMM:   2    -0.304088619057E+03   -0.12369E-09    0.00000E+00     1   0.659E-11
 214 F= -.30408862E+03 E0= -.30413599E+03  d E =-.101863E-09
       N       E                     dE             d eps       ncg     rms          rms(c)
DAV:   1    -0.304088619056E+03    0.13970E-08   -0.35781E-11   294   0.969E-11    0.246E-10
RMM:   2    -0.304088619057E+03   -0.14261E-08    0.00000E+00     1   0.709E-11
 215 F= -.30408862E+03 E0= -.30413599E+03  d E =0.945874E-10
       N       E                     dE             d eps       ncg     rms          rms(c)
DAV:   1    -0.304088619058E+03   -0.17026E-08   -0.12653E-10   294   0.172E-10    0.276E-10
RMM:   2    -0.304088619057E+03    0.18190E-09    0.00000E+00     1   0.830E-11
 216 F= -.30408862E+03 E0= -.30413599E+03  d E =-.945874E-10
       N       E                     dE             d eps       ncg     rms          rms(c)
DAV:   1    -0.304088619057E+03    0.53114E-09   -0.89896E-11   294   0.268E-10    0.314E-10
RMM:   2    -0.304088619057E+03   -0.30559E-09    0.00000E+00     1   0.963E-11
 217 F= -.30408862E+03 E0= -.30413599E+03  d E =0.436557E-10
       N       E                     dE             d eps       ncg     rms          rms(c)
DAV:   1    -0.304088619057E+03   -0.38563E-09   -0.75644E-11   294   0.234E-10    0.197E-10
RMM:   2    -0.304088619057E+03    0.29104E-10    0.00000E+00     1   0.800E-11
 218 F= -.30408862E+03 E0= -.30413599E+03  d E =-.509317E-10
       N       E                     dE             d eps       ncg     rms          rms(c)
DAV:   1    -0.304088619057E+03    0.14552E-09    0.89781E-11   294   0.126E-10    0.286E-10
RMM:   2    -0.304088619057E+03   -0.10914E-09    0.00000E+00     1   0.869E-11
 219 F= -.30408862E+03 E0= -.30413599E+03  d E =0.727596E-11
       N       E                     dE             d eps       ncg     rms          rms(c)
DAV:   1    -0.304088619057E+03    0.94587E-10   -0.24826E-12   294   0.215E-10    0.220E-10
RMM:   2    -0.304088619057E+03   -0.16007E-09    0.00000E+00     1   0.811E-11
 220 F= -.30408862E+03 E0= -.30413599E+03  d E =0.436557E-10
       N       E                     dE             d eps       ncg     rms          rms(c)
DAV:   1    -0.304088619057E+03    0.24738E-09   -0.46984E-11   294   0.164E-10    0.305E-10
RMM:   2    -0.304088619057E+03   -0.37835E-09    0.00000E+00     1   0.928E-11
 221 F= -.30408862E+03 E0= -.30413599E+03  d E =0.291038E-10
       N       E                     dE             d eps       ncg     rms          rms(c)
DAV:   1    -0.304088619057E+03    0.33469E-09    0.11489E-10   294   0.307E-10    0.209E-10
RMM:   2    -0.304088619057E+03   -0.79308E-09    0.00000E+00     1   0.949E-11
 222 F= -.30408862E+03 E0= -.30413599E+03  d E =-.800355E-10
       N       E                     dE             d eps       ncg     rms          rms(c)
DAV:   1    -0.304088619058E+03   -0.18917E-08    0.21767E-11   294   0.257E-10    0.290E-10
RMM:   2    -0.304088619057E+03    0.11059E-08    0.00000E+00     1   0.102E-10
 223 F= -.30408862E+03 E0= -.30413599E+03  d E =0.727596E-11
       N       E                     dE             d eps       ncg     rms          rms(c)
DAV:   1    -0.304088619058E+03    0.96043E-09   -0.13110E-10   294   0.264E-10    0.324E-10
RMM:   2    -0.304088619057E+03    0.16735E-09    0.00000E+00     1   0.815E-11
 224 F= -.30408862E+03 E0= -.30413599E+03  d E =0.218279E-10
       N       E                     dE             d eps       ncg     rms          rms(c)
DAV:   1    -0.304088619058E+03   -0.34197E-09    0.11786E-11   294   0.213E-10    0.237E-10
RMM:   2    -0.304088619057E+03    0.50932E-09    0.00000E+00     1   0.724E-11
 225 F= -.30408862E+03 E0= -.30413599E+03  d E =0.000000E+00
       N       E                     dE             d eps       ncg     rms          rms(c)
DAV:   1    -0.304088619057E+03    0.74942E-09   -0.11628E-10   294   0.195E-10    0.251E-10
RMM:   2    -0.304088619057E+03   -0.17462E-09    0.00000E+00     1   0.852E-11
 226 F= -.30408862E+03 E0= -.30413599E+03  d E =0.654836E-10
       N       E                     dE             d eps       ncg     rms          rms(c)
DAV:   1    -0.304088619057E+03   -0.35652E-09   -0.17272E-12   294   0.269E-10    0.211E-10
RMM:   2    -0.304088619057E+03    0.18917E-09    0.00000E+00     1   0.849E-11
 227 F= -.30408862E+03 E0= -.30413599E+03  d E =0.727596E-11
       N       E                     dE             d eps       ncg     rms          rms(c)
DAV:   1    -0.304088619056E+03    0.10259E-08    0.16758E-11   294   0.194E-10    0.227E-10
RMM:   2    -0.304088619057E+03   -0.93132E-09    0.00000E+00     1   0.754E-11
 228 F= -.30408862E+03 E0= -.30413599E+03  d E =-.945874E-10
       N       E                     dE             d eps       ncg     rms          rms(c)
DAV:   1    -0.304088619057E+03   -0.55297E-09   -0.16286E-10   294   0.196E-10    0.278E-10
RMM:   2    -0.304088619057E+03   -0.45111E-09    0.00000E+00     0   0.734E-11
 229 F= -.30408862E+03 E0= -.30413599E+03  d E =-.727596E-10
       N       E                     dE             d eps       ncg     rms          rms(c)
DAV:   1    -0.304088619056E+03    0.69849E-09    0.12057E-10   294   0.246E-10    0.158E-10
RMM:   2    -0.304088619057E+03   -0.11059E-08    0.00000E+00     1   0.642E-11
 230 F= -.30408862E+03 E0= -.30413599E+03  d E =0.436557E-10
       N       E                     dE             d eps       ncg     rms          rms(c)
DAV:   1    -0.304088619058E+03   -0.16662E-08   -0.99489E-11   294   0.110E-10    0.257E-10
RMM:   2    -0.304088619057E+03    0.53114E-09    0.00000E+00     1   0.735E-11
 231 F= -.30408862E+03 E0= -.30413599E+03  d E =-.291038E-10
       N       E                     dE             d eps       ncg     rms          rms(c)
DAV:   1    -0.304088619056E+03    0.15571E-08   -0.12555E-10   294   0.263E-10    0.234E-10
RMM:   2    -0.304088619057E+03   -0.96043E-09    0.00000E+00     0   0.723E-11
 232 F= -.30408862E+03 E0= -.30413599E+03  d E =0.654836E-10
       N       E                     dE             d eps       ncg     rms          rms(c)
DAV:   1    -0.304088619057E+03   -0.49477E-09   -0.19362E-10   294   0.199E-10    0.233E-10
RMM:   2    -0.304088619057E+03   -0.34925E-09    0.00000E+00     1   0.680E-11
 233 F= -.30408862E+03 E0= -.30413599E+03  d E =0.116415E-09
       N       E                     dE             d eps       ncg     rms          rms(c)
DAV:   1    -0.304088619058E+03   -0.58935E-09   -0.22630E-11   294   0.272E-10    0.156E-10
RMM:   2    -0.304088619057E+03    0.21100E-09    0.00000E+00     1   0.640E-11
 234 F= -.30408862E+03 E0= -.30413599E+03  d E =-.291038E-10
       N       E                     dE             d eps       ncg     rms          rms(c)
DAV:   1    -0.304088619057E+03    0.54570E-09   -0.25175E-11   294   0.102E-10    0.224E-10
RMM:   2    -0.304088619058E+03   -0.54570E-09    0.00000E+00     0   0.691E-11
 235 F= -.30408862E+03 E0= -.30413599E+03  d E =-.211003E-09
       N       E                     dE             d eps       ncg     rms          rms(c)
DAV:   1    -0.304088619056E+03    0.73487E-09    0.31330E-11   294   0.145E-10    0.268E-10
RMM:   2    -0.304088619057E+03   -0.11496E-08    0.00000E+00     1   0.740E-11
 236 F= -.30408862E+03 E0= -.30413599E+03  d E =0.130967E-09
       N       E                     dE             d eps       ncg     rms          rms(c)
DAV:   1    -0.304088619059E+03   -0.28740E-08   -0.31487E-10   294   0.175E-10    0.217E-10
RMM:   2    -0.304088619057E+03    0.16807E-08    0.00000E+00     1   0.714E-11
 237 F= -.30408862E+03 E0= -.30413599E+03  d E =-.436557E-10
       N       E                     dE             d eps       ncg     rms          rms(c)
DAV:   1    -0.304088619057E+03    0.22555E-08   -0.22704E-10   294   0.186E-10    0.315E-10
RMM:   2    -0.304088619057E+03   -0.51659E-09    0.00000E+00     0   0.973E-11
 238 F= -.30408862E+03 E0= -.30413599E+03  d E =0.582077E-10
       N       E                     dE             d eps       ncg     rms          rms(c)
DAV:   1    -0.304088619057E+03   -0.14552E-10   -0.19527E-10   294   0.351E-10    0.225E-10
RMM:   2    -0.304088619057E+03   -0.45111E-09    0.00000E+00     0   0.100E-10
 239 F= -.30408862E+03 E0= -.30413599E+03  d E =0.509317E-10
       N       E                     dE             d eps       ncg     rms          rms(c)
DAV:   1    -0.304088619057E+03   -0.56752E-09   -0.72376E-11   294   0.287E-10    0.280E-10
RMM:   2    -0.304088619057E+03    0.10186E-09    0.00000E+00     0   0.863E-11
 240 F= -.30408862E+03 E0= -.30413599E+03  d E =-.145519E-10
[...]
 439 F= -.30408862E+03 E0= -.30413599E+03  d E =-.116415E-09
       N       E                     dE             d eps       ncg     rms          rms(c)
DAV:   1    -0.304088619057E+03    0.21828E-09   -0.65342E-11   294   0.134E-10    0.314E-10
RMM:   2    -0.304088619057E+03    0.87311E-10    0.00000E+00     0   0.882E-11
 440 F= -.30408862E+03 E0= -.30413599E+03  d E =0.727596E-10
       N       E                     dE             d eps       ncg     rms          rms(c)
DAV:   1    -0.304088619057E+03    0.34925E-09   -0.92687E-11   294   0.295E-10    0.218E-10
RMM:   2    -0.304088619057E+03   -0.30559E-09    0.00000E+00     0   0.869E-11
 441 F= -.30408862E+03 E0= -.30413599E+03  d E =-.436557E-10
       N       E                     dE             d eps       ncg     rms          rms(c)
DAV:   1    -0.304088619056E+03    0.80763E-09   -0.23212E-11   294   0.200E-10    0.247E-10
RMM:   2    -0.304088619057E+03   -0.10550E-08    0.00000E+00     0   0.975E-11
 442 F= -.30408862E+03 E0= -.30413599E+03  d E =0.582077E-10
       N       E                     dE             d eps       ncg     rms          rms(c)
DAV:   1    -0.304088619057E+03   -0.82218E-09   -0.22317E-10   294   0.232E-10    0.356E-10
RMM:   2    -0.304088619057E+03   -0.24738E-09    0.00000E+00     0   0.109E-10
 443 F= -.30408862E+03 E0= -.30413599E+03  d E =-.145519E-10
       N       E                     dE             d eps       ncg     rms          rms(c)
DAV:   1    -0.304088619056E+03    0.11933E-08   -0.19389E-11   294   0.357E-10    0.171E-10
RMM:   2    -0.304088619057E+03   -0.13388E-08    0.00000E+00     0   0.727E-11
 444 F= -.30408862E+03 E0= -.30413599E+03  d E =0.101863E-09
       N       E                     dE             d eps       ncg     rms          rms(c)
DAV:   1    -0.304088619056E+03   -0.72760E-11    0.68479E-11   294   0.224E-10    0.177E-10
RMM:   2    -0.304088619057E+03   -0.15134E-08    0.00000E+00     0   0.772E-11
 445 F= -.30408862E+03 E0= -.30413599E+03  d E =-.181899E-09
       N       E                     dE             d eps       ncg     rms          rms(c)
DAV:   1    -0.304088619058E+03   -0.21828E-08   -0.15743E-10   294   0.154E-10    0.246E-10
RMM:   2    -0.304088619057E+03    0.64028E-09    0.00000E+00     0   0.931E-11
 446 F= -.30408862E+03 E0= -.30413599E+03  d E =-.291038E-10
       N       E                     dE             d eps       ncg     rms          rms(c)
DAV:   1    -0.304088619058E+03    0.17462E-09   -0.17386E-10   294   0.221E-10    0.235E-10
RMM:   2    -0.304088619057E+03    0.50204E-09    0.00000E+00     0   0.633E-11
 447 F= -.30408862E+03 E0= -.30413599E+03  d E =0.363798E-10
       N       E                     dE             d eps       ncg     rms          rms(c)
DAV:   1    -0.304088619056E+03    0.14043E-08   -0.63052E-11   294   0.102E-10    0.289E-10
RMM:   2    -0.304088619057E+03   -0.82218E-09    0.00000E+00     0   0.780E-11
 448 F= -.30408862E+03 E0= -.30413599E+03  d E =0.800355E-10
       N       E                     dE             d eps       ncg     rms          rms(c)
DAV:   1    -0.304088619058E+03   -0.17535E-08   -0.14004E-10   294   0.179E-10    0.269E-10
RMM:   2    -0.304088619057E+03    0.96043E-09    0.00000E+00     0   0.674E-11
 449 F= -.30408862E+03 E0= -.30413599E+03  d E =0.291038E-10
       N       E                     dE             d eps       ncg     rms          rms(c)
DAV:   1    -0.304088619057E+03    0.11933E-08   -0.10152E-10   294   0.128E-10    0.268E-10
RMM:   2    -0.304088619057E+03   -0.31287E-09    0.00000E+00     0   0.788E-11
 450 F= -.30408862E+03 E0= -.30413599E+03  d E =-.800355E-10
       N       E                     dE             d eps       ncg     rms          rms(c)
DAV:   1    -0.304088619058E+03   -0.85856E-09   -0.17177E-10   294   0.230E-10    0.305E-10
RMM:   2    -0.304088619057E+03    0.49477E-09    0.00000E+00     0   0.880E-11
 451 F= -.30408862E+03 E0= -.30413599E+03  d E =-.509317E-10
       N       E                     dE             d eps       ncg     rms          rms(c)
DAV:   1    -0.304088619056E+03    0.18335E-08   -0.10011E-10   294   0.305E-10    0.227E-10
RMM:   2    -0.304088619057E+03   -0.12733E-08    0.00000E+00     0   0.927E-11
 452 F= -.30408862E+03 E0= -.30413599E+03  d E =0.654836E-10
       N       E                     dE             d eps       ncg     rms          rms(c)
DAV:   1    -0.304088619057E+03   -0.10841E-08   -0.25178E-11   294   0.239E-10    0.219E-10
RMM:   2    -0.304088619057E+03   -0.29831E-09    0.00000E+00     0   0.695E-11
 453 F= -.30408862E+03 E0= -.30413599E+03  d E =-.109139E-09
       N       E                     dE             d eps       ncg     rms          rms(c)
DAV:   1    -0.304088619057E+03    0.11642E-09    0.38115E-11   294   0.110E-10    0.334E-10
RMM:   2    -0.304088619057E+03   -0.27649E-09    0.00000E+00     0   0.941E-11
 454 F= -.30408862E+03 E0= -.30413599E+03  d E =0.138243E-09
       N       E                     dE             d eps       ncg     rms          rms(c)
DAV:   1    -0.304088619056E+03    0.11714E-08   -0.25349E-10   294   0.358E-10    0.242E-10
RMM:   2    -0.304088619057E+03   -0.15280E-08    0.00000E+00     0   0.866E-11
 455 F= -.30408862E+03 E0= -.30413599E+03  d E =-.800355E-10
       N       E                     dE             d eps       ncg     rms          rms(c)
DAV:   1    -0.304088619058E+03   -0.16516E-08    0.27946E-11   294   0.194E-10    0.253E-10
RMM:   2    -0.304088619057E+03    0.24011E-09    0.00000E+00     0   0.746E-11
 456 F= -.30408862E+03 E0= -.30413599E+03  d E =0.116415E-09
       N       E                     dE             d eps       ncg     rms          rms(c)
DAV:   1    -0.304088619058E+03   -0.60390E-09   -0.21884E-10   294   0.193E-10    0.332E-10
RMM:   2    -0.304088619057E+03    0.82946E-09    0.00000E+00     0   0.842E-11
 457 F= -.30408862E+03 E0= -.30413599E+03  d E =-.145519E-10
       N       E                     dE             d eps       ncg     rms          rms(c)
DAV:   1    -0.304088619058E+03    0.60390E-09    0.11830E-10   294   0.301E-10    0.239E-10
RMM:   2    -0.304088619057E+03    0.25466E-09    0.00000E+00     0   0.812E-11
 458 F= -.30408862E+03 E0= -.30413599E+03  d E =0.291038E-10
       N       E                     dE             d eps       ncg     rms          rms(c)
DAV:   1    -0.304088619057E+03    0.45111E-09    0.60400E-11   294   0.273E-10    0.189E-10
RMM:   2    -0.304088619057E+03   -0.31287E-09    0.00000E+00     0   0.799E-11
 459 F= -.30408862E+03 E0= -.30413599E+03  d E =-.116415E-09
       N       E                     dE             d eps       ncg     rms          rms(c)
DAV:   1    -0.304088619058E+03   -0.62573E-09   -0.18894E-10   294   0.188E-10    0.235E-10
RMM:   2    -0.304088619057E+03    0.30559E-09    0.00000E+00     0   0.689E-11
 460 F= -.30408862E+03 E0= -.30413599E+03  d E =-.727596E-11
       N       E                     dE             d eps       ncg     rms          rms(c)
DAV:   1    -0.304088619059E+03   -0.11278E-08   -0.37745E-11   294   0.163E-10    0.319E-10
RMM:   2    -0.304088619057E+03    0.14479E-08    0.00000E+00     0   0.838E-11
 461 F= -.30408862E+03 E0= -.30413599E+03  d E =0.145519E-10
       N       E                     dE             d eps       ncg     rms          rms(c)
DAV:   1    -0.304088619057E+03    0.19791E-08   -0.13780E-10   294   0.167E-10    0.285E-10
RMM:   2    -0.304088619057E+03   -0.46566E-09    0.00000E+00     0   0.805E-11
 462 F= -.30408862E+03 E0= -.30413599E+03  d E =0.654836E-10
       N       E                     dE             d eps       ncg     rms          rms(c)
DAV:   1    -0.304088619058E+03   -0.10332E-08   -0.45278E-11   294   0.151E-10    0.290E-10
RMM:   2    -0.304088619057E+03    0.53842E-09    0.00000E+00     0   0.913E-11
 463 F= -.30408862E+03 E0= -.30413599E+03  d E =-.291038E-10
       N       E                     dE             d eps       ncg     rms          rms(c)
DAV:   1    -0.304088619057E+03    0.48021E-09    0.33841E-11   294   0.330E-10    0.255E-10
RMM:   2    -0.304088619057E+03    0.80036E-10    0.00000E+00     0   0.897E-11
 464 F= -.30408862E+03 E0= -.30413599E+03  d E =0.218279E-10
       N       E                     dE             d eps       ncg     rms          rms(c)
DAV:   1    -0.304088619057E+03    0.40745E-09   -0.14007E-10   294   0.290E-10    0.341E-10
RMM:   2    -0.304088619057E+03   -0.33469E-09    0.00000E+00     0   0.101E-10
 465 F= -.30408862E+03 E0= -.30413599E+03  d E =-.727596E-11
       N       E                     dE             d eps       ncg     rms          rms(c)
DAV:   1    -0.304088619058E+03   -0.93860E-09   -0.49096E-11   294   0.356E-10    0.243E-10
RMM:   2    -0.304088619057E+03    0.56025E-09    0.00000E+00     0   0.752E-11
 466 F= -.30408862E+03 E0= -.30413599E+03  d E =-.436557E-10
       N       E                     dE             d eps       ncg     rms          rms(c)
DAV:   1    -0.304088619060E+03   -0.20445E-08   -0.44305E-11   294   0.247E-10    0.294E-10
RMM:   2    -0.304088619057E+03    0.26193E-08    0.00000E+00     0   0.910E-11
 467 F= -.30408862E+03 E0= -.30413599E+03  d E =0.145519E-10
       N       E                     dE             d eps       ncg     rms          rms(c)
DAV:   1    -0.304088619058E+03    0.20373E-08   -0.27119E-10   294   0.233E-10    0.208E-10
RMM:   2    -0.304088619057E+03    0.51659E-09    0.00000E+00     0   0.870E-11
 468 F= -.30408862E+03 E0= -.30413599E+03  d E =-.654836E-10
       N       E                     dE             d eps       ncg     rms          rms(c)
DAV:   1    -0.304088619058E+03    0.37107E-09   -0.20735E-10   294   0.241E-10    0.212E-10
RMM:   2    -0.304088619057E+03    0.23283E-09    0.00000E+00     0   0.666E-11
 469 F= -.30408862E+03 E0= -.30413599E+03  d E =0.873115E-10
       N       E                     dE             d eps       ncg     rms          rms(c)
DAV:   1    -0.304088619056E+03    0.12878E-08   -0.11698E-10   294   0.969E-11    0.218E-10
RMM:   2    -0.304088619057E+03   -0.11423E-08    0.00000E+00     0   0.690E-11
 470 F= -.30408862E+03 E0= -.30413599E+03  d E =-.873115E-10
       N       E                     dE             d eps       ncg     rms          rms(c)
DAV:   1    -0.304088619057E+03   -0.50204E-09   -0.22757E-10   294   0.172E-10    0.191E-10
RMM:   2    -0.304088619057E+03   -0.61118E-09    0.00000E+00     0   0.703E-11
 471 F= -.30408862E+03 E0= -.30413599E+03  d E =0.291038E-10
       N       E                     dE             d eps       ncg     rms          rms(c)
DAV:   1    -0.304088619056E+03    0.10186E-08   -0.14422E-10   294   0.164E-10    0.236E-10
RMM:   2    -0.304088619057E+03   -0.15934E-08    0.00000E+00     0   0.678E-11
 472 F= -.30408862E+03 E0= -.30413599E+03  d E =0.363798E-10
       N       E                     dE             d eps       ncg     rms          rms(c)
DAV:   1    -0.304088619057E+03   -0.17026E-08   -0.20271E-10   294   0.187E-10    0.265E-10
RMM:   2    -0.304088619057E+03    0.17462E-09    0.00000E+00     0   0.695E-11
 473 F= -.30408862E+03 E0= -.30413599E+03  d E =0.654836E-10
       N       E                     dE             d eps       ncg     rms          rms(c)
DAV:   1    -0.304088619055E+03    0.19863E-08   -0.16554E-10   294   0.154E-10    0.311E-10
RMM:   2    -0.304088619057E+03   -0.19281E-08    0.00000E+00     0   0.744E-11
 474 F= -.30408862E+03 E0= -.30413599E+03  d E =-.116415E-09
       N       E                     dE             d eps       ncg     rms          rms(c)
DAV:   1    -0.304088619058E+03   -0.21973E-08   -0.14012E-10   294   0.252E-10    0.173E-10
RMM:   2    -0.304088619057E+03    0.26193E-09    0.00000E+00     0   0.696E-11
 475 F= -.30408862E+03 E0= -.30413599E+03  d E =-.727596E-11
       N       E                     dE             d eps       ncg     rms          rms(c)
DAV:   1    -0.304088619056E+03    0.12587E-08   -0.66157E-11   294   0.127E-10    0.272E-10
RMM:   2    -0.304088619057E+03   -0.10405E-08    0.00000E+00     0   0.927E-11
 476 F= -.30408862E+03 E0= -.30413599E+03  d E =-.436557E-10
       N       E                     dE             d eps       ncg     rms          rms(c)
DAV:   1    -0.304088619056E+03    0.13824E-09   -0.13532E-10   294   0.273E-10    0.222E-10
RMM:   2    -0.304088619057E+03   -0.11132E-08    0.00000E+00     0   0.708E-11
 477 F= -.30408862E+03 E0= -.30413599E+03  d E =0.654836E-10
       N       E                     dE             d eps       ncg     rms          rms(c)
DAV:   1    -0.304088619057E+03   -0.10696E-08   -0.14298E-10   294   0.197E-10    0.138E-10
RMM:   2    -0.304088619057E+03   -0.14552E-10    0.00000E+00     0   0.654E-11
 478 F= -.30408862E+03 E0= -.30413599E+03  d E =0.291038E-10
       N       E                     dE             d eps       ncg     rms          rms(c)
DAV:   1    -0.304088619057E+03    0.58208E-09   -0.28020E-10   294   0.152E-10    0.189E-10
RMM:   2    -0.304088619057E+03   -0.56752E-09    0.00000E+00     0   0.704E-11
 479 F= -.30408862E+03 E0= -.30413599E+03  d E =0.291038E-10
       N       E                     dE             d eps       ncg     rms          rms(c)
DAV:   1    -0.304088619057E+03   -0.67666E-09    0.50224E-11   294   0.160E-10    0.253E-10
RMM:   2    -0.304088619057E+03    0.16007E-09    0.00000E+00     0   0.788E-11
 480 F= -.30408862E+03 E0= -.30413599E+03  d E =0.509317E-10
       N       E                     dE             d eps       ncg     rms          rms(c)
DAV:   1    -0.304088619057E+03    0.87311E-09   -0.11685E-10   294   0.178E-10    0.244E-10
RMM:   2    -0.304088619057E+03   -0.71304E-09    0.00000E+00     0   0.885E-11
 481 F= -.30408862E+03 E0= -.30413599E+03  d E =0.000000E+00
       N       E                     dE             d eps       ncg     rms          rms(c)
DAV:   1    -0.304088619058E+03   -0.15352E-08    0.48526E-11   294   0.191E-10    0.312E-10
RMM:   2    -0.304088619057E+03    0.80036E-09    0.00000E+00     0   0.785E-11
 482 F= -.30408862E+03 E0= -.30413599E+03  d E =-.218279E-10
       N       E                     dE             d eps       ncg     rms          rms(c)
DAV:   1    -0.304088619058E+03    0.35652E-09   -0.99497E-11   294   0.173E-10    0.266E-10
RMM:   2    -0.304088619057E+03    0.39290E-09    0.00000E+00     0   0.676E-11
 483 F= -.30408862E+03 E0= -.30413599E+03  d E =-.509317E-10
       N       E                     dE             d eps       ncg     rms          rms(c)
DAV:   1    -0.304088619057E+03    0.83674E-09   -0.13978E-11   294   0.125E-10    0.250E-10
RMM:   2    -0.304088619057E+03   -0.49477E-09    0.00000E+00     0   0.764E-11
 484 F= -.30408862E+03 E0= -.30413599E+03  d E =-.509317E-10
       N       E                     dE             d eps       ncg     rms          rms(c)
DAV:   1    -0.304088619057E+03   -0.11642E-09   -0.81348E-11   294   0.214E-10    0.234E-10
RMM:   2    -0.304088619057E+03   -0.34925E-09    0.00000E+00     0   0.796E-11
 485 F= -.30408862E+03 E0= -.30413599E+03  d E =0.291038E-10
       N       E                     dE             d eps       ncg     rms          rms(c)
DAV:   1    -0.304088619057E+03    0.49477E-09   -0.11204E-11   294   0.241E-10    0.272E-10
RMM:   2    -0.304088619057E+03   -0.82946E-09    0.00000E+00     0   0.789E-11
 486 F= -.30408862E+03 E0= -.30413599E+03  d E =0.145519E-10
       N       E                     dE             d eps       ncg     rms          rms(c)
DAV:   1    -0.304088619058E+03   -0.98225E-09   -0.16385E-10   294   0.248E-10    0.205E-10
RMM:   2    -0.304088619057E+03    0.22555E-09    0.00000E+00     0   0.848E-11
 487 F= -.30408862E+03 E0= -.30413599E+03  d E =0.727596E-10
       N       E                     dE             d eps       ncg     rms          rms(c)
DAV:   1    -0.304088619057E+03    0.43656E-10    0.12037E-11   294   0.232E-10    0.245E-10
RMM:   2    -0.304088619057E+03    0.11642E-09    0.00000E+00     0   0.750E-11
 488 F= -.30408862E+03 E0= -.30413599E+03  d E =-.654836E-10
       N       E                     dE             d eps       ncg     rms          rms(c)
DAV:   1    -0.304088619058E+03   -0.36380E-09   -0.22273E-10   294   0.192E-10    0.267E-10
RMM:   2    -0.304088619057E+03    0.40018E-09    0.00000E+00     0   0.771E-11
 489 F= -.30408862E+03 E0= -.30413599E+03  d E =-.800355E-10
       N       E                     dE             d eps       ncg     rms          rms(c)
DAV:   1    -0.304088619058E+03   -0.72760E-10   -0.91290E-11   294   0.128E-10    0.347E-10
RMM:   2    -0.304088619057E+03    0.61846E-09    0.00000E+00     0   0.784E-11
 490 F= -.30408862E+03 E0= -.30413599E+03  d E =0.145519E-09
       N       E                     dE             d eps       ncg     rms          rms(c)
DAV:   1    -0.304088619057E+03    0.12733E-08   -0.52506E-11   294   0.183E-10    0.196E-10
RMM:   2    -0.304088619057E+03   -0.75670E-09    0.00000E+00     0   0.711E-11
 491 F= -.30408862E+03 E0= -.30413599E+03  d E =-.101863E-09
       N       E                     dE             d eps       ncg     rms          rms(c)
DAV:   1    -0.304088619056E+03    0.48021E-09    0.12765E-10   294   0.160E-10    0.199E-10
RMM:   2    -0.304088619057E+03   -0.11787E-08    0.00000E+00     0   0.665E-11
 492 F= -.30408862E+03 E0= -.30413599E+03  d E =0.582077E-10
       N       E                     dE             d eps       ncg     rms          rms(c)
DAV:   1    -0.304088619057E+03   -0.10405E-08   -0.10179E-10   294   0.135E-10    0.206E-10
RMM:   2    -0.304088619057E+03   -0.23283E-09    0.00000E+00     0   0.665E-11
 493 F= -.30408862E+03 E0= -.30413599E+03  d E =-.945874E-10
       N       E                     dE             d eps       ncg     rms          rms(c)
DAV:   1    -0.304088619056E+03    0.10405E-08   -0.69490E-11   294   0.137E-10    0.307E-10
RMM:   2    -0.304088619057E+03   -0.11642E-08    0.00000E+00     0   0.808E-11
 494 F= -.30408862E+03 E0= -.30413599E+03  d E =0.109139E-09
       N       E                     dE             d eps       ncg     rms          rms(c)
DAV:   1    -0.304088619056E+03    0.29104E-09   -0.34651E-11   294   0.207E-10    0.286E-10
RMM:   2    -0.304088619057E+03   -0.14625E-08    0.00000E+00     0   0.826E-11
 495 F= -.30408862E+03 E0= -.30413599E+03  d E =-.727596E-11
       N       E                     dE             d eps       ncg     rms          rms(c)
DAV:   1    -0.304088619058E+03   -0.23065E-08   -0.11238E-10   294   0.270E-10    0.256E-10
RMM:   2    -0.304088619057E+03    0.83674E-09    0.00000E+00     0   0.910E-11
 496 F= -.30408862E+03 E0= -.30413599E+03  d E =-.727596E-11
       N       E                     dE             d eps       ncg     rms          rms(c)
DAV:   1    -0.304088619057E+03    0.93860E-09   -0.11861E-10   294   0.239E-10    0.299E-10
RMM:   2    -0.304088619057E+03   -0.11642E-09    0.00000E+00     0   0.759E-11
 497 F= -.30408862E+03 E0= -.30413599E+03  d E =-.145519E-10
       N       E                     dE             d eps       ncg     rms          rms(c)
DAV:   1    -0.304088619057E+03    0.17462E-09   -0.13086E-10   294   0.176E-10    0.307E-10
RMM:   2    -0.304088619057E+03   -0.29831E-09    0.00000E+00     0   0.863E-11
 498 F= -.30408862E+03 E0= -.30413599E+03  d E =-.727596E-11
       N       E                     dE             d eps       ncg     rms          rms(c)
DAV:   1    -0.304088619056E+03    0.11787E-08    0.68703E-11   294   0.206E-10    0.171E-10
RMM:   2    -0.304088619057E+03   -0.14697E-08    0.00000E+00     0   0.629E-11
 499 F= -.30408862E+03 E0= -.30413599E+03  d E =0.727596E-11
       N       E                     dE             d eps       ncg     rms          rms(c)
DAV:   1    -0.304088619056E+03   -0.38563E-09   -0.46023E-11   294   0.142E-10    0.317E-10
RMM:   2    -0.304088619057E+03   -0.10550E-08    0.00000E+00     0   0.910E-11
 500 F= -.30408862E+03 E0= -.30413599E+03  d E =0.291038E-10
