  28  28   0   0
  0.2302401E+02  0.8638659E-09  0.8638659E-09  0.8638659E-09  0.5000000E-15
   1.0000000000000000E-004
  CAR 
 unknown system                          
     11.72794881    -22.60623763  301      2.35757709      1.00000000
    -22.606  0.0000E+00  0.0000E+00
    -22.492  0.0000E+00  0.0000E+00
    -22.377  0.0000E+00  0.0000E+00
    -22.263  0.0000E+00  0.0000E+00
    -22.148  0.0000E+00  0.0000E+00
    -22.034  0.0000E+00  0.0000E+00
    -21.920  0.0000E+00  0.0000E+00
    -21.805  0.0000E+00  0.0000E+00
    -21.691  0.0000E+00  0.0000E+00
    -21.576  0.0000E+00  0.0000E+00
    -21.462  0.0000E+00  0.0000E+00
    -21.347  0.0000E+00  0.0000E+00
    -21.233  0.7939E-07  0.9086E-08
    -21.118  0.2902E-01  0.3321E-02
    -21.004  0.1677E+01  0.1953E+00
    -20.890  0.3908E+00  0.2400E+00
    -20.775  0.7874E-04  0.2400E+00
    -20.661  0.5250E-09  0.2400E+00
    -20.546  0.2991E-02  0.2403E+00
    -20.432  0.1268E+01  0.3854E+00
    -20.317  0.2380E+01  0.6578E+00
    -20.203  0.5436E+00  0.7200E+00
    -20.088  0.1656E-03  0.7200E+00
    -19.974  0.4126E-11  0.7200E+00
    -19.860  0.0000E+00  0.7200E+00
    -19.745  0.0000E+00  0.7200E+00
    -19.631  0.0000E+00  0.7200E+00
    -19.516  0.0000E+00  0.7200E+00
    -19.402  0.0000E+00  0.7200E+00
    -19.287  0.0000E+00  0.7200E+00
    -19.173  0.0000E+00  0.7200E+00
    -19.058  0.0000E+00  0.7200E+00
    -18.944  0.0000E+00  0.7200E+00
    -18.829  0.0000E+00  0.7200E+00
    -18.715  0.0000E+00  0.7200E+00
    -18.601  0.0000E+00  0.7200E+00
    -18.486  0.0000E+00  0.7200E+00
    -18.372  0.0000E+00  0.7200E+00
    -18.257  0.0000E+00  0.7200E+00
    -18.143  0.0000E+00  0.7200E+00
    -18.028  0.0000E+00  0.7200E+00
    -17.914  0.0000E+00  0.7200E+00
    -17.799  0.0000E+00  0.7200E+00
    -17.685  0.0000E+00  0.7200E+00
    -17.571  0.0000E+00  0.7200E+00
    -17.456  0.0000E+00  0.7200E+00
    -17.342  0.0000E+00  0.7200E+00
    -17.227  0.0000E+00  0.7200E+00
    -17.113  0.0000E+00  0.7200E+00
    -16.998  0.0000E+00  0.7200E+00
    -16.884  0.0000E+00  0.7200E+00
    -16.769  0.0000E+00  0.7200E+00
    -16.655  0.0000E+00  0.7200E+00
    -16.541  0.0000E+00  0.7200E+00
    -16.426  0.0000E+00  0.7200E+00
    -16.312  0.0000E+00  0.7200E+00
    -16.197  0.0000E+00  0.7200E+00
    -16.083  0.0000E+00  0.7200E+00
    -15.968  0.0000E+00  0.7200E+00
    -15.854  0.0000E+00  0.7200E+00
    -15.739  0.0000E+00  0.7200E+00
    -15.625  0.0000E+00  0.7200E+00
    -15.511  0.0000E+00  0.7200E+00
    -15.396  0.0000E+00  0.7200E+00
    -15.282  0.0000E+00  0.7200E+00
    -15.167  0.0000E+00  0.7200E+00
    -15.053  0.0000E+00  0.7200E+00
    -14.938  0.0000E+00  0.7200E+00
    -14.824  0.0000E+00  0.7200E+00
    -14.709  0.0000E+00  0.7200E+00
    -14.595  0.0000E+00  0.7200E+00
    -14.480  0.0000E+00  0.7200E+00
    -14.366  0.0000E+00  0.7200E+00
    -14.252  0.0000E+00  0.7200E+00
    -14.137  0.0000E+00  0.7200E+00
    -14.023  0.0000E+00  0.7200E+00
    -13.908  0.0000E+00  0.7200E+00
    -13.794  0.0000E+00  0.7200E+00
    -13.679  0.0000E+00  0.7200E+00
    -13.565  0.0000E+00  0.7200E+00
    -13.450  0.0000E+00  0.7200E+00
    -13.336  0.0000E+00  0.7200E+00
    -13.222  0.0000E+00  0.7200E+00
    -13.107  0.0000E+00  0.7200E+00
    -12.993  0.0000E+00  0.7200E+00
    -12.878  0.0000E+00  0.7200E+00
    -12.764  0.0000E+00  0.7200E+00
    -12.649  0.0000E+00  0.7200E+00
    -12.535  0.0000E+00  0.7200E+00
    -12.420  0.0000E+00  0.7200E+00
    -12.306  0.0000E+00  0.7200E+00
    -12.192  0.0000E+00  0.7200E+00
    -12.077  0.0000E+00  0.7200E+00
    -11.963  0.0000E+00  0.7200E+00
    -11.848  0.0000E+00  0.7200E+00
    -11.734  0.0000E+00  0.7200E+00
    -11.619  0.0000E+00  0.7200E+00
    -11.505  0.0000E+00  0.7200E+00
    -11.390  0.0000E+00  0.7200E+00
    -11.276  0.0000E+00  0.7200E+00
    -11.162  0.0000E+00  0.7200E+00
    -11.047  0.0000E+00  0.7200E+00
    -10.933  0.0000E+00  0.7200E+00
    -10.818  0.0000E+00  0.7200E+00
    -10.704  0.0000E+00  0.7200E+00
    -10.589  0.0000E+00  0.7200E+00
    -10.475  0.7422E-09  0.7200E+00
    -10.360  0.3366E-03  0.7200E+00
    -10.246  0.1882E-01  0.7222E+00
    -10.131  0.1032E+00  0.7340E+00
    -10.017  0.3804E+00  0.7775E+00
     -9.903  0.1942E+00  0.7998E+00
     -9.788  0.2027E-02  0.8000E+00
     -9.674  0.2857E-08  0.8000E+00
     -9.559  0.0000E+00  0.8000E+00
     -9.445  0.0000E+00  0.8000E+00
     -9.330  0.0000E+00  0.8000E+00
     -9.216  0.1256E-12  0.8000E+00
     -9.101  0.8167E-05  0.8000E+00
     -8.987  0.4371E-01  0.8050E+00
     -8.873  0.5721E+00  0.8705E+00
     -8.758  0.6519E+00  0.9451E+00
     -8.644  0.1302E+00  0.9600E+00
     -8.529  0.8164E-04  0.9600E+00
     -8.415  0.7875E-11  0.9600E+00
     -8.300  0.0000E+00  0.9600E+00
     -8.186  0.0000E+00  0.9600E+00
     -8.071  0.0000E+00  0.9600E+00
     -7.957  0.0000E+00  0.9600E+00
     -7.843  0.0000E+00  0.9600E+00
     -7.728  0.0000E+00  0.9600E+00
     -7.614  0.0000E+00  0.9600E+00
     -7.499  0.0000E+00  0.9600E+00
     -7.385  0.0000E+00  0.9600E+00
     -7.270  0.0000E+00  0.9600E+00
     -7.156  0.0000E+00  0.9600E+00
     -7.041  0.0000E+00  0.9600E+00
     -6.927  0.0000E+00  0.9600E+00
     -6.813  0.0000E+00  0.9600E+00
     -6.698  0.0000E+00  0.9600E+00
     -6.584  0.0000E+00  0.9600E+00
     -6.469  0.0000E+00  0.9600E+00
     -6.355  0.0000E+00  0.9600E+00
     -6.240  0.0000E+00  0.9600E+00
     -6.126  0.0000E+00  0.9600E+00
     -6.011  0.0000E+00  0.9600E+00
     -5.897  0.0000E+00  0.9600E+00
     -5.782  0.0000E+00  0.9600E+00
     -5.668  0.6330E-15  0.9600E+00
     -5.554  0.4683E-06  0.9600E+00
     -5.439  0.1869E-01  0.9621E+00
     -5.325  0.2495E+00  0.9907E+00
     -5.210  0.1040E+00  0.1003E+01
     -5.096  0.5880E-01  0.1009E+01
     -4.981  0.2336E+00  0.1036E+01
     -4.867  0.3341E-01  0.1040E+01
     -4.752  0.9246E-03  0.1040E+01
     -4.638  0.7641E-08  0.1040E+01
     -4.524  0.0000E+00  0.1040E+01
     -4.409  0.0000E+00  0.1040E+01
     -4.295  0.0000E+00  0.1040E+01
     -4.180  0.0000E+00  0.1040E+01
     -4.066  0.0000E+00  0.1040E+01
     -3.951  0.0000E+00  0.1040E+01
     -3.837  0.0000E+00  0.1040E+01
     -3.722  0.0000E+00  0.1040E+01
     -3.608  0.0000E+00  0.1040E+01
     -3.494  0.0000E+00  0.1040E+01
     -3.379  0.0000E+00  0.1040E+01
     -3.265  0.0000E+00  0.1040E+01
     -3.150  0.0000E+00  0.1040E+01
     -3.036  0.0000E+00  0.1040E+01
     -2.921  0.0000E+00  0.1040E+01
     -2.807  0.0000E+00  0.1040E+01
     -2.692  0.0000E+00  0.1040E+01
     -2.578  0.0000E+00  0.1040E+01
     -2.464  0.0000E+00  0.1040E+01
     -2.349  0.0000E+00  0.1040E+01
     -2.235  0.0000E+00  0.1040E+01
     -2.120  0.0000E+00  0.1040E+01
     -2.006  0.0000E+00  0.1040E+01
     -1.891  0.0000E+00  0.1040E+01
     -1.777  0.1819E-16  0.1040E+01
     -1.662  0.3907E-07  0.1040E+01
     -1.548  0.3449E-02  0.1040E+01
     -1.433  0.6044E-01  0.1047E+01
     -1.319  0.1561E+00  0.1065E+01
     -1.205  0.1220E+00  0.1079E+01
     -1.090  0.2636E+00  0.1109E+01
     -0.976  0.1898E+00  0.1131E+01
     -0.861  0.2244E+00  0.1157E+01
     -0.747  0.2131E+00  0.1181E+01
     -0.632  0.9332E-01  0.1192E+01
     -0.518  0.2297E+00  0.1218E+01
     -0.403  0.2417E+00  0.1246E+01
     -0.289  0.3878E-01  0.1250E+01
     -0.175  0.1366E+00  0.1266E+01
     -0.060  0.1237E+00  0.1280E+01
      0.054  0.6269E-01  0.1287E+01
      0.169  0.1405E+00  0.1303E+01
      0.283  0.1593E+00  0.1321E+01
      0.398  0.6742E-01  0.1329E+01
      0.512  0.2479E+00  0.1358E+01
      0.627  0.1275E+00  0.1372E+01
      0.741  0.2475E-01  0.1375E+01
      0.855  0.1146E+00  0.1388E+01
      0.970  0.3072E+00  0.1423E+01
      1.084  0.3780E+00  0.1466E+01
      1.199  0.2196E+00  0.1492E+01
      1.313  0.3972E+00  0.1537E+01
      1.428  0.1902E+00  0.1559E+01
      1.542  0.3575E+00  0.1600E+01
      1.657  0.3802E+00  0.1643E+01
      1.771  0.3137E+00  0.1679E+01
      1.885  0.1161E+00  0.1692E+01
      2.000  0.1205E+00  0.1706E+01
      2.114  0.3779E+00  0.1750E+01
      2.229  0.9148E-01  0.1760E+01
      2.343  0.6681E-04  0.1760E+01
      2.458  0.4393E-11  0.1760E+01
      2.572  0.0000E+00  0.1760E+01
      2.687  0.0000E+00  0.1760E+01
      2.801  0.0000E+00  0.1760E+01
      2.916  0.0000E+00  0.1760E+01
      3.030  0.0000E+00  0.1760E+01
      3.144  0.0000E+00  0.1760E+01
      3.259  0.0000E+00  0.1760E+01
      3.373  0.0000E+00  0.1760E+01
      3.488  0.0000E+00  0.1760E+01
      3.602  0.0000E+00  0.1760E+01
      3.717  0.0000E+00  0.1760E+01
      3.831  0.0000E+00  0.1760E+01
      3.946  0.0000E+00  0.1760E+01
      4.060  0.0000E+00  0.1760E+01
      4.174  0.0000E+00  0.1760E+01
      4.289  0.5178E-11  0.1760E+01
      4.403  0.5918E-04  0.1760E+01
      4.518  0.4480E-01  0.1765E+01
      4.632  0.9076E-01  0.1776E+01
      4.747  0.9959E-01  0.1787E+01
      4.861  0.2777E+00  0.1819E+01
      4.976  0.3333E-01  0.1823E+01
      5.090  0.7046E-01  0.1831E+01
      5.204  0.6044E-01  0.1837E+01
      5.319  0.4480E-02  0.1838E+01
      5.433  0.2656E+00  0.1868E+01
      5.548  0.2289E+00  0.1895E+01
      5.662  0.3469E-02  0.1895E+01
      5.777  0.2942E-01  0.1898E+01
      5.891  0.1220E+00  0.1912E+01
      6.006  0.3015E-01  0.1916E+01
      6.120  0.2358E+00  0.1943E+01
      6.234  0.1102E+00  0.1955E+01
      6.349  0.6685E-01  0.1963E+01
      6.463  0.1166E+00  0.1976E+01
      6.578  0.7251E-01  0.1985E+01
      6.692  0.1325E+00  0.2000E+01
      6.807  0.5648E-02  0.2000E+01
      6.921  0.1098E+00  0.2013E+01
      7.036  0.3906E-01  0.2018E+01
      7.150  0.5690E-01  0.2024E+01
      7.265  0.1176E+00  0.2037E+01
      7.379  0.2089E+00  0.2061E+01
      7.493  0.1205E+00  0.2075E+01
      7.608  0.1723E+00  0.2095E+01
      7.722  0.1219E-02  0.2095E+01
      7.837  0.1003E+00  0.2107E+01
      7.951  0.1665E+00  0.2126E+01
      8.066  0.1462E+00  0.2142E+01
      8.180  0.2503E+00  0.2171E+01
      8.295  0.1405E+00  0.2187E+01
      8.409  0.9118E-01  0.2197E+01
      8.523  0.1139E+00  0.2211E+01
      8.638  0.3357E+00  0.2249E+01
      8.752  0.1199E+00  0.2263E+01
      8.867  0.1484E+00  0.2280E+01
      8.981  0.2794E+00  0.2312E+01
      9.096  0.9765E-01  0.2323E+01
      9.210  0.1264E+00  0.2337E+01
      9.325  0.1405E-01  0.2339E+01
      9.439  0.2429E+00  0.2367E+01
      9.553  0.1993E+00  0.2389E+01
      9.668  0.2526E+00  0.2418E+01
      9.782  0.1787E+00  0.2439E+01
      9.897  0.2896E+00  0.2472E+01
     10.011  0.2633E+00  0.2502E+01
     10.126  0.2148E+00  0.2527E+01
     10.240  0.2869E+00  0.2560E+01
     10.355  0.4015E-02  0.2560E+01
     10.469  0.9349E-08  0.2560E+01
     10.583  0.0000E+00  0.2560E+01
     10.698  0.0000E+00  0.2560E+01
     10.812  0.0000E+00  0.2560E+01
     10.927  0.0000E+00  0.2560E+01
     11.041  0.0000E+00  0.2560E+01
     11.156  0.0000E+00  0.2560E+01
     11.270  0.0000E+00  0.2560E+01
     11.385  0.0000E+00  0.2560E+01
     11.499  0.0000E+00  0.2560E+01
     11.614  0.0000E+00  0.2560E+01
     11.728  0.0000E+00  0.2560E+01
