       N       E                     dE             d eps       ncg     rms          rms(c)
DAV:   1     0.142643627961E+04    0.14264E+04   -0.71144E+04  1024   0.114E+03
DAV:   2     0.484913234247E+02   -0.13779E+04   -0.13213E+04  1056   0.318E+02
DAV:   3    -0.107305803130E+03   -0.15580E+03   -0.15365E+03  1344   0.116E+02
DAV:   4    -0.112496436465E+03   -0.51906E+01   -0.51793E+01  1280   0.221E+01
DAV:   5    -0.112664774288E+03   -0.16834E+00   -0.16832E+00  1536   0.406E+00    0.181E+01
DAV:   6    -0.106503295507E+03    0.61615E+01   -0.10985E+01  1248   0.635E+00    0.136E+01
DAV:   7    -0.106236426258E+03    0.26687E+00   -0.31749E+00  1408   0.346E+00    0.660E+00
DAV:   8    -0.106210163606E+03    0.26263E-01   -0.19499E-01  1312   0.111E+00    0.200E+00
DAV:   9    -0.106211883409E+03   -0.17198E-02   -0.46323E-02  1280   0.572E-01    0.452E-01
DAV:  10    -0.106212821005E+03   -0.93760E-03   -0.31453E-03  1280   0.138E-01    0.239E-01
DAV:  11    -0.106214153968E+03   -0.13330E-02   -0.28036E-03  1280   0.134E-01    0.113E-01
DAV:  12    -0.106214140917E+03    0.13051E-04   -0.11972E-04  1344   0.309E-02    0.575E-02
DAV:  13    -0.106214174012E+03   -0.33095E-04   -0.13135E-04  1152   0.222E-02    0.274E-02
DAV:  14    -0.106214170465E+03    0.35475E-05   -0.14859E-05   960   0.103E-02
   1 F= -.10621417E+03 E0= -.10621417E+03  d E =-.106214E+03
       N       E                     dE             d eps       ncg     rms          rms(c)
DAV:   1    -0.106753297899E+03   -0.53912E+00   -0.14447E+01  1280   0.177E+01    0.479E+00
DAV:   2    -0.106366431503E+03    0.38687E+00   -0.80433E-01  1312   0.316E+00    0.246E+00
DAV:   3    -0.106278209336E+03    0.88222E-01   -0.19944E-01  1344   0.162E+00    0.725E-01
DAV:   4    -0.106268810732E+03    0.93986E-02   -0.53982E-03  1376   0.234E-01    0.444E-01
DAV:   5    -0.106265845357E+03    0.29654E-02   -0.15679E-03  1248   0.861E-02    0.170E-01
DAV:   6    -0.106265757668E+03    0.87689E-04   -0.13809E-04  1248   0.464E-02    0.970E-02
DAV:   7    -0.106265716287E+03    0.41382E-04   -0.15943E-05   992   0.141E-02    0.176E-02
DAV:   8    -0.106265715806E+03    0.48123E-06   -0.32569E-06   832   0.592E-03
   2 F= -.10626572E+03 E0= -.10626572E+03  d E =-.515453E-01
       N       E                     dE             d eps       ncg     rms          rms(c)
DAV:   1    -0.106313940613E+03   -0.48224E-01   -0.11426E+00  1280   0.486E+00    0.138E+00
DAV:   2    -0.106282741584E+03    0.31199E-01   -0.64907E-02  1312   0.890E-01    0.702E-01
DAV:   3    -0.106275736529E+03    0.70051E-02   -0.16555E-02  1344   0.459E-01    0.212E-01
DAV:   4    -0.106275079706E+03    0.65682E-03   -0.43484E-04  1376   0.642E-02    0.140E-01
DAV:   5    -0.106274879097E+03    0.20061E-03   -0.13866E-04  1120   0.254E-02    0.520E-02
DAV:   6    -0.106274878935E+03    0.16178E-06   -0.15077E-05   896   0.182E-02
   3 F= -.10627488E+03 E0= -.10627488E+03  d E =-.607085E-01
       N       E                     dE             d eps       ncg     rms          rms(c)
DAV:   1    -0.106274902792E+03   -0.23695E-04   -0.77685E-04  1312   0.130E-01    0.386E-02
DAV:   2    -0.106274880104E+03    0.22688E-04   -0.46408E-05  1152   0.247E-02    0.203E-02
DAV:   3    -0.106274873128E+03    0.69762E-05   -0.11120E-05   704   0.133E-02
   4 F= -.10627487E+03 E0= -.10627487E+03  d E =-.607027E-01
       N       E                     dE             d eps       ncg     rms          rms(c)
DAV:   1    -0.106274887003E+03   -0.68993E-05   -0.31313E-04  1312   0.785E-02    0.232E-02
DAV:   2    -0.106274877180E+03    0.98235E-05   -0.16620E-05   640   0.151E-02
   5 F= -.10627488E+03 E0= -.10627488E+03  d E =-.607067E-01
       N       E                     dE             d eps       ncg     rms          rms(c)
DAV:   1    -0.106274879808E+03    0.71951E-05   -0.37620E-05   992   0.313E-02    0.107E-02
DAV:   2    -0.106274878819E+03    0.98859E-06   -0.42136E-06   576   0.871E-03
   6 F= -.10627488E+03 E0= -.10627488E+03  d E =-.607084E-01
       N       E                     dE             d eps       ncg     rms          rms(c)
DAV:   1    -0.106274879572E+03    0.23597E-06   -0.22686E-06   608   0.626E-03    0.255E-03
DAV:   2    -0.106274879829E+03   -0.25682E-06   -0.68587E-07   576   0.321E-03
   7 F= -.10627488E+03 E0= -.10627488E+03  d E =-.607094E-01
       N       E                     dE             d eps       ncg     rms          rms(c)
DAV:   1    -0.106290647375E+03   -0.15768E-01   -0.42795E-01  1120   0.266E+00    0.672E-01
DAV:   2    -0.106283433424E+03    0.72140E-02   -0.25304E-02  1280   0.545E-01    0.337E-01
DAV:   3    -0.106281265994E+03    0.21674E-02   -0.43907E-03  1216   0.227E-01    0.130E-01
DAV:   4    -0.106281021286E+03    0.24471E-03   -0.23306E-04  1536   0.437E-02    0.874E-02
DAV:   5    -0.106280944671E+03    0.76615E-04   -0.34218E-05  1088   0.142E-02    0.238E-02
DAV:   6    -0.106280941799E+03    0.28715E-05   -0.42192E-06   896   0.904E-03
   8 F= -.10628094E+03 E0= -.10628094E+03  d E =-.606197E-02
       N       E                     dE             d eps       ncg     rms          rms(c)
DAV:   1    -0.106296692761E+03   -0.15748E-01   -0.50959E-01  1120   0.290E+00    0.733E-01
DAV:   2    -0.106288085179E+03    0.86076E-02   -0.30096E-02  1280   0.595E-01    0.367E-01
DAV:   3    -0.106285508226E+03    0.25770E-02   -0.52343E-03  1216   0.247E-01    0.142E-01
DAV:   4    -0.106285219497E+03    0.28873E-03   -0.27647E-04  1536   0.476E-02    0.950E-02
DAV:   5    -0.106285130405E+03    0.89092E-04   -0.40929E-05  1088   0.156E-02    0.261E-02
DAV:   6    -0.106285127188E+03    0.32171E-05   -0.49916E-06   896   0.984E-03
   9 F= -.10628513E+03 E0= -.10628513E+03  d E =-.102474E-01
