 vasp.6.3.2 27Jun22 (build Jun 14 2024 17:29:11) complex                         
 executed on             LinuxGNU date 2026.03.29  20:32:40
 running on   32 total cores
 distrk:  each k-point on   32 cores,    1 groups
 distr:  one band on NCORE=   1 cores,   32 groups


--------------------------------------------------------------------------------------------------------


 INCAR:
   EDIFF = 1e-05
   EDIFFG = -0.05
   ENCUT = 400.0
   IBRION = 2
   ISIF = 3
   ISMEAR = 0
   LCHARG = False
   LREAL = Auto
   LWAVE = False
   NSW = 100
   SIGMA = 0.05

 POTCAR:    PAW_PBE Na_pv 19Sep2006               
 POTCAR:    PAW_PBE Sb 06Sep2000                  
 POTCAR:    PAW_PBE S 06Sep2000                   
 -----------------------------------------------------------------------------
|                                                                             |
|           W    W    AA    RRRRR   N    N  II  N    N   GGGG   !!!           |
|           W    W   A  A   R    R  NN   N  II  NN   N  G    G  !!!           |
|           W    W  A    A  R    R  N N  N  II  N N  N  G       !!!           |
|           W WW W  AAAAAA  RRRRR   N  N N  II  N  N N  G  GGG   !            |
|           WW  WW  A    A  R   R   N   NN  II  N   NN  G    G                |
|           W    W  A    A  R    R  N    N  II  N    N   GGGG   !!!           |
|                                                                             |
|     For optimal performance we recommend to set                             |
|       NCORE = 2 up to number-of-cores-per-socket                            |
|     NCORE specifies how many cores store one orbital (NPAR=cpu/NCORE).      |
|     This setting can greatly improve the performance of VASP for DFT.       |
|     The default, NCORE=1 might be grossly inefficient on modern             |
|     multi-core architectures or massively parallel machines. Do your        |
|     own testing! More info at https://www.vasp.at/wiki/index.php/NCORE      |
|     Unfortunately you need to use the default for GW and RPA                |
|     calculations (for HF NCORE is supported but not extensively tested      |
|     yet).                                                                   |
|                                                                             |
 -----------------------------------------------------------------------------

 POTCAR:    PAW_PBE Na_pv 19Sep2006               
   SHA256 =  6a2f546d9e11350984debacf3dc457d8cffc0868e817d445faca461816a32b94 Na_pv/POTCAR          
   COPYR  = (c) Copyright 19Sep2006 Georg Kresse                                                    
   COPYR  = This file is part of the software VASP. Any use, copying, and all other rights are regul
   COPYR  = If you do not have a valid VASP license, you may not use, copy or distribute this file. 
   VRHFIN =Na: p6s1                                                                                 
   LEXCH  = PE                                                                                      
   EATOM  =   766.0439 eV,   56.3026 Ry                                                             
                                                                                                    
   TITEL  = PAW_PBE Na_pv 19Sep2006                                                                 
   LULTRA =        F    use ultrasoft PP ?                                                          
   IUNSCR =        1    unscreen: 0-lin 1-nonlin 2-no                                               
   RPACOR =    1.800    partial core radius                                                         
   POMASS =   22.990; ZVAL   =    7.000    mass and valenz                                          
   RCORE  =    2.200    outmost cutoff radius                                                       
   RWIGS  =    2.200; RWIGS  =    1.164    wigner-seitz radius (au A)                               
   ENMAX  =  259.561; ENMIN  =  194.671 eV                                                          
   ICORE  =        2    local potential                                                             
   LCOR   =        T    correct aug charges                                                         
   LPAW   =        T    paw PP                                                                      
   EAUG   =  368.056                                                                                
   DEXC   =    0.000                                                                                
   RMAX   =    2.245    core radius for proj-oper                                                   
   RAUG   =    1.300    factor for augmentation sphere                                              
   RDEP   =    2.259    radius for radial grids                                                     
   RDEPT  =    1.738    core radius for aug-charge                                                  
                                                                                                    
   Atomic configuration                                                                             
    5 entries                                                                                       
     n  l   j            E        occ.                                                              
     1  0  0.50     -1033.6933   2.0000                                                             
     2  0  0.50       -56.7526   2.0000                                                             
     2  1  1.50       -28.6721   6.0000                                                             
     3  0  0.50        -2.7440   1.0000                                                             
     3  2  1.50        -1.3606   0.0000                                                             
   Description                                                                                      
     l       E           TYP  RCUT    TYP  RCUT                                                     
     1    -28.6720912     23  2.000                                                                 
     1      6.8029130     23  2.000                                                                 
     0     -2.7439560     23  2.200                                                                 
     0     34.0145650     23  2.200                                                                 
     2     -1.3605826     23  2.200                                                                 
  local pseudopotential read in
  partial core-charges read in
  partial kinetic energy density read in
  atomic valenz-charges read in
  non local Contribution for L=           1  read in
    real space projection operators read in
  non local Contribution for L=           1  read in
    real space projection operators read in
  non local Contribution for L=           0  read in
    real space projection operators read in
  non local Contribution for L=           0  read in
    real space projection operators read in
    PAW grid and wavefunctions read in

   number of l-projection  operators is LMAX  =           4
   number of lm-projection operators is LMMAX =           8

 POTCAR:    PAW_PBE Sb 06Sep2000                  
   SHA256 =  8a1325a3afd8ca988779475cff04188eb880a428d1acb53275fe456fa3b784fc Sb/POTCAR             
   COPYR  = (c) Copyright 06Sep2000 Georg Kresse                                                    
   COPYR  = This file is part of the software VASP. Any use, copying, and all other rights are regul
   COPYR  = If you do not have a valid VASP license, you may not use, copy or distribute this file. 
   VRHFIN =Sb: s2p3                                                                                 
   LEXCH  = PE                                                                                      
   EATOM  =   149.9515 eV,   11.0211 Ry                                                             
                                                                                                    
   TITEL  = PAW_PBE Sb 06Sep2000                                                                    
   LULTRA =        F    use ultrasoft PP ?                                                          
   IUNSCR =        1    unscreen: 0-lin 1-nonlin 2-no                                               
   RPACOR =    2.200    partial core radius                                                         
   POMASS =  121.750; ZVAL   =    5.000    mass and valenz                                          
   RCORE  =    2.300    outmost cutoff radius                                                       
   RWIGS  =    2.980; RWIGS  =    1.577    wigner-seitz radius (au A)                               
   ENMAX  =  172.069; ENMIN  =  129.052 eV                                                          
   ICORE  =        3    local potential                                                             
   LCOR   =        T    correct aug charges                                                         
   LPAW   =        T    paw PP                                                                      
   EAUG   =  380.513                                                                                
   DEXC   =    0.000                                                                                
   RMAX   =    2.346    core radius for proj-oper                                                   
   RAUG   =    1.300    factor for augmentation sphere                                              
   RDEP   =    2.360    radius for radial grids                                                     
   RDEPT  =    2.192    core radius for aug-charge                                                  
                                                                                                    
   Atomic configuration                                                                             
   13 entries                                                                                       
     n  l   j            E        occ.                                                              
     1  0  0.50    -30298.2797   2.0000                                                             
     2  0  0.50     -4610.2252   2.0000                                                             
     2  1  1.50     -4138.3407   6.0000                                                             
     3  0  0.50      -903.8815   2.0000                                                             
     3  1  1.50      -750.1337   6.0000                                                             
     3  2  2.50      -515.7092  10.0000                                                             
     4  0  0.50      -148.8034   2.0000                                                             
     4  1  1.50      -101.7581   6.0000                                                             
     4  2  2.50       -33.5048  10.0000                                                             
     5  0  0.50       -12.8298   2.0000                                                             
     5  1  0.50        -4.8276   3.0000                                                             
     5  2  1.50        -4.0817   0.0000                                                             
     4  3  2.50        -4.0817   0.0000                                                             
   Description                                                                                      
     l       E           TYP  RCUT    TYP  RCUT                                                     
     0    -12.8297861     23  2.300                                                                 
     0     13.6058260     23  2.300                                                                 
     1     -4.8275512     23  2.300                                                                 
     1     -0.7245443     23  2.300                                                                 
     2     -4.0817478     23  2.300                                                                 
     3     -1.3605826     23  2.300                                                                 
  local pseudopotential read in
  partial core-charges read in
  partial kinetic energy density read in
  atomic valenz-charges read in
  non local Contribution for L=           0  read in
    real space projection operators read in
  non local Contribution for L=           0  read in
    real space projection operators read in
  non local Contribution for L=           1  read in
    real space projection operators read in
  non local Contribution for L=           1  read in
    real space projection operators read in
  non local Contribution for L=           2  read in
    real space projection operators read in
    PAW grid and wavefunctions read in

   number of l-projection  operators is LMAX  =           5
   number of lm-projection operators is LMMAX =          13

 POTCAR:    PAW_PBE S 06Sep2000                   
   SHA256 =  0fc7481fb0695f01bdc6462160264c5c84044ae9ec85a907d398b887a2bc3132 S/POTCAR              
   COPYR  = (c) Copyright 06Sep2000 Georg Kresse                                                    
   COPYR  = This file is part of the software VASP. Any use, copying, and all other rights are regul
   COPYR  = If you do not have a valid VASP license, you may not use, copy or distribute this file. 
   VRHFIN =S : s2p4                                                                                 
   LEXCH  = PE                                                                                      
   EATOM  =   276.8230 eV,   20.3459 Ry                                                             
                                                                                                    
   TITEL  = PAW_PBE S 06Sep2000                                                                     
   LULTRA =        F    use ultrasoft PP ?                                                          
   IUNSCR =        1    unscreen: 0-lin 1-nonlin 2-no                                               
   RPACOR =    1.500    partial core radius                                                         
   POMASS =   32.066; ZVAL   =    6.000    mass and valenz                                          
   RCORE  =    1.900    outmost cutoff radius                                                       
   RWIGS  =    2.200; RWIGS  =    1.164    wigner-seitz radius (au A)                               
   ENMAX  =  258.689; ENMIN  =  194.016 eV                                                          
   ICORE  =        2    local potential                                                             
   LCOR   =        T    correct aug charges                                                         
   LPAW   =        T    paw PP                                                                      
   EAUG   =  335.092                                                                                
   DEXC   =    0.000                                                                                
   RMAX   =    1.942    core radius for proj-oper                                                   
   RAUG   =    1.300    factor for augmentation sphere                                              
   RDEP   =    1.954    radius for radial grids                                                     
   RDEPT  =    1.744    core radius for aug-charge                                                  
                                                                                                    
   Atomic configuration                                                                             
    6 entries                                                                                       
     n  l   j            E        occ.                                                              
     1  0  0.50     -2405.8406   2.0000                                                             
     2  0  0.50      -211.7007   2.0000                                                             
     2  1  1.50      -156.4958   6.0000                                                             
     3  0  0.50       -17.2562   2.0000                                                             
     3  1  0.50        -7.0085   4.0000                                                             
     3  2  1.50        -6.8029   0.0000                                                             
   Description                                                                                      
     l       E           TYP  RCUT    TYP  RCUT                                                     
     0    -17.2561641     23  1.900                                                                 
     0    -15.8743224     23  1.900                                                                 
     1     -7.0085400     23  1.900                                                                 
     1     -2.7779785     23  1.900                                                                 
     2     -6.8029130     23  1.900                                                                 
  local pseudopotential read in
  partial core-charges read in
  partial kinetic energy density read in
  atomic valenz-charges read in
  non local Contribution for L=           0  read in
    real space projection operators read in
  non local Contribution for L=           0  read in
    real space projection operators read in
  non local Contribution for L=           1  read in
    real space projection operators read in
  non local Contribution for L=           1  read in
    real space projection operators read in
    PAW grid and wavefunctions read in

   number of l-projection  operators is LMAX  =           4
   number of lm-projection operators is LMMAX =           8

 Optimization of the real space projectors (new method)

 maximal supplied QI-value         = 17.01
 optimisation between [QCUT,QGAM] = [ 10.20, 20.41] = [ 29.16,116.64] Ry 
 Optimized for a Real-space Cutoff    1.30 Angstroem

   l    n(q)    QCUT    max X(q) W(low)/X(q) W(high)/X(q)  e(spline) 
   1      7    10.205     4.940    0.23E-03    0.84E-03    0.11E-06
   1      7    10.205     6.253    0.40E-03    0.13E-02    0.18E-06
   0      8    10.205    37.438    0.23E-03    0.37E-03    0.42E-07
   0      8    10.205     9.606    0.16E-03    0.26E-03    0.31E-07
 Optimization of the real space projectors (new method)

 maximal supplied QI-value         = 16.25
 optimisation between [QCUT,QGAM] = [ 10.24, 20.48] = [ 29.35,117.42] Ry 
 Optimized for a Real-space Cutoff    1.38 Angstroem

   l    n(q)    QCUT    max X(q) W(low)/X(q) W(high)/X(q)  e(spline) 
   0      8    10.239    19.000    0.74E-04    0.15E-03    0.61E-07
   0      8    10.239     9.057    0.91E-04    0.19E-03    0.74E-07
   1      8    10.239   125.345    0.50E-03    0.38E-03    0.74E-07
   1      8    10.239    79.963    0.49E-03    0.37E-03    0.73E-07
   2      7    10.239     6.963    0.74E-04    0.11E-03    0.40E-07
 Optimization of the real space projectors (new method)

 maximal supplied QI-value         = 19.84
 optimisation between [QCUT,QGAM] = [ 10.12, 20.44] = [ 28.68,116.96] Ry 
 Optimized for a Real-space Cutoff    1.23 Angstroem

   l    n(q)    QCUT    max X(q) W(low)/X(q) W(high)/X(q)  e(spline) 
   0      7    10.119   187.594    0.62E-04    0.28E-03    0.52E-07
   0      7    10.119   164.243    0.61E-04    0.28E-03    0.52E-07
   1      7    10.119    67.533    0.45E-03    0.63E-03    0.13E-06
   1      7    10.119    50.729    0.44E-03    0.62E-03    0.12E-06
  PAW_PBE Na_pv 19Sep2006               :
 energy of atom  1       EATOM= -766.0439
 kinetic energy error for atom=    0.0103 (will be added to EATOM!!)
  PAW_PBE Sb 06Sep2000                  :
 energy of atom  2       EATOM= -149.9515
 kinetic energy error for atom=    0.0008 (will be added to EATOM!!)
  PAW_PBE S 06Sep2000                   :
 energy of atom  3       EATOM= -276.8230
 kinetic energy error for atom=    0.0046 (will be added to EATOM!!)


 POSCAR: Na12 Sb4 S12
  positions in direct lattice
  No initial velocities read in
 exchange correlation table for  LEXCH =        8
   RHO(1)=    0.500       N(1)  =     2000
   RHO(2)=  100.500       N(2)  =     4000



--------------------------------------------------------------------------------------------------------


 ion  position               nearest neighbor table
   1  0.439  0.939  0.561-
   2  0.939  0.561  0.439-
   3  0.561  0.439  0.939-
   4  0.061  0.061  0.061-
   5  0.931  0.431  0.069-
   6  0.431  0.069  0.931-
   7  0.069  0.931  0.431-
   8  0.569  0.569  0.569-
   9  0.675  0.175  0.325-
  10  0.175  0.325  0.675-
  11  0.325  0.675  0.175-
  12  0.825  0.825  0.825-
  13  0.214  0.714  0.786-  17 2.44  18 2.44  19 2.44
  14  0.714  0.786  0.214-  20 2.44  21 2.44  22 2.44
  15  0.786  0.214  0.714-  23 2.44  24 2.44  25 2.44
  16  0.286  0.286  0.286-  26 2.44  27 2.44  28 2.44
  17  0.142  0.985  0.750-  13 2.44
  18  0.250  0.642  0.515-  13 2.44
  19  0.485  0.750  0.858-  13 2.44
  20  0.642  0.515  0.250-  14 2.44
  21  0.750  0.858  0.485-  14 2.44
  22  0.985  0.750  0.142-  14 2.44
  23  0.858  0.485  0.750-  15 2.44
  24  0.750  0.142  0.985-  15 2.44
  25  0.515  0.250  0.642-  15 2.44
  26  0.358  0.015  0.250-  16 2.44
  27  0.250  0.358  0.015-  16 2.44
  28  0.015  0.250  0.358-  16 2.44

  LATTYP: Found a simple cubic cell.
 ALAT       =     8.6386592400
  
  Lattice vectors:
  
 A1 = (   8.6386592400,   0.0000000000,   0.0000000000)
 A2 = (  -0.0000000000,   8.6386592400,   0.0000000000)
 A3 = (   0.0000000000,   0.0000000000,   8.6386592400)


Analysis of symmetry for initial positions (statically):
=====================================================================
 Subroutine PRICEL returns:
 Original cell was already a primitive cell.
 

 Routine SETGRP: Setting up the symmetry group for a 
 simple cubic supercell.


 Subroutine GETGRP returns: Found 12 space group operations
 (whereof  3 operations were pure point group operations)
 out of a pool of 48 trial point group operations.


The static configuration has the point symmetry C_3 .
 The point group associated with its full space group is T   .


Analysis of symmetry for dynamics (positions and initial velocities):
=====================================================================
 Subroutine PRICEL returns:
 Original cell was already a primitive cell.
 

 Routine SETGRP: Setting up the symmetry group for a 
 simple cubic supercell.


 Subroutine GETGRP returns: Found 12 space group operations
 (whereof  3 operations were pure point group operations)
 out of a pool of 48 trial point group operations.


The dynamic configuration has the point symmetry C_3 .
 The point group associated with its full space group is T   .


 Subroutine INISYM returns: Found 12 space group operations
 (whereof  3 operations are pure point group operations),
 and found     1 'primitive' translations


----------------------------------------------------------------------------------------

                                     Primitive cell                                     

  volume of cell :     644.6723

  direct lattice vectors                    reciprocal lattice vectors
     8.638659240  0.000000000  0.000000000     0.115758704  0.000000000 -0.000000000
    -0.000000000  8.638659240  0.000000000     0.000000000  0.115758704  0.000000000
     0.000000000  0.000000000  8.638659240    -0.000000000 -0.000000000  0.115758704

  length of vectors
     8.638659240  8.638659240  8.638659240     0.115758704  0.115758704  0.115758704

  position of ions in fractional coordinates (direct lattice)
     0.438822870  0.938822870  0.561177130
     0.938822870  0.561177130  0.438822870
     0.561177130  0.438822870  0.938822870
     0.061177130  0.061177130  0.061177130
     0.931319990  0.431319990  0.068680010
     0.431319990  0.068680010  0.931319990
     0.068680010  0.931319990  0.431319990
     0.568680010  0.568680010  0.568680010
     0.674866110  0.174866110  0.325133890
     0.174866110  0.325133890  0.674866110
     0.325133890  0.674866110  0.174866110
     0.825133890  0.825133890  0.825133890
     0.214331050  0.714331050  0.785668950
     0.714331050  0.785668950  0.214331050
     0.785668950  0.214331050  0.714331050
     0.285668950  0.285668950  0.285668950
     0.141741810  0.985078590  0.749896820
     0.250103180  0.641741810  0.514921410
     0.485078590  0.750103180  0.858258190
     0.641741810  0.514921410  0.250103180
     0.750103180  0.858258190  0.485078590
     0.985078590  0.749896820  0.141741810
     0.858258190  0.485078590  0.750103180
     0.749896820  0.141741810  0.985078590
     0.514921410  0.250103180  0.641741810
     0.358258190  0.014921410  0.249896820
     0.249896820  0.358258190  0.014921410
     0.014921410  0.249896820  0.358258190

  ion indices of the primitive-cell ions
   primitive index   ion index
                 1           1
                 2           2
                 3           3
                 4           4
                 5           5
                 6           6
                 7           7
                 8           8
                 9           9
                10          10
                11          11
                12          12
                13          13
                14          14
                15          15
                16          16
                17          17
                18          18
                19          19
                20          20
                21          21
                22          22
                23          23
                24          24
                25          25
                26          26
                27          27
                28          28

----------------------------------------------------------------------------------------



 KPOINTS: pymatgen with grid density = 500 / numbe

Automatic generation of k-mesh.
 Grid dimensions read from file:
 generate k-points for:    2    2    2

 Generating k-lattice:

  Cartesian coordinates                     Fractional coordinates (reciprocal lattice)
     0.057879352  0.000000000 -0.000000000     0.500000000  0.000000000  0.000000000
     0.000000000  0.057879352  0.000000000     0.000000000  0.500000000  0.000000000
    -0.000000000 -0.000000000  0.057879352    -0.000000000 -0.000000000  0.500000000

  Length of vectors
     0.057879352  0.057879352  0.057879352

  Shift w.r.t. Gamma in fractional coordinates (k-lattice)
     0.000000000  0.000000000  0.000000000

 
 Subroutine IBZKPT returns following result:
 ===========================================
 
 Found      4 irreducible k-points:
 
 Following reciprocal coordinates:
            Coordinates               Weight
  0.000000  0.000000  0.000000      1.000000
  0.500000  0.000000  0.000000      3.000000
  0.500000  0.500000  0.000000      3.000000
  0.500000  0.500000  0.500000      1.000000
 
 Following cartesian coordinates:
            Coordinates               Weight
  0.000000  0.000000  0.000000      1.000000
  0.057879  0.000000  0.000000      3.000000
  0.057879  0.057879  0.000000      3.000000
  0.057879  0.057879  0.057879      1.000000
 


--------------------------------------------------------------------------------------------------------




 Dimension of arrays:
   k-points           NKPTS =      4   k-points in BZ     NKDIM =      4   number of bands    NBANDS=    128
   number of dos      NEDOS =    301   number of ions     NIONS =     28
   non local maximal  LDIM  =      5   non local SUM 2l+1 LMDIM =     13
   total plane-waves  NPLWV =  74088
   max r-space proj   IRMAX =   1316   max aug-charges    IRDMAX=   6577
   dimension x,y,z NGX =    42 NGY =   42 NGZ =   42
   dimension x,y,z NGXF=    84 NGYF=   84 NGZF=   84
   support grid    NGXF=    84 NGYF=   84 NGZF=   84
   ions per type =              12   4  12
   NGX,Y,Z   is equivalent  to a cutoff of   8.08,  8.08,  8.08 a.u.
   NGXF,Y,Z  is equivalent  to a cutoff of  16.17, 16.17, 16.17 a.u.

 SYSTEM =  unknown system                          
 POSCAR =  Na12 Sb4 S12                            

 Startparameter for this run:
   NWRITE =      2    write-flag & timer
   PREC   = normal    normal or accurate (medium, high low for compatibility)
   ISTART =      0    job   : 0-new  1-cont  2-samecut
   ICHARG =      2    charge: 1-file 2-atom 10-const
   ISPIN  =      1    spin polarized calculation?
   LNONCOLLINEAR =      F non collinear calculations
   LSORBIT =      F    spin-orbit coupling
   INIWAV =      1    electr: 0-lowe 1-rand  2-diag
   LASPH  =      F    aspherical Exc in radial PAW
 Electronic Relaxation 1
   ENCUT  =  400.0 eV  29.40 Ry    5.42 a.u.  14.09 14.09 14.09*2*pi/ulx,y,z
   ENINI  =  400.0     initial cutoff
   ENAUG  =  380.5 eV  augmentation charge cutoff
   NELM   =     60;   NELMIN=  2; NELMDL= -5     # of ELM steps 
   EDIFF  = 0.1E-04   stopping-criterion for ELM
   LREAL  =      T    real-space projection
   NLSPLINE    = F    spline interpolate recip. space projectors
   LCOMPAT=      F    compatible to vasp.4.4
   GGA_COMPAT  = T    GGA compatible to vasp.4.4-vasp.4.6
   LMAXPAW     = -100 max onsite density
   LMAXMIX     =    2 max onsite mixed and CHGCAR
   VOSKOWN=      0    Vosko Wilk Nusair interpolation
   ROPT   =   -0.00050  -0.00050  -0.00050
 Ionic relaxation
   EDIFFG = -.5E-01   stopping-criterion for IOM
   NSW    =    100    number of steps for IOM
   NBLOCK =      1;   KBLOCK =    100    inner block; outer block 
   IBRION =      2    ionic relax: 0-MD 1-quasi-New 2-CG
   NFREE  =      1    steps in history (QN), initial steepest desc. (CG)
   ISIF   =      3    stress and relaxation
   IWAVPR =     11    prediction:  0-non 1-charg 2-wave 3-comb
   ISYM   =      2    0-nonsym 1-usesym 2-fastsym
   LCORR  =      T    Harris-Foulkes like correction to forces

   POTIM  = 0.5000    time-step for ionic-motion
   TEIN   =    0.0    initial temperature
   TEBEG  =    0.0;   TEEND  =   0.0 temperature during run
   SMASS  =  -3.00    Nose mass-parameter (am)
   estimated Nose-frequenzy (Omega)   =  0.10E-29 period in steps = 0.13E+47 mass=  -0.171E-26a.u.
   SCALEE = 1.0000    scale energy and forces
   NPACO  =    256;   APACO  = 10.0  distance and # of slots for P.C.
   PSTRESS=    0.0 pullay stress

  Mass of Ions in am
   POMASS =  22.99121.75 32.07
  Ionic Valenz
   ZVAL   =   7.00  5.00  6.00
  Atomic Wigner-Seitz radii
   RWIGS  =  -1.00 -1.00 -1.00
  virtual crystal weights 
   VCA    =   1.00  1.00  1.00
   NELECT =     176.0000    total number of electrons
   NUPDOWN=      -1.0000    fix difference up-down

 DOS related values:
   EMIN   =  10.00;   EMAX   =-10.00  energy-range for DOS
   EFERMI =   0.00
   ISMEAR =     0;   SIGMA  =   0.05  broadening in eV -4-tet -1-fermi 0-gaus

 Electronic relaxation 2 (details)
   IALGO  =     38    algorithm
   LDIAG  =      T    sub-space diagonalisation (order eigenvalues)
   LSUBROT=      F    optimize rotation matrix (better conditioning)
   TURBO    =      0    0=normal 1=particle mesh
   IRESTART =      0    0=no restart 2=restart with 2 vectors
   NREBOOT  =      0    no. of reboots
   NMIN     =      0    reboot dimension
   EREF     =   0.00    reference energy to select bands
   IMIX   =      4    mixing-type and parameters
     AMIX     =   0.40;   BMIX     =  1.00
     AMIX_MAG =   1.60;   BMIX_MAG =  1.00
     AMIN     =   0.10
     WC   =   100.;   INIMIX=   1;  MIXPRE=   1;  MAXMIX= -45

 Intra band minimization:
   WEIMIN = 0.0010     energy-eigenvalue tresh-hold
   EBREAK =  0.20E-07  absolut break condition
   DEPER  =   0.30     relativ break condition  

   TIME   =   0.40     timestep for ELM

  volume/ion in A,a.u.               =      23.02       155.37
  Fermi-wavevector in a.u.,A,eV,Ry     =   1.062020  2.006927 15.345828  1.127887
  Thomas-Fermi vector in A             =   2.197456

 Write flags
   LWAVE        =      F    write WAVECAR
   LDOWNSAMPLE  =      F    k-point downsampling of WAVECAR
   LCHARG       =      F    write CHGCAR
   LVTOT        =      F    write LOCPOT, total local potential
   LVHAR        =      F    write LOCPOT, Hartree potential only
   LELF         =      F    write electronic localiz. function (ELF)
   LORBIT       =      0    0 simple, 1 ext, 2 COOP (PROOUT), +10 PAW based schemes


 Dipole corrections
   LMONO  =      F    monopole corrections only (constant potential shift)
   LDIPOL =      F    correct potential (dipole corrections)
   IDIPOL =      0    1-x, 2-y, 3-z, 4-all directions 
   EPSILON=  1.0000000 bulk dielectric constant

 Exchange correlation treatment:
   GGA     =    --    GGA type
   LEXCH   =     8    internal setting for exchange type
   LIBXC   =     F    Libxc                    
   VOSKOWN =     0    Vosko Wilk Nusair interpolation
   LHFCALC =     F    Hartree Fock is set to
   LHFONE  =     F    Hartree Fock one center treatment
   AEXX    =    0.0000 exact exchange contribution

 Linear response parameters
   LEPSILON=     F    determine dielectric tensor
   LRPA    =     F    only Hartree local field effects (RPA)
   LNABLA  =     F    use nabla operator in PAW spheres
   LVEL    =     F    velocity operator in full k-point grid
   CSHIFT  =0.1000    complex shift for real part using Kramers Kronig
   OMEGAMAX=  -1.0    maximum frequency
   DEG_THRESHOLD= 0.2000000E-02 threshold for treating states as degnerate
   RTIME   =   -0.100 relaxation time in fs
  (WPLASMAI=    0.000 imaginary part of plasma frequency in eV, 0.658/RTIME)
   DFIELD  = 0.0000000 0.0000000 0.0000000 field for delta impulse in time

  Optional k-point grid parameters
   LKPOINTS_OPT  =     F    use optional k-point grid
   KPOINTS_OPT_MODE=     1    mode for optional k-point grid

 Orbital magnetization related:
   ORBITALMAG=     F  switch on orbital magnetization
   LCHIMAG   =     F  perturbation theory with respect to B field
   DQ        =  0.001000  dq finite difference perturbation B field
   LLRAUG    =     F  two centre corrections for induced B field



--------------------------------------------------------------------------------------------------------


 conjugate gradient relaxation of ions
 charge density and potential will be updated during run
 non-spin polarized calculation
 Variant of blocked Davidson
 Davidson routine will perform the subspace rotation
 perform sub-space diagonalisation
    after iterative eigenvector-optimisation
 modified Broyden-mixing scheme, WC =      100.0
 initial mixing is a Kerker type mixing with AMIX =  0.4000 and BMIX =      1.0000
 Hartree-type preconditioning will be used
 using additional bands           40
 real space projection scheme for non local part
 use partial core corrections
 calculate Harris-corrections to forces   (improved forces if not selfconsistent)
 use gradient corrections 
 use of overlap-Matrix (Vanderbilt PP)
 Gauss-broadening in eV      SIGMA  =   0.05


--------------------------------------------------------------------------------------------------------


  energy-cutoff  :      400.00
  volume of cell :      644.67
      direct lattice vectors                 reciprocal lattice vectors
     8.638659240  0.000000000  0.000000000     0.115758704  0.000000000 -0.000000000
    -0.000000000  8.638659240  0.000000000     0.000000000  0.115758704  0.000000000
     0.000000000  0.000000000  8.638659240    -0.000000000 -0.000000000  0.115758704

  length of vectors
     8.638659240  8.638659240  8.638659240     0.115758704  0.115758704  0.115758704



 k-points in units of 2pi/SCALE and weight: pymatgen with grid density = 500 / numbe
   0.00000000  0.00000000  0.00000000       0.125
   0.05787935  0.00000000  0.00000000       0.375
   0.05787935  0.05787935  0.00000000       0.375
   0.05787935  0.05787935  0.05787935       0.125

 k-points in reciprocal lattice and weights: pymatgen with grid density = 500 / numbe
   0.00000000  0.00000000  0.00000000       0.125
   0.50000000  0.00000000  0.00000000       0.375
   0.50000000  0.50000000  0.00000000       0.375
   0.50000000  0.50000000  0.50000000       0.125

 position of ions in fractional coordinates (direct lattice) 
   0.43882287  0.93882287  0.56117713
   0.93882287  0.56117713  0.43882287
   0.56117713  0.43882287  0.93882287
   0.06117713  0.06117713  0.06117713
   0.93131999  0.43131999  0.06868001
   0.43131999  0.06868001  0.93131999
   0.06868001  0.93131999  0.43131999
   0.56868001  0.56868001  0.56868001
   0.67486611  0.17486611  0.32513389
   0.17486611  0.32513389  0.67486611
   0.32513389  0.67486611  0.17486611
   0.82513389  0.82513389  0.82513389
   0.21433105  0.71433105  0.78566895
   0.71433105  0.78566895  0.21433105
   0.78566895  0.21433105  0.71433105
   0.28566895  0.28566895  0.28566895
   0.14174181  0.98507859  0.74989682
   0.25010318  0.64174181  0.51492141
   0.48507859  0.75010318  0.85825819
   0.64174181  0.51492141  0.25010318
   0.75010318  0.85825819  0.48507859
   0.98507859  0.74989682  0.14174181
   0.85825819  0.48507859  0.75010318
   0.74989682  0.14174181  0.98507859
   0.51492141  0.25010318  0.64174181
   0.35825819  0.01492141  0.24989682
   0.24989682  0.35825819  0.01492141
   0.01492141  0.24989682  0.35825819

 position of ions in cartesian coordinates  (Angst):
   3.79084124  8.11017086  4.84781800
   8.11017086  4.84781800  3.79084124
   4.84781800  3.79084124  8.11017086
   0.52848838  0.52848838  0.52848838
   8.04535604  3.72602642  0.59330320
   3.72602642  0.59330320  8.04535604
   0.59330320  8.04535604  3.72602642
   4.91263282  4.91263282  4.91263282
   5.82993836  1.51060874  2.80872088
   1.51060874  2.80872088  5.82993836
   2.80872088  5.82993836  1.51060874
   7.12805050  7.12805050  7.12805050
   1.85153291  6.17086253  6.78712633
   6.17086253  6.78712633  1.85153291
   6.78712633  1.85153291  6.17086253
   2.46779671  2.46779671  2.46779671
   1.22445920  8.50975826  6.47810309
   2.16055615  5.54378882  4.44823060
   4.19042864  6.47988577  7.41420004
   5.54378882  4.44823060  2.16055615
   6.47988577  7.41420004  4.19042864
   8.50975826  6.47810309  1.22445920
   7.41420004  4.19042864  6.47988577
   6.47810309  1.22445920  8.50975826
   4.44823060  2.16055615  5.54378882
   3.09487042  0.12890098  2.15877347
   2.15877347  3.09487042  0.12890098
   0.12890098  2.15877347  3.09487042



--------------------------------------------------------------------------------------------------------


 k-point   1 :   0.0000 0.0000 0.0000  plane waves:   11753
 k-point   2 :   0.5000 0.0000 0.0000  plane waves:   11684
 k-point   3 :   0.5000 0.5000 0.0000  plane waves:   11640
 k-point   4 :   0.5000 0.5000 0.5000  plane waves:   11656

 maximum and minimum number of plane-waves per node :     11753    11640

 maximum number of plane-waves:     11753
 maximum index in each direction: 
   IXMAX=   14   IYMAX=   14   IZMAX=   14
   IXMIN=  -14   IYMIN=  -14   IZMIN=  -14


 serial   3D FFT for wavefunctions
 parallel 3D FFT for charge:
    minimum data exchange during FFTs selected (reduces bandwidth)


 total amount of memory used by VASP MPI-rank0    41472. kBytes
=======================================================================

   base      :      30000. kBytes
   nonlr-proj:       2770. kBytes
   fftplans  :       1025. kBytes
   grid      :       4370. kBytes
   one-center:        227. kBytes
   wavefun   :       3080. kBytes

     INWAV:  cpu time      0.0000: real time      0.0002
 Broyden mixing: mesh for mixing (old mesh)
   NGX = 29   NGY = 29   NGZ = 29
  (NGX  = 84   NGY  = 84   NGZ  = 84)
  gives a total of  24389 points

 initial charge density was supplied:
 charge density of overlapping atoms calculated
 number of electron     176.0000000 magnetization 
 keeping initial charge density in first step


--------------------------------------------------------------------------------------------------------


 Maximum index for non-local projection operator         1237
 Maximum index for augmentation-charges          401 (set IRDMAX)


--------------------------------------------------------------------------------------------------------


 First call to EWALD:  gamma=   0.205
 Maximum number of real-space cells 3x 3x 3
 Maximum number of reciprocal cells 3x 3x 3

    FEWALD:  cpu time      0.0010: real time      0.0012


--------------------------------------- Iteration      1(   1)  ---------------------------------------


    POTLOK:  cpu time      0.0187: real time      0.0189
    SETDIJ:  cpu time      0.0027: real time      0.0029
     EDDAV:  cpu time      0.5876: real time      0.5883
       DOS:  cpu time      0.0009: real time      0.0011
    --------------------------------------------
      LOOP:  cpu time      0.6099: real time      0.6112

 eigenvalue-minimisations  :  1024
 total energy-change (2. order) : 0.1426436E+04  (-0.7114407E+04)
 number of electron     176.0000000 magnetization 
 augmentation part      176.0000000 magnetization 

 Free energy of the ion-electron system (eV)
  ---------------------------------------------------
  alpha Z        PSCENC =       212.09857090
  Ewald energy   TEWEN  =     -7951.57990102
  -Hartree energ DENC   =     -3221.71613973
  -exchange      EXHF   =         0.00000000
  -V(xc)+E(xc)   XCENC  =       258.46548149
  PAW double counting   =      9292.70176790   -10101.46807451
  entropy T*S    EENTRO =        -0.02004849
  eigenvalues    EBANDS =      -176.07192612
  atomic energy  EATOM  =     13114.02654919
  Solvation  Ediel_sol  =         0.00000000
  ---------------------------------------------------
  free energy    TOTEN  =      1426.43627961 eV

  energy without entropy =     1426.45632810  energy(sigma->0) =     1426.44630385


--------------------------------------------------------------------------------------------------------




--------------------------------------- Iteration      1(   2)  ---------------------------------------


     EDDAV:  cpu time      0.6089: real time      0.6093
       DOS:  cpu time      0.0006: real time      0.0007
    --------------------------------------------
      LOOP:  cpu time      0.6095: real time      0.6100

 eigenvalue-minimisations  :  1056
 total energy-change (2. order) :-0.1377945E+04  (-0.1321336E+04)
 number of electron     176.0000000 magnetization 
 augmentation part      176.0000000 magnetization 

 Free energy of the ion-electron system (eV)
  ---------------------------------------------------
  alpha Z        PSCENC =       212.09857090
  Ewald energy   TEWEN  =     -7951.57990102
  -Hartree energ DENC   =     -3221.71613973
  -exchange      EXHF   =         0.00000000
  -V(xc)+E(xc)   XCENC  =       258.46548149
  PAW double counting   =      9292.70176790   -10101.46807451
  entropy T*S    EENTRO =        -0.00000000
  eigenvalues    EBANDS =     -1554.03693079
  atomic energy  EATOM  =     13114.02654919
  Solvation  Ediel_sol  =         0.00000000
  ---------------------------------------------------
  free energy    TOTEN  =        48.49132342 eV

  energy without entropy =       48.49132342  energy(sigma->0) =       48.49132342


--------------------------------------------------------------------------------------------------------




--------------------------------------- Iteration      1(   3)  ---------------------------------------


     EDDAV:  cpu time      0.8546: real time      0.8552
       DOS:  cpu time      0.0006: real time      0.0007
    --------------------------------------------
      LOOP:  cpu time      0.8552: real time      0.8559

 eigenvalue-minimisations  :  1344
 total energy-change (2. order) :-0.1557971E+03  (-0.1536467E+03)
 number of electron     176.0000000 magnetization 
 augmentation part      176.0000000 magnetization 

 Free energy of the ion-electron system (eV)
  ---------------------------------------------------
  alpha Z        PSCENC =       212.09857090
  Ewald energy   TEWEN  =     -7951.57990102
  -Hartree energ DENC   =     -3221.71613973
  -exchange      EXHF   =         0.00000000
  -V(xc)+E(xc)   XCENC  =       258.46548149
  PAW double counting   =      9292.70176790   -10101.46807451
  entropy T*S    EENTRO =        -0.00000000
  eigenvalues    EBANDS =     -1709.83405734
  atomic energy  EATOM  =     13114.02654919
  Solvation  Ediel_sol  =         0.00000000
  ---------------------------------------------------
  free energy    TOTEN  =      -107.30580313 eV

  energy without entropy =     -107.30580313  energy(sigma->0) =     -107.30580313


--------------------------------------------------------------------------------------------------------




--------------------------------------- Iteration      1(   4)  ---------------------------------------


     EDDAV:  cpu time      0.7870: real time      0.7875
       DOS:  cpu time      0.0006: real time      0.0007
    --------------------------------------------
      LOOP:  cpu time      0.7876: real time      0.7883

 eigenvalue-minimisations  :  1280
 total energy-change (2. order) :-0.5190633E+01  (-0.5179325E+01)
 number of electron     176.0000000 magnetization 
 augmentation part      176.0000000 magnetization 

 Free energy of the ion-electron system (eV)
  ---------------------------------------------------
  alpha Z        PSCENC =       212.09857090
  Ewald energy   TEWEN  =     -7951.57990102
  -Hartree energ DENC   =     -3221.71613973
  -exchange      EXHF   =         0.00000000
  -V(xc)+E(xc)   XCENC  =       258.46548149
  PAW double counting   =      9292.70176790   -10101.46807451
  entropy T*S    EENTRO =        -0.00000000
  eigenvalues    EBANDS =     -1715.02469068
  atomic energy  EATOM  =     13114.02654919
  Solvation  Ediel_sol  =         0.00000000
  ---------------------------------------------------
  free energy    TOTEN  =      -112.49643646 eV

  energy without entropy =     -112.49643646  energy(sigma->0) =     -112.49643646


--------------------------------------------------------------------------------------------------------




--------------------------------------- Iteration      1(   5)  ---------------------------------------


     EDDAV:  cpu time      1.0377: real time      1.0389
       DOS:  cpu time      0.0006: real time      0.0007
    CHARGE:  cpu time      0.0274: real time      0.0277
    MIXING:  cpu time      0.0010: real time      0.0012
    --------------------------------------------
      LOOP:  cpu time      1.0667: real time      1.0684

 eigenvalue-minimisations  :  1536
 total energy-change (2. order) :-0.1683378E+00  (-0.1683210E+00)
 number of electron     175.9999698 magnetization 
 augmentation part       40.1637482 magnetization 

 Broyden mixing:
  rms(total) = 0.18054E+01    rms(broyden)= 0.18054E+01
  rms(prec ) = 0.23655E+01
  weight for this iteration     100.00

 Free energy of the ion-electron system (eV)
  ---------------------------------------------------
  alpha Z        PSCENC =       212.09857090
  Ewald energy   TEWEN  =     -7951.57990102
  -Hartree energ DENC   =     -3221.71613973
  -exchange      EXHF   =         0.00000000
  -V(xc)+E(xc)   XCENC  =       258.46548149
  PAW double counting   =      9292.70176790   -10101.46807451
  entropy T*S    EENTRO =        -0.00000000
  eigenvalues    EBANDS =     -1715.19302850
  atomic energy  EATOM  =     13114.02654919
  Solvation  Ediel_sol  =         0.00000000
  ---------------------------------------------------
  free energy    TOTEN  =      -112.66477429 eV

  energy without entropy =     -112.66477429  energy(sigma->0) =     -112.66477429


--------------------------------------------------------------------------------------------------------




--------------------------------------- Iteration      1(   6)  ---------------------------------------


    POTLOK:  cpu time      0.0151: real time      0.0153
    SETDIJ:  cpu time      0.0020: real time      0.0020
     EDDAV:  cpu time      0.7692: real time      0.7698
       DOS:  cpu time      0.0007: real time      0.0008
    CHARGE:  cpu time      0.0233: real time      0.0233
    MIXING:  cpu time      0.0009: real time      0.0010
    --------------------------------------------
      LOOP:  cpu time      0.8112: real time      0.8123

 eigenvalue-minimisations  :  1248
 total energy-change (2. order) : 0.6161479E+01  (-0.1098506E+01)
 number of electron     175.9999698 magnetization 
 augmentation part       40.5714351 magnetization 

 Broyden mixing:
  rms(total) = 0.13638E+01    rms(broyden)= 0.13638E+01
  rms(prec ) = 0.14516E+01
  weight for this iteration     100.00

 eigenvalues of (default mixing * dielectric matrix)
  average eigenvalue GAMMA=   1.7516
  1.7516

 Free energy of the ion-electron system (eV)
  ---------------------------------------------------
  alpha Z        PSCENC =       212.09857090
  Ewald energy   TEWEN  =     -7951.57990102
  -Hartree energ DENC   =     -3255.46650098
  -exchange      EXHF   =         0.00000000
  -V(xc)+E(xc)   XCENC  =       262.96885273
  PAW double counting   =     10529.13468093   -11337.15512501
  entropy T*S    EENTRO =        -0.00000000
  eigenvalues    EBANDS =     -1680.53042225
  atomic energy  EATOM  =     13114.02654919
  Solvation  Ediel_sol  =         0.00000000
  ---------------------------------------------------
  free energy    TOTEN  =      -106.50329551 eV

  energy without entropy =     -106.50329551  energy(sigma->0) =     -106.50329551


--------------------------------------------------------------------------------------------------------




--------------------------------------- Iteration      1(   7)  ---------------------------------------


    POTLOK:  cpu time      0.0143: real time      0.0145
    SETDIJ:  cpu time      0.0020: real time      0.0020
     EDDAV:  cpu time      0.8658: real time      0.8664
       DOS:  cpu time      0.0008: real time      0.0010
    CHARGE:  cpu time      0.0232: real time      0.0232
    MIXING:  cpu time      0.0006: real time      0.0006
    --------------------------------------------
      LOOP:  cpu time      0.9066: real time      0.9076

 eigenvalue-minimisations  :  1408
 total energy-change (2. order) : 0.2668692E+00  (-0.3174875E+00)
 number of electron     175.9999699 magnetization 
 augmentation part       40.7143863 magnetization 

 Broyden mixing:
  rms(total) = 0.66020E+00    rms(broyden)= 0.66020E+00
  rms(prec ) = 0.69265E+00
  weight for this iteration     100.00

 eigenvalues of (default mixing * dielectric matrix)
  average eigenvalue GAMMA=   1.5098
  1.2628  1.7569

 Free energy of the ion-electron system (eV)
  ---------------------------------------------------
  alpha Z        PSCENC =       212.09857090
  Ewald energy   TEWEN  =     -7951.57990102
  -Hartree energ DENC   =     -3263.39271726
  -exchange      EXHF   =         0.00000000
  -V(xc)+E(xc)   XCENC  =       265.18687506
  PAW double counting   =     12303.85036270   -13113.42591042
  entropy T*S    EENTRO =        -0.00000000
  eigenvalues    EBANDS =     -1673.00025541
  atomic energy  EATOM  =     13114.02654919
  Solvation  Ediel_sol  =         0.00000000
  ---------------------------------------------------
  free energy    TOTEN  =      -106.23642626 eV

  energy without entropy =     -106.23642626  energy(sigma->0) =     -106.23642626


--------------------------------------------------------------------------------------------------------




--------------------------------------- Iteration      1(   8)  ---------------------------------------


    POTLOK:  cpu time      0.0140: real time      0.0142
    SETDIJ:  cpu time      0.0021: real time      0.0021
     EDDAV:  cpu time      0.7984: real time      0.7990
       DOS:  cpu time      0.0006: real time      0.0008
    CHARGE:  cpu time      0.0231: real time      0.0231
    MIXING:  cpu time      0.0006: real time      0.0006
    --------------------------------------------
      LOOP:  cpu time      0.8388: real time      0.8398

 eigenvalue-minimisations  :  1312
 total energy-change (2. order) : 0.2626265E-01  (-0.1949942E-01)
 number of electron     175.9999699 magnetization 
 augmentation part       40.6750122 magnetization 

 Broyden mixing:
  rms(total) = 0.19950E+00    rms(broyden)= 0.19950E+00
  rms(prec ) = 0.21964E+00
  weight for this iteration     100.00

 eigenvalues of (default mixing * dielectric matrix)
  average eigenvalue GAMMA=   1.6074
  2.4543  1.1839  1.1839

 Free energy of the ion-electron system (eV)
  ---------------------------------------------------
  alpha Z        PSCENC =       212.09857090
  Ewald energy   TEWEN  =     -7951.57990102
  -Hartree energ DENC   =     -3256.92271134
  -exchange      EXHF   =         0.00000000
  -V(xc)+E(xc)   XCENC  =       265.50871086
  PAW double counting   =     13353.11642398   -14164.17938601
  entropy T*S    EENTRO =        -0.00000000
  eigenvalues    EBANDS =     -1678.27842017
  atomic energy  EATOM  =     13114.02654919
  Solvation  Ediel_sol  =         0.00000000
  ---------------------------------------------------
  free energy    TOTEN  =      -106.21016361 eV

  energy without entropy =     -106.21016361  energy(sigma->0) =     -106.21016361


--------------------------------------------------------------------------------------------------------




--------------------------------------- Iteration      1(   9)  ---------------------------------------


    POTLOK:  cpu time      0.0141: real time      0.0143
    SETDIJ:  cpu time      0.0020: real time      0.0020
     EDDAV:  cpu time      0.7814: real time      0.7844
       DOS:  cpu time      0.0006: real time      0.0008
    CHARGE:  cpu time      0.0233: real time      0.0233
    MIXING:  cpu time      0.0006: real time      0.0006
    --------------------------------------------
      LOOP:  cpu time      0.8220: real time      0.8253

 eigenvalue-minimisations  :  1280
 total energy-change (2. order) :-0.1719803E-02  (-0.4632335E-02)
 number of electron     175.9999699 magnetization 
 augmentation part       40.6839996 magnetization 

 Broyden mixing:
  rms(total) = 0.45220E-01    rms(broyden)= 0.45220E-01
  rms(prec ) = 0.49617E-01
  weight for this iteration     100.00

 eigenvalues of (default mixing * dielectric matrix)
  average eigenvalue GAMMA=   1.3734
  2.3401  1.1957  1.1957  0.7620

 Free energy of the ion-electron system (eV)
  ---------------------------------------------------
  alpha Z        PSCENC =       212.09857090
  Ewald energy   TEWEN  =     -7951.57990102
  -Hartree energ DENC   =     -3256.60229338
  -exchange      EXHF   =         0.00000000
  -V(xc)+E(xc)   XCENC  =       266.01932150
  PAW double counting   =     13856.88529405   -14668.62991694
  entropy T*S    EENTRO =        -0.00000000
  eigenvalues    EBANDS =     -1678.42950770
  atomic energy  EATOM  =     13114.02654919
  Solvation  Ediel_sol  =         0.00000000
  ---------------------------------------------------
  free energy    TOTEN  =      -106.21188341 eV

  energy without entropy =     -106.21188341  energy(sigma->0) =     -106.21188341


--------------------------------------------------------------------------------------------------------




--------------------------------------- Iteration      1(  10)  ---------------------------------------


    POTLOK:  cpu time      0.0140: real time      0.0142
    SETDIJ:  cpu time      0.0020: real time      0.0020
     EDDAV:  cpu time      0.7569: real time      0.7594
       DOS:  cpu time      0.0006: real time      0.0008
    CHARGE:  cpu time      0.0231: real time      0.0231
    MIXING:  cpu time      0.0006: real time      0.0006
    --------------------------------------------
      LOOP:  cpu time      0.7973: real time      0.8001

 eigenvalue-minimisations  :  1280
 total energy-change (2. order) :-0.9375963E-03  (-0.3145294E-03)
 number of electron     175.9999699 magnetization 
 augmentation part       40.6823206 magnetization 

 Broyden mixing:
  rms(total) = 0.23888E-01    rms(broyden)= 0.23888E-01
  rms(prec ) = 0.29594E-01
  weight for this iteration     100.00

 eigenvalues of (default mixing * dielectric matrix)
  average eigenvalue GAMMA=   1.6605
  2.4675  2.4675  1.0649  1.1514  1.1514

 Free energy of the ion-electron system (eV)
  ---------------------------------------------------
  alpha Z        PSCENC =       212.09857090
  Ewald energy   TEWEN  =     -7951.57990102
  -Hartree energ DENC   =     -3256.38139174
  -exchange      EXHF   =         0.00000000
  -V(xc)+E(xc)   XCENC  =       266.00174739
  PAW double counting   =     13768.96138794   -14580.77487217
  entropy T*S    EENTRO =        -0.00000000
  eigenvalues    EBANDS =     -1678.56491150
  atomic energy  EATOM  =     13114.02654919
  Solvation  Ediel_sol  =         0.00000000
  ---------------------------------------------------
  free energy    TOTEN  =      -106.21282101 eV

  energy without entropy =     -106.21282101  energy(sigma->0) =     -106.21282101


--------------------------------------------------------------------------------------------------------




--------------------------------------- Iteration      1(  11)  ---------------------------------------


    POTLOK:  cpu time      0.0141: real time      0.0143
    SETDIJ:  cpu time      0.0020: real time      0.0020
     EDDAV:  cpu time      0.7735: real time      0.7739
       DOS:  cpu time      0.0006: real time      0.0008
    CHARGE:  cpu time      0.0233: real time      0.0234
    MIXING:  cpu time      0.0006: real time      0.0006
    --------------------------------------------
      LOOP:  cpu time      0.8142: real time      0.8150

 eigenvalue-minimisations  :  1280
 total energy-change (2. order) :-0.1332962E-02  (-0.2803614E-03)
 number of electron     175.9999699 magnetization 
 augmentation part       40.6805517 magnetization 

 Broyden mixing:
  rms(total) = 0.11322E-01    rms(broyden)= 0.11322E-01
  rms(prec ) = 0.12222E-01
  weight for this iteration     100.00

 eigenvalues of (default mixing * dielectric matrix)
  average eigenvalue GAMMA=   1.5440
  2.4885  2.4885  1.2140  1.1291  1.1291  0.8147

 Free energy of the ion-electron system (eV)
  ---------------------------------------------------
  alpha Z        PSCENC =       212.09857090
  Ewald energy   TEWEN  =     -7951.57990102
  -Hartree energ DENC   =     -3255.62783225
  -exchange      EXHF   =         0.00000000
  -V(xc)+E(xc)   XCENC  =       266.03396156
  PAW double counting   =     13720.47963392   -14532.52218267
  entropy T*S    EENTRO =        -0.00000000
  eigenvalues    EBANDS =     -1679.12295359
  atomic energy  EATOM  =     13114.02654919
  Solvation  Ediel_sol  =         0.00000000
  ---------------------------------------------------
  free energy    TOTEN  =      -106.21415397 eV

  energy without entropy =     -106.21415397  energy(sigma->0) =     -106.21415397


--------------------------------------------------------------------------------------------------------




--------------------------------------- Iteration      1(  12)  ---------------------------------------


    POTLOK:  cpu time      0.0140: real time      0.0143
    SETDIJ:  cpu time      0.0021: real time      0.0020
     EDDAV:  cpu time      0.8103: real time      0.8111
       DOS:  cpu time      0.0006: real time      0.0008
    CHARGE:  cpu time      0.0241: real time      0.0241
    MIXING:  cpu time      0.0008: real time      0.0008
    --------------------------------------------
      LOOP:  cpu time      0.8520: real time      0.8531

 eigenvalue-minimisations  :  1344
 total energy-change (2. order) : 0.1305089E-04  (-0.1197241E-04)
 number of electron     175.9999699 magnetization 
 augmentation part       40.6815305 magnetization 

 Broyden mixing:
  rms(total) = 0.57454E-02    rms(broyden)= 0.57454E-02
  rms(prec ) = 0.62746E-02
  weight for this iteration     100.00

 eigenvalues of (default mixing * dielectric matrix)
  average eigenvalue GAMMA=   1.7359
  2.8284  2.8284  2.0885  1.2797  1.1016  1.1016  0.9231

 Free energy of the ion-electron system (eV)
  ---------------------------------------------------
  alpha Z        PSCENC =       212.09857090
  Ewald energy   TEWEN  =     -7951.57990102
  -Hartree energ DENC   =     -3255.73371441
  -exchange      EXHF   =         0.00000000
  -V(xc)+E(xc)   XCENC  =       266.04010727
  PAW double counting   =     13706.79655668   -14518.82988471
  entropy T*S    EENTRO =        -0.00000000
  eigenvalues    EBANDS =     -1679.03242482
  atomic energy  EATOM  =     13114.02654919
  Solvation  Ediel_sol  =         0.00000000
  ---------------------------------------------------
  free energy    TOTEN  =      -106.21414092 eV

  energy without entropy =     -106.21414092  energy(sigma->0) =     -106.21414092


--------------------------------------------------------------------------------------------------------




--------------------------------------- Iteration      1(  13)  ---------------------------------------


    POTLOK:  cpu time      0.0146: real time      0.0153
    SETDIJ:  cpu time      0.0020: real time      0.0020
     EDDAV:  cpu time      0.7086: real time      0.7088
       DOS:  cpu time      0.0006: real time      0.0008
    CHARGE:  cpu time      0.0233: real time      0.0236
    MIXING:  cpu time      0.0007: real time      0.0007
    --------------------------------------------
      LOOP:  cpu time      0.7498: real time      0.7512

 eigenvalue-minimisations  :  1152
 total energy-change (2. order) :-0.3309499E-04  (-0.1313483E-04)
 number of electron     175.9999699 magnetization 
 augmentation part       40.6823655 magnetization 

 Broyden mixing:
  rms(total) = 0.27373E-02    rms(broyden)= 0.27372E-02
  rms(prec ) = 0.29659E-02
  weight for this iteration     100.00

 eigenvalues of (default mixing * dielectric matrix)
  average eigenvalue GAMMA=   1.6462
  3.0558  2.5218  1.7712  1.7712  1.1090  1.1090  0.9157  0.9157

 Free energy of the ion-electron system (eV)
  ---------------------------------------------------
  alpha Z        PSCENC =       212.09857090
  Ewald energy   TEWEN  =     -7951.57990102
  -Hartree energ DENC   =     -3255.77646942
  -exchange      EXHF   =         0.00000000
  -V(xc)+E(xc)   XCENC  =       266.04816792
  PAW double counting   =     13696.12987870   -14508.17353184
  entropy T*S    EENTRO =        -0.00000000
  eigenvalues    EBANDS =     -1678.98743844
  atomic energy  EATOM  =     13114.02654919
  Solvation  Ediel_sol  =         0.00000000
  ---------------------------------------------------
  free energy    TOTEN  =      -106.21417401 eV

  energy without entropy =     -106.21417401  energy(sigma->0) =     -106.21417401


--------------------------------------------------------------------------------------------------------




--------------------------------------- Iteration      1(  14)  ---------------------------------------


    POTLOK:  cpu time      0.0141: real time      0.0143
    SETDIJ:  cpu time      0.0020: real time      0.0020
     EDDAV:  cpu time      0.5912: real time      0.5913
       DOS:  cpu time      0.0006: real time      0.0007
    --------------------------------------------
      LOOP:  cpu time      0.6079: real time      0.6082

 eigenvalue-minimisations  :   960
 total energy-change (2. order) : 0.3547453E-05  (-0.1485912E-05)
 number of electron     175.9999699 magnetization 
 augmentation part       40.6823655 magnetization 

 Free energy of the ion-electron system (eV)
  ---------------------------------------------------
  alpha Z        PSCENC =       212.09857090
  Ewald energy   TEWEN  =     -7951.57990102
  -Hartree energ DENC   =     -3255.72121565
  -exchange      EXHF   =         0.00000000
  -V(xc)+E(xc)   XCENC  =       266.04903548
  PAW double counting   =     13700.20808009   -14512.26330561
  entropy T*S    EENTRO =        -0.00000000
  eigenvalues    EBANDS =     -1679.03198385
  atomic energy  EATOM  =     13114.02654919
  Solvation  Ediel_sol  =         0.00000000
  ---------------------------------------------------
  free energy    TOTEN  =      -106.21417046 eV

  energy without entropy =     -106.21417046  energy(sigma->0) =     -106.21417046


--------------------------------------------------------------------------------------------------------




 average (electrostatic) potential at core
  the test charge radii are     0.9254  1.1712  0.9698
  (the norm of the test charge is              1.0000)
       1 -46.0290       2 -46.0290       3 -46.0290       4 -46.0290       5 -45.9304
       6 -45.9304       7 -45.9304       8 -45.9304       9 -46.6379      10 -46.6379
      11 -46.6379      12 -46.6379      13 -89.9992      14 -89.9992      15 -89.9992
      16 -89.9992      17 -87.6132      18 -87.6132      19 -87.6132      20 -87.6132
      21 -87.6132      22 -87.6132      23 -87.6132      24 -87.6132      25 -87.6132
      26 -87.6132      27 -87.6132      28 -87.6132



 E-fermi :   2.6124     XC(G=0):  -8.6066     alpha+bet : -9.2781

 Fermi energy:         2.6124046568

 k-point     1 :       0.0000    0.0000    0.0000
  band No.  band energies     occupation 
      1     -20.8358      2.00000
      2     -20.8358      2.00000
      3     -20.8358      2.00000
      4     -20.8355      2.00000
      5     -20.8355      2.00000
      6     -20.8354      2.00000
      7     -20.8354      2.00000
      8     -20.8354      2.00000
      9     -20.8111      2.00000
     10     -20.8111      2.00000
     11     -20.8111      2.00000
     12     -20.8107      2.00000
     13     -20.2309      2.00000
     14     -20.2309      2.00000
     15     -20.2309      2.00000
     16     -20.2297      2.00000
     17     -20.2297      2.00000
     18     -20.2289      2.00000
     19     -20.2289      2.00000
     20     -20.2289      2.00000
     21     -20.2282      2.00000
     22     -20.2272      2.00000
     23     -20.2272      2.00000
     24     -20.2272      2.00000
     25     -20.1334      2.00000
     26     -20.1334      2.00000
     27     -20.1334      2.00000
     28     -20.1313      2.00000
     29     -20.1313      2.00000
     30     -20.1313      2.00000
     31     -20.1312      2.00000
     32     -20.1312      2.00000
     33     -20.1129      2.00000
     34     -20.1128      2.00000
     35     -20.1128      2.00000
     36     -20.1128      2.00000
     37     -10.2411      2.00000
     38      -9.9337      2.00000
     39      -9.9337      2.00000
     40      -9.9337      2.00000
     41      -8.7940      2.00000
     42      -8.7940      2.00000
     43      -8.7940      2.00000
     44      -8.7207      2.00000
     45      -8.7207      2.00000
     46      -8.7207      2.00000
     47      -8.6682      2.00000
     48      -8.6682      2.00000
     49      -5.1048      2.00000
     50      -5.1048      2.00000
     51      -5.1048      2.00000
     52      -4.7184      2.00000
     53      -1.4031      2.00000
     54      -1.4031      2.00000
     55      -1.4031      2.00000
     56      -1.0800      2.00000
     57      -0.4659      2.00000
     58      -0.4659      2.00000
     59      -0.4519      2.00000
     60      -0.4519      2.00000
     61      -0.4519      2.00000
     62      -0.3137      2.00000
     63      -0.3137      2.00000
     64      -0.3137      2.00000
     65       0.1333      2.00000
     66       0.1333      2.00000
     67       0.1333      2.00000
     68       1.0853      2.00000
     69       1.0853      2.00000
     70       1.0853      2.00000
     71       1.1137      2.00000
     72       1.2347      2.00000
     73       1.2347      2.00000
     74       1.4074      2.00000
     75       1.4074      2.00000
     76       1.4074      2.00000
     77       1.4827      2.00000
     78       1.4827      2.00000
     79       1.4880      2.00000
     80       1.6533      2.00000
     81       1.6533      2.00000
     82       1.6533      2.00000
     83       1.8633      2.00000
     84       1.8633      2.00000
     85       1.8633      2.00000
     86       2.2343      2.00000
     87       2.2343      2.00000
     88       2.2343      2.00000
     89       5.0534      0.00000
     90       5.0534      0.00000
     91       5.0534      0.00000
     92       5.6788      0.00000
     93       5.6788      0.00000
     94       5.7338      0.00000
     95       5.7338      0.00000
     96       5.7338      0.00000
     97       6.0633      0.00000
     98       6.9141      0.00000
     99       6.9141      0.00000
    100       6.9141      0.00000
    101       7.1672      0.00000
    102       7.6018      0.00000
    103       7.6018      0.00000
    104       7.6018      0.00000
    105       8.0613      0.00000
    106       8.0613      0.00000
    107       8.0613      0.00000
    108       8.3015      0.00000
    109       8.3015      0.00000
    110       8.3015      0.00000
    111       8.4387      0.00000
    112       8.7522      0.00000
    113       8.7522      0.00000
    114       8.8858      0.00000
    115       9.3302      0.00000
    116       9.3302      0.00000
    117       9.3302      0.00000
    118       9.6598      0.00000
    119       9.6598      0.00000
    120       9.6598      0.00000
    121       9.9472      0.00000
    122       9.9472      0.00000
    123       9.9472      0.00000
    124      10.1167      0.00000
    125      10.1167      0.00000
    126      10.1167      0.00000
    127      10.1287      0.00000
    128      10.1287      0.00000

 k-point     2 :       0.5000    0.0000    0.0000
  band No.  band energies     occupation 
      1     -20.8359      2.00000
      2     -20.8359      2.00000
      3     -20.8355      2.00000
      4     -20.8355      2.00000
      5     -20.8355      2.00000
      6     -20.8355      2.00000
      7     -20.8354      2.00000
      8     -20.8354      2.00000
      9     -20.8111      2.00000
     10     -20.8111      2.00000
     11     -20.8109      2.00000
     12     -20.8109      2.00000
     13     -20.2309      2.00000
     14     -20.2309      2.00000
     15     -20.2297      2.00000
     16     -20.2297      2.00000
     17     -20.2295      2.00000
     18     -20.2295      2.00000
     19     -20.2287      2.00000
     20     -20.2287      2.00000
     21     -20.2278      2.00000
     22     -20.2278      2.00000
     23     -20.2273      2.00000
     24     -20.2273      2.00000
     25     -20.1336      2.00000
     26     -20.1336      2.00000
     27     -20.1322      2.00000
     28     -20.1322      2.00000
     29     -20.1313      2.00000
     30     -20.1313      2.00000
     31     -20.1312      2.00000
     32     -20.1312      2.00000
     33     -20.1128      2.00000
     34     -20.1128      2.00000
     35     -20.1127      2.00000
     36     -20.1127      2.00000
     37     -10.1002      2.00000
     38     -10.1002      2.00000
     39      -9.9290      2.00000
     40      -9.9290      2.00000
     41      -8.7893      2.00000
     42      -8.7893      2.00000
     43      -8.7622      2.00000
     44      -8.7622      2.00000
     45      -8.7175      2.00000
     46      -8.7175      2.00000
     47      -8.6639      2.00000
     48      -8.6639      2.00000
     49      -5.2033      2.00000
     50      -5.2033      2.00000
     51      -4.8207      2.00000
     52      -4.8207      2.00000
     53      -1.2655      2.00000
     54      -1.2655      2.00000
     55      -1.0432      2.00000
     56      -1.0432      2.00000
     57      -0.8330      2.00000
     58      -0.8330      2.00000
     59      -0.6994      2.00000
     60      -0.6994      2.00000
     61      -0.3525      2.00000
     62      -0.3525      2.00000
     63      -0.0391      2.00000
     64      -0.0391      2.00000
     65       0.3379      2.00000
     66       0.3379      2.00000
     67       0.5818      2.00000
     68       0.5818      2.00000
     69       0.6779      2.00000
     70       0.6779      2.00000
     71       1.0692      2.00000
     72       1.0692      2.00000
     73       1.2118      2.00000
     74       1.2118      2.00000
     75       1.3568      2.00000
     76       1.3568      2.00000
     77       1.5154      2.00000
     78       1.5154      2.00000
     79       1.6424      2.00000
     80       1.6424      2.00000
     81       1.7821      2.00000
     82       1.7821      2.00000
     83       1.8887      2.00000
     84       1.8887      2.00000
     85       2.1810      2.00000
     86       2.1810      2.00000
     87       2.3254      2.00000
     88       2.3254      2.00000
     89       4.9073      0.00000
     90       4.9073      0.00000
     91       5.3469      0.00000
     92       5.3469      0.00000
     93       5.7287      0.00000
     94       5.7287      0.00000
     95       6.0780      0.00000
     96       6.0780      0.00000
     97       6.3261      0.00000
     98       6.3261      0.00000
     99       6.5042      0.00000
    100       6.5042      0.00000
    101       7.2061      0.00000
    102       7.2061      0.00000
    103       7.7338      0.00000
    104       7.7338      0.00000
    105       8.1638      0.00000
    106       8.1638      0.00000
    107       8.3557      0.00000
    108       8.3557      0.00000
    109       8.5665      0.00000
    110       8.5665      0.00000
    111       8.8012      0.00000
    112       8.8012      0.00000
    113       8.8962      0.00000
    114       8.8962      0.00000
    115       9.1609      0.00000
    116       9.1609      0.00000
    117       9.4104      0.00000
    118       9.4104      0.00000
    119       9.6899      0.00000
    120       9.6899      0.00000
    121       9.8380      0.00000
    122       9.8380      0.00000
    123      10.0944      0.00000
    124      10.0944      0.00000
    125      10.1512      0.00000
    126      10.1512      0.00000
    127      10.3884      0.00000
    128      10.3952      0.00000

 k-point     3 :       0.5000    0.5000    0.0000
  band No.  band energies     occupation 
      1     -20.8358      2.00000
      2     -20.8358      2.00000
      3     -20.8356      2.00000
      4     -20.8356      2.00000
      5     -20.8354      2.00000
      6     -20.8354      2.00000
      7     -20.8353      2.00000
      8     -20.8353      2.00000
      9     -20.8110      2.00000
     10     -20.8110      2.00000
     11     -20.8109      2.00000
     12     -20.8109      2.00000
     13     -20.2303      2.00000
     14     -20.2303      2.00000
     15     -20.2301      2.00000
     16     -20.2301      2.00000
     17     -20.2288      2.00000
     18     -20.2288      2.00000
     19     -20.2288      2.00000
     20     -20.2288      2.00000
     21     -20.2281      2.00000
     22     -20.2281      2.00000
     23     -20.2276      2.00000
     24     -20.2276      2.00000
     25     -20.1335      2.00000
     26     -20.1335      2.00000
     27     -20.1324      2.00000
     28     -20.1324      2.00000
     29     -20.1312      2.00000
     30     -20.1312      2.00000
     31     -20.1312      2.00000
     32     -20.1312      2.00000
     33     -20.1128      2.00000
     34     -20.1128      2.00000
     35     -20.1127      2.00000
     36     -20.1127      2.00000
     37     -10.0230      2.00000
     38     -10.0230      2.00000
     39     -10.0056      2.00000
     40     -10.0056      2.00000
     41      -8.8232      2.00000
     42      -8.8232      2.00000
     43      -8.7885      2.00000
     44      -8.7885      2.00000
     45      -8.6639      2.00000
     46      -8.6639      2.00000
     47      -8.6618      2.00000
     48      -8.6618      2.00000
     49      -5.1876      2.00000
     50      -5.1876      2.00000
     51      -4.8353      2.00000
     52      -4.8353      2.00000
     53      -1.2141      2.00000
     54      -1.2141      2.00000
     55      -1.0416      2.00000
     56      -1.0416      2.00000
     57      -0.7723      2.00000
     58      -0.7723      2.00000
     59      -0.6267      2.00000
     60      -0.6267      2.00000
     61      -0.4688      2.00000
     62      -0.4688      2.00000
     63      -0.0925      2.00000
     64      -0.0925      2.00000
     65       0.2177      2.00000
     66       0.2177      2.00000
     67       0.5829      2.00000
     68       0.5829      2.00000
     69       0.9063      2.00000
     70       0.9063      2.00000
     71       1.0490      2.00000
     72       1.0490      2.00000
     73       1.1457      2.00000
     74       1.1457      2.00000
     75       1.3747      2.00000
     76       1.3747      2.00000
     77       1.4219      2.00000
     78       1.4219      2.00000
     79       1.6454      2.00000
     80       1.6454      2.00000
     81       1.7314      2.00000
     82       1.7314      2.00000
     83       1.9076      2.00000
     84       1.9076      2.00000
     85       2.2717      2.00000
     86       2.2717      2.00000
     87       2.2836      2.00000
     88       2.2836      2.00000
     89       5.0455      0.00000
     90       5.0455      0.00000
     91       5.0790      0.00000
     92       5.0790      0.00000
     93       5.6560      0.00000
     94       5.6560      0.00000
     95       5.6945      0.00000
     96       5.6945      0.00000
     97       6.6977      0.00000
     98       6.6977      0.00000
     99       6.8862      0.00000
    100       6.8862      0.00000
    101       7.5267      0.00000
    102       7.5267      0.00000
    103       7.5980      0.00000
    104       7.5980      0.00000
    105       7.7398      0.00000
    106       7.7398      0.00000
    107       8.3043      0.00000
    108       8.3043      0.00000
    109       8.4473      0.00000
    110       8.4473      0.00000
    111       8.7652      0.00000
    112       8.7652      0.00000
    113       9.0226      0.00000
    114       9.0226      0.00000
    115       9.2036      0.00000
    116       9.2036      0.00000
    117       9.5932      0.00000
    118       9.5932      0.00000
    119       9.7591      0.00000
    120       9.7591      0.00000
    121       9.9401      0.00000
    122       9.9401      0.00000
    123      10.1712      0.00000
    124      10.1712      0.00000
    125      10.2810      0.00000
    126      10.2810      0.00000
    127      10.4371      0.00000
    128      10.4372      0.00000

 k-point     4 :       0.5000    0.5000    0.5000
  band No.  band energies     occupation 
      1     -20.8358      2.00000
      2     -20.8358      2.00000
      3     -20.8358      2.00000
      4     -20.8358      2.00000
      5     -20.8353      2.00000
      6     -20.8353      2.00000
      7     -20.8353      2.00000
      8     -20.8353      2.00000
      9     -20.8110      2.00000
     10     -20.8110      2.00000
     11     -20.8110      2.00000
     12     -20.8110      2.00000
     13     -20.2297      2.00000
     14     -20.2297      2.00000
     15     -20.2297      2.00000
     16     -20.2297      2.00000
     17     -20.2290      2.00000
     18     -20.2290      2.00000
     19     -20.2290      2.00000
     20     -20.2290      2.00000
     21     -20.2280      2.00000
     22     -20.2280      2.00000
     23     -20.2280      2.00000
     24     -20.2280      2.00000
     25     -20.1331      2.00000
     26     -20.1331      2.00000
     27     -20.1331      2.00000
     28     -20.1331      2.00000
     29     -20.1312      2.00000
     30     -20.1312      2.00000
     31     -20.1312      2.00000
[...]
     48      -8.7879      2.00000
     49      -5.3777      2.00000
     50      -5.3777      2.00000
     51      -5.0477      2.00000
     52      -5.0477      2.00000
     53      -1.3034      2.00000
     54      -1.3034      2.00000
     55      -1.1441      2.00000
     56      -1.1441      2.00000
     57      -0.8807      2.00000
     58      -0.8807      2.00000
     59      -0.7411      2.00000
     60      -0.7411      2.00000
     61      -0.5778      2.00000
     62      -0.5778      2.00000
     63      -0.2087      2.00000
     64      -0.2087      2.00000
     65       0.1048      2.00000
     66       0.1048      2.00000
     67       0.4552      2.00000
     68       0.4552      2.00000
     69       0.7755      2.00000
     70       0.7755      2.00000
     71       0.9189      2.00000
     72       0.9189      2.00000
     73       1.0057      2.00000
     74       1.0057      2.00000
     75       1.2250      2.00000
     76       1.2250      2.00000
     77       1.2689      2.00000
     78       1.2689      2.00000
     79       1.4860      2.00000
     80       1.4860      2.00000
     81       1.5677      2.00000
     82       1.5677      2.00000
     83       1.7448      2.00000
     84       1.7448      2.00000
     85       2.0643      2.00000
     86       2.0643      2.00000
     87       2.0758      2.00000
     88       2.0758      2.00000
     89       4.7931      0.00000
     90       4.7931      0.00000
     91       4.8314      0.00000
     92       4.8314      0.00000
     93       5.3854      0.00000
     94       5.3854      0.00000
     95       5.4159      0.00000
     96       5.4159      0.00000
     97       6.4125      0.00000
     98       6.4125      0.00000
     99       6.5851      0.00000
    100       6.5851      0.00000
    101       7.2521      0.00000
    102       7.2521      0.00000
    103       7.3324      0.00000
    104       7.3324      0.00000
    105       7.5167      0.00000
    106       7.5167      0.00000
    107       8.0606      0.00000
    108       8.0606      0.00000
    109       8.1928      0.00000
    110       8.1928      0.00000
    111       8.5146      0.00000
    112       8.5146      0.00000
    113       8.7850      0.00000
    114       8.7850      0.00000
    115       8.9471      0.00000
    116       8.9471      0.00000
    117       9.3732      0.00000
    118       9.3732      0.00000
    119       9.5212      0.00000
    120       9.5212      0.00000
    121       9.6925      0.00000
    122       9.6925      0.00000
    123       9.9242      0.00000
    124       9.9242      0.00000
    125      10.0140      0.00000
    126      10.0140      0.00000
    127      10.1673      0.00000
    128      10.1673      0.00000

 k-point     4 :       0.5000    0.5000    0.5000
  band No.  band energies     occupation 
      1     -21.0455      2.00000
      2     -21.0455      2.00000
      3     -21.0455      2.00000
      4     -21.0455      2.00000
      5     -21.0451      2.00000
      6     -21.0451      2.00000
      7     -21.0451      2.00000
      8     -21.0451      2.00000
      9     -21.0208      2.00000
     10     -21.0208      2.00000
     11     -21.0208      2.00000
     12     -21.0208      2.00000
     13     -20.4410      2.00000
     14     -20.4410      2.00000
     15     -20.4410      2.00000
     16     -20.4410      2.00000
     17     -20.4410      2.00000
     18     -20.4410      2.00000
     19     -20.4410      2.00000
     20     -20.4410      2.00000
     21     -20.4399      2.00000
     22     -20.4399      2.00000
     23     -20.4399      2.00000
     24     -20.4399      2.00000
     25     -20.3479      2.00000
     26     -20.3479      2.00000
     27     -20.3479      2.00000
     28     -20.3479      2.00000
     29     -20.3463      2.00000
     30     -20.3463      2.00000
     31     -20.3463      2.00000
     32     -20.3463      2.00000
     33     -20.3284      2.00000
     34     -20.3284      2.00000
     35     -20.3284      2.00000
     36     -20.3284      2.00000
     37     -10.0582      2.00000
     38     -10.0582      2.00000
     39     -10.0582      2.00000
     40     -10.0582      2.00000
     41      -8.9690      2.00000
     42      -8.9690      2.00000
     43      -8.9690      2.00000
     44      -8.9690      2.00000
     45      -8.7547      2.00000
     46      -8.7547      2.00000
     47      -8.7547      2.00000
     48      -8.7547      2.00000
     49      -5.2114      2.00000
     50      -5.2114      2.00000
     51      -5.2114      2.00000
     52      -5.2114      2.00000
     53      -1.0420      2.00000
     54      -1.0420      2.00000
     55      -1.0420      2.00000
     56      -1.0420      2.00000
     57      -1.0307      2.00000
     58      -1.0307      2.00000
     59      -1.0307      2.00000
     60      -1.0307      2.00000
     61      -0.4430      2.00000
     62      -0.4430      2.00000
     63      -0.4430      2.00000
     64      -0.4430      2.00000
     65       0.2882      2.00000
     66       0.2882      2.00000
     67       0.2882      2.00000
     68       0.2882      2.00000
     69       1.0443      2.00000
     70       1.0443      2.00000
     71       1.0443      2.00000
     72       1.0443      2.00000
     73       1.1011      2.00000
     74       1.1011      2.00000
     75       1.1011      2.00000
     76       1.1011      2.00000
     77       1.5633      2.00000
     78       1.5633      2.00000
     79       1.5633      2.00000
     80       1.5633      2.00000
     81       1.6055      2.00000
     82       1.6055      2.00000
     83       1.6055      2.00000
     84       1.6055      2.00000
     85       1.8050      2.00000
     86       1.8050      2.00000
     87       1.8050      2.00000
     88       1.8050      2.00000
     89       4.5166      0.00000
     90       4.5166      0.00000
     91       4.5166      0.00000
     92       4.5166      0.00000
     93       6.0703      0.00000
     94       6.0703      0.00000
     95       6.0703      0.00000
     96       6.0703      0.00000
     97       6.1093      0.00000
     98       6.1093      0.00000
     99       6.1093      0.00000
    100       6.1093      0.00000
    101       7.1364      0.00000
    102       7.1364      0.00000
    103       7.1364      0.00000
    104       7.1364      0.00000
    105       7.8305      0.00000
    106       7.8305      0.00000
    107       7.8305      0.00000
    108       7.8305      0.00000
    109       8.6110      0.00000
    110       8.6110      0.00000
    111       8.6110      0.00000
    112       8.6110      0.00000
    113       8.8763      0.00000
    114       8.8763      0.00000
    115       8.8763      0.00000
    116       8.8763      0.00000
    117       9.6019      0.00000
    118       9.6019      0.00000
    119       9.6019      0.00000
    120       9.6019      0.00000
    121      10.0838      0.00000
    122      10.0838      0.00000
    123      10.0838      0.00000
    124      10.0838      0.00000
    125      10.1592      0.00000
    126      10.1592      0.00000
    127      10.1592      0.00000
    128      10.1592      0.00000


--------------------------------------------------------------------------------------------------------


 soft charge-density along one line, spin component           1
         0         1         2         3         4         5         6         7         8         9
 total charge-density along one line

 pseudopotential strength for first ion, spin component:           1
-24.740  -0.000   0.000   2.266   0.000  -0.000  -0.004  -0.013
 -0.000 -24.740  -0.000   0.000   2.266   0.000   0.004   0.013
  0.000  -0.000 -24.740  -0.000   0.000   2.266  -0.004  -0.013
  2.266   0.000  -0.000   6.677  -0.000   0.000   0.000  -0.000
  0.000   2.266   0.000  -0.000   6.677  -0.000  -0.000   0.000
 -0.000   0.000   2.266   0.000  -0.000   6.677   0.000  -0.000
 -0.004   0.004  -0.004   0.000  -0.000   0.000   1.434   6.996
 -0.013   0.013  -0.013  -0.000   0.000  -0.000   6.996  33.927
 total augmentation occupancy for first ion, spin component:           1
  2.001   0.000  -0.000  -0.001   0.000  -0.000   0.013  -0.004
  0.000   2.001   0.000   0.000  -0.001   0.000  -0.013   0.004
 -0.000   0.000   2.001  -0.000   0.000  -0.001   0.013  -0.004
 -0.001   0.000  -0.000   0.018  -0.000   0.000   0.008   0.000
  0.000  -0.001   0.000  -0.000   0.018  -0.000  -0.008  -0.000
 -0.000   0.000  -0.001   0.000  -0.000   0.018   0.008   0.000
  0.013  -0.013   0.013   0.008  -0.008   0.008   0.466  -0.001
 -0.004   0.004  -0.004   0.000  -0.000   0.000  -0.001   0.000


------------------------ aborting loop because EDIFF is reached ----------------------------------------


    CHARGE:  cpu time      0.0235: real time      0.0235
    FORLOC:  cpu time      0.0025: real time      0.0025
    FORNL :  cpu time      0.1405: real time      0.1405
    STRESS:  cpu time      0.4208: real time      0.4211
    FORCOR:  cpu time      0.0144: real time      0.0144
    FORHAR:  cpu time      0.0051: real time      0.0051
    MIXING:  cpu time      0.0004: real time      0.0004
    OFIELD:  cpu time      0.0000: real time      0.0000

  FORCE on cell =-STRESS in cart. coord.  units (eV):
  Direction    XX          YY          ZZ          XY          YZ          ZX
  --------------------------------------------------------------------------------------
  Alpha Z   206.73770   206.73770   206.73770
  Ewald   -2629.01961 -2629.01961 -2629.01961     0.00000     0.00000     0.00000
  Hartree  1095.11734  1095.11734  1095.11734    -0.00000    -0.00000    -0.00000
  E(xc)    -790.34465  -790.34465  -790.34465    -0.00000     0.00000     0.00000
  Local    -735.19030  -735.19030  -735.19030    -0.00000     0.00000    -0.00000
  n-local   932.60391   932.13063   931.70114    -0.00000    -0.00000    -0.00000
  augment   227.98151   227.98151   227.98151     0.00000    -0.00000    -0.00000
  Kinetic  1692.81158  1692.79919  1692.41382    -0.00000    -0.00000    -0.00000
  Fock        0.00000     0.00000     0.00000     0.00000     0.00000     0.00000
  -------------------------------------------------------------------------------------
  Total       0.10208     0.10208     0.10208    -0.00000     0.00000     0.00000
  in kB       0.24729     0.24729     0.24729    -0.00000     0.00000     0.00000
  external pressure =        0.25 kB  Pullay stress =        0.00 kB


 VOLUME and BASIS-vectors are now :
 -----------------------------------------------------------------------------
  energy-cutoff  :      400.00
  volume of cell :      661.39
      direct lattice vectors                 reciprocal lattice vectors
     8.712692066 -0.000000000  0.000000000     0.114775088  0.000000000 -0.000000000
    -0.000000000  8.712692066  0.000000000     0.000000000  0.114775088 -0.000000000
     0.000000000  0.000000000  8.712692066    -0.000000000 -0.000000000  0.114775088

  length of vectors
     8.712692066  8.712692066  8.712692066     0.114775088  0.114775088  0.114775088


 FORCES acting on ions
    electron-ion (+dipol)            ewald-force                    non-local-force                 convergence-correction
 -----------------------------------------------------------------------------------------------
   -.932E+01 -.932E+01 0.932E+01   0.103E+02 0.103E+02 -.103E+02   -.928E+00 -.928E+00 0.928E+00   -.525E-04 -.525E-04 0.525E-04
   -.932E+01 0.932E+01 -.932E+01   0.103E+02 -.103E+02 0.103E+02   -.928E+00 0.928E+00 -.928E+00   -.525E-04 0.525E-04 -.525E-04
   0.932E+01 -.932E+01 -.932E+01   -.103E+02 0.103E+02 0.103E+02   0.928E+00 -.928E+00 -.928E+00   0.525E-04 -.525E-04 -.525E-04
   0.932E+01 0.932E+01 0.932E+01   -.103E+02 -.103E+02 -.103E+02   0.928E+00 0.928E+00 0.928E+00   0.525E-04 0.525E-04 0.525E-04
   -.107E+02 -.107E+02 0.107E+02   0.114E+02 0.114E+02 -.114E+02   -.655E+00 -.655E+00 0.655E+00   -.255E-03 -.255E-03 0.255E-03
   -.107E+02 0.107E+02 -.107E+02   0.114E+02 -.114E+02 0.114E+02   -.655E+00 0.655E+00 -.655E+00   -.255E-03 0.255E-03 -.255E-03
   0.107E+02 -.107E+02 -.107E+02   -.114E+02 0.114E+02 0.114E+02   0.655E+00 -.655E+00 -.655E+00   0.255E-03 -.255E-03 -.255E-03
   0.107E+02 0.107E+02 0.107E+02   -.114E+02 -.114E+02 -.114E+02   0.655E+00 0.655E+00 0.655E+00   0.255E-03 0.255E-03 0.255E-03
   0.318E+01 0.318E+01 -.318E+01   -.339E+01 -.339E+01 0.339E+01   0.207E+00 0.207E+00 -.207E+00   0.810E-03 0.810E-03 -.810E-03
   0.318E+01 -.318E+01 0.318E+01   -.339E+01 0.339E+01 -.339E+01   0.207E+00 -.207E+00 0.207E+00   0.810E-03 -.810E-03 0.810E-03
   -.318E+01 0.318E+01 0.318E+01   0.339E+01 -.339E+01 -.339E+01   -.207E+00 0.207E+00 0.207E+00   -.810E-03 0.810E-03 0.810E-03
   -.318E+01 -.318E+01 -.318E+01   0.339E+01 0.339E+01 0.339E+01   -.207E+00 -.207E+00 -.207E+00   -.810E-03 -.810E-03 -.810E-03
   0.286E+02 0.286E+02 -.286E+02   -.355E+02 -.355E+02 0.355E+02   0.691E+01 0.691E+01 -.691E+01   0.737E-04 0.737E-04 -.737E-04
   0.286E+02 -.286E+02 0.286E+02   -.355E+02 0.355E+02 -.355E+02   0.691E+01 -.691E+01 0.691E+01   0.737E-04 -.737E-04 0.737E-04
   -.286E+02 0.286E+02 0.286E+02   0.355E+02 -.355E+02 -.355E+02   -.691E+01 0.691E+01 0.691E+01   -.737E-04 0.737E-04 0.737E-04
   -.286E+02 -.286E+02 -.286E+02   0.355E+02 0.355E+02 0.355E+02   -.691E+01 -.691E+01 -.691E+01   -.737E-04 -.737E-04 -.737E-04
   0.282E+02 -.200E+02 0.356E+01   -.290E+02 0.220E+02 -.387E+01   0.823E+00 -.206E+01 0.314E+00   0.224E-03 0.148E-02 -.145E-03
   -.356E+01 0.282E+02 0.200E+02   0.387E+01 -.290E+02 -.220E+02   -.314E+00 0.823E+00 0.206E+01   0.145E-03 0.224E-03 -.148E-02
   -.200E+02 -.356E+01 -.282E+02   0.220E+02 0.387E+01 0.290E+02   -.206E+01 -.314E+00 -.823E+00   0.148E-02 0.145E-03 -.224E-03
   0.282E+02 0.200E+02 -.356E+01   -.290E+02 -.220E+02 0.387E+01   0.823E+00 0.206E+01 -.314E+00   0.224E-03 -.148E-02 0.145E-03
   -.356E+01 -.282E+02 -.200E+02   0.387E+01 0.290E+02 0.220E+02   -.314E+00 -.823E+00 -.206E+01   0.145E-03 -.224E-03 0.148E-02
   -.200E+02 0.356E+01 0.282E+02   0.220E+02 -.387E+01 -.290E+02   -.206E+01 0.314E+00 0.823E+00   0.148E-02 -.145E-03 0.224E-03
   -.282E+02 -.200E+02 -.356E+01   0.290E+02 0.220E+02 0.387E+01   -.823E+00 -.206E+01 -.314E+00   -.224E-03 0.148E-02 0.145E-03
   0.356E+01 0.282E+02 -.200E+02   -.387E+01 -.290E+02 0.220E+02   0.314E+00 0.823E+00 -.206E+01   -.145E-03 0.224E-03 0.148E-02
   0.200E+02 -.356E+01 0.282E+02   -.220E+02 0.387E+01 -.290E+02   0.206E+01 -.314E+00 0.823E+00   -.148E-02 0.145E-03 0.224E-03
   -.282E+02 0.200E+02 0.356E+01   0.290E+02 -.220E+02 -.387E+01   -.823E+00 0.206E+01 0.314E+00   -.224E-03 -.148E-02 -.145E-03
   0.356E+01 -.282E+02 0.200E+02   -.387E+01 0.290E+02 -.220E+02   0.314E+00 -.823E+00 0.206E+01   -.145E-03 -.224E-03 -.148E-02
   0.200E+02 0.356E+01 -.282E+02   -.220E+02 -.387E+01 0.290E+02   0.206E+01 0.314E+00 -.823E+00   -.148E-02 -.145E-03 -.224E-03
 -----------------------------------------------------------------------------------------------
   0.532E-05 0.980E-05 0.512E-06   0.142E-13 0.711E-14 0.711E-14   0.000E+00 0.444E-15 -.333E-15   0.491E-12 -.428E-12 -.114E-11


 POSITION                                       TOTAL-FORCE (eV/Angst)
 -----------------------------------------------------------------------------------
      3.82563      8.18198      4.88706         0.017374      0.017374     -0.017374
      8.18198      4.88706      3.82563         0.017374     -0.017374      0.017374
      4.88706      3.82563      8.18198        -0.017374      0.017374      0.017374
      0.53071      0.53071      0.53071        -0.017374     -0.017374     -0.017374
      8.11429      3.75795      0.59840         0.004476      0.004476     -0.004476
      3.75795      0.59840      8.11429         0.004476     -0.004476      0.004476
      0.59840      8.11429      3.75795        -0.004476      0.004476      0.004476
      4.95474      4.95474      4.95474        -0.004476     -0.004476     -0.004476
      5.87896      1.52261      2.83374        -0.007367     -0.007367      0.007367
      1.52261      2.83374      5.87896        -0.007367      0.007367     -0.007367
      2.83374      5.87896      1.52261         0.007367     -0.007367     -0.007367
      7.19008      7.19008      7.19008         0.007367      0.007367      0.007367
      1.86707      6.22342      6.84562         0.017082      0.017082     -0.017082
      6.22342      6.84562      1.86707         0.017082     -0.017082      0.017082
      6.84562      1.86707      6.22342        -0.017082      0.017082      0.017082
      2.48927      2.48927      2.48927        -0.017082     -0.017082     -0.017082
      1.22929      8.58485      6.53448        -0.012377     -0.035073      0.004640
      2.17821      5.58564      4.48418        -0.004640     -0.012377      0.035073
      4.22851      6.53455      7.48340        -0.035073     -0.004640      0.012377
      5.58564      4.48418      2.17821        -0.012377      0.035073     -0.004640
      6.53455      7.48340      4.22851        -0.004640      0.012377     -0.035073
      8.58485      6.53448      1.22929        -0.035073      0.004640     -0.012377
      7.48340      4.22851      6.53455         0.012377     -0.035073     -0.004640
      6.53448      1.22929      8.58485         0.004640     -0.012377     -0.035073
      4.48418      2.17821      5.58564         0.035073     -0.004640     -0.012377
      3.12705      0.12784      2.17814         0.012377      0.035073      0.004640
      2.17814      3.12705      0.12784         0.004640      0.012377      0.035073
      0.12784      2.17814      3.12705         0.035073      0.004640      0.012377
 -----------------------------------------------------------------------------------
    total drift:                                0.000005      0.000010      0.000001


--------------------------------------------------------------------------------------------------------



  FREE ENERGIE OF THE ION-ELECTRON SYSTEM (eV)
  ---------------------------------------------------
  free  energy   TOTEN  =      -106.28512719 eV

  energy  without entropy=     -106.28512719  energy(sigma->0) =     -106.28512719

 d Force = 0.3170163E-02[ 0.223E-02, 0.411E-02]  d Energy = 0.4185389E-02-0.102E-02
 d Force =-0.1402320E+01[-0.141E+01,-0.139E+01]  d Ewald  =-0.1173187E+02 0.103E+02


--------------------------------------------------------------------------------------------------------


    POTLOK:  cpu time      0.0166: real time      0.0166


--------------------------------------------------------------------------------------------------------




--------------------------------------------------------------------------------------------------------


  
 reached required accuracy - stopping structural energy minimisation
     LOOP+:  cpu time      5.0719: real time      5.0807
    4ORBIT:  cpu time      0.0000: real time      0.0000

 total amount of memory used by VASP MPI-rank0    41472. kBytes
=======================================================================

   base      :      30000. kBytes
   nonlr-proj:       2770. kBytes
   fftplans  :       1025. kBytes
   grid      :       4370. kBytes
   one-center:        227. kBytes
   wavefun   :       3080. kBytes

  
  
 General timing and accounting informations for this job:
 ========================================================
  
                  Total CPU time used (sec):       44.765
                            User time (sec):       43.219
                          System time (sec):        1.546
                         Elapsed time (sec):       45.500
  
                   Maximum memory used (kb):      138048.
                   Average memory used (kb):          N/A
  
                          Minor page faults:        48881
                          Major page faults:          142
                 Voluntary context switches:         1123
