  79  79   0   0
  0.2352942E+02  0.1210264E-08  0.7093817E-09  0.2165102E-08  0.0000000E+00
   1.0000000000000000E-004
  CAR 
 NEB_refined                             
      8.96444958    -23.89689804  301      0.87594992      1.00000000
    -23.897  0.0000E+00  0.0000E+00
    -23.787  0.0000E+00  0.0000E+00
    -23.678  0.0000E+00  0.0000E+00
    -23.568 -0.8748E-31 -0.9582E-32
    -23.459 -0.6210E-27 -0.6803E-28
    -23.349 -0.2346E-23 -0.2571E-24
    -23.240 -0.4864E-20 -0.5331E-21
    -23.130 -0.5532E-17 -0.6065E-18
    -23.021 -0.3342E-14 -0.3667E-15
    -22.911 -0.1135E-11 -0.1247E-12
    -22.802 -0.2103E-09 -0.2316E-10
    -22.692 -0.2120E-07 -0.2345E-08
    -22.582 -0.1156E-05 -0.1290E-06
    -22.473 -0.3379E-04 -0.3830E-05
    -22.363 -0.5199E-03 -0.6077E-04
    -22.254 -0.4059E-02 -0.5054E-03
    -22.144 -0.1458E-01 -0.2102E-02
    -22.035 -0.1326E-01 -0.3554E-02
    -21.925  0.6703E-01  0.3789E-02
    -21.816  0.3219E+00  0.3905E-01
    -21.706  0.8145E+00  0.1283E+00
    -21.597  0.1245E+01  0.2646E+00
    -21.487  0.1117E+01  0.3869E+00
    -21.378  0.5980E+00  0.4525E+00
    -21.268  0.1747E+00  0.4716E+00
    -21.158 -0.8763E-03  0.4715E+00
    -21.049 -0.2233E-01  0.4690E+00
    -20.939 -0.8125E-02  0.4682E+00
    -20.830 -0.1337E-02  0.4680E+00
    -20.720 -0.1143E-03  0.4680E+00
    -20.611 -0.5260E-05  0.4680E+00
    -20.501 -0.1320E-06  0.4680E+00
    -20.392 -0.1815E-08  0.4680E+00
    -20.282 -0.1370E-10  0.4680E+00
    -20.173 -0.5677E-13  0.4680E+00
    -20.063 -0.1378E-15  0.4680E+00
    -19.954  0.0000E+00  0.4680E+00
    -19.844  0.0000E+00  0.4680E+00
    -19.734  0.0000E+00  0.4680E+00
    -19.625  0.0000E+00  0.4680E+00
    -19.515  0.0000E+00  0.4680E+00
    -19.406  0.0000E+00  0.4680E+00
    -19.296  0.0000E+00  0.4680E+00
    -19.187  0.0000E+00  0.4680E+00
    -19.077  0.0000E+00  0.4680E+00
    -18.968  0.0000E+00  0.4680E+00
    -18.858  0.0000E+00  0.4680E+00
    -18.749  0.0000E+00  0.4680E+00
    -18.639  0.0000E+00  0.4680E+00
    -18.530  0.0000E+00  0.4680E+00
    -18.420  0.0000E+00  0.4680E+00
    -18.310  0.0000E+00  0.4680E+00
    -18.201  0.0000E+00  0.4680E+00
    -18.091  0.0000E+00  0.4680E+00
    -17.982  0.0000E+00  0.4680E+00
    -17.872  0.0000E+00  0.4680E+00
    -17.763  0.0000E+00  0.4680E+00
    -17.653  0.0000E+00  0.4680E+00
    -17.544  0.0000E+00  0.4680E+00
    -17.434  0.0000E+00  0.4680E+00
    -17.325  0.0000E+00  0.4680E+00
    -17.215  0.0000E+00  0.4680E+00
    -17.106  0.0000E+00  0.4680E+00
    -16.996  0.0000E+00  0.4680E+00
    -16.886  0.0000E+00  0.4680E+00
    -16.777  0.0000E+00  0.4680E+00
    -16.667  0.0000E+00  0.4680E+00
    -16.558  0.0000E+00  0.4680E+00
    -16.448  0.0000E+00  0.4680E+00
    -16.339  0.0000E+00  0.4680E+00
    -16.229  0.0000E+00  0.4680E+00
    -16.120  0.0000E+00  0.4680E+00
    -16.010  0.0000E+00  0.4680E+00
    -15.901  0.0000E+00  0.4680E+00
    -15.791  0.0000E+00  0.4680E+00
    -15.682  0.0000E+00  0.4680E+00
    -15.572  0.0000E+00  0.4680E+00
    -15.462  0.0000E+00  0.4680E+00
    -15.353  0.0000E+00  0.4680E+00
    -15.243  0.0000E+00  0.4680E+00
    -15.134  0.0000E+00  0.4680E+00
    -15.024  0.0000E+00  0.4680E+00
    -14.915  0.0000E+00  0.4680E+00
    -14.805  0.0000E+00  0.4680E+00
    -14.696  0.0000E+00  0.4680E+00
    -14.586  0.0000E+00  0.4680E+00
    -14.477  0.0000E+00  0.4680E+00
    -14.367  0.0000E+00  0.4680E+00
    -14.258  0.0000E+00  0.4680E+00
    -14.148  0.0000E+00  0.4680E+00
    -14.038  0.0000E+00  0.4680E+00
    -13.929  0.0000E+00  0.4680E+00
    -13.819  0.0000E+00  0.4680E+00
    -13.710  0.0000E+00  0.4680E+00
    -13.600  0.0000E+00  0.4680E+00
    -13.491  0.0000E+00  0.4680E+00
    -13.381  0.0000E+00  0.4680E+00
    -13.272  0.0000E+00  0.4680E+00
    -13.162  0.0000E+00  0.4680E+00
    -13.053  0.0000E+00  0.4680E+00
    -12.943  0.0000E+00  0.4680E+00
    -12.834  0.0000E+00  0.4680E+00
    -12.724  0.0000E+00  0.4680E+00
    -12.615  0.0000E+00  0.4680E+00
    -12.505  0.0000E+00  0.4680E+00
    -12.395  0.0000E+00  0.4680E+00
    -12.286  0.0000E+00  0.4680E+00
    -12.176 -0.5002E-29  0.4680E+00
    -12.067 -0.2382E-25  0.4680E+00
    -11.957 -0.6208E-22  0.4680E+00
    -11.848 -0.8856E-19  0.4680E+00
    -11.738 -0.6712E-16  0.4680E+00
    -11.629 -0.2853E-13  0.4680E+00
    -11.519 -0.6619E-11  0.4680E+00
    -11.410 -0.8375E-09  0.4680E+00
    -11.300 -0.5763E-07  0.4680E+00
    -11.191 -0.2145E-05  0.4680E+00
    -11.081 -0.4263E-04  0.4680E+00
    -10.971 -0.4397E-03  0.4679E+00
    -10.862 -0.2161E-02  0.4677E+00
    -10.752 -0.3223E-02  0.4674E+00
    -10.643  0.1131E-01  0.4686E+00
    -10.533  0.5517E-01  0.4746E+00
    -10.424  0.9807E-01  0.4854E+00
    -10.314  0.9073E-01  0.4953E+00
    -10.205  0.4046E-01  0.4998E+00
    -10.095 -0.1956E-02  0.4995E+00
     -9.986 -0.5621E-02  0.4989E+00
     -9.876  0.5298E-01  0.5047E+00
     -9.767  0.1825E+00  0.5247E+00
     -9.657  0.2952E+00  0.5571E+00
     -9.547  0.2581E+00  0.5853E+00
     -9.438  0.1070E+00  0.5971E+00
     -9.328  0.5558E-02  0.5977E+00
     -9.219 -0.1085E-01  0.5965E+00
     -9.109 -0.3752E-02  0.5961E+00
     -9.000 -0.5355E-03  0.5960E+00
     -8.890 -0.3845E-04  0.5960E+00
     -8.781 -0.1466E-05  0.5960E+00
     -8.671 -0.3029E-07  0.5960E+00
     -8.562 -0.3423E-09  0.5960E+00
     -8.452 -0.2124E-11  0.5960E+00
     -8.343 -0.7257E-14  0.5960E+00
     -8.233 -0.8108E-17  0.5960E+00
     -8.123  0.0000E+00  0.5960E+00
     -8.014  0.0000E+00  0.5960E+00
     -7.904  0.0000E+00  0.5960E+00
     -7.795  0.0000E+00  0.5960E+00
     -7.685  0.0000E+00  0.5960E+00
     -7.576  0.0000E+00  0.5960E+00
     -7.466  0.0000E+00  0.5960E+00
     -7.357  0.0000E+00  0.5960E+00
     -7.247  0.0000E+00  0.5960E+00
     -7.138  0.0000E+00  0.5960E+00
     -7.028  0.0000E+00  0.5960E+00
     -6.919  0.0000E+00  0.5960E+00
     -6.809  0.0000E+00  0.5960E+00
     -6.699  0.0000E+00  0.5960E+00
     -6.590  0.0000E+00  0.5960E+00
     -6.480  0.0000E+00  0.5960E+00
     -6.371  0.0000E+00  0.5960E+00
     -6.261  0.0000E+00  0.5960E+00
     -6.152  0.0000E+00  0.5960E+00
     -6.042  0.0000E+00  0.5960E+00
     -5.933  0.0000E+00  0.5960E+00
     -5.823  0.0000E+00  0.5960E+00
     -5.714  0.0000E+00  0.5960E+00
     -5.604  0.0000E+00  0.5960E+00
     -5.495  0.0000E+00  0.5960E+00
     -5.385  0.0000E+00  0.5960E+00
     -5.275  0.0000E+00  0.5960E+00
     -5.166  0.0000E+00  0.5960E+00
     -5.056  0.0000E+00  0.5960E+00
     -4.947 -0.4175E-31  0.5960E+00
     -4.837 -0.2733E-27  0.5960E+00
     -4.728 -0.9757E-24  0.5960E+00
     -4.618 -0.1903E-20  0.5960E+00
     -4.509 -0.2026E-17  0.5960E+00
     -4.399 -0.1140E-14  0.5960E+00
     -4.290 -0.3586E-12  0.5960E+00
     -4.180 -0.6130E-10  0.5960E+00
     -4.071 -0.5686E-08  0.5960E+00
     -3.961 -0.2853E-06  0.5960E+00
     -3.851 -0.7701E-05  0.5960E+00
     -3.742 -0.1104E-03  0.5960E+00
     -3.632 -0.8104E-03  0.5959E+00
     -3.523 -0.2661E-02  0.5956E+00
     -3.413 -0.5547E-03  0.5955E+00
     -3.304  0.2159E-01  0.5979E+00
     -3.194  0.6661E-01  0.6052E+00
     -3.085  0.9652E-01  0.6158E+00
     -2.975  0.7806E-01  0.6243E+00
     -2.866  0.3379E-01  0.6280E+00
     -2.756  0.4106E-02  0.6285E+00
     -2.647 -0.2797E-02  0.6282E+00
     -2.537 -0.1334E-02  0.6280E+00
     -2.427 -0.2403E-03  0.6280E+00
     -2.318 -0.2673E-04  0.6280E+00
     -2.208 -0.9757E-04  0.6280E+00
     -2.099 -0.8903E-03  0.6279E+00
     -1.989 -0.3923E-02  0.6275E+00
     -1.880 -0.4743E-02  0.6269E+00
     -1.770  0.2206E-01  0.6294E+00
     -1.661  0.9504E-01  0.6398E+00
     -1.551  0.1672E+00  0.6581E+00
     -1.442  0.1843E+00  0.6783E+00
     -1.332  0.1663E+00  0.6965E+00
     -1.223  0.1395E+00  0.7118E+00
     -1.113  0.8866E-01  0.7215E+00
     -1.003  0.2609E-01  0.7243E+00
     -0.894 -0.7343E-02  0.7235E+00
     -0.784  0.7385E-02  0.7243E+00
     -0.675  0.7388E-01  0.7324E+00
     -0.565  0.1407E+00  0.7479E+00
     -0.456  0.1489E+00  0.7642E+00
     -0.346  0.1321E+00  0.7786E+00
     -0.237  0.1315E+00  0.7930E+00
     -0.127  0.1473E+00  0.8092E+00
     -0.018  0.1570E+00  0.8264E+00
      0.092  0.1479E+00  0.8426E+00
      0.201  0.1508E+00  0.8591E+00
      0.311  0.1740E+00  0.8781E+00
      0.420  0.2044E+00  0.9005E+00
      0.530  0.2306E+00  0.9258E+00
      0.640  0.2176E+00  0.9496E+00
      0.749  0.1610E+00  0.9673E+00
      0.859  0.8983E-01  0.9771E+00
      0.968  0.3049E-01  0.9804E+00
      1.078  0.1146E-02  0.9806E+00
      1.187 -0.3589E-02  0.9802E+00
      1.297 -0.1407E-02  0.9800E+00
      1.406 -0.2368E-03  0.9800E+00
      1.516 -0.2021E-04  0.9800E+00
      1.625 -0.9110E-06  0.9800E+00
      1.735 -0.2203E-07  0.9800E+00
      1.844 -0.2877E-09  0.9800E+00
      1.954 -0.2037E-11  0.9800E+00
      2.064 -0.7841E-14  0.9800E+00
      2.173 -0.1622E-16  0.9800E+00
      2.283 -0.2000E-18  0.9800E+00
      2.392 -0.1380E-15  0.9800E+00
      2.502 -0.5287E-13  0.9800E+00
      2.611 -0.1097E-10  0.9800E+00
      2.721 -0.1225E-08  0.9800E+00
      2.830 -0.7310E-07  0.9800E+00
      2.940 -0.2295E-05  0.9800E+00
      3.049 -0.3687E-04  0.9800E+00
      3.159 -0.2831E-03  0.9800E+00
      3.268 -0.8086E-03  0.9799E+00
      3.378  0.8918E-03  0.9800E+00
      3.488  0.8995E-02  0.9810E+00
      3.597  0.1617E-01  0.9827E+00
      3.707  0.1092E-01  0.9839E+00
      3.816  0.1894E-02  0.9841E+00
      3.926 -0.1047E-02  0.9840E+00
      4.035 -0.1494E-02  0.9839E+00
      4.145 -0.1069E-02  0.9837E+00
      4.254  0.8464E-02  0.9847E+00
      4.364  0.2708E-01  0.9876E+00
      4.473  0.2974E-01  0.9909E+00
      4.583  0.1187E-01  0.9922E+00
      4.692 -0.1210E-02  0.9921E+00
      4.802 -0.3374E-02  0.9917E+00
      4.912  0.4260E-02  0.9922E+00
      5.021  0.2574E-01  0.9950E+00
      5.131  0.4262E-01  0.9996E+00
      5.240  0.4457E-01  0.1005E+01
      5.350  0.5575E-01  0.1011E+01
      5.459  0.7754E-01  0.1019E+01
      5.569  0.9734E-01  0.1030E+01
      5.678  0.1158E+00  0.1042E+01
      5.788  0.1259E+00  0.1056E+01
      5.897  0.1107E+00  0.1068E+01
      6.007  0.7975E-01  0.1077E+01
      6.116  0.7296E-01  0.1085E+01
      6.226  0.8722E-01  0.1095E+01
      6.336  0.8871E-01  0.1104E+01
      6.445  0.8647E-01  0.1114E+01
      6.555  0.1026E+00  0.1125E+01
      6.664  0.1178E+00  0.1138E+01
      6.774  0.1133E+00  0.1150E+01
      6.883  0.1083E+00  0.1162E+01
      6.993  0.8923E-01  0.1172E+01
      7.102  0.3954E-01  0.1176E+01
      7.212  0.2302E-02  0.1177E+01
      7.321 -0.4181E-02  0.1176E+01
      7.431 -0.1427E-02  0.1176E+01
      7.540 -0.1956E-03  0.1176E+01
      7.650 -0.1322E-04  0.1176E+01
      7.760 -0.4668E-06  0.1176E+01
      7.869 -0.8821E-08  0.1176E+01
      7.979 -0.9017E-10  0.1176E+01
      8.088 -0.5014E-12  0.1176E+01
      8.198 -0.1524E-14  0.1176E+01
      8.307  0.0000E+00  0.1176E+01
      8.417  0.0000E+00  0.1176E+01
      8.526  0.0000E+00  0.1176E+01
      8.636  0.0000E+00  0.1176E+01
      8.745  0.0000E+00  0.1176E+01
      8.855  0.0000E+00  0.1176E+01
      8.964  0.0000E+00  0.1176E+01
