 vasp.6.3.2 27Jun22 (build Mar 25 2024 10:42:18) complex                         
 executed on             LinuxGNU date 2024.03.27  03:46:04
 running on   32 total cores
 distrk:  each k-point on   32 cores,    1 groups
 distr:  one band on NCORE=   1 cores,   32 groups


--------------------------------------------------------------------------------------------------------


 INCAR:
   ISTART = 0
   ICHARG = 2
   PREC = Accurate
   IBRION = -1
   EDIFF = 0.000000001
   EDIFFG = -0.0005
   NSW = 0
   NELM = 100
   ENCUT = 520
   ISMEAR = -5
   SIGMA = 0.05
   ISPIN = 2
   ISYM = 0
   LWAVE = False
   LCHARG = False
   LASPH = True
   LORBIT = 11
   ADDGRID = TRUE

 POTCAR:    PAW_PBE Na_pv 19Sep2006               
 POTCAR:    PAW_PBE S 06Sep2000                   
 -----------------------------------------------------------------------------
|                                                                             |
|           W    W    AA    RRRRR   N    N  II  N    N   GGGG   !!!           |
|           W    W   A  A   R    R  NN   N  II  NN   N  G    G  !!!           |
|           W    W  A    A  R    R  N N  N  II  N N  N  G       !!!           |
|           W WW W  AAAAAA  RRRRR   N  N N  II  N  N N  G  GGG   !            |
|           WW  WW  A    A  R   R   N   NN  II  N   NN  G    G                |
|           W    W  A    A  R    R  N    N  II  N    N   GGGG   !!!           |
|                                                                             |
|     You use a magnetic or noncollinear calculation, but did not specify     |
|     the initial magnetic moment with the MAGMOM tag. Note that a            |
|     default of 1 will be used for all atoms. This ferromagnetic setup       |
|     may break the symmetry of the crystal, in particular it may rule        |
|     out finding an antiferromagnetic solution. Thence, we recommend         |
|     setting the initial magnetic moment manually or verifying carefully     |
|     that this magnetic setup is desired.                                    |
|                                                                             |
 -----------------------------------------------------------------------------

 -----------------------------------------------------------------------------
|                                                                             |
|           W    W    AA    RRRRR   N    N  II  N    N   GGGG   !!!           |
|           W    W   A  A   R    R  NN   N  II  NN   N  G    G  !!!           |
|           W    W  A    A  R    R  N N  N  II  N N  N  G       !!!           |
|           W WW W  AAAAAA  RRRRR   N  N N  II  N  N N  G  GGG   !            |
|           WW  WW  A    A  R   R   N   NN  II  N   NN  G    G                |
|           W    W  A    A  R    R  N    N  II  N    N   GGGG   !!!           |
|                                                                             |
|     For optimal performance we recommend to set                             |
|       NCORE = 2 up to number-of-cores-per-socket                            |
|     NCORE specifies how many cores store one orbital (NPAR=cpu/NCORE).      |
|     This setting can greatly improve the performance of VASP for DFT.       |
|     The default, NCORE=1 might be grossly inefficient on modern             |
|     multi-core architectures or massively parallel machines. Do your        |
|     own testing! More info at https://www.vasp.at/wiki/index.php/NCORE      |
|     Unfortunately you need to use the default for GW and RPA                |
|     calculations (for HF NCORE is supported but not extensively tested      |
|     yet).                                                                   |
|                                                                             |
 -----------------------------------------------------------------------------

 POTCAR:    PAW_PBE Na_pv 19Sep2006               
   SHA256 =  6a2f546d9e11350984debacf3dc457d8cffc0868e817d445faca461816a32b94 Na_pv/POTCAR          
   COPYR  = (c) Copyright 19Sep2006 Georg Kresse                                                    
   COPYR  = This file is part of the software VASP. Any use, copying, and all other rights are regul
   COPYR  = If you do not have a valid VASP license, you may not use, copy or distribute this file. 
   VRHFIN =Na: p6s1                                                                                 
   LEXCH  = PE                                                                                      
   EATOM  =   766.0439 eV,   56.3026 Ry                                                             
                                                                                                    
   TITEL  = PAW_PBE Na_pv 19Sep2006                                                                 
   LULTRA =        F    use ultrasoft PP ?                                                          
   IUNSCR =        1    unscreen: 0-lin 1-nonlin 2-no                                               
   RPACOR =    1.800    partial core radius                                                         
   POMASS =   22.990; ZVAL   =    7.000    mass and valenz                                          
   RCORE  =    2.200    outmost cutoff radius                                                       
   RWIGS  =    2.200; RWIGS  =    1.164    wigner-seitz radius (au A)                               
   ENMAX  =  259.561; ENMIN  =  194.671 eV                                                          
   ICORE  =        2    local potential                                                             
   LCOR   =        T    correct aug charges                                                         
   LPAW   =        T    paw PP                                                                      
   EAUG   =  368.056                                                                                
   DEXC   =    0.000                                                                                
   RMAX   =    2.245    core radius for proj-oper                                                   
   RAUG   =    1.300    factor for augmentation sphere                                              
   RDEP   =    2.259    radius for radial grids                                                     
   RDEPT  =    1.738    core radius for aug-charge                                                  
                                                                                                    
   Atomic configuration                                                                             
    5 entries                                                                                       
     n  l   j            E        occ.                                                              
     1  0  0.50     -1033.6933   2.0000                                                             
     2  0  0.50       -56.7526   2.0000                                                             
     2  1  1.50       -28.6721   6.0000                                                             
     3  0  0.50        -2.7440   1.0000                                                             
     3  2  1.50        -1.3606   0.0000                                                             
   Description                                                                                      
     l       E           TYP  RCUT    TYP  RCUT                                                     
     1    -28.6720912     23  2.000                                                                 
     1      6.8029130     23  2.000                                                                 
     0     -2.7439560     23  2.200                                                                 
     0     34.0145650     23  2.200                                                                 
     2     -1.3605826     23  2.200                                                                 
  local pseudopotential read in
  partial core-charges read in
  partial kinetic energy density read in
  atomic valenz-charges read in
  non local Contribution for L=           1  read in
    real space projection operators read in
  non local Contribution for L=           1  read in
    real space projection operators read in
  non local Contribution for L=           0  read in
    real space projection operators read in
  non local Contribution for L=           0  read in
    real space projection operators read in
    PAW grid and wavefunctions read in

   number of l-projection  operators is LMAX  =           4
   number of lm-projection operators is LMMAX =           8

 POTCAR:    PAW_PBE S 06Sep2000                   
   SHA256 =  0fc7481fb0695f01bdc6462160264c5c84044ae9ec85a907d398b887a2bc3132 S/POTCAR              
   COPYR  = (c) Copyright 06Sep2000 Georg Kresse                                                    
   COPYR  = This file is part of the software VASP. Any use, copying, and all other rights are regul
   COPYR  = If you do not have a valid VASP license, you may not use, copy or distribute this file. 
   VRHFIN =S : s2p4                                                                                 
   LEXCH  = PE                                                                                      
   EATOM  =   276.8230 eV,   20.3459 Ry                                                             
                                                                                                    
   TITEL  = PAW_PBE S 06Sep2000                                                                     
   LULTRA =        F    use ultrasoft PP ?                                                          
   IUNSCR =        1    unscreen: 0-lin 1-nonlin 2-no                                               
   RPACOR =    1.500    partial core radius                                                         
   POMASS =   32.066; ZVAL   =    6.000    mass and valenz                                          
   RCORE  =    1.900    outmost cutoff radius                                                       
   RWIGS  =    2.200; RWIGS  =    1.164    wigner-seitz radius (au A)                               
   ENMAX  =  258.689; ENMIN  =  194.016 eV                                                          
   ICORE  =        2    local potential                                                             
   LCOR   =        T    correct aug charges                                                         
   LPAW   =        T    paw PP                                                                      
   EAUG   =  335.092                                                                                
   DEXC   =    0.000                                                                                
   RMAX   =    1.942    core radius for proj-oper                                                   
   RAUG   =    1.300    factor for augmentation sphere                                              
   RDEP   =    1.954    radius for radial grids                                                     
   RDEPT  =    1.744    core radius for aug-charge                                                  
                                                                                                    
   Atomic configuration                                                                             
    6 entries                                                                                       
     n  l   j            E        occ.                                                              
     1  0  0.50     -2405.8406   2.0000                                                             
     2  0  0.50      -211.7007   2.0000                                                             
     2  1  1.50      -156.4958   6.0000                                                             
     3  0  0.50       -17.2562   2.0000                                                             
     3  1  0.50        -7.0085   4.0000                                                             
     3  2  1.50        -6.8029   0.0000                                                             
   Description                                                                                      
     l       E           TYP  RCUT    TYP  RCUT                                                     
     0    -17.2561641     23  1.900                                                                 
     0    -15.8743224     23  1.900                                                                 
     1     -7.0085400     23  1.900                                                                 
     1     -2.7779785     23  1.900                                                                 
     2     -6.8029130     23  1.900                                                                 
  local pseudopotential read in
  partial core-charges read in
  partial kinetic energy density read in
  atomic valenz-charges read in
  non local Contribution for L=           0  read in
    real space projection operators read in
  non local Contribution for L=           0  read in
    real space projection operators read in
  non local Contribution for L=           1  read in
    real space projection operators read in
  non local Contribution for L=           1  read in
    real space projection operators read in
    PAW grid and wavefunctions read in

   number of l-projection  operators is LMAX  =           4
   number of lm-projection operators is LMMAX =           8

 -----------------------------------------------------------------------------
|                                                                             |
|               ----> ADVICE to this user running VASP <----                  |
|                                                                             |
|     You have a (more or less) 'large supercell' and for larger cells it     |
|     might be more efficient to use real-space projection operators.         |
|     Therefore, try LREAL= Auto in the INCAR file.                           |
|     Mind: For very accurate calculation, you might also keep the            |
|     reciprocal projection scheme (i.e. LREAL=.FALSE.).                      |
|                                                                             |
 -----------------------------------------------------------------------------

  PAW_PBE Na_pv 19Sep2006               :
 energy of atom  1       EATOM= -766.0439
 kinetic energy error for atom=    0.0019 (will be added to EATOM!!)
  PAW_PBE S 06Sep2000                   :
 energy of atom  2       EATOM= -276.8230
 kinetic energy error for atom=    0.0016 (will be added to EATOM!!)


 POSCAR: generated by phonopy
  positions in direct lattice
  No initial velocities read in
 exchange correlation table for  LEXCH =        8
   RHO(1)=    0.500       N(1)  =     2000
   RHO(2)=  100.500       N(2)  =     4000



--------------------------------------------------------------------------------------------------------


 ion  position               nearest neighbor table
   1  0.100  0.475  0.750-
   2  0.600  0.475  0.750-
   3  0.100  0.975  0.750-
   4  0.600  0.975  0.750-
   5  0.350  0.275  0.250-
   6  0.850  0.275  0.250-
   7  0.350  0.775  0.250-
   8  0.850  0.775  0.250-
   9  0.150  0.225  0.750-
  10  0.650  0.225  0.750-
  11  0.150  0.725  0.750-
  12  0.650  0.725  0.750-
  13  0.400  0.025  0.250-
  14  0.900  0.025  0.250-
  15  0.400  0.525  0.250-
  16  0.900  0.525  0.250-
  17  0.000  0.000  0.500-
  18  0.500  0.000  0.500-
  19  0.000  0.500  0.500-
  20  0.500  0.500  0.500-
  21  0.250  0.250  0.500-
  22  0.750  0.250  0.500-
  23  0.250  0.750  0.500-
  24  0.750  0.750  0.500-
  25  0.250  0.250  0.000-
  26  0.750  0.250  0.000-
  27  0.250  0.750  0.000-
  28  0.750  0.750  0.000-
  29  0.000  0.000  0.000-
  30  0.500  0.000  0.000-
  31  0.000  0.500  0.000-
  32  0.500  0.500  0.000-
  33  0.053  0.225  0.135- 110 2.07  65 2.08
  34  0.553  0.225  0.135- 109 2.07  66 2.08
  35  0.053  0.725  0.135- 112 2.07  67 2.08
  36  0.553  0.725  0.135- 111 2.07  68 2.08
  37  0.303  0.025  0.865- 105 2.07  69 2.08
  38  0.803  0.025  0.865- 106 2.07  70 2.08
  39  0.303  0.525  0.865- 107 2.07  71 2.08
  40  0.803  0.525  0.865- 108 2.07  72 2.08
  41  0.197  0.475  0.365- 101 2.07  73 2.08
  42  0.697  0.475  0.365- 102 2.07  74 2.08
  43  0.197  0.975  0.365- 103 2.07  75 2.08
  44  0.697  0.975  0.365- 104 2.07  76 2.08
  45  0.447  0.275  0.635-  98 2.07  77 2.08
  46  0.947  0.275  0.635-  97 2.07  78 2.08
  47  0.447  0.775  0.635- 100 2.07  79 2.08
  48  0.947  0.775  0.635-  99 2.07  80 2.08
  49  0.447  0.275  0.865-  94 2.07  77 2.08
  50  0.947  0.275  0.865-  93 2.07  78 2.08
  51  0.447  0.775  0.865-  96 2.07  79 2.08
  52  0.947  0.775  0.865-  95 2.07  80 2.08
  53  0.197  0.475  0.135-  89 2.07  73 2.08
  54  0.697  0.475  0.135-  90 2.07  74 2.08
  55  0.197  0.975  0.135-  91 2.07  75 2.08
  56  0.697  0.975  0.135-  92 2.07  76 2.08
  57  0.303  0.025  0.635-  85 2.07  69 2.08
  58  0.803  0.025  0.635-  86 2.07  70 2.08
  59  0.303  0.525  0.635-  87 2.07  71 2.08
  60  0.803  0.525  0.635-  88 2.07  72 2.08
  61  0.053  0.225  0.365-  82 2.07  65 2.08
  62  0.553  0.225  0.365-  81 2.08  66 2.08
  63  0.053  0.725  0.365-  84 2.07  67 2.08
  64  0.553  0.725  0.365-  83 2.07  68 2.08
  65  0.133  0.176  0.250-  33 2.08  61 2.08
  66  0.633  0.176  0.250-  34 2.08  62 2.08
  67  0.133  0.676  0.250-  35 2.08  63 2.08
  68  0.633  0.676  0.250-  36 2.08  64 2.08
  69  0.383  0.074  0.750-  37 2.08  57 2.08
  70  0.883  0.074  0.750-  38 2.08  58 2.08
  71  0.383  0.574  0.750-  39 2.08  59 2.08
  72  0.883  0.574  0.750-  40 2.08  60 2.08
  73  0.117  0.426  0.250-  41 2.08  53 2.08
  74  0.617  0.426  0.250-  54 2.08  42 2.08
  75  0.117  0.926  0.250-  55 2.08  43 2.08
  76  0.617  0.926  0.250-  56 2.08  44 2.08
  77  0.367  0.324  0.750-  45 2.08  49 2.08
  78  0.867  0.324  0.750-  46 2.08  50 2.08
  79  0.367  0.824  0.750-  47 2.08  51 2.08
  80  0.867  0.824  0.750-  48 2.08  52 2.08
  81  0.416  0.146  0.397-  62 2.08
  82  0.917  0.146  0.397-  61 2.07
  83  0.417  0.646  0.397-  64 2.07
  84  0.917  0.646  0.397-  63 2.07
  85  0.167  0.104  0.603-  57 2.07
  86  0.667  0.104  0.603-  58 2.07
  87  0.167  0.604  0.603-  59 2.07
  88  0.667  0.604  0.603-  60 2.07
  89  0.333  0.396  0.103-  53 2.07
  90  0.833  0.396  0.103-  54 2.07
  91  0.333  0.896  0.103-  55 2.07
  92  0.833  0.896  0.103-  56 2.07
  93  0.083  0.354  0.897-  50 2.07
  94  0.583  0.354  0.897-  49 2.07
  95  0.083  0.854  0.897-  52 2.07
  96  0.583  0.854  0.897-  51 2.07
  97  0.083  0.354  0.603-  46 2.07
  98  0.583  0.354  0.603-  45 2.07
  99  0.083  0.854  0.603-  48 2.07
 100  0.583  0.854  0.603-  47 2.07
 101  0.333  0.396  0.397-  41 2.07
 102  0.833  0.396  0.397-  42 2.07
 103  0.333  0.896  0.397-  43 2.07
 104  0.833  0.896  0.397-  44 2.07
 105  0.167  0.104  0.897-  37 2.07
 106  0.667  0.104  0.897-  38 2.07
 107  0.167  0.604  0.897-  39 2.07
 108  0.667  0.604  0.897-  40 2.07
 109  0.417  0.146  0.103-  34 2.07
 110  0.917  0.146  0.103-  33 2.07
 111  0.417  0.646  0.103-  36 2.07
 112  0.917  0.646  0.103-  35 2.07


IMPORTANT INFORMATION: All symmetrisations will be switched off!
NOSYMM: (Re-)initialisation of all symmetry stuff for point group C_1.


----------------------------------------------------------------------------------------

                                     Primitive cell                                     

  volume of cell :    2729.1342

  direct lattice vectors                    reciprocal lattice vectors
    11.773269278  0.000000000  0.000000000     0.084938174 -0.000000000  0.000000000
     0.000000000 15.678907416  0.000000000     0.000000000  0.063779954  0.000000000
     0.000000000  0.000000000 14.784683198    -0.000000000 -0.000000000  0.067637567

  length of vectors
    11.773269278 15.678907416 14.784683198     0.084938174  0.063779954  0.067637567

  position of ions in fractional coordinates (direct lattice)
     0.099956584  0.474941077  0.750000000
     0.599956584  0.474941077  0.750000000
     0.099956584  0.974941077  0.750000000
     0.599956584  0.974941077  0.750000000
     0.349956584  0.275058923  0.250000000
     0.849956584  0.275058923  0.250000000
     0.349956584  0.775058923  0.250000000
     0.849956584  0.775058923  0.250000000
     0.150043416  0.224941077  0.750000000
     0.650043416  0.224941077  0.750000000
     0.150043416  0.724941077  0.750000000
     0.650043416  0.724941077  0.750000000
     0.400043416  0.025058923  0.250000000
     0.900043416  0.025058923  0.250000000
     0.400043416  0.525058923  0.250000000
     0.900043416  0.525058923  0.250000000
     0.000000000  0.000000000  0.500000000
     0.500000000  0.000000000  0.500000000
     0.000000000  0.500000000  0.500000000
     0.500000000  0.500000000  0.500000000
     0.250000000  0.250000000  0.500000000
     0.750000000  0.250000000  0.500000000
     0.250000000  0.750000000  0.500000000
     0.750000000  0.750000000  0.500000000
     0.250000000  0.250000000  1.000000000
     0.750000000  0.250000000  1.000000000
     0.250000000  0.750000000  1.000000000
     0.750000000  0.750000000  1.000000000
     0.000000000  0.000000000  0.000000000
     0.500000000  0.000000000  1.000000000
     0.000000000  0.500000000  1.000000000
     0.500000000  0.500000000  1.000000000
     0.053004754  0.224843318  0.135455098
     0.553004754  0.224843318  0.135455098
     0.053004754  0.724843318  0.135455098
     0.553004754  0.724843318  0.135455098
     0.303004754  0.025156682  0.864544902
     0.803004754  0.025156682  0.864544902
     0.303004754  0.525156682  0.864544902
     0.803004754  0.525156682  0.864544902
     0.196995246  0.474843318  0.364544902
     0.696995246  0.474843318  0.364544902
     0.196995246  0.974843318  0.364544902
     0.696995246  0.974843318  0.364544902
     0.446995246  0.275156682  0.635455098
     0.946995246  0.275156682  0.635455098
     0.446995246  0.775156682  0.635455098
     0.946995246  0.775156682  0.635455098
     0.446995246  0.275156682  0.864544902
     0.946995246  0.275156682  0.864544902
     0.446995246  0.775156682  0.864544902
     0.946995246  0.775156682  0.864544902
     0.196995246  0.474843318  0.135455098
     0.696995246  0.474843318  0.135455098
     0.196995246  0.974843318  0.135455098
     0.696995246  0.974843318  0.135455098
     0.303004754  0.025156682  0.635455098
     0.803004754  0.025156682  0.635455098
     0.303004754  0.525156682  0.635455098
     0.803004754  0.525156682  0.635455098
     0.053004754  0.224843318  0.364544902
     0.553004754  0.224843318  0.364544902
     0.053004754  0.724843318  0.364544902
     0.553004754  0.724843318  0.364544902
     0.133239464  0.176249726  0.250000000
     0.633239464  0.176249726  0.250000000
     0.133239464  0.676249726  0.250000000
     0.633239464  0.676249726  0.250000000
     0.383239464  0.073750274  0.750000000
     0.883239464  0.073750274  0.750000000
     0.383239464  0.573750274  0.750000000
     0.883239464  0.573750274  0.750000000
     0.116760536  0.426249726  0.250000000
     0.616760536  0.426249726  0.250000000
     0.116760536  0.926249726  0.250000000
     0.616760536  0.926249726  0.250000000
     0.366760536  0.323750274  0.750000000
     0.866760536  0.323750274  0.750000000
     0.366760536  0.823750274  0.750000000
     0.866760536  0.823750274  0.750000000
     0.416448738  0.146315067  0.396541646
     0.917298120  0.146315067  0.396541646
     0.417298120  0.646315067  0.396541646
     0.917298120  0.646315067  0.396541646
     0.167298120  0.103684933  0.603458354
     0.667298120  0.103684933  0.603458354
     0.167298120  0.603684933  0.603458354
     0.667298120  0.603684933  0.603458354
     0.332701880  0.396315067  0.103458354
     0.832701880  0.396315067  0.103458354
     0.332701880  0.896315067  0.103458354
     0.832701880  0.896315067  0.103458354
     0.082701880  0.353684933  0.896541646
     0.582701880  0.353684933  0.896541646
     0.082701880  0.853684933  0.896541646
     0.582701880  0.853684933  0.896541646
     0.082701880  0.353684933  0.603458354
     0.582701880  0.353684933  0.603458354
     0.082701880  0.853684933  0.603458354
     0.582701880  0.853684933  0.603458354
     0.332701880  0.396315067  0.396541646
     0.832701880  0.396315067  0.396541646
     0.332701880  0.896315067  0.396541646
     0.832701880  0.896315067  0.396541646
     0.167298120  0.103684933  0.896541646
     0.667298120  0.103684933  0.896541646
     0.167298120  0.603684933  0.896541646
     0.667298120  0.603684933  0.896541646
     0.417298120  0.146315067  0.103458354
     0.917298120  0.146315067  0.103458354
     0.417298120  0.646315067  0.103458354
     0.917298120  0.646315067  0.103458354

  ion indices of the primitive-cell ions
   primitive index   ion index
                 1           1
                 2           2
                 3           3
                 4           4
                 5           5
                 6           6
                 7           7
                 8           8
                 9           9
                10          10
                11          11
                12          12
                13          13
                14          14
                15          15
                16          16
                17          17
                18          18
                19          19
                20          20
                21          21
                22          22
                23          23
                24          24
                25          25
                26          26
                27          27
                28          28
                29          29
                30          30
                31          31
                32          32
                33          33
                34          34
                35          35
                36          36
                37          37
                38          38
                39          39
                40          40
                41          41
                42          42
                43          43
                44          44
                45          45
                46          46
                47          47
                48          48
                49          49
                50          50
                51          51
                52          52
                53          53
                54          54
                55          55
                56          56
                57          57
                58          58
                59          59
                60          60
                61          61
                62          62
                63          63
                64          64
                65          65
                66          66
                67          67
                68          68
                69          69
                70          70
                71          71
                72          72
                73          73
                74          74
                75          75
                76          76
                77          77
                78          78
                79          79
                80          80
                81          81
                82          82
                83          83
                84          84
                85          85
                86          86
                87          87
                88          88
                89          89
                90          90
                91          91
                92          92
                93          93
                94          94
                95          95
                96          96
                97          97
                98          98
                99          99
               100         100
               101         101
               102         102
               103         103
               104         104
               105         105
               106         106
               107         107
               108         108
               109         109
               110         110
               111         111
               112         112

----------------------------------------------------------------------------------------



 KPOINTS: pymatgen with grid density = 692 / numbe

Automatic generation of k-mesh.
 Grid dimensions read from file:
 generate k-points for:    4    3    1

 Generating k-lattice:

  Cartesian coordinates                     Fractional coordinates (reciprocal lattice)
     0.021234544 -0.000000000  0.000000000     0.250000000  0.000000000  0.000000000
     0.000000000  0.021259985  0.000000000     0.000000000  0.333333333  0.000000000
    -0.000000000 -0.000000000  0.067637567    -0.000000000 -0.000000000  1.000000000

  Length of vectors
     0.021234544  0.021259985  0.067637567

  Shift w.r.t. Gamma in fractional coordinates (k-lattice)
     0.000000000  0.000000000  0.000000000

 TETIRR: Found     34 inequivalent tetrahedra from       72
 
 Subroutine IBZKPT returns following result:
 ===========================================
 
 Found      7 irreducible k-points:
 
 Following reciprocal coordinates:
            Coordinates               Weight
  0.000000  0.000000  0.000000      1.000000
  0.250000  0.000000  0.000000      2.000000
  0.500000  0.000000  0.000000      1.000000
  0.000000  0.333333  0.000000      2.000000
  0.250000  0.333333  0.000000      2.000000
  0.250000 -0.333333  0.000000      2.000000
  0.500000  0.333333  0.000000      2.000000
 
 Following cartesian coordinates:
            Coordinates               Weight
  0.000000  0.000000  0.000000      1.000000
  0.021235  0.000000  0.000000      2.000000
  0.042469  0.000000  0.000000      1.000000
  0.000000  0.021260  0.000000      2.000000
  0.021235  0.021260  0.000000      2.000000
  0.021235 -0.021260  0.000000      2.000000
  0.042469  0.021260  0.000000      2.000000
 


--------------------------------------------------------------------------------------------------------




 Dimension of arrays:
   k-points           NKPTS =      7   k-points in BZ     NKDIM =      7   number of bands    NBANDS=    480
   number of dos      NEDOS =    301   number of ions     NIONS =    112
   non local maximal  LDIM  =      4   non local SUM 2l+1 LMDIM =      8
   total plane-waves  NPLWV = ******
   max r-space proj   IRMAX =      1   max aug-charges    IRDMAX= 111895
   dimension x,y,z NGX =    90 NGY =  120 NGZ =  112
   dimension x,y,z NGXF=   180 NGYF=  240 NGZF=  224
   support grid    NGXF=   360 NGYF=  480 NGZF=  448
   ions per type =              32  80
   NGX,Y,Z   is equivalent  to a cutoff of  12.71, 12.72, 12.59 a.u.
   NGXF,Y,Z  is equivalent  to a cutoff of  25.42, 25.45, 25.19 a.u.

 SYSTEM =  unknown system                          
 POSCAR =  generated by phonopy                    

 Startparameter for this run:
   NWRITE =      2    write-flag & timer
   PREC   = accura    normal or accurate (medium, high low for compatibility)
   ISTART =      0    job   : 0-new  1-cont  2-samecut
   ICHARG =      2    charge: 1-file 2-atom 10-const
   ISPIN  =      2    spin polarized calculation?
   LNONCOLLINEAR =      F non collinear calculations
   LSORBIT =      F    spin-orbit coupling
   INIWAV =      1    electr: 0-lowe 1-rand  2-diag
   LASPH  =      T    aspherical Exc in radial PAW
 Electronic Relaxation 1
   ENCUT  =  520.0 eV  38.22 Ry    6.18 a.u.  21.89 29.15 27.49*2*pi/ulx,y,z
   ENINI  =  520.0     initial cutoff
   ENAUG  =  368.1 eV  augmentation charge cutoff
   NELM   =    100;   NELMIN=  2; NELMDL= -5     # of ELM steps 
   EDIFF  = 0.1E-08   stopping-criterion for ELM
   LREAL  =      F    real-space projection
   NLSPLINE    = F    spline interpolate recip. space projectors
   LCOMPAT=      F    compatible to vasp.4.4
   GGA_COMPAT  = T    GGA compatible to vasp.4.4-vasp.4.6
   LMAXPAW     = -100 max onsite density
   LMAXMIX     =    2 max onsite mixed and CHGCAR
   VOSKOWN=      0    Vosko Wilk Nusair interpolation
   ROPT   =    0.00000   0.00000
 Ionic relaxation
   EDIFFG = -.5E-03   stopping-criterion for IOM
   NSW    =      0    number of steps for IOM
   NBLOCK =      1;   KBLOCK =      1    inner block; outer block 
   IBRION =     -1    ionic relax: 0-MD 1-quasi-New 2-CG
   NFREE  =      0    steps in history (QN), initial steepest desc. (CG)
   ISIF   =      2    stress and relaxation
   IWAVPR =     10    prediction:  0-non 1-charg 2-wave 3-comb
   ISYM   =      0    0-nonsym 1-usesym 2-fastsym
   LCORR  =      T    Harris-Foulkes like correction to forces

   POTIM  = 0.5000    time-step for ionic-motion
   TEIN   =    0.0    initial temperature
   TEBEG  =    0.0;   TEEND  =   0.0 temperature during run
   SMASS  =  -3.00    Nose mass-parameter (am)
   estimated Nose-frequenzy (Omega)   =  0.10E-29 period in steps = 0.13E+47 mass=  -0.317E-26a.u.
   SCALEE = 1.0000    scale energy and forces
   NPACO  =    256;   APACO  = 10.0  distance and # of slots for P.C.
   PSTRESS=    0.0 pullay stress

  Mass of Ions in am
   POMASS =  22.99 32.07
  Ionic Valenz
   ZVAL   =   7.00  6.00
  Atomic Wigner-Seitz radii
   RWIGS  =  -1.00 -1.00
  virtual crystal weights 
   VCA    =   1.00  1.00
   NELECT =     704.0000    total number of electrons
   NUPDOWN=      -1.0000    fix difference up-down

 DOS related values:
   EMIN   =  10.00;   EMAX   =-10.00  energy-range for DOS
   EFERMI =   0.00
   ISMEAR =    -5;   SIGMA  =   0.05  broadening in eV -4-tet -1-fermi 0-gaus

 Electronic relaxation 2 (details)
   IALGO  =     38    algorithm
   LDIAG  =      T    sub-space diagonalisation (order eigenvalues)
   LSUBROT=      F    optimize rotation matrix (better conditioning)
   TURBO    =      0    0=normal 1=particle mesh
   IRESTART =      0    0=no restart 2=restart with 2 vectors
   NREBOOT  =      0    no. of reboots
   NMIN     =      0    reboot dimension
   EREF     =   0.00    reference energy to select bands
   IMIX   =      4    mixing-type and parameters
     AMIX     =   0.40;   BMIX     =  1.00
     AMIX_MAG =   1.60;   BMIX_MAG =  1.00
     AMIN     =   0.10
     WC   =   100.;   INIMIX=   1;  MIXPRE=   1;  MAXMIX= -45

 Intra band minimization:
   WEIMIN = 0.0000     energy-eigenvalue tresh-hold
   EBREAK =  0.52E-12  absolut break condition
   DEPER  =   0.30     relativ break condition  

   TIME   =   0.40     timestep for ELM

  volume/ion in A,a.u.               =      24.37       164.44
  Fermi-wavevector in a.u.,A,eV,Ry     =   1.042135  1.969350 14.776551  1.086046
  Thomas-Fermi vector in A             =   2.176787

 Write flags
   LWAVE        =      F    write WAVECAR
   LDOWNSAMPLE  =      F    k-point downsampling of WAVECAR
   LCHARG       =      F    write CHGCAR
   LVTOT        =      F    write LOCPOT, total local potential
   LVHAR        =      F    write LOCPOT, Hartree potential only
   LELF         =      F    write electronic localiz. function (ELF)
   LORBIT       =     11    0 simple, 1 ext, 2 COOP (PROOUT), +10 PAW based schemes


 Dipole corrections
   LMONO  =      F    monopole corrections only (constant potential shift)
   LDIPOL =      F    correct potential (dipole corrections)
   IDIPOL =      0    1-x, 2-y, 3-z, 4-all directions 
   EPSILON=  1.0000000 bulk dielectric constant

 Exchange correlation treatment:
   GGA     =    --    GGA type
   LEXCH   =     8    internal setting for exchange type
   LIBXC   =     F    Libxc                    
   VOSKOWN =     0    Vosko Wilk Nusair interpolation
   LHFCALC =     F    Hartree Fock is set to
   LHFONE  =     F    Hartree Fock one center treatment
   AEXX    =    0.0000 exact exchange contribution

 Linear response parameters
   LEPSILON=     F    determine dielectric tensor
   LRPA    =     F    only Hartree local field effects (RPA)
   LNABLA  =     F    use nabla operator in PAW spheres
   LVEL    =     F    velocity operator in full k-point grid
   CSHIFT  =0.1000    complex shift for real part using Kramers Kronig
   OMEGAMAX=  -1.0    maximum frequency
   DEG_THRESHOLD= 0.2000000E-02 threshold for treating states as degnerate
   RTIME   =   -0.100 relaxation time in fs
  (WPLASMAI=    0.000 imaginary part of plasma frequency in eV, 0.658/RTIME)
   DFIELD  = 0.0000000 0.0000000 0.0000000 field for delta impulse in time

  Optional k-point grid parameters
   LKPOINTS_OPT  =     F    use optional k-point grid
   KPOINTS_OPT_MODE=     1    mode for optional k-point grid

 Orbital magnetization related:
   ORBITALMAG=     F  switch on orbital magnetization
   LCHIMAG   =     F  perturbation theory with respect to B field
   DQ        =  0.001000  dq finite difference perturbation B field
   LLRAUG    =     F  two centre corrections for induced B field



--------------------------------------------------------------------------------------------------------


 Static calculation
 charge density and potential will be updated during run
 spin polarized calculation
 Variant of blocked Davidson
 Davidson routine will perform the subspace rotation
 perform sub-space diagonalisation
    after iterative eigenvector-optimisation
 modified Broyden-mixing scheme, WC =      100.0
 initial mixing is a Kerker type mixing with AMIX =  0.4000 and BMIX =      1.0000
 Hartree-type preconditioning will be used
 using additional bands          128
 reciprocal scheme for non local part
 use partial core corrections
 calculate Harris-corrections to forces   (improved forces if not selfconsistent)
 use gradient corrections 
 use of overlap-Matrix (Vanderbilt PP)
 Fermi weights with tetrahedron method with Bloechl corrections


--------------------------------------------------------------------------------------------------------


  energy-cutoff  :      520.00
  volume of cell :     2729.13
      direct lattice vectors                 reciprocal lattice vectors
    11.773269278  0.000000000  0.000000000     0.084938174 -0.000000000  0.000000000
     0.000000000 15.678907416  0.000000000     0.000000000  0.063779954  0.000000000
     0.000000000  0.000000000 14.784683198    -0.000000000 -0.000000000  0.067637567

  length of vectors
    11.773269278 15.678907416 14.784683198     0.084938174  0.063779954  0.067637567



 k-points in units of 2pi/SCALE and weight: pymatgen with grid density = 692 / numbe
   0.00000000  0.00000000  0.00000000       0.083
   0.02123454  0.00000000  0.00000000       0.167
   0.04246909  0.00000000  0.00000000       0.083
   0.00000000  0.02125998  0.00000000       0.167
   0.02123454  0.02125998  0.00000000       0.167
   0.02123454 -0.02125998  0.00000000       0.167
   0.04246909  0.02125998  0.00000000       0.167

 k-points in reciprocal lattice and weights: pymatgen with grid density = 692 / numbe
   0.00000000  0.00000000  0.00000000       0.083
   0.25000000  0.00000000  0.00000000       0.167
   0.50000000  0.00000000  0.00000000       0.083
   0.00000000  0.33333333  0.00000000       0.167
   0.25000000  0.33333333  0.00000000       0.167
   0.25000000 -0.33333333  0.00000000       0.167
   0.50000000  0.33333333  0.00000000       0.167

 position of ions in fractional coordinates (direct lattice) 
   0.09995658  0.47494108  0.75000000
   0.59995658  0.47494108  0.75000000
   0.09995658  0.97494108  0.75000000
   0.59995658  0.97494108  0.75000000
   0.34995658  0.27505892  0.25000000
   0.84995658  0.27505892  0.25000000
   0.34995658  0.77505892  0.25000000
   0.84995658  0.77505892  0.25000000
   0.15004342  0.22494108  0.75000000
   0.65004342  0.22494108  0.75000000
   0.15004342  0.72494108  0.75000000
   0.65004342  0.72494108  0.75000000
   0.40004342  0.02505892  0.25000000
   0.90004342  0.02505892  0.25000000
   0.40004342  0.52505892  0.25000000
   0.90004342  0.52505892  0.25000000
   0.00000000  0.00000000  0.50000000
   0.50000000  0.00000000  0.50000000
   0.00000000  0.50000000  0.50000000
   0.50000000  0.50000000  0.50000000
   0.25000000  0.25000000  0.50000000
   0.75000000  0.25000000  0.50000000
   0.25000000  0.75000000  0.50000000
   0.75000000  0.75000000  0.50000000
   0.25000000  0.25000000  0.00000000
   0.75000000  0.25000000  0.00000000
   0.25000000  0.75000000  0.00000000
   0.75000000  0.75000000  0.00000000
   0.00000000  0.00000000  0.00000000
   0.50000000  0.00000000  0.00000000
   0.00000000  0.50000000  0.00000000
   0.50000000  0.50000000  0.00000000
   0.05300475  0.22484332  0.13545510
   0.55300475  0.22484332  0.13545510
   0.05300475  0.72484332  0.13545510
   0.55300475  0.72484332  0.13545510
   0.30300475  0.02515668  0.86454490
   0.80300475  0.02515668  0.86454490
   0.30300475  0.52515668  0.86454490
   0.80300475  0.52515668  0.86454490
   0.19699525  0.47484332  0.36454490
   0.69699525  0.47484332  0.36454490
   0.19699525  0.97484332  0.36454490
   0.69699525  0.97484332  0.36454490
   0.44699525  0.27515668  0.63545510
   0.94699525  0.27515668  0.63545510
   0.44699525  0.77515668  0.63545510
   0.94699525  0.77515668  0.63545510
   0.44699525  0.27515668  0.86454490
   0.94699525  0.27515668  0.86454490
   0.44699525  0.77515668  0.86454490
   0.94699525  0.77515668  0.86454490
   0.19699525  0.47484332  0.13545510
   0.69699525  0.47484332  0.13545510
   0.19699525  0.97484332  0.13545510
   0.69699525  0.97484332  0.13545510
   0.30300475  0.02515668  0.63545510
   0.80300475  0.02515668  0.63545510
   0.30300475  0.52515668  0.63545510
   0.80300475  0.52515668  0.63545510
   0.05300475  0.22484332  0.36454490
   0.55300475  0.22484332  0.36454490
   0.05300475  0.72484332  0.36454490
   0.55300475  0.72484332  0.36454490
   0.13323946  0.17624973  0.25000000
   0.63323946  0.17624973  0.25000000
   0.13323946  0.67624973  0.25000000
   0.63323946  0.67624973  0.25000000
   0.38323946  0.07375027  0.75000000
   0.88323946  0.07375027  0.75000000
   0.38323946  0.57375027  0.75000000
   0.88323946  0.57375027  0.75000000
   0.11676054  0.42624973  0.25000000
   0.61676054  0.42624973  0.25000000
   0.11676054  0.92624973  0.25000000
   0.61676054  0.92624973  0.25000000
   0.36676054  0.32375027  0.75000000
   0.86676054  0.32375027  0.75000000
   0.36676054  0.82375027  0.75000000
   0.86676054  0.82375027  0.75000000
   0.41644874  0.14631507  0.39654165
   0.91729812  0.14631507  0.39654165
   0.41729812  0.64631507  0.39654165
   0.91729812  0.64631507  0.39654165
   0.16729812  0.10368493  0.60345835
   0.66729812  0.10368493  0.60345835
   0.16729812  0.60368493  0.60345835
   0.66729812  0.60368493  0.60345835
   0.33270188  0.39631507  0.10345835
   0.83270188  0.39631507  0.10345835
   0.33270188  0.89631507  0.10345835
   0.83270188  0.89631507  0.10345835
   0.08270188  0.35368493  0.89654165
   0.58270188  0.35368493  0.89654165
   0.08270188  0.85368493  0.89654165
   0.58270188  0.85368493  0.89654165
   0.08270188  0.35368493  0.60345835
   0.58270188  0.35368493  0.60345835
   0.08270188  0.85368493  0.60345835
   0.58270188  0.85368493  0.60345835
   0.33270188  0.39631507  0.39654165
   0.83270188  0.39631507  0.39654165
   0.33270188  0.89631507  0.39654165
   0.83270188  0.89631507  0.39654165
   0.16729812  0.10368493  0.89654165
   0.66729812  0.10368493  0.89654165
   0.16729812  0.60368493  0.89654165
   0.66729812  0.60368493  0.89654165
   0.41729812  0.14631507  0.10345835
   0.91729812  0.14631507  0.10345835
   0.41729812  0.64631507  0.10345835
   0.91729812  0.64631507  0.10345835

 position of ions in cartesian coordinates  (Angst):
   1.17681578  7.44655717 11.08851240
   7.06345042  7.44655717 11.08851240
   1.17681578 15.28601088 11.08851240
   7.06345042 15.28601088 11.08851240
   4.12013310  4.31262339  3.69617080
  10.00676774  4.31262339  3.69617080
   4.12013310 12.15207710  3.69617080
  10.00676774 12.15207710  3.69617080
   1.76650153  3.52683031 11.08851240
   7.65313617  3.52683031 11.08851240
   1.76650153 11.36628402 11.08851240
   7.65313617 11.36628402 11.08851240
   4.70981885  0.39289654  3.69617080
  10.59645349  0.39289654  3.69617080
   4.70981885  8.23235025  3.69617080
  10.59645349  8.23235025  3.69617080
   0.00000000  0.00000000  7.39234160
   5.88663464  0.00000000  7.39234160
   0.00000000  7.83945371  7.39234160
   5.88663464  7.83945371  7.39234160
   2.94331732  3.91972685  7.39234160
   8.82995196  3.91972685  7.39234160
   2.94331732 11.75918056  7.39234160
   8.82995196 11.75918056  7.39234160
   2.94331732  3.91972685  0.00000000
   8.82995196  3.91972685  0.00000000
   2.94331732 11.75918056  0.00000000
   8.82995196 11.75918056  0.00000000
   0.00000000  0.00000000  0.00000000
   5.88663464  0.00000000  0.00000000
   0.00000000  7.83945371  0.00000000
   5.88663464  7.83945371  0.00000000
   0.62403924  3.52529756  2.00266072
   6.51067388  3.52529756  2.00266072
   0.62403924 11.36475127  2.00266072
   6.51067388 11.36475127  2.00266072
   3.56735656  0.39442929 12.78202248
   9.45399120  0.39442929 12.78202248
   3.56735656  8.23388300 12.78202248
   9.45399120  8.23388300 12.78202248
   2.31927808  7.44502441  5.38968088
   8.20591272  7.44502441  5.38968088
   2.31927808 15.28447812  5.38968088
   8.20591272 15.28447812  5.38968088
   5.26259540  4.31415615  9.39500232
  11.14923003  4.31415615  9.39500232
   5.26259540 12.15360986  9.39500232
  11.14923003 12.15360986  9.39500232
   5.26259540  4.31415615 12.78202248
  11.14923003  4.31415615 12.78202248
   5.26259540 12.15360986 12.78202248
  11.14923003 12.15360986 12.78202248
   2.31927808  7.44502441  2.00266072
   8.20591272  7.44502441  2.00266072
   2.31927808 15.28447812  2.00266072
   8.20591272 15.28447812  2.00266072
   3.56735656  0.39442929  9.39500232
   9.45399120  0.39442929  9.39500232
   3.56735656  8.23388300  9.39500232
   9.45399120  8.23388300  9.39500232
   0.62403924  3.52529756  5.38968088
   6.51067388  3.52529756  5.38968088
   0.62403924 11.36475127  5.38968088
   6.51067388 11.36475127  5.38968088
   1.56866409  2.76340313  3.69617080
   7.45529873  2.76340313  3.69617080
   1.56866409 10.60285684  3.69617080
   7.45529873 10.60285684  3.69617080
   4.51198141  1.15632372 11.08851240
  10.39861605  1.15632372 11.08851240
   4.51198141  8.99577743 11.08851240
  10.39861605  8.99577743 11.08851240
   1.37465323  6.68312999  3.69617080
   7.26128787  6.68312999  3.69617080
   1.37465323 14.52258369  3.69617080
   7.26128787 14.52258369  3.69617080
   4.31797055  5.07605058 11.08851240
  10.20460519  5.07605058 11.08851240
   4.31797055 12.91550428 11.08851240
  10.20460519 12.91550428 11.08851240
   4.90296313  2.29406039  5.86274262
  10.79959777  2.29406039  5.86274262
   4.91296313 10.13351409  5.86274262
  10.79959777 10.13351409  5.86274262
   1.96964581  1.62566647  8.92194058
   7.85628045  1.62566647  8.92194058
   1.96964581  9.46512018  8.92194058
   7.85628045  9.46512018  8.92194058
   3.91698882  6.21378724  1.52959898
   9.80362346  6.21378724  1.52959898
   3.91698882 14.05324095  1.52959898
   9.80362346 14.05324095  1.52959898
   0.97367150  5.54539332 13.25508422
   6.86030614  5.54539332 13.25508422
   0.97367150 13.38484703 13.25508422
   6.86030614 13.38484703 13.25508422
   0.97367150  5.54539332  8.92194058
   6.86030614  5.54539332  8.92194058
   0.97367150 13.38484703  8.92194058
   6.86030614 13.38484703  8.92194058
   3.91698882  6.21378724  5.86274262
   9.80362346  6.21378724  5.86274262
   3.91698882 14.05324095  5.86274262
   9.80362346 14.05324095  5.86274262
   1.96964581  1.62566647 13.25508422
   7.85628045  1.62566647 13.25508422
   1.96964581  9.46512018 13.25508422
   7.85628045  9.46512018 13.25508422
   4.91296313  2.29406039  1.52959898
  10.79959777  2.29406039  1.52959898
   4.91296313 10.13351409  1.52959898
  10.79959777 10.13351409  1.52959898



--------------------------------------------------------------------------------------------------------


 k-point   1 :   0.0000 0.0000 0.0000  plane waves:   73483
 k-point   2 :   0.2500 0.0000 0.0000  plane waves:   73528
 k-point   3 :   0.5000 0.0000 0.0000  plane waves:   73536
 k-point   4 :   0.0000 0.3333 0.0000  plane waves:   73484
 k-point   5 :   0.2500 0.3333 0.0000  plane waves:   73497
 k-point   6 :   0.2500-0.3333 0.0000  plane waves:   73497
 k-point   7 :   0.5000 0.3333 0.0000  plane waves:   73530

 maximum and minimum number of plane-waves per node :     73536    73483

 maximum number of plane-waves:     73536
 maximum index in each direction: 
   IXMAX=   21   IYMAX=   29   IZMAX=   27
   IXMIN=  -22   IYMIN=  -29   IZMIN=  -27


 serial   3D FFT for wavefunctions
 parallel 3D FFT for charge:
    minimum data exchange during FFTs selected (reduces bandwidth)


 total amount of memory used by VASP MPI-rank0   652790. kBytes
=======================================================================

   base      :      30000. kBytes
   nonl-proj :     197664. kBytes
   fftplans  :      51245. kBytes
   grid      :     123102. kBytes
   one-center:        688. kBytes
   wavefun   :     250091. kBytes

     INWAV:  cpu time      0.0001: real time      0.0003
 Broyden mixing: mesh for mixing (old mesh)
   NGX = 43   NGY = 59   NGZ = 55
  (NGX  =180   NGY  =240   NGZ  =224)
  gives a total of 139535 points

 initial charge density was supplied:
 charge density of overlapping atoms calculated
 number of electron     704.0000000 magnetization     112.0000000
 keeping initial charge density in first step


--------------------------------------------------------------------------------------------------------


 Maximum index for augmentation-charges         5341 (set IRDMAX)


--------------------------------------------------------------------------------------------------------


 First call to EWALD:  gamma=   0.127
 Maximum number of real-space cells 3x 3x 3
 Maximum number of reciprocal cells 2x 3x 3

    FEWALD:  cpu time      0.0084: real time      0.0084


--------------------------------------- Iteration      1(   1)  ---------------------------------------


    POTLOK:  cpu time      0.8776: real time      0.8778
    SETDIJ:  cpu time      2.1819: real time      2.1827
     EDDAV:  cpu time    203.9794: real time    203.9898
 BZINTS: Fermi energy:   14.795230;  704.000000 electrons
         Band energy: 0.611277E+03;  BLOECHL correction:   -0.014705
       DOS:  cpu time      0.1335: real time      0.1338
    --------------------------------------------
      LOOP:  cpu time    207.1724: real time    207.1841

 eigenvalue-minimisations  : 13888
 total energy-change (2. order) : 0.6435453E+04  (-0.3101911E+05)
 number of electron     704.0000000 magnetization     112.0000000
 augmentation part      704.0000000 magnetization     112.0000000

 Free energy of the ion-electron system (eV)
  ---------------------------------------------------
  alpha Z        PSCENC =       878.71633274
  Ewald energy   TEWEN  =    -29402.48036744
  -Hartree energ DENC   =    -11510.26321280
  -exchange      EXHF   =         0.00000000
  -V(xc)+E(xc)   XCENC  =      1775.66224481
  PAW double counting   =     33462.69475165   -36039.21176956
  entropy T*S    EENTRO =         0.00000000
  eigenvalues    EBANDS =       611.27739109
  atomic energy  EATOM  =     46659.05742081
  Solvation  Ediel_sol  =         0.00000000
  ---------------------------------------------------
  free energy    TOTEN  =      6435.45279129 eV

  energy without entropy =     6435.45279129  energy(sigma->0) =     6435.45279129


--------------------------------------------------------------------------------------------------------




--------------------------------------- Iteration      1(   2)  ---------------------------------------


     EDDAV:  cpu time    223.2136: real time    223.2254
 BZINTS: Fermi energy:    4.964550;  704.000000 electrons
         Band energy:-0.533660E+04;  BLOECHL correction:   -0.008080
       DOS:  cpu time      0.1199: real time      0.1201
    --------------------------------------------
      LOOP:  cpu time    223.3335: real time    223.3455

 eigenvalue-minimisations  : 15232
 total energy-change (2. order) :-0.5947881E+04  (-0.5595168E+04)
 number of electron     704.0000000 magnetization     112.0000000
 augmentation part      704.0000000 magnetization     112.0000000

 Free energy of the ion-electron system (eV)
  ---------------------------------------------------
  alpha Z        PSCENC =       878.71633274
  Ewald energy   TEWEN  =    -29402.48036744
  -Hartree energ DENC   =    -11510.26321280
  -exchange      EXHF   =         0.00000000
  -V(xc)+E(xc)   XCENC  =      1775.66224481
  PAW double counting   =     33462.69475165   -36039.21176956
  entropy T*S    EENTRO =         0.00000000
  eigenvalues    EBANDS =     -5336.60312542
  atomic energy  EATOM  =     46659.05742081
  Solvation  Ediel_sol  =         0.00000000
  ---------------------------------------------------
  free energy    TOTEN  =       487.57227478 eV

  energy without entropy =      487.57227478  energy(sigma->0) =      487.57227478


--------------------------------------------------------------------------------------------------------




--------------------------------------- Iteration      1(   3)  ---------------------------------------


     EDDAV:  cpu time    244.2812: real time    244.2944
 BZINTS: Fermi energy:    1.969945;  704.000000 electrons
         Band energy:-0.619019E+04;  BLOECHL correction:   -0.000000
       DOS:  cpu time      0.0945: real time      0.0947
    --------------------------------------------
      LOOP:  cpu time    244.3758: real time    244.3891

 eigenvalue-minimisations  : 17024
 total energy-change (2. order) :-0.8535867E+03  (-0.8354005E+03)
 number of electron     704.0000000 magnetization     112.0000000
 augmentation part      704.0000000 magnetization     112.0000000

 Free energy of the ion-electron system (eV)
  ---------------------------------------------------
  alpha Z        PSCENC =       878.71633274
  Ewald energy   TEWEN  =    -29402.48036744
  -Hartree energ DENC   =    -11510.26321280
  -exchange      EXHF   =         0.00000000
  -V(xc)+E(xc)   XCENC  =      1775.66224481
  PAW double counting   =     33462.69475165   -36039.21176956
  entropy T*S    EENTRO =         0.00000000
  eigenvalues    EBANDS =     -6190.18987124
  atomic energy  EATOM  =     46659.05742081
  Solvation  Ediel_sol  =         0.00000000
  ---------------------------------------------------
  free energy    TOTEN  =      -366.01447104 eV

  energy without entropy =     -366.01447104  energy(sigma->0) =     -366.01447104


--------------------------------------------------------------------------------------------------------




--------------------------------------- Iteration      1(   4)  ---------------------------------------


     EDDAV:  cpu time    236.6999: real time    236.7246
 BZINTS: Fermi energy:    1.844228;  704.000000 electrons
         Band energy:-0.623264E+04;  BLOECHL correction:   -0.000000
       DOS:  cpu time      0.0937: real time      0.0938
    --------------------------------------------
      LOOP:  cpu time    236.7936: real time    236.8184

 eigenvalue-minimisations  : 16576
 total energy-change (2. order) :-0.4244631E+02  (-0.4186892E+02)
 number of electron     704.0000000 magnetization     112.0000000
 augmentation part      704.0000000 magnetization     112.0000000

 Free energy of the ion-electron system (eV)
  ---------------------------------------------------
  alpha Z        PSCENC =       878.71633274
  Ewald energy   TEWEN  =    -29402.48036744
  -Hartree energ DENC   =    -11510.26321280
  -exchange      EXHF   =         0.00000000
  -V(xc)+E(xc)   XCENC  =      1775.66224481
  PAW double counting   =     33462.69475165   -36039.21176956
  entropy T*S    EENTRO =         0.00000000
  eigenvalues    EBANDS =     -6232.63618037
  atomic energy  EATOM  =     46659.05742081
  Solvation  Ediel_sol  =         0.00000000
  ---------------------------------------------------
  free energy    TOTEN  =      -408.46078017 eV

  energy without entropy =     -408.46078017  energy(sigma->0) =     -408.46078017


--------------------------------------------------------------------------------------------------------




--------------------------------------- Iteration      1(   5)  ---------------------------------------


     EDDAV:  cpu time    253.9633: real time    253.9765
 BZINTS: Fermi energy:    1.838364;  704.000000 electrons
         Band energy:-0.623458E+04;  BLOECHL correction:   -0.000000
       DOS:  cpu time      0.0922: real time      0.0924
    CHARGE:  cpu time      4.0312: real time      4.0318
    MIXING:  cpu time      0.0086: real time      0.0092
    --------------------------------------------
      LOOP:  cpu time    258.0953: real time    258.1099

 eigenvalue-minimisations  : 18560
 total energy-change (2. order) :-0.1938926E+01  (-0.1936455E+01)
 number of electron     704.0000015 magnetization      87.2037508
 augmentation part       75.4004933 magnetization      87.8260535

 Broyden mixing:
  rms(total) = 0.94843E+01    rms(broyden)= 0.94843E+01
  rms(prec ) = 0.95710E+01
  weight for this iteration     100.00

 Free energy of the ion-electron system (eV)
  ---------------------------------------------------
  alpha Z        PSCENC =       878.71633274
  Ewald energy   TEWEN  =    -29402.48036744
  -Hartree energ DENC   =    -11510.26321280
  -exchange      EXHF   =         0.00000000
  -V(xc)+E(xc)   XCENC  =      1775.66224481
  PAW double counting   =     33462.69475165   -36039.21176956
  entropy T*S    EENTRO =         0.00000000
  eigenvalues    EBANDS =     -6234.57510669
  atomic energy  EATOM  =     46659.05742081
  Solvation  Ediel_sol  =         0.00000000
  ---------------------------------------------------
  free energy    TOTEN  =      -410.39970649 eV

  energy without entropy =     -410.39970649  energy(sigma->0) =     -410.39970649


--------------------------------------------------------------------------------------------------------




--------------------------------------- Iteration      1(   6)  ---------------------------------------


    POTLOK:  cpu time      0.6989: real time      0.7010
    SETDIJ:  cpu time      2.1062: real time      2.1062
     EDDAV:  cpu time    216.6835: real time    216.6942
 BZINTS: Fermi energy:    2.276787;  704.000000 electrons
         Band energy:-0.607864E+04;  BLOECHL correction:   -0.000000
       DOS:  cpu time      0.0952: real time      0.0954
    CHARGE:  cpu time      4.2694: real time      4.2695
    MIXING:  cpu time      0.0231: real time      0.0231
    --------------------------------------------
      LOOP:  cpu time    223.8763: real time    223.8894

 eigenvalue-minimisations  : 14912
 total energy-change (2. order) : 0.1371811E+03  (-0.3579843E+02)
 number of electron     704.0000015 magnetization      64.5938122
 augmentation part       75.9586498 magnetization      65.1258533

 Broyden mixing:
  rms(total) = 0.56127E+01    rms(broyden)= 0.56127E+01
  rms(prec ) = 0.56693E+01
  weight for this iteration     100.00

 eigenvalues of (default mixing * dielectric matrix)
  average eigenvalue GAMMA=   0.8878
  0.8878

 Free energy of the ion-electron system (eV)
  ---------------------------------------------------
  alpha Z        PSCENC =       878.71633274
  Ewald energy   TEWEN  =    -29402.48036744
  -Hartree energ DENC   =    -11590.15225315
  -exchange      EXHF   =         0.00000000
  -V(xc)+E(xc)   XCENC  =      1838.74131820
  PAW double counting   =     43866.85233129   -46445.31733195
  entropy T*S    EENTRO =         0.00000000
  eigenvalues    EBANDS =     -6078.63605526
  atomic energy  EATOM  =     46659.05742081
  Solvation  Ediel_sol  =         0.00000000
  ---------------------------------------------------
  free energy    TOTEN  =      -273.21860476 eV

  energy without entropy =     -273.21860476  energy(sigma->0) =     -273.21860476


--------------------------------------------------------------------------------------------------------




--------------------------------------- Iteration      1(   7)  ---------------------------------------


    POTLOK:  cpu time      0.7065: real time      0.7070
    SETDIJ:  cpu time      2.1183: real time      2.1184
     EDDAV:  cpu time    228.1282: real time    228.1400
 BZINTS: Fermi energy:    2.471684;  704.000000 electrons
         Band energy:-0.596376E+04;  BLOECHL correction:   -0.000000
       DOS:  cpu time      0.0903: real time      0.0904
    CHARGE:  cpu time      3.9628: real time      3.9630
    MIXING:  cpu time      0.0171: real time      0.0171
    --------------------------------------------
      LOOP:  cpu time    235.0232: real time    235.0359

 eigenvalue-minimisations  : 15264
 total energy-change (2. order) :-0.4663325E+02  (-0.7866264E+01)
 number of electron     704.0000015 magnetization      36.5577670
 augmentation part       76.0363230 magnetization      38.6379926

 Broyden mixing:
  rms(total) = 0.31317E+01    rms(broyden)= 0.31317E+01
  rms(prec ) = 0.31539E+01
  weight for this iteration     100.00

 eigenvalues of (default mixing * dielectric matrix)
  average eigenvalue GAMMA=   1.3276
  0.7339  1.9212

 Free energy of the ion-electron system (eV)
  ---------------------------------------------------
  alpha Z        PSCENC =       878.71633274
  Ewald energy   TEWEN  =    -29402.48036744
  -Hartree energ DENC   =    -11729.64255853
  -exchange      EXHF   =         0.00000000
  -V(xc)+E(xc)   XCENC  =      1833.86586710
  PAW double counting   =     54820.77777344   -57416.38669300
  entropy T*S    EENTRO =         0.00000000
  eigenvalues    EBANDS =     -5963.75963183
  atomic energy  EATOM  =     46659.05742081
  Solvation  Ediel_sol  =         0.00000000
  ---------------------------------------------------
  free energy    TOTEN  =      -319.85185672 eV

  energy without entropy =     -319.85185672  energy(sigma->0) =     -319.85185672


--------------------------------------------------------------------------------------------------------




--------------------------------------- Iteration      1(   8)  ---------------------------------------


    POTLOK:  cpu time      0.6898: real time      0.6904
    SETDIJ:  cpu time      2.1141: real time      2.1159
     EDDAV:  cpu time    226.5491: real time    226.5607
 BZINTS: Fermi energy:    2.517135;  704.000000 electrons
         Band energy:-0.590702E+04;  BLOECHL correction:   -0.000000
       DOS:  cpu time      0.0948: real time      0.0950
    CHARGE:  cpu time      4.0484: real time      4.0489
    MIXING:  cpu time      0.0195: real time      0.0195
    --------------------------------------------
      LOOP:  cpu time    233.5157: real time    233.5303

 eigenvalue-minimisations  : 14496
 total energy-change (2. order) :-0.5287607E+02  (-0.4548704E+01)
 number of electron     704.0000015 magnetization      28.8130062
 augmentation part       76.9750537 magnetization      30.2185134

 Broyden mixing:
  rms(total) = 0.14057E+01    rms(broyden)= 0.14057E+01
  rms(prec ) = 0.14247E+01
  weight for this iteration     100.00

 eigenvalues of (default mixing * dielectric matrix)
  average eigenvalue GAMMA=   1.2141
  2.2825  0.7641  0.5957

 Free energy of the ion-electron system (eV)
  ---------------------------------------------------
  alpha Z        PSCENC =       878.71633274
  Ewald energy   TEWEN  =    -29402.48036744
  -Hartree energ DENC   =    -11826.97912975
  -exchange      EXHF   =         0.00000000
  -V(xc)+E(xc)   XCENC  =      1821.79737672
  PAW double counting   =     67009.18725479   -69605.00459416
  entropy T*S    EENTRO =         0.00000000
  eigenvalues    EBANDS =     -5907.02221707
  atomic energy  EATOM  =     46659.05742081
  Solvation  Ediel_sol  =         0.00000000
  ---------------------------------------------------
  free energy    TOTEN  =      -372.72792337 eV

  energy without entropy =     -372.72792337  energy(sigma->0) =     -372.72792337


--------------------------------------------------------------------------------------------------------




--------------------------------------- Iteration      1(   9)  ---------------------------------------


    POTLOK:  cpu time      0.7254: real time      0.7259
    SETDIJ:  cpu time      2.1535: real time      2.1536
     EDDAV:  cpu time    235.7900: real time    235.8021
 BZINTS: Fermi energy:    2.395689;  704.000000 electrons
         Band energy:-0.594722E+04;  BLOECHL correction:   -0.000000
       DOS:  cpu time      0.0912: real time      0.0914
    CHARGE:  cpu time      4.4914: real time      4.4915
    MIXING:  cpu time      0.0107: real time      0.0107
    --------------------------------------------
      LOOP:  cpu time    243.2621: real time    243.2752

 eigenvalue-minimisations  : 15552
 total energy-change (2. order) :-0.2834911E+02  (-0.2679961E+01)
 number of electron     704.0000015 magnetization      18.4516311
 augmentation part       77.1633675 magnetization      19.2989517

 Broyden mixing:
  rms(total) = 0.82050E+00    rms(broyden)= 0.82049E+00
  rms(prec ) = 0.85838E+00
  weight for this iteration     100.00

 eigenvalues of (default mixing * dielectric matrix)
  average eigenvalue GAMMA=   1.3430
  2.4725  1.5252  0.7425  0.6316

 Free energy of the ion-electron system (eV)
  ---------------------------------------------------
  alpha Z        PSCENC =       878.71633274
  Ewald energy   TEWEN  =    -29402.48036744
  -Hartree energ DENC   =    -11807.22745047
  -exchange      EXHF   =         0.00000000
  -V(xc)+E(xc)   XCENC  =      1812.03141976
  PAW double counting   =     68623.11921016   -71217.07644680
  entropy T*S    EENTRO =         0.00000000
  eigenvalues    EBANDS =     -5947.21714782
  atomic energy  EATOM  =     46659.05742081
  Solvation  Ediel_sol  =         0.00000000
  ---------------------------------------------------
  free energy    TOTEN  =      -401.07702906 eV

  energy without entropy =     -401.07702906  energy(sigma->0) =     -401.07702906


--------------------------------------------------------------------------------------------------------




--------------------------------------- Iteration      1(  10)  ---------------------------------------


    POTLOK:  cpu time      0.6913: real time      0.6918
    SETDIJ:  cpu time      2.0701: real time      2.0702
     EDDAV:  cpu time    214.1989: real time    214.2171
 BZINTS: Fermi energy:    2.193012;  704.000000 electrons
         Band energy:-0.603032E+04;  BLOECHL correction:   -0.000000
       DOS:  cpu time      0.0806: real time      0.0808
    CHARGE:  cpu time      3.9321: real time      3.9323
    MIXING:  cpu time      0.0101: real time      0.0101
    --------------------------------------------
      LOOP:  cpu time    220.9832: real time    221.0024

 eigenvalue-minimisations  : 15392
 total energy-change (2. order) :-0.2239155E+02  (-0.3295440E+01)
 number of electron     704.0000015 magnetization      12.9868633
 augmentation part       76.9422747 magnetization      13.3091163

 Broyden mixing:
  rms(total) = 0.42241E+00    rms(broyden)= 0.42241E+00
  rms(prec ) = 0.44377E+00
  weight for this iteration     100.00

 eigenvalues of (default mixing * dielectric matrix)
  average eigenvalue GAMMA=   1.2870
  2.5879  1.6374  0.8622  0.7308  0.6165

 Free energy of the ion-electron system (eV)
  ---------------------------------------------------
  alpha Z        PSCENC =       878.71633274
  Ewald energy   TEWEN  =    -29402.48036744
  -Hartree energ DENC   =    -11736.27425889
  -exchange      EXHF   =         0.00000000
  -V(xc)+E(xc)   XCENC  =      1798.41829588
  PAW double counting   =     69318.86111239   -71909.44712044
  entropy T*S    EENTRO =         0.00000000
  eigenvalues    EBANDS =     -6030.31999018
  atomic energy  EATOM  =     46659.05742081
  Solvation  Ediel_sol  =         0.00000000
  ---------------------------------------------------
  free energy    TOTEN  =      -423.46857513 eV

  energy without entropy =     -423.46857513  energy(sigma->0) =     -423.46857513


--------------------------------------------------------------------------------------------------------




--------------------------------------- Iteration      1(  11)  ---------------------------------------


    POTLOK:  cpu time      0.7153: real time      0.7159
    SETDIJ:  cpu time      2.1361: real time      2.1362
     EDDAV:  cpu time    206.6882: real time    206.7043
 BZINTS: Fermi energy:    2.118485;  704.000000 electrons
         Band energy:-0.606226E+04;  BLOECHL correction:   -0.000000
       DOS:  cpu time      0.0878: real time      0.0880
    CHARGE:  cpu time      3.8106: real time      3.8108
    MIXING:  cpu time      0.0096: real time      0.0096
    --------------------------------------------
      LOOP:  cpu time    213.4477: real time    213.4648

 eigenvalue-minimisations  : 15456
 total energy-change (2. order) :-0.4594738E+01  (-0.8606695E+00)
 number of electron     704.0000015 magnetization      11.8053188
 augmentation part       76.8294453 magnetization      11.9737558

 Broyden mixing:
  rms(total) = 0.37180E+00    rms(broyden)= 0.37180E+00
  rms(prec ) = 0.38410E+00
  weight for this iteration     100.00

 eigenvalues of (default mixing * dielectric matrix)
  average eigenvalue GAMMA=   1.1711
  2.3734  1.6786  1.0250  0.7659  0.5918  0.5918

 Free energy of the ion-electron system (eV)
  ---------------------------------------------------
  alpha Z        PSCENC =       878.71633274
  Ewald energy   TEWEN  =    -29402.48036744
  -Hartree energ DENC   =    -11706.20353185
  -exchange      EXHF   =         0.00000000
  -V(xc)+E(xc)   XCENC  =      1794.60770105
  PAW double counting   =     69025.35323894   -71614.85246289
  entropy T*S    EENTRO =         0.00000000
  eigenvalues    EBANDS =     -6062.26164459
  atomic energy  EATOM  =     46659.05742081
  Solvation  Ediel_sol  =         0.00000000
  ---------------------------------------------------
  free energy    TOTEN  =      -428.06331323 eV

  energy without entropy =     -428.06331323  energy(sigma->0) =     -428.06331323


--------------------------------------------------------------------------------------------------------




--------------------------------------- Iteration      1(  12)  ---------------------------------------


    POTLOK:  cpu time      0.6634: real time      0.6639
    SETDIJ:  cpu time      1.9702: real time      1.9703
     EDDAV:  cpu time    207.5899: real time    207.6095
 BZINTS: Fermi energy:    2.103531;  704.000000 electrons
         Band energy:-0.607039E+04;  BLOECHL correction:   -0.000000
       DOS:  cpu time      0.0923: real time      0.0925
    CHARGE:  cpu time      3.9309: real time      3.9311
    MIXING:  cpu time      0.0126: real time      0.0126
    --------------------------------------------
      LOOP:  cpu time    214.2593: real time    214.2799

 eigenvalue-minimisations  : 15680
 total energy-change (2. order) :-0.4470856E-01  (-0.4867190E-01)
 number of electron     704.0000015 magnetization       5.1280143
 augmentation part       76.7977855 magnetization       5.2639260

 Broyden mixing:
  rms(total) = 0.28358E+00    rms(broyden)= 0.28358E+00
  rms(prec ) = 0.29147E+00
  weight for this iteration     100.00

 eigenvalues of (default mixing * dielectric matrix)
  average eigenvalue GAMMA=   1.3354
  2.4126  2.4126  1.2648  1.2648  0.7365  0.6619  0.5948

 Free energy of the ion-electron system (eV)
  ---------------------------------------------------
  alpha Z        PSCENC =       878.71633274
  Ewald energy   TEWEN  =    -29402.48036744
  -Hartree energ DENC   =    -11697.48477925
  -exchange      EXHF   =         0.00000000
  -V(xc)+E(xc)   XCENC  =      1793.62256758
  PAW double counting   =     68305.93381658   -70895.08389345
  entropy T*S    EENTRO =         0.00000000
  eigenvalues    EBANDS =     -6070.38911936
  atomic energy  EATOM  =     46659.05742081
  Solvation  Ediel_sol  =         0.00000000
  ---------------------------------------------------
  free energy    TOTEN  =      -428.10802179 eV

  energy without entropy =     -428.10802179  energy(sigma->0) =     -428.10802179


--------------------------------------------------------------------------------------------------------




--------------------------------------- Iteration      1(  13)  ---------------------------------------


    POTLOK:  cpu time      0.6862: real time      0.6868
    SETDIJ:  cpu time      1.9035: real time      1.9036
     EDDAV:  cpu time    206.0375: real time    206.0539
 BZINTS: Fermi energy:    2.037421;  704.000000 electrons
         Band energy:-0.610240E+04;  BLOECHL correction:   -0.000000
       DOS:  cpu time      0.0928: real time      0.0929
    CHARGE:  cpu time      3.8548: real time      3.8550
    MIXING:  cpu time      0.0098: real time      0.0098
    --------------------------------------------
      LOOP:  cpu time    212.5845: real time    212.6019

 eigenvalue-minimisations  : 15680
 total energy-change (2. order) :-0.2758927E+00  (-0.7491508E-01)
 number of electron     704.0000015 magnetization       2.1085275
 augmentation part       76.6575930 magnetization       2.1369850

 Broyden mixing:
  rms(total) = 0.18658E+00    rms(broyden)= 0.18658E+00
  rms(prec ) = 0.19118E+00
  weight for this iteration     100.00

 eigenvalues of (default mixing * dielectric matrix)
  average eigenvalue GAMMA=   1.3741
  2.7146  2.7146  1.4155  1.4155  0.7536  0.6001  0.6897  0.6897

 Free energy of the ion-electron system (eV)
  ---------------------------------------------------
  alpha Z        PSCENC =       878.71633274
  Ewald energy   TEWEN  =    -29402.48036744
  -Hartree energ DENC   =    -11663.83091492
  -exchange      EXHF   =         0.00000000
  -V(xc)+E(xc)   XCENC  =      1790.18070673
  PAW double counting   =     66677.54798777   -69265.17269436
  entropy T*S    EENTRO =         0.00000000
  eigenvalues    EBANDS =     -6102.40238583
  atomic energy  EATOM  =     46659.05742081
  Solvation  Ediel_sol  =         0.00000000
  ---------------------------------------------------
  free energy    TOTEN  =      -428.38391450 eV

  energy without entropy =     -428.38391450  energy(sigma->0) =     -428.38391450


--------------------------------------------------------------------------------------------------------




--------------------------------------- Iteration      1(  14)  ---------------------------------------


    POTLOK:  cpu time      0.6536: real time      0.6541
    SETDIJ:  cpu time      1.8958: real time      1.8961
     EDDAV:  cpu time    193.3422: real time    193.3601
 BZINTS: Fermi energy:    2.034044;  704.000000 electrons
         Band energy:-0.610036E+04;  BLOECHL correction:   -0.000000
       DOS:  cpu time      0.0904: real time      0.0906
    CHARGE:  cpu time      3.8059: real time      3.8061
    MIXING:  cpu time      0.0118: real time      0.0118
    --------------------------------------------
      LOOP:  cpu time    199.7997: real time    199.8188

 eigenvalue-minimisations  : 14336
 total energy-change (2. order) :-0.8378926E-01  (-0.9579740E-02)
 number of electron     704.0000015 magnetization       1.0671796
 augmentation part       76.6693809 magnetization       1.0800433

 Broyden mixing:
  rms(total) = 0.79455E-01    rms(broyden)= 0.79455E-01
  rms(prec ) = 0.85686E-01
  weight for this iteration     100.00

 eigenvalues of (default mixing * dielectric matrix)
  average eigenvalue GAMMA=   1.3827
  3.6264  1.9961  1.9961  1.0811  0.8365  0.8365  0.8072  0.5954  0.6690

 Free energy of the ion-electron system (eV)
  ---------------------------------------------------
  alpha Z        PSCENC =       878.71633274
  Ewald energy   TEWEN  =    -29402.48036744
  -Hartree energ DENC   =    -11665.99787911
  -exchange      EXHF   =         0.00000000
  -V(xc)+E(xc)   XCENC  =      1790.37589405
  PAW double counting   =     66907.46438309   -69495.24635171
  entropy T*S    EENTRO =         0.00000000
  eigenvalues    EBANDS =     -6100.35713619
  atomic energy  EATOM  =     46659.05742081
  Solvation  Ediel_sol  =         0.00000000
  ---------------------------------------------------
  free energy    TOTEN  =      -428.46770377 eV

  energy without entropy =     -428.46770377  energy(sigma->0) =     -428.46770377


--------------------------------------------------------------------------------------------------------




--------------------------------------- Iteration      1(  15)  ---------------------------------------


    POTLOK:  cpu time      0.6625: real time      0.6631
    SETDIJ:  cpu time      1.8609: real time      1.8609
     EDDAV:  cpu time    207.8396: real time    207.8561
 BZINTS: Fermi energy:    2.041589;  704.000000 electrons
         Band energy:-0.609486E+04;  BLOECHL correction:   -0.000000
       DOS:  cpu time      0.0926: real time      0.0928
    CHARGE:  cpu time      4.1923: real time      4.1926
    MIXING:  cpu time      0.0107: real time      0.0107
    --------------------------------------------
      LOOP:  cpu time    214.6587: real time    214.6763

 eigenvalue-minimisations  : 16000
 total energy-change (2. order) :-0.6411882E-02  (-0.2272611E-02)
 number of electron     704.0000015 magnetization       0.3504656
 augmentation part       76.7005961 magnetization       0.3584475

 Broyden mixing:
  rms(total) = 0.35876E-01    rms(broyden)= 0.35876E-01
  rms(prec ) = 0.38928E-01
  weight for this iteration     100.00

 eigenvalues of (default mixing * dielectric matrix)
  average eigenvalue GAMMA=   1.4041
  4.1599  1.7506  1.7506  1.7354  0.9285  0.9285  0.7681  0.7681  0.5951  0.6558

 Free energy of the ion-electron system (eV)
  ---------------------------------------------------
  alpha Z        PSCENC =       878.71633274
  Ewald energy   TEWEN  =    -29402.48036744
  -Hartree energ DENC   =    -11671.57027382
  -exchange      EXHF   =         0.00000000
  -V(xc)+E(xc)   XCENC  =      1790.82551434
  PAW double counting   =     67061.98867787   -69650.15415436
  entropy T*S    EENTRO =         0.00000000
  eigenvalues    EBANDS =     -6094.85726579
  atomic energy  EATOM  =     46659.05742081
  Solvation  Ediel_sol  =         0.00000000
  ---------------------------------------------------
  free energy    TOTEN  =      -428.47411565 eV

  energy without entropy =     -428.47411565  energy(sigma->0) =     -428.47411565


--------------------------------------------------------------------------------------------------------




--------------------------------------- Iteration      1(  16)  ---------------------------------------


    POTLOK:  cpu time      0.6602: real time      0.6607
    SETDIJ:  cpu time      1.8845: real time      1.8865
     EDDAV:  cpu time    208.8440: real time    208.8599
 BZINTS: Fermi energy:    2.045181;  704.000000 electrons
         Band energy:-0.609194E+04;  BLOECHL correction:   -0.000000
       DOS:  cpu time      0.0877: real time      0.0879
    CHARGE:  cpu time      3.9895: real time      3.9898
    MIXING:  cpu time      0.0105: real time      0.0105
    --------------------------------------------
      LOOP:  cpu time    215.4764: real time    215.4953

 eigenvalue-minimisations  : 16032
 total energy-change (2. order) :-0.2959642E-02  (-0.7196359E-03)
 number of electron     704.0000015 magnetization       0.1260134
[...]
      5.88663      7.83945      7.39234        -0.000235     -0.000057     -0.000090
      2.94332      3.91973      7.39234        -0.001308      0.001550      0.000849
      8.82995      3.91973      7.39234         0.000432     -0.000110      0.000793
      2.94332     11.75918      7.39234         0.000025      0.000114     -0.000120
      8.82995     11.75918      7.39234        -0.000024     -0.000076      0.000048
      2.94332      3.91973      0.00000        -0.000312      0.000296     -0.000175
      8.82995      3.91973      0.00000         0.000398      0.000063     -0.000410
      2.94332     11.75918      0.00000        -0.000001      0.000001      0.000001
      8.82995     11.75918      0.00000        -0.000015     -0.000058     -0.000041
      0.00000      0.00000      0.00000         0.000111     -0.000021     -0.000015
      5.88663      0.00000      0.00000        -0.000025     -0.000318     -0.000244
      0.00000      7.83945      0.00000         0.000101      0.000020     -0.000015
      5.88663      7.83945      0.00000        -0.000090      0.000051     -0.000029
      0.62404      3.52530      2.00266         0.001703     -0.000596      0.001218
      6.51067      3.52530      2.00266         0.000748     -0.000297      0.000196
      0.62404     11.36475      2.00266         0.001680     -0.000478      0.000558
      6.51067     11.36475      2.00266         0.001632     -0.000556      0.000478
      3.56736      0.39443     12.78202         0.001787      0.000344     -0.000270
      9.45399      0.39443     12.78202         0.001691      0.000478     -0.000517
      3.56736      8.23388     12.78202         0.001647      0.000521     -0.000502
      9.45399      8.23388     12.78202         0.001656      0.000527     -0.000552
      2.31928      7.44502      5.38968        -0.001130     -0.000167     -0.000430
      8.20591      7.44502      5.38968        -0.001762     -0.000548     -0.000629
      2.31928     15.28448      5.38968        -0.001603     -0.001410      0.000073
      8.20591     15.28448      5.38968        -0.001342     -0.000651     -0.000526
      5.26260      4.31416      9.39500        -0.001873      0.000623      0.000786
     11.14923      4.31416      9.39500        -0.001536      0.000666      0.000517
      5.26260     12.15361      9.39500        -0.001663      0.000533      0.000563
     11.14923     12.15361      9.39500        -0.001613      0.000562      0.000521
      5.26260      4.31416     12.78202        -0.001750      0.000450     -0.000495
     11.14923      4.31416     12.78202        -0.001650      0.000527     -0.000507
      5.26260     12.15361     12.78202        -0.001673      0.000501     -0.000540
     11.14923     12.15361     12.78202        -0.001655      0.000533     -0.000519
      2.31928      7.44502      2.00266        -0.001667     -0.000390      0.000513
      8.20591      7.44502      2.00266        -0.001706     -0.000613      0.000573
      2.31928     15.28448      2.00266        -0.001752     -0.000404      0.000269
      8.20591     15.28448      2.00266        -0.001444     -0.000646      0.000482
      3.56736      0.39443      9.39500         0.001424      0.000902      0.000908
      9.45399      0.39443      9.39500         0.001758      0.000285      0.000568
      3.56736      8.23388      9.39500         0.001646      0.000550      0.000524
      9.45399      8.23388      9.39500         0.001652      0.000552      0.000565
      0.62404      3.52530      5.38968         0.001472     -0.000329     -0.001353
      6.51067      3.52530      5.38968        -0.068018     -0.053198      0.015251
      0.62404     11.36475      5.38968         0.001684     -0.000517     -0.000569
      6.51067     11.36475      5.38968         0.001573     -0.000583     -0.000498
      1.56866      2.76340      3.69617        -0.000871     -0.001248     -0.000356
      7.45530      2.76340      3.69617        -0.012809     -0.004530      0.009626
      1.56866     10.60286      3.69617        -0.000383     -0.001864      0.000009
      7.45530     10.60286      3.69617        -0.000261     -0.001787      0.000031
      4.51198      1.15632     11.08851        -0.000535      0.001693     -0.000379
     10.39862      1.15632     11.08851        -0.000526      0.001879     -0.000119
      4.51198      8.99578     11.08851        -0.000332      0.001824     -0.000023
     10.39862      8.99578     11.08851        -0.000318      0.001825     -0.000011
      1.37465      6.68313      3.69617         0.000234     -0.002015      0.000080
      7.26129      6.68313      3.69617         0.000399     -0.001621     -0.000047
      1.37465     14.52258      3.69617         0.000525     -0.001751      0.000373
      7.26129     14.52258      3.69617        -0.000039     -0.001567     -0.000043
      4.31797      5.07605     11.08851         0.000695      0.001764     -0.000196
     10.20461      5.07605     11.08851         0.000222      0.001807     -0.000006
      4.31797     12.91550     11.08851         0.000365      0.001859     -0.000020
     10.20461     12.91550     11.08851         0.000283      0.001814      0.000000
      4.90296      2.29406      5.86274         0.088466      0.050305     -0.026453
     10.79960      2.29406      5.86274         0.000278      0.000912      0.001167
      4.91296     10.13351      5.86274         0.001262      0.001155      0.001286
     10.79960     10.13351      5.86274         0.000965      0.001100      0.001307
      1.96965      1.62567      8.92194         0.001014     -0.001852     -0.000716
      7.85628      1.62567      8.92194         0.001010     -0.000855     -0.001394
      1.96965      9.46512      8.92194         0.001099     -0.001085     -0.001262
      7.85628      9.46512      8.92194         0.001099     -0.001107     -0.001326
      3.91699      6.21379      1.52960        -0.000912      0.000960     -0.001557
      9.80362      6.21379      1.52960        -0.001252      0.000866     -0.001208
      3.91699     14.05324      1.52960        -0.000912      0.001120     -0.001408
      9.80362     14.05324      1.52960        -0.001253      0.001273     -0.001254
      0.97367      5.54539     13.25508        -0.001089     -0.001093      0.001333
      6.86031      5.54539     13.25508        -0.001018     -0.001150      0.001567
      0.97367     13.38485     13.25508        -0.001109     -0.001077      0.001333
      6.86031     13.38485     13.25508        -0.001044     -0.001044      0.001340
      0.97367      5.54539      8.92194        -0.001334     -0.001098     -0.001199
      6.86031      5.54539      8.92194        -0.000863     -0.001069     -0.001406
      0.97367     13.38485      8.92194        -0.001191     -0.001168     -0.001297
      6.86031     13.38485      8.92194        -0.001027     -0.001050     -0.001327
      3.91699      6.21379      5.86274        -0.001772      0.002801      0.001239
      9.80362      6.21379      5.86274        -0.001410      0.000632      0.001227
      3.91699     14.05324      5.86274        -0.001773      0.000156      0.000981
      9.80362     14.05324      5.86274        -0.001410      0.001400      0.001388
      1.96965      1.62567     13.25508         0.001031     -0.000906      0.001503
      7.85628      1.62567     13.25508         0.001030     -0.000993      0.001410
      1.96965      9.46512     13.25508         0.001075     -0.001074      0.001309
      7.85628      9.46512     13.25508         0.001075     -0.001106      0.001341
      4.91296      2.29406      1.52960         0.004433      0.002134     -0.000643
     10.79960      2.29406      1.52960        -0.000069      0.001013     -0.001278
      4.91296     10.13351      1.52960         0.001128      0.001112     -0.001317
     10.79960     10.13351      1.52960         0.001006      0.001081     -0.001331
 -----------------------------------------------------------------------------------
    total drift:                                0.000006     -0.000001      0.000001


--------------------------------------------------------------------------------------------------------



  FREE ENERGIE OF THE ION-ELECTRON SYSTEM (eV)
  ---------------------------------------------------
  free  energy   TOTEN  =      -428.47728060 eV

  energy  without entropy=     -428.47728060  energy(sigma->0) =     -428.47728060



--------------------------------------------------------------------------------------------------------


    POTLOK:  cpu time      2.4160: real time      2.4200


--------------------------------------------------------------------------------------------------------


     LOOP+:  cpu time   8080.3329: real time   8080.9768
    4ORBIT:  cpu time      0.0000: real time      0.0000



 total charge

# of ion       s       p       d       tot
------------------------------------------
    1        0.042   5.976   0.000   6.018
    2        0.042   5.976   0.000   6.018
    3        0.042   5.976   0.000   6.018
    4        0.042   5.976   0.000   6.018
    5        0.042   5.976   0.000   6.018
    6        0.042   5.976   0.000   6.018
    7        0.042   5.976   0.000   6.018
    8        0.042   5.976   0.000   6.018
    9        0.042   5.976   0.000   6.018
   10        0.042   5.976   0.000   6.018
   11        0.042   5.976   0.000   6.018
   12        0.042   5.976   0.000   6.018
   13        0.042   5.976   0.000   6.018
   14        0.042   5.976   0.000   6.018
   15        0.042   5.976   0.000   6.018
   16        0.042   5.976   0.000   6.018
   17        0.046   5.974   0.000   6.020
   18        0.046   5.974   0.000   6.020
   19        0.046   5.974   0.000   6.020
   20        0.046   5.974   0.000   6.020
   21        0.046   5.974   0.000   6.020
   22        0.046   5.974   0.000   6.020
   23        0.046   5.974   0.000   6.020
   24        0.046   5.974   0.000   6.020
   25        0.046   5.974   0.000   6.020
   26        0.046   5.974   0.000   6.020
   27        0.046   5.974   0.000   6.020
   28        0.046   5.974   0.000   6.020
   29        0.046   5.974   0.000   6.020
   30        0.046   5.974   0.000   6.020
   31        0.046   5.974   0.000   6.020
   32        0.046   5.974   0.000   6.020
   33        1.361   2.270   0.000   3.632
   34        1.361   2.270   0.000   3.632
   35        1.361   2.270   0.000   3.632
   36        1.361   2.270   0.000   3.632
   37        1.361   2.270   0.000   3.632
   38        1.361   2.270   0.000   3.632
   39        1.361   2.270   0.000   3.632
   40        1.361   2.270   0.000   3.632
   41        1.361   2.270   0.000   3.632
   42        1.361   2.270   0.000   3.632
   43        1.361   2.270   0.000   3.632
   44        1.361   2.271   0.000   3.632
   45        1.361   2.270   0.000   3.632
   46        1.361   2.270   0.000   3.632
   47        1.361   2.270   0.000   3.632
   48        1.361   2.270   0.000   3.632
   49        1.361   2.270   0.000   3.632
   50        1.361   2.270   0.000   3.632
   51        1.361   2.270   0.000   3.632
   52        1.361   2.270   0.000   3.632
   53        1.361   2.270   0.000   3.632
   54        1.361   2.270   0.000   3.632
   55        1.361   2.270   0.000   3.632
   56        1.361   2.270   0.000   3.632
   57        1.361   2.270   0.000   3.632
   58        1.361   2.270   0.000   3.632
   59        1.361   2.270   0.000   3.632
   60        1.361   2.270   0.000   3.632
   61        1.361   2.270   0.000   3.632
   62        1.362   2.268   0.000   3.630
   63        1.361   2.270   0.000   3.632
   64        1.361   2.270   0.000   3.632
   65        1.374   2.262   0.000   3.636
   66        1.374   2.261   0.000   3.636
   67        1.374   2.262   0.000   3.636
   68        1.374   2.262   0.000   3.636
   69        1.374   2.262   0.000   3.636
   70        1.374   2.262   0.000   3.636
   71        1.374   2.262   0.000   3.636
   72        1.374   2.262   0.000   3.636
   73        1.374   2.262   0.000   3.636
   74        1.374   2.262   0.000   3.636
   75        1.374   2.262   0.000   3.636
   76        1.374   2.262   0.000   3.636
   77        1.374   2.262   0.000   3.636
   78        1.374   2.262   0.000   3.636
   79        1.374   2.262   0.000   3.636
   80        1.374   2.262   0.000   3.636
   81        1.345   2.351   0.000   3.697
   82        1.345   2.355   0.000   3.699
   83        1.345   2.354   0.000   3.699
   84        1.345   2.354   0.000   3.699
   85        1.345   2.354   0.000   3.699
   86        1.345   2.354   0.000   3.699
   87        1.345   2.354   0.000   3.699
   88        1.345   2.354   0.000   3.699
   89        1.345   2.354   0.000   3.699
   90        1.345   2.354   0.000   3.699
   91        1.345   2.354   0.000   3.699
   92        1.345   2.354   0.000   3.699
   93        1.345   2.354   0.000   3.699
   94        1.345   2.354   0.000   3.699
   95        1.345   2.354   0.000   3.699
   96        1.345   2.354   0.000   3.699
   97        1.345   2.354   0.000   3.699
   98        1.345   2.354   0.000   3.699
   99        1.345   2.354   0.000   3.699
  100        1.345   2.354   0.000   3.699
  101        1.345   2.354   0.000   3.699
  102        1.345   2.354   0.000   3.699
  103        1.345   2.354   0.000   3.699
  104        1.345   2.354   0.000   3.699
  105        1.345   2.354   0.000   3.699
  106        1.345   2.354   0.000   3.699
  107        1.345   2.354   0.000   3.699
  108        1.345   2.354   0.000   3.699
  109        1.345   2.354   0.000   3.699
  110        1.345   2.354   0.000   3.699
  111        1.345   2.354   0.000   3.699
  112        1.345   2.354   0.000   3.699
--------------------------------------------------
tot        110.002 375.382   0.000 485.384



 magnetization (x)

# of ion       s       p       d       tot
------------------------------------------
    1        0.000   0.000   0.000   0.000
    2        0.000   0.000   0.000   0.000
    3        0.000   0.000   0.000   0.000
    4        0.000   0.000   0.000   0.000
    5        0.000   0.000   0.000   0.000
    6        0.000   0.000   0.000   0.000
    7        0.000   0.000   0.000   0.000
    8        0.000   0.000   0.000   0.000
    9        0.000   0.000   0.000   0.000
   10        0.000   0.000   0.000   0.000
   11        0.000   0.000   0.000   0.000
   12        0.000   0.000   0.000   0.000
   13        0.000   0.000   0.000   0.000
   14        0.000   0.000   0.000   0.000
   15        0.000   0.000   0.000   0.000
   16        0.000   0.000   0.000   0.000
   17        0.000  -0.000   0.000   0.000
   18        0.000  -0.000   0.000   0.000
   19        0.000  -0.000   0.000   0.000
   20        0.000  -0.000   0.000   0.000
   21        0.000  -0.000   0.000   0.000
   22        0.000  -0.000   0.000   0.000
   23        0.000  -0.000   0.000   0.000
   24        0.000  -0.000   0.000   0.000
   25        0.000  -0.000   0.000   0.000
   26        0.000  -0.000   0.000   0.000
   27        0.000  -0.000   0.000   0.000
   28        0.000  -0.000   0.000   0.000
   29        0.000  -0.000   0.000   0.000
   30        0.000  -0.000   0.000   0.000
   31        0.000  -0.000   0.000   0.000
   32        0.000  -0.000   0.000  -0.000
   33       -0.000  -0.000   0.000  -0.000
   34       -0.000  -0.000   0.000  -0.000
   35       -0.000  -0.000   0.000  -0.000
   36       -0.000  -0.000   0.000  -0.000
   37       -0.000  -0.000   0.000  -0.000
   38       -0.000  -0.000   0.000  -0.000
   39       -0.000  -0.000   0.000  -0.000
   40       -0.000  -0.000   0.000  -0.000
   41       -0.000  -0.000   0.000  -0.000
   42       -0.000  -0.000   0.000  -0.000
   43       -0.000  -0.000   0.000  -0.000
   44       -0.000  -0.000   0.000  -0.000
   45       -0.000  -0.000   0.000  -0.000
   46       -0.000  -0.000   0.000  -0.000
   47       -0.000  -0.000   0.000  -0.000
   48       -0.000  -0.000   0.000  -0.000
   49       -0.000  -0.000   0.000  -0.000
   50       -0.000  -0.000   0.000  -0.000
   51       -0.000  -0.000   0.000  -0.000
   52       -0.000  -0.000   0.000  -0.000
   53       -0.000  -0.000   0.000  -0.000
   54       -0.000  -0.000   0.000  -0.000
   55       -0.000  -0.000   0.000  -0.000
   56       -0.000  -0.000   0.000  -0.000
   57       -0.000  -0.000   0.000  -0.000
   58       -0.000  -0.000   0.000  -0.000
   59       -0.000  -0.000   0.000  -0.000
   60       -0.000  -0.000   0.000  -0.000
   61       -0.000  -0.000   0.000  -0.000
   62       -0.000  -0.000   0.000  -0.000
   63       -0.000  -0.000   0.000  -0.000
   64       -0.000  -0.000   0.000  -0.000
   65       -0.000  -0.000   0.000  -0.000
   66       -0.000  -0.000   0.000  -0.000
   67       -0.000  -0.000   0.000  -0.000
   68       -0.000  -0.000   0.000  -0.000
   69       -0.000  -0.000   0.000  -0.000
   70       -0.000  -0.000   0.000  -0.000
   71       -0.000  -0.000   0.000  -0.000
   72       -0.000  -0.000   0.000  -0.000
   73       -0.000  -0.000   0.000  -0.000
   74       -0.000  -0.000   0.000  -0.000
   75       -0.000  -0.000   0.000  -0.000
   76       -0.000  -0.000   0.000  -0.000
   77       -0.000  -0.000   0.000  -0.000
   78       -0.000  -0.000   0.000  -0.000
   79       -0.000  -0.000   0.000  -0.000
   80       -0.000  -0.000   0.000  -0.000
   81       -0.000  -0.000   0.000  -0.000
   82       -0.000  -0.000   0.000  -0.000
   83       -0.000  -0.000   0.000  -0.000
   84       -0.000  -0.000   0.000  -0.000
   85       -0.000  -0.000   0.000  -0.000
   86       -0.000  -0.000   0.000  -0.000
   87       -0.000  -0.000   0.000  -0.000
   88       -0.000  -0.000   0.000  -0.000
   89       -0.000  -0.000   0.000  -0.000
   90       -0.000  -0.000   0.000  -0.000
   91       -0.000  -0.000   0.000  -0.000
   92       -0.000  -0.000   0.000  -0.000
   93       -0.000  -0.000   0.000  -0.000
   94       -0.000  -0.000   0.000  -0.000
   95       -0.000  -0.000   0.000  -0.000
   96       -0.000  -0.000   0.000  -0.000
   97       -0.000  -0.000   0.000  -0.000
   98       -0.000  -0.000   0.000  -0.000
   99       -0.000  -0.000   0.000  -0.000
  100       -0.000  -0.000   0.000  -0.000
  101       -0.000  -0.000   0.000  -0.000
  102       -0.000  -0.000   0.000  -0.000
  103       -0.000  -0.000   0.000  -0.000
  104       -0.000  -0.000   0.000  -0.000
  105       -0.000  -0.000   0.000  -0.000
  106       -0.000  -0.000   0.000  -0.000
  107       -0.000  -0.000   0.000  -0.000
  108       -0.000  -0.000   0.000  -0.000
  109       -0.000  -0.000   0.000  -0.000
  110       -0.000  -0.000   0.000  -0.000
  111       -0.000  -0.000   0.000  -0.000
  112       -0.000  -0.000   0.000  -0.000
--------------------------------------------------
tot         -0.000  -0.000   0.000  -0.000

 BZINTS: Fermi energy:    2.047808;  704.000000 electrons
         Band energy:-0.608978E+04;  BLOECHL correction:   -0.000000

 total amount of memory used by VASP MPI-rank0   652790. kBytes
=======================================================================

   base      :      30000. kBytes
   nonl-proj :     197664. kBytes
   fftplans  :      51245. kBytes
   grid      :     123102. kBytes
   one-center:        688. kBytes
   wavefun   :     250091. kBytes

  
  
 General timing and accounting informations for this job:
 ========================================================
  
                  Total CPU time used (sec):     8203.559
                            User time (sec):     8195.448
                          System time (sec):        8.110
                         Elapsed time (sec):     8204.322
  
                   Maximum memory used (kb):      862784.
                   Average memory used (kb):          N/A
  
                          Minor page faults:      1835758
                          Major page faults:          306
                 Voluntary context switches:         6159
