  20  20   0   0
  0.2502907E+02  0.8062313E-09  0.6790020E-09  0.9147993E-09  0.1500000E-16
   1.0000000000000000E-004
  CAR 
 unknown system                          
      7.91540930    -22.55812058  301      1.73182219      1.00000000
    -22.558  0.0000E+00  0.0000E+00
    -22.457  0.0000E+00  0.0000E+00
    -22.355  0.0000E+00  0.0000E+00
    -22.253  0.0000E+00  0.0000E+00
    -22.152  0.0000E+00  0.0000E+00
    -22.050  0.0000E+00  0.0000E+00
    -21.949  0.0000E+00  0.0000E+00
    -21.847  0.0000E+00  0.0000E+00
    -21.745  0.0000E+00  0.0000E+00
    -21.644  0.0000E+00  0.0000E+00
    -21.542  0.0000E+00  0.0000E+00
    -21.441  0.2541E-14  0.2581E-15
    -21.339  0.2281E-06  0.2317E-07
    -21.238  0.9398E-02  0.9546E-03
    -21.136  0.5447E+00  0.5628E-01
    -21.034  0.2981E+00  0.8656E-01
    -20.933  0.7803E-03  0.8664E-01
    -20.831  0.1469E-08  0.8664E-01
    -20.730  0.0000E+00  0.8664E-01
    -20.628  0.0000E+00  0.8664E-01
    -20.527  0.0000E+00  0.8664E-01
    -20.425  0.0000E+00  0.8664E-01
    -20.323  0.0000E+00  0.8664E-01
    -20.222  0.0000E+00  0.8664E-01
    -20.120  0.0000E+00  0.8664E-01
    -20.019  0.0000E+00  0.8664E-01
    -19.917  0.0000E+00  0.8664E-01
    -19.816  0.0000E+00  0.8664E-01
    -19.714  0.0000E+00  0.8664E-01
    -19.612  0.0000E+00  0.8664E-01
    -19.511  0.0000E+00  0.8664E-01
    -19.409  0.0000E+00  0.8664E-01
    -19.308  0.0000E+00  0.8664E-01
    -19.206  0.0000E+00  0.8664E-01
    -19.104  0.0000E+00  0.8664E-01
    -19.003  0.0000E+00  0.8664E-01
    -18.901  0.0000E+00  0.8664E-01
    -18.800  0.0000E+00  0.8664E-01
    -18.698  0.0000E+00  0.8664E-01
    -18.597  0.0000E+00  0.8664E-01
    -18.495  0.0000E+00  0.8664E-01
    -18.393  0.0000E+00  0.8664E-01
    -18.292  0.0000E+00  0.8664E-01
    -18.190  0.0000E+00  0.8664E-01
    -18.089  0.0000E+00  0.8664E-01
    -17.987  0.0000E+00  0.8664E-01
    -17.886  0.0000E+00  0.8664E-01
    -17.784  0.0000E+00  0.8664E-01
    -17.682  0.0000E+00  0.8664E-01
    -17.581  0.0000E+00  0.8664E-01
    -17.479  0.0000E+00  0.8664E-01
    -17.378  0.0000E+00  0.8664E-01
    -17.276  0.0000E+00  0.8664E-01
    -17.174  0.0000E+00  0.8664E-01
    -17.073  0.0000E+00  0.8664E-01
    -16.971  0.0000E+00  0.8664E-01
    -16.870  0.0000E+00  0.8664E-01
    -16.768  0.0000E+00  0.8664E-01
    -16.667  0.0000E+00  0.8664E-01
    -16.565  0.0000E+00  0.8664E-01
    -16.463  0.0000E+00  0.8664E-01
    -16.362  0.0000E+00  0.8664E-01
    -16.260  0.0000E+00  0.8664E-01
    -16.159  0.0000E+00  0.8664E-01
    -16.057  0.0000E+00  0.8664E-01
    -15.956  0.0000E+00  0.8664E-01
    -15.854  0.0000E+00  0.8664E-01
    -15.752  0.0000E+00  0.8664E-01
    -15.651  0.0000E+00  0.8664E-01
    -15.549  0.0000E+00  0.8664E-01
    -15.448  0.0000E+00  0.8664E-01
    -15.346  0.0000E+00  0.8664E-01
    -15.244  0.0000E+00  0.8664E-01
    -15.143  0.0000E+00  0.8664E-01
    -15.041  0.0000E+00  0.8664E-01
    -14.940  0.0000E+00  0.8664E-01
    -14.838  0.0000E+00  0.8664E-01
    -14.737  0.0000E+00  0.8664E-01
    -14.635  0.0000E+00  0.8664E-01
    -14.533  0.1073E-10  0.8664E-01
    -14.432  0.1226E-04  0.8664E-01
    -14.330  0.1915E-01  0.8859E-01
    -14.229  0.1156E+00  0.1003E+00
    -14.127  0.7443E-02  0.1011E+00
    -14.026  0.8077E-06  0.1011E+00
    -13.924  0.5129E-13  0.1011E+00
    -13.822  0.0000E+00  0.1011E+00
    -13.721  0.0000E+00  0.1011E+00
    -13.619  0.0000E+00  0.1011E+00
    -13.518  0.0000E+00  0.1011E+00
    -13.416  0.0000E+00  0.1011E+00
    -13.314  0.0000E+00  0.1011E+00
    -13.213  0.0000E+00  0.1011E+00
    -13.111  0.0000E+00  0.1011E+00
    -13.010  0.0000E+00  0.1011E+00
    -12.908  0.3334E-15  0.1011E+00
    -12.807  0.2582E-07  0.1011E+00
    -12.705  0.1087E-02  0.1012E+00
    -12.603  0.7148E-01  0.1085E+00
    -12.502  0.6850E-01  0.1154E+00
    -12.400  0.1089E-02  0.1155E+00
    -12.299  0.3067E-07  0.1155E+00
    -12.197  0.4261E-15  0.1155E+00
    -12.096  0.0000E+00  0.1155E+00
    -11.994  0.0000E+00  0.1155E+00
    -11.892  0.0000E+00  0.1155E+00
    -11.791  0.0000E+00  0.1155E+00
    -11.689  0.0000E+00  0.1155E+00
    -11.588  0.0000E+00  0.1155E+00
    -11.486  0.0000E+00  0.1155E+00
    -11.384  0.3989E-11  0.1155E+00
    -11.283  0.1036E-04  0.1155E+00
    -11.181  0.2058E-01  0.1176E+00
    -11.080  0.1150E+00  0.1293E+00
    -10.978  0.1156E-01  0.1305E+00
    -10.877  0.9350E-01  0.1400E+00
    -10.775  0.4350E-01  0.1444E+00
    -10.673  0.1581E-03  0.1444E+00
    -10.572  0.3747E-03  0.1444E+00
    -10.470  0.4071E-01  0.1486E+00
    -10.369  0.1166E+00  0.1604E+00
    -10.267  0.1194E+00  0.1726E+00
    -10.166  0.7230E-02  0.1733E+00
    -10.064  0.4109E-05  0.1733E+00
     -9.962  0.2015E-11  0.1733E+00
     -9.861  0.0000E+00  0.1733E+00
     -9.759  0.0000E+00  0.1733E+00
     -9.658  0.0000E+00  0.1733E+00
     -9.556  0.0000E+00  0.1733E+00
     -9.455  0.0000E+00  0.1733E+00
     -9.353  0.0000E+00  0.1733E+00
     -9.251  0.0000E+00  0.1733E+00
     -9.150  0.0000E+00  0.1733E+00
     -9.048  0.0000E+00  0.1733E+00
     -8.947  0.0000E+00  0.1733E+00
     -8.845  0.0000E+00  0.1733E+00
     -8.743  0.0000E+00  0.1733E+00
     -8.642  0.0000E+00  0.1733E+00
     -8.540  0.0000E+00  0.1733E+00
     -8.439  0.0000E+00  0.1733E+00
     -8.337  0.0000E+00  0.1733E+00
     -8.236  0.0000E+00  0.1733E+00
     -8.134  0.0000E+00  0.1733E+00
     -8.032  0.0000E+00  0.1733E+00
     -7.931  0.0000E+00  0.1733E+00
     -7.829  0.0000E+00  0.1733E+00
     -7.728  0.0000E+00  0.1733E+00
     -7.626  0.0000E+00  0.1733E+00
     -7.525  0.0000E+00  0.1733E+00
     -7.423  0.0000E+00  0.1733E+00
     -7.321  0.6795E-17  0.1733E+00
     -7.220  0.1259E-08  0.1733E+00
     -7.118  0.1042E-03  0.1733E+00
     -7.017  0.1334E-01  0.1747E+00
     -6.915  0.4740E-01  0.1795E+00
     -6.813  0.6228E-01  0.1858E+00
     -6.712  0.1892E-01  0.1877E+00
     -6.610  0.1184E-03  0.1877E+00
     -6.509  0.7797E-09  0.1877E+00
     -6.407  0.1754E-17  0.1877E+00
     -6.306  0.1513E-15  0.1877E+00
     -6.204  0.8224E-08  0.1877E+00
     -6.102  0.1652E-03  0.1877E+00
     -6.001  0.3302E-02  0.1881E+00
     -5.899  0.4546E-02  0.1885E+00
     -5.798  0.9923E-02  0.1895E+00
     -5.696  0.2924E-01  0.1925E+00
     -5.595  0.4383E-01  0.1970E+00
     -5.493  0.4444E-01  0.2015E+00
     -5.391  0.6661E-02  0.2022E+00
     -5.290  0.4513E-04  0.2022E+00
     -5.188  0.3455E-09  0.2022E+00
     -5.087  0.8768E-18  0.2022E+00
     -4.985  0.0000E+00  0.2022E+00
     -4.883  0.0000E+00  0.2022E+00
     -4.782  0.0000E+00  0.2022E+00
     -4.680  0.0000E+00  0.2022E+00
     -4.579  0.6576E-18  0.2022E+00
     -4.477  0.2517E-09  0.2022E+00
     -4.376  0.3289E-04  0.2022E+00
     -4.274  0.6484E-02  0.2028E+00
     -4.172  0.5295E-01  0.2082E+00
     -4.071  0.6872E-01  0.2152E+00
     -3.969  0.1451E-01  0.2167E+00
     -3.868  0.4093E-02  0.2171E+00
     -3.766  0.1596E-01  0.2187E+00
     -3.665  0.3320E-01  0.2221E+00
     -3.563  0.3788E-01  0.2259E+00
     -3.461  0.3590E-01  0.2296E+00
     -3.360  0.1453E-01  0.2310E+00
     -3.258  0.1515E-01  0.2326E+00
     -3.157  0.4980E-01  0.2376E+00
     -3.055  0.5926E-01  0.2437E+00
     -2.953  0.1693E-01  0.2454E+00
     -2.852  0.1074E-02  0.2455E+00
     -2.750  0.3788E-02  0.2459E+00
     -2.649  0.7201E-01  0.2532E+00
     -2.547  0.6158E-01  0.2594E+00
     -2.446  0.1115E-01  0.2606E+00
     -2.344  0.8151E-01  0.2689E+00
     -2.242  0.5001E-01  0.2739E+00
     -2.141  0.4263E-02  0.2744E+00
     -2.039  0.2312E-05  0.2744E+00
     -1.938  0.5405E-05  0.2744E+00
     -1.836  0.3616E-02  0.2747E+00
     -1.735  0.5390E-01  0.2802E+00
     -1.633  0.7366E-01  0.2877E+00
     -1.531  0.1097E-01  0.2888E+00
     -1.430  0.1196E-04  0.2888E+00
     -1.328  0.1024E-10  0.2888E+00
     -1.227  0.4384E-18  0.2888E+00
     -1.125  0.1723E-09  0.2888E+00
     -1.023  0.4124E-04  0.2888E+00
     -0.922  0.1053E-01  0.2899E+00
     -0.820  0.5657E-01  0.2956E+00
     -0.719  0.4766E-01  0.3005E+00
     -0.617  0.3849E-01  0.3044E+00
     -0.516  0.4393E-01  0.3088E+00
     -0.414  0.6706E-01  0.3157E+00
     -0.312  0.5706E-01  0.3215E+00
     -0.211  0.6710E-01  0.3283E+00
     -0.109  0.4889E-01  0.3332E+00
     -0.008  0.4818E-01  0.3381E+00
      0.094  0.5069E-01  0.3433E+00
      0.195  0.3504E-01  0.3468E+00
      0.297  0.7172E-01  0.3541E+00
      0.399  0.7020E-01  0.3613E+00
      0.500  0.4610E-01  0.3659E+00
      0.602  0.7701E-01  0.3738E+00
      0.703  0.7436E-01  0.3813E+00
      0.805  0.9612E-01  0.3911E+00
      0.906  0.9791E-01  0.4010E+00
      1.008  0.3506E-01  0.4046E+00
      1.110  0.7533E-01  0.4122E+00
      1.211  0.6084E-01  0.4184E+00
      1.313  0.7466E-01  0.4260E+00
      1.414  0.4682E-01  0.4308E+00
      1.516  0.2283E-01  0.4331E+00
      1.618  0.1402E-02  0.4332E+00
      1.719  0.2416E-06  0.4332E+00
      1.821  0.1798E-13  0.4332E+00
      1.922  0.0000E+00  0.4332E+00
      2.024  0.0000E+00  0.4332E+00
      2.125  0.0000E+00  0.4332E+00
      2.227  0.0000E+00  0.4332E+00
      2.329  0.0000E+00  0.4332E+00
      2.430  0.0000E+00  0.4332E+00
      2.532  0.0000E+00  0.4332E+00
      2.633  0.0000E+00  0.4332E+00
      2.735  0.0000E+00  0.4332E+00
      2.836  0.0000E+00  0.4332E+00
      2.938  0.0000E+00  0.4332E+00
      3.040  0.0000E+00  0.4332E+00
      3.141  0.0000E+00  0.4332E+00
      3.243  0.4500E-10  0.4332E+00
      3.344  0.1807E-04  0.4332E+00
      3.446  0.4110E-02  0.4336E+00
      3.548  0.1849E-01  0.4355E+00
      3.649  0.4217E-01  0.4398E+00
      3.751  0.2653E-01  0.4425E+00
      3.852  0.3810E-01  0.4464E+00
      3.954  0.1249E-01  0.4476E+00
      4.055  0.2335E-03  0.4477E+00
      4.157  0.7567E-07  0.4477E+00
      4.259  0.3962E-03  0.4477E+00
      4.360  0.5077E-02  0.4482E+00
      4.462  0.1718E-01  0.4500E+00
      4.563  0.1959E-01  0.4519E+00
      4.665  0.6374E-01  0.4584E+00
      4.766  0.5890E-01  0.4644E+00
      4.868  0.4271E-01  0.4687E+00
      4.970  0.4377E-01  0.4732E+00
      5.071  0.3216E-01  0.4765E+00
      5.173  0.7981E-03  0.4765E+00
      5.274  0.2726E-07  0.4765E+00
      5.376  0.2401E-05  0.4765E+00
      5.478  0.3099E-02  0.4768E+00
      5.579  0.2677E-01  0.4796E+00
      5.681  0.3749E-01  0.4834E+00
      5.782  0.3812E-01  0.4872E+00
      5.884  0.5265E-01  0.4926E+00
      5.985  0.5757E-01  0.4984E+00
      6.087  0.3400E-01  0.5019E+00
      6.189  0.4632E-01  0.5066E+00
      6.290  0.4486E-01  0.5112E+00
      6.392  0.4710E-01  0.5159E+00
      6.493  0.2474E-01  0.5185E+00
      6.595  0.1322E-01  0.5198E+00
      6.696  0.5331E-03  0.5199E+00
      6.798  0.2041E-07  0.5199E+00
      6.900  0.2841E-15  0.5199E+00
      7.001  0.0000E+00  0.5199E+00
      7.103  0.0000E+00  0.5199E+00
      7.204  0.0000E+00  0.5199E+00
      7.306  0.0000E+00  0.5199E+00
      7.408  0.0000E+00  0.5199E+00
      7.509  0.0000E+00  0.5199E+00
      7.611  0.0000E+00  0.5199E+00
      7.712  0.0000E+00  0.5199E+00
      7.814  0.0000E+00  0.5199E+00
      7.915  0.0000E+00  0.5199E+00
