       N       E                     dE             d eps       ncg     rms          rms(c)
DAV:   1     0.878293934322E+03    0.87829E+03   -0.46267E+04  1264   0.125E+03
DAV:   2     0.109466598730E+02   -0.86735E+03   -0.84076E+03  1376   0.306E+02
DAV:   3    -0.867301694673E+02   -0.97677E+02   -0.96629E+02  1352   0.119E+02
DAV:   4    -0.911703243427E+02   -0.44402E+01   -0.44054E+01  1464   0.274E+01
DAV:   5    -0.913360023546E+02   -0.16568E+00   -0.16542E+00  1624   0.504E+00    0.323E+01
DAV:   6    -0.881881716859E+02    0.31478E+01   -0.57666E+00  1344   0.704E+00    0.207E+01
DAV:   7    -0.880367870549E+02    0.15138E+00   -0.54565E+00  1464   0.642E+00    0.374E+00
DAV:   8    -0.879142824605E+02    0.12250E+00   -0.81513E-01  1328   0.298E+00    0.296E+00
DAV:   9    -0.879245673185E+02   -0.10285E-01   -0.13539E-01  1472   0.111E+00    0.111E+00
DAV:  10    -0.879250783831E+02   -0.51106E-03   -0.96906E-03  1536   0.391E-01    0.728E-01
DAV:  11    -0.879260806160E+02   -0.10022E-02   -0.46467E-03  1312   0.223E-01    0.170E-01
DAV:  12    -0.879259896205E+02    0.90995E-04   -0.84377E-04  1608   0.939E-02    0.115E-01
DAV:  13    -0.879260400132E+02   -0.50393E-04   -0.21787E-04  1296   0.436E-02    0.732E-02
DAV:  14    -0.879260705417E+02   -0.30528E-04   -0.46918E-05  1504   0.219E-02    0.783E-02
DAV:  15    -0.879260596952E+02    0.10846E-04   -0.24376E-05  1400   0.177E-02    0.256E-02
DAV:  16    -0.879260606350E+02   -0.93975E-06   -0.11027E-05  1312   0.966E-03    0.906E-03
DAV:  17    -0.879260607367E+02   -0.10172E-06   -0.24809E-07   768   0.240E-03
   1 F= -.87926061E+02 E0= -.87926061E+02  d E =-.165813E-14
 Found    24 degrees of freedom:
 Adding 6 more for cell shape distortion
       N       E                     dE             d eps       ncg     rms          rms(c)
DAV:   1    -0.884769723278E+02   -0.55091E+00   -0.25866E+01  1192   0.215E+01    0.546E+00
DAV:   2    -0.880035612357E+02    0.47341E+00   -0.10430E+00  1392   0.447E+00    0.268E+00
DAV:   3    -0.878489145352E+02    0.15465E+00   -0.39846E-01  1360   0.209E+00    0.108E+00
DAV:   4    -0.878342728931E+02    0.14642E-01   -0.29981E-02  1528   0.643E-01    0.565E-01
DAV:   5    -0.878318927538E+02    0.23801E-02   -0.57520E-03  1328   0.252E-01    0.294E-01
DAV:   6    -0.878317736818E+02    0.11907E-03   -0.10412E-03  1360   0.119E-01    0.818E-02
DAV:   7    -0.878318023621E+02   -0.28680E-04   -0.11258E-04  1504   0.396E-02    0.477E-02
DAV:   8    -0.878318114079E+02   -0.90459E-05   -0.15356E-05  1264   0.143E-02    0.188E-02
DAV:   9    -0.878318171371E+02   -0.57292E-05   -0.10314E-05  1368   0.111E-02    0.104E-02
DAV:  10    -0.878318177081E+02   -0.57099E-06   -0.13518E-06   800   0.471E-03
   2 F= -.87831818E+02 E0= -.87831818E+02  d E =-.523666E-13
       N       E                     dE             d eps       ncg     rms          rms(c)
DAV:   1    -0.880560186183E+02   -0.22420E+00   -0.62989E+00  1200   0.104E+01    0.281E+00
DAV:   2    -0.879425092216E+02    0.11351E+00   -0.25728E-01  1376   0.212E+00    0.134E+00
DAV:   3    -0.879054508488E+02    0.37058E-01   -0.96579E-02  1360   0.104E+00    0.525E-01
DAV:   4    -0.879022106658E+02    0.32402E-02   -0.68793E-03  1520   0.341E-01    0.323E-01
DAV:   5    -0.879016406182E+02    0.57005E-03   -0.13242E-03  1328   0.133E-01    0.164E-01
DAV:   6    -0.879016536280E+02   -0.13010E-04   -0.25247E-04  1400   0.625E-02    0.419E-02
DAV:   7    -0.879016674459E+02   -0.13818E-04   -0.21236E-05  1488   0.188E-02    0.266E-02
DAV:   8    -0.879016700874E+02   -0.26414E-05   -0.57474E-06  1264   0.789E-03    0.725E-03
DAV:   9    -0.879016702567E+02   -0.16926E-06   -0.12808E-06   808   0.480E-03
   3 F= -.87901670E+02 E0= -.87901670E+02  d E =-.711570E-18
       N       E                     dE             d eps       ncg     rms          rms(c)
DAV:   1    -0.885369270215E+02   -0.63526E+00   -0.26221E+01  1176   0.211E+01    0.583E+00
DAV:   2    -0.880701410373E+02    0.46679E+00   -0.10784E+00  1368   0.428E+00    0.276E+00
DAV:   3    -0.879165614179E+02    0.15358E+00   -0.40036E-01  1328   0.211E+00    0.107E+00
DAV:   4    -0.879036549053E+02    0.12907E-01   -0.28055E-02  1584   0.651E-01    0.704E-01
DAV:   5    -0.879010338039E+02    0.26211E-02   -0.52675E-03  1376   0.273E-01    0.349E-01
DAV:   6    -0.879009786146E+02    0.55189E-04   -0.95090E-04  1424   0.120E-01    0.973E-02
DAV:   7    -0.879010098539E+02   -0.31239E-04   -0.81475E-05  1488   0.412E-02    0.582E-02
DAV:   8    -0.879010187776E+02   -0.89237E-05   -0.37687E-05  1416   0.189E-02    0.158E-02
DAV:   9    -0.879010200096E+02   -0.12321E-05   -0.45520E-06  1224   0.905E-03    0.170E-02
DAV:  10    -0.879010193405E+02    0.66910E-06   -0.65663E-07   768   0.327E-03
   4 F= -.87901019E+02 E0= -.87901019E+02  d E =-.619568E-11
       N       E                     dE             d eps       ncg     rms          rms(c)
DAV:   1    -0.879892103218E+02   -0.88190E-01   -0.68838E+00  1184   0.109E+01    0.292E+00
DAV:   2    -0.878660899020E+02    0.12312E+00   -0.27904E-01  1368   0.221E+00    0.142E+00
DAV:   3    -0.878253544879E+02    0.40735E-01   -0.10701E-01  1328   0.110E+00    0.544E-01
DAV:   4    -0.878221415150E+02    0.32130E-02   -0.75174E-03  1520   0.358E-01    0.344E-01
DAV:   5    -0.878215198432E+02    0.62167E-03   -0.13955E-03  1344   0.136E-01    0.175E-01
DAV:   6    -0.878215252863E+02   -0.54431E-05   -0.28414E-04  1416   0.664E-02    0.478E-02
DAV:   7    -0.878215384309E+02   -0.13145E-04   -0.22552E-05  1464   0.200E-02    0.306E-02
DAV:   8    -0.878215404608E+02   -0.20299E-05   -0.96863E-06  1400   0.985E-03    0.788E-03
DAV:   9    -0.878215405958E+02   -0.13499E-06   -0.12316E-06   784   0.482E-03
   5 F= -.87821541E+02 E0= -.87821541E+02  d E =-.681161E-15
       N       E                     dE             d eps       ncg     rms          rms(c)
DAV:   1    -0.895089210978E+02   -0.16874E+01   -0.56379E+01  1312   0.359E+01    0.933E+00
DAV:   2    -0.881859891386E+02    0.13229E+01   -0.25713E+00  1320   0.701E+00    0.454E+00
DAV:   3    -0.877841809742E+02    0.40181E+00   -0.10943E+00  1360   0.368E+00    0.170E+00
DAV:   4    -0.877609608513E+02    0.23220E-01   -0.54171E-02  1656   0.873E-01    0.848E-01
DAV:   5    -0.877554685822E+02    0.54923E-02   -0.65163E-03  1416   0.312E-01    0.471E-01
DAV:   6    -0.877547621484E+02    0.70643E-03   -0.16015E-03  1376   0.151E-01    0.167E-01
DAV:   7    -0.877546991385E+02    0.63010E-04   -0.23572E-04  1688   0.616E-02    0.114E-01
DAV:   8    -0.877547034347E+02   -0.42963E-05   -0.99980E-05  1408   0.320E-02    0.376E-02
DAV:   9    -0.877547081680E+02   -0.47333E-05   -0.21766E-05  1312   0.169E-02    0.358E-02
DAV:  10    -0.877547087452E+02   -0.57714E-06   -0.34859E-06  1200   0.708E-03
   6 F= -.87754709E+02 E0= -.87754709E+02  d E =-.315130E-17
       N       E                     dE             d eps       ncg     rms          rms(c)
DAV:   1    -0.880185552093E+02   -0.26385E+00   -0.60456E+00  1248   0.104E+01    0.374E+00
DAV:   2    -0.879248985232E+02    0.93657E-01   -0.27648E-01  1384   0.233E+00    0.143E+00
DAV:   3    -0.878909770498E+02    0.33921E-01   -0.60614E-02  1400   0.934E-01    0.770E-01
DAV:   4    -0.878836165449E+02    0.73605E-02   -0.14832E-02  1424   0.424E-01    0.277E-01
DAV:   5    -0.878831589597E+02    0.45759E-03   -0.96019E-04  1568   0.124E-01    0.177E-01
DAV:   6    -0.878830767836E+02    0.82176E-04   -0.30625E-04  1424   0.583E-02    0.617E-02
DAV:   7    -0.878830915383E+02   -0.14755E-04   -0.46730E-05  1360   0.281E-02    0.310E-02
DAV:   8    -0.878830949159E+02   -0.33776E-05   -0.85365E-06  1440   0.112E-02    0.164E-02
DAV:   9    -0.878830973215E+02   -0.24057E-05   -0.40735E-06  1184   0.734E-03    0.942E-03
DAV:  10    -0.878830974719E+02   -0.15034E-06   -0.25560E-07   768   0.268E-03
   7 F= -.87883097E+02 E0= -.87883097E+02  d E =-.839429E-13
       N       E                     dE             d eps       ncg     rms          rms(c)
DAV:   1    -0.884276564390E+02   -0.54456E+00   -0.25168E+01  1248   0.211E+01    0.802E+00
DAV:   2    -0.880453599825E+02    0.38230E+00   -0.11692E+00  1392   0.473E+00    0.300E+00
DAV:   3    -0.879067112630E+02    0.13865E+00   -0.24300E-01  1392   0.189E+00    0.163E+00
DAV:   4    -0.878741537860E+02    0.32557E-01   -0.64865E-02  1432   0.888E-01    0.599E-01
DAV:   5    -0.878720695427E+02    0.20842E-02   -0.41301E-03  1584   0.261E-01    0.393E-01
DAV:   6    -0.878715605611E+02    0.50898E-03   -0.15446E-03  1416   0.133E-01    0.140E-01
DAV:   7    -0.878715944018E+02   -0.33841E-04   -0.21323E-04  1376   0.609E-02    0.682E-02
DAV:   8    -0.878716039209E+02   -0.95191E-05   -0.39393E-05  1504   0.239E-02    0.370E-02
DAV:   9    -0.878716114083E+02   -0.74874E-05   -0.17695E-05  1280   0.144E-02    0.198E-02
DAV:  10    -0.878716121373E+02   -0.72895E-06   -0.10564E-06   832   0.479E-03
   8 F= -.87871612E+02 E0= -.87871612E+02  d E =-.312002E-15
       N       E                     dE             d eps       ncg     rms          rms(c)
DAV:   1    -0.878541404624E+02    0.17471E-01   -0.66105E+00  1256   0.109E+01    0.414E+00
DAV:   2    -0.877537013714E+02    0.10044E+00   -0.30835E-01  1368   0.246E+00    0.154E+00
DAV:   3    -0.877170991031E+02    0.36602E-01   -0.63209E-02  1384   0.973E-01    0.853E-01
DAV:   4    -0.877084222987E+02    0.86768E-02   -0.17807E-02  1440   0.467E-01    0.295E-01
DAV:   5    -0.877079155565E+02    0.50674E-03   -0.11447E-03  1552   0.139E-01    0.201E-01
DAV:   6    -0.877078121533E+02    0.10340E-03   -0.39741E-04  1424   0.677E-02    0.735E-02
DAV:   7    -0.877078264391E+02   -0.14286E-04   -0.56778E-05  1352   0.320E-02    0.320E-02
DAV:   8    -0.877078306504E+02   -0.42113E-05   -0.10084E-05  1408   0.123E-02    0.190E-02
DAV:   9    -0.877078326018E+02   -0.19514E-05   -0.43614E-06  1224   0.754E-03    0.878E-03
DAV:  10    -0.877078331696E+02   -0.56781E-06   -0.36570E-07   768   0.299E-03
   9 F= -.87707833E+02 E0= -.87707833E+02  d E =-.116060E-17
       N       E                     dE             d eps       ncg     rms          rms(c)
DAV:   1    -0.893711539142E+02   -0.16633E+01   -0.54733E+01  1312   0.360E+01    0.105E+01
DAV:   2    -0.882018550840E+02    0.11693E+01   -0.24156E+00  1312   0.720E+00    0.440E+00
DAV:   3    -0.878296795307E+02    0.37218E+00   -0.98502E-01  1336   0.358E+00    0.156E+00
DAV:   4    -0.878025955788E+02    0.27084E-01   -0.42978E-02  1648   0.824E-01    0.864E-01
DAV:   5    -0.877961833707E+02    0.64122E-02   -0.70750E-03  1352   0.316E-01    0.409E-01
DAV:   6    -0.877955051396E+02    0.67823E-03   -0.12256E-03  1392   0.145E-01    0.133E-01
DAV:   7    -0.877953951642E+02    0.10998E-03   -0.29177E-04  1408   0.694E-02    0.549E-02
DAV:   8    -0.877954124414E+02   -0.17277E-04   -0.46868E-05  1384   0.266E-02    0.163E-02
DAV:   9    -0.877954145901E+02   -0.21487E-05   -0.39149E-06  1208   0.782E-03    0.944E-03
DAV:  10    -0.877954148063E+02   -0.21613E-06   -0.16853E-06   880   0.558E-03
  10 F= -.87795415E+02 E0= -.87795415E+02  d E =-.271921E-13
       N       E                     dE             d eps       ncg     rms          rms(c)
DAV:   1    -0.880092124606E+02   -0.21380E+00   -0.54056E+00  1256   0.996E+00    0.321E+00
DAV:   2    -0.879263086748E+02    0.82904E-01   -0.22762E-01  1400   0.211E+00    0.135E+00
DAV:   3    -0.878992041523E+02    0.27105E-01   -0.57082E-02  1400   0.867E-01    0.676E-01
DAV:   4    -0.878941158868E+02    0.50883E-02   -0.94041E-03  1480   0.386E-01    0.299E-01
DAV:   5    -0.878937703745E+02    0.34551E-03   -0.81234E-04  1384   0.115E-01    0.178E-01
DAV:   6    -0.878937177971E+02    0.52577E-04   -0.20809E-04  1512   0.485E-02    0.837E-02
DAV:   7    -0.878937318806E+02   -0.14084E-04   -0.41535E-05  1496   0.275E-02    0.330E-02
DAV:   8    -0.878937335794E+02   -0.16988E-05   -0.87797E-06  1448   0.118E-02    0.193E-02
DAV:   9    -0.878937349668E+02   -0.13874E-05   -0.19705E-06   920   0.503E-03    0.571E-03
DAV:  10    -0.878937350078E+02   -0.41045E-07   -0.60393E-07   768   0.361E-03
  11 F= -.87893735E+02 E0= -.87893735E+02  d E =-.281789E-17
       N       E                     dE             d eps       ncg     rms          rms(c)
DAV:   1    -0.883628451807E+02   -0.46911E+00   -0.22525E+01  1256   0.203E+01    0.671E+00
DAV:   2    -0.880226680435E+02    0.34018E+00   -0.96136E-01  1384   0.427E+00    0.279E+00
DAV:   3    -0.879099042220E+02    0.11276E+00   -0.23589E-01  1400   0.177E+00    0.138E+00
DAV:   4    -0.878887604361E+02    0.21144E-01   -0.37920E-02  1464   0.708E-01    0.640E-01
DAV:   5    -0.878870512237E+02    0.17092E-02   -0.31231E-03  1504   0.244E-01    0.361E-01
DAV:   6    -0.878867429950E+02    0.30823E-03   -0.90621E-04  1424   0.104E-01    0.171E-01
DAV:   7    -0.878867591727E+02   -0.16178E-04   -0.15932E-04  1488   0.511E-02    0.624E-02
DAV:   8    -0.878867634839E+02   -0.43112E-05   -0.36053E-05  1512   0.230E-02    0.367E-02
DAV:   9    -0.878867670938E+02   -0.36099E-05   -0.79501E-06  1280   0.969E-03    0.125E-02
DAV:  10    -0.878867674723E+02   -0.37840E-06   -0.17581E-06   848   0.560E-03
  12 F= -.87886767E+02 E0= -.87886767E+02  d E =-.807798E-11
       N       E                     dE             d eps       ncg     rms          rms(c)
DAV:   1    -0.878970212482E+02   -0.10254E-01   -0.59181E+00  1256   0.105E+01    0.339E+00
DAV:   2    -0.878074938202E+02    0.89527E-01   -0.25186E-01  1400   0.222E+00    0.142E+00
DAV:   3    -0.877774778743E+02    0.30016E-01   -0.63054E-02  1400   0.921E-01    0.700E-01
DAV:   4    -0.877720603243E+02    0.54176E-02   -0.10112E-02  1456   0.383E-01    0.326E-01
DAV:   5    -0.877716671552E+02    0.39317E-03   -0.88495E-04  1384   0.129E-01    0.185E-01
DAV:   6    -0.877715982736E+02    0.68882E-04   -0.23367E-04  1488   0.524E-02    0.897E-02
DAV:   7    -0.877716112764E+02   -0.13003E-04   -0.46383E-05  1472   0.277E-02    0.327E-02
DAV:   8    -0.877716132895E+02   -0.20131E-05   -0.98115E-06  1416   0.125E-02    0.204E-02
DAV:   9    -0.877716142853E+02   -0.99575E-06   -0.21524E-06   928   0.562E-03
  13 F= -.87771614E+02 E0= -.87771614E+02  d E =-.110813E-12
       N       E                     dE             d eps       ncg     rms          rms(c)
DAV:   1    -0.885223203407E+02   -0.75071E+00   -0.33430E+01  1520   0.246E+01    0.685E+00
DAV:   2    -0.880964317290E+02    0.42589E+00   -0.12805E+00  1760   0.523E+00    0.309E+00
DAV:   3    -0.879379637569E+02    0.15847E+00   -0.31075E-01  1728   0.203E+00    0.157E+00
DAV:   4    -0.879093790488E+02    0.28585E-01   -0.57503E-02  1896   0.865E-01    0.648E-01
DAV:   5    -0.879075159999E+02    0.18630E-02   -0.46296E-03  1768   0.269E-01    0.384E-01
DAV:   6    -0.879073498541E+02    0.16615E-03   -0.98028E-04  1920   0.116E-01    0.181E-01
DAV:   7    -0.879073361638E+02    0.13690E-04   -0.27908E-04  1712   0.681E-02    0.630E-02
DAV:   8    -0.879073458434E+02   -0.96796E-05   -0.47377E-05  1944   0.266E-02    0.436E-02
DAV:   9    -0.879073516145E+02   -0.57710E-05   -0.81539E-06  1600   0.115E-02    0.151E-02
DAV:  10    -0.879073550378E+02   -0.34233E-05   -0.48147E-06  1400   0.853E-03    0.830E-03
DAV:  11    -0.879073553792E+02   -0.34142E-06   -0.90509E-07   960   0.435E-03
  14 F= -.87907355E+02 E0= -.87907355E+02  d E =-.201765E-14
       N       E                     dE             d eps       ncg     rms          rms(c)
DAV:   1    -0.879397700769E+02   -0.32415E-01   -0.55495E+00  1440   0.787E+00    0.121E+00
DAV:   2    -0.879311184126E+02    0.86517E-02   -0.15790E-01  1736   0.144E+00    0.666E-01
DAV:   3    -0.879217783839E+02    0.93400E-02   -0.21354E-02  1920   0.517E-01    0.234E-01
DAV:   4    -0.879213606246E+02    0.41776E-03   -0.29305E-03  1856   0.211E-01    0.116E-01
DAV:   5    -0.879213768248E+02   -0.16200E-04   -0.28255E-04  1880   0.691E-02    0.516E-02
DAV:   6    -0.879213810238E+02   -0.41990E-05   -0.38491E-05  1688   0.253E-02    0.193E-02
DAV:   7    -0.879213882002E+02   -0.71764E-05   -0.19379E-05  1736   0.171E-02    0.156E-02
DAV:   8    -0.879213899604E+02   -0.17603E-05   -0.14159E-06  1056   0.612E-03    0.577E-03
DAV:   9    -0.879213903153E+02   -0.35489E-06   -0.10163E-06   960   0.420E-03
  15 F= -.87921390E+02 E0= -.87921390E+02  d E =-.169909E-14
       N       E                     dE             d eps       ncg     rms          rms(c)
DAV:   1    -0.880348652305E+02   -0.11348E+00   -0.77034E+00  1488   0.921E+00    0.252E+00
DAV:   2    -0.879633250845E+02    0.71540E-01   -0.22273E-01  1680   0.191E+00    0.134E+00
DAV:   3    -0.879250656860E+02    0.38259E-01   -0.57984E-02  1808   0.769E-01    0.574E-01
DAV:   4    -0.879212509404E+02    0.38147E-02   -0.13748E-02  1912   0.418E-01    0.199E-01
DAV:   5    -0.879213140383E+02   -0.63098E-04   -0.11203E-03  1896   0.145E-01    0.107E-01
DAV:   6    -0.879213534635E+02   -0.39425E-04   -0.10409E-04  1744   0.410E-02    0.400E-02
DAV:   7    -0.879213808316E+02   -0.27368E-04   -0.45655E-05  1856   0.243E-02    0.200E-02
DAV:   8    -0.879213885883E+02   -0.77567E-05   -0.73816E-06  1576   0.113E-02    0.106E-02
DAV:   9    -0.879213901807E+02   -0.15924E-05   -0.20808E-06  1168   0.572E-03    0.327E-03
DAV:  10    -0.879213903604E+02   -0.17971E-06   -0.70139E-07   960   0.355E-03
  16 F= -.87921390E+02 E0= -.87921390E+02  d E =-.178510E-14
       N       E                     dE             d eps       ncg     rms          rms(c)
DAV:   1    -0.879247375454E+02   -0.33474E-02   -0.61167E+00  1440   0.795E+00    0.134E+00
DAV:   2    -0.879177897085E+02    0.69478E-02   -0.15569E-01  1736   0.145E+00    0.679E-01
DAV:   3    -0.879093021558E+02    0.84876E-02   -0.12665E-02  1992   0.419E-01    0.356E-01
DAV:   4    -0.879072840171E+02    0.20181E-02   -0.43234E-03  1872   0.251E-01    0.793E-02
DAV:   5    -0.879073328931E+02   -0.48876E-04   -0.51011E-04  1712   0.101E-01    0.659E-02
DAV:   6    -0.879073472819E+02   -0.14389E-04   -0.47073E-05  1816   0.263E-02    0.216E-02
DAV:   7    -0.879073532893E+02   -0.60074E-05   -0.78837E-06  1696   0.122E-02    0.739E-03
DAV:   8    -0.879073552485E+02   -0.19592E-05   -0.20353E-06  1120   0.614E-03    0.288E-03
DAV:   9    -0.879073555252E+02   -0.27669E-06   -0.32861E-07   960   0.296E-03
  17 F= -.87907356E+02 E0= -.87907356E+02  d E =-.339383E-14
       N       E                     dE             d eps       ncg     rms          rms(c)
DAV:   1    -0.881126611153E+02   -0.20531E+00   -0.20749E+01  1152   0.166E+01    0.615E+00
DAV:   2    -0.879762361054E+02    0.13643E+00   -0.78802E-01  1408   0.364E+00    0.214E+00
DAV:   3    -0.879002195218E+02    0.76017E-01   -0.84829E-02  1488   0.108E+00    0.163E+00
DAV:   4    -0.878586576872E+02    0.41562E-01   -0.75884E-02  1472   0.956E-01    0.296E-01
DAV:   5    -0.878571318326E+02    0.15259E-02   -0.13050E-02  1536   0.434E-01    0.595E-01
DAV:   6    -0.878567447272E+02    0.38711E-03   -0.11459E-03  1400   0.125E-01    0.297E-01
DAV:   7    -0.878563994605E+02    0.34527E-03   -0.47691E-04  1400   0.754E-02    0.546E-02
DAV:   8    -0.878563014573E+02    0.98003E-04   -0.35684E-04  1568   0.602E-02    0.629E-02
DAV:   9    -0.878562857937E+02    0.15664E-04   -0.45081E-05  1600   0.268E-02    0.283E-02
DAV:  10    -0.878562704472E+02    0.15346E-04   -0.43354E-05  1360   0.274E-02    0.250E-02
DAV:  11    -0.878562704619E+02   -0.14616E-07   -0.11922E-05  1536   0.122E-02    0.112E-02
DAV:  12    -0.878562703830E+02    0.78870E-07   -0.11240E-06   776   0.497E-03
  18 F= -.87856270E+02 E0= -.87856270E+02  d E =-.959658E-16
       N       E                     dE             d eps       ncg     rms          rms(c)
DAV:   1    -0.879448886642E+02   -0.88618E-01   -0.27438E+00  1152   0.608E+00    0.285E+00
DAV:   2    -0.879228840661E+02    0.22005E-01   -0.13369E-01  1408   0.146E+00    0.834E-01
DAV:   3    -0.879119272442E+02    0.10957E-01   -0.15841E-02  1528   0.467E-01    0.691E-01
DAV:   4    -0.879078228364E+02    0.41044E-02   -0.11572E-02  1552   0.394E-01    0.129E-01
DAV:   5    -0.879078340624E+02   -0.11226E-04   -0.14044E-03  1400   0.156E-01    0.251E-01
DAV:   6    -0.879078421041E+02   -0.80416E-05   -0.12382E-04  1408   0.410E-02    0.138E-01
DAV:   7    -0.879078395154E+02    0.25887E-05   -0.25801E-05  1368   0.197E-02    0.342E-02
DAV:   8    -0.879078420837E+02   -0.25684E-05   -0.22529E-05  1464   0.150E-02    0.198E-02
DAV:   9    -0.879078423188E+02   -0.23508E-06   -0.19713E-06   904   0.660E-03
  19 F= -.87907842E+02 E0= -.87907842E+02  d E =-.298090E-15
       N       E                     dE             d eps       ncg     rms          rms(c)
DAV:   1    -0.880599511444E+02   -0.15211E+00   -0.10938E+01  1152   0.121E+01    0.559E+00
DAV:   2    -0.879715575090E+02    0.88394E-01   -0.53075E-01  1408   0.288E+00    0.164E+00
DAV:   3    -0.879277762041E+02    0.43781E-01   -0.63209E-02  1472   0.901E-01    0.135E+00
DAV:   4    -0.879116654650E+02    0.16111E-01   -0.44862E-02  1512   0.721E-01    0.264E-01
DAV:   5    -0.879116651244E+02    0.34065E-06   -0.51575E-03  1400   0.295E-01    0.477E-01
DAV:   6    -0.879116943288E+02   -0.29204E-04   -0.47280E-04  1400   0.816E-02    0.276E-01
DAV:   7    -0.879116882662E+02    0.60626E-05   -0.10451E-04  1456   0.404E-02    0.599E-02
DAV:   8    -0.879116991371E+02   -0.10871E-04   -0.86522E-05  1592   0.296E-02    0.449E-02
DAV:   9    -0.879116998967E+02   -0.75952E-06   -0.75734E-06  1248   0.115E-02
  20 F= -.87911700E+02 E0= -.87911700E+02  d E =-.168434E-13
       N       E                     dE             d eps       ncg     rms          rms(c)
DAV:   1    -0.879033602151E+02    0.83389E-02   -0.27243E+00  1152   0.605E+00    0.274E+00
DAV:   2    -0.878809884700E+02    0.22372E-01   -0.12946E-01  1408   0.142E+00    0.816E-01
DAV:   3    -0.878701417057E+02    0.10847E-01   -0.15725E-02  1536   0.462E-01    0.657E-01
DAV:   4    -0.878661444209E+02    0.39973E-02   -0.11007E-02  1544   0.389E-01    0.127E-01
DAV:   5    -0.878661623336E+02   -0.17913E-04   -0.13923E-03  1408   0.159E-01    0.226E-01
DAV:   6    -0.878661706492E+02   -0.83156E-05   -0.11677E-04  1384   0.402E-02    0.136E-01
DAV:   7    -0.878661700627E+02    0.58651E-06   -0.20665E-05  1328   0.178E-02    0.406E-02
DAV:   8    -0.878661724708E+02   -0.24081E-05   -0.20416E-05  1480   0.146E-02    0.163E-02
DAV:   9    -0.878661728178E+02   -0.34705E-06   -0.19737E-06   904   0.623E-03
  21 F= -.87866173E+02 E0= -.87866173E+02  d E =-.226015E-12
       N       E                     dE             d eps       ncg     rms          rms(c)
DAV:   1    -0.882082084408E+02   -0.34204E+00   -0.23085E+01  1440   0.175E+01    0.666E+00
DAV:   2    -0.880170530992E+02    0.19116E+00   -0.96506E-01  1760   0.395E+00    0.224E+00
DAV:   3    -0.879219311135E+02    0.95122E-01   -0.10941E-01  1824   0.120E+00    0.165E+00
DAV:   4    -0.878841630523E+02    0.37768E-01   -0.86988E-02  1848   0.101E+00    0.310E-01
DAV:   5    -0.878846082584E+02   -0.44521E-03   -0.10533E-02  1696   0.421E-01    0.563E-01
DAV:   6    -0.878846652902E+02   -0.57032E-04   -0.89958E-04  1824   0.111E-01    0.303E-01
DAV:   7    -0.878846878035E+02   -0.22513E-04   -0.22584E-04  1712   0.580E-02    0.507E-02
DAV:   8    -0.878847146609E+02   -0.26857E-04   -0.10750E-04  1952   0.374E-02    0.572E-02
DAV:   9    -0.878847169633E+02   -0.23025E-05   -0.75570E-06  1640   0.135E-02    0.360E-02
DAV:  10    -0.878847200993E+02   -0.31360E-05   -0.79786E-06  1688   0.961E-03    0.287E-02
DAV:  11    -0.878847208454E+02   -0.74606E-06   -0.16162E-06  1136   0.496E-03
  22 F= -.87884721E+02 E0= -.87884721E+02  d E =-.871437E-15
       N       E                     dE             d eps       ncg     rms          rms(c)
DAV:   1    -0.879508539536E+02   -0.66134E-01   -0.63696E+00  1440   0.857E+00    0.156E+00
DAV:   2    -0.879325032386E+02    0.18351E-01   -0.21532E-01  1688   0.166E+00    0.736E-01
DAV:   3    -0.879171912303E+02    0.15312E-01   -0.26402E-02  1872   0.599E-01    0.294E-01
DAV:   4    -0.879156129478E+02    0.15783E-02   -0.65175E-03  1800   0.290E-01    0.120E-01
DAV:   5    -0.879156305711E+02   -0.17623E-04   -0.39540E-04  1968   0.857E-02    0.752E-02
DAV:   6    -0.879156418632E+02   -0.11292E-04   -0.42121E-05  1808   0.266E-02    0.205E-02
DAV:   7    -0.879156489902E+02   -0.71269E-05   -0.18915E-05  1728   0.158E-02    0.131E-02
DAV:   8    -0.879156505493E+02   -0.15591E-05   -0.29341E-06  1400   0.714E-03    0.555E-03
DAV:   9    -0.879156508824E+02   -0.33306E-06   -0.50042E-07   960   0.326E-03
  23 F= -.87915651E+02 E0= -.87915651E+02  d E =-.143392E-14
       N       E                     dE             d eps       ncg     rms          rms(c)
DAV:   1    -0.881027119453E+02   -0.18706E+00   -0.96091E+00  1488   0.104E+01    0.353E+00
DAV:   2    -0.879881224692E+02    0.11459E+00   -0.36828E-01  1656   0.232E+00    0.147E+00
DAV:   3    -0.879288705352E+02    0.59252E-01   -0.64000E-02  1816   0.855E-01    0.765E-01
DAV:   4    -0.879153113176E+02    0.13559E-01   -0.34508E-02  1816   0.651E-01    0.165E-01
DAV:   5    -0.879155503243E+02   -0.23901E-03   -0.35164E-03  1720   0.258E-01    0.170E-01
DAV:   6    -0.879156161794E+02   -0.65855E-04   -0.23618E-04  1848   0.608E-02    0.664E-02
DAV:   7    -0.879156405403E+02   -0.24361E-04   -0.46534E-05  1648   0.278E-02    0.252E-02
DAV:   8    -0.879156498041E+02   -0.92637E-05   -0.12735E-05  1624   0.150E-02    0.554E-03
DAV:   9    -0.879156505590E+02   -0.75492E-06   -0.10085E-06  1016   0.522E-03
  24 F= -.87915651E+02 E0= -.87915651E+02  d E =-.143791E-14
       N       E                     dE             d eps       ncg     rms          rms(c)
DAV:   1    -0.879155340584E+02    0.11575E-03   -0.73318E+00  1440   0.882E+00    0.202E+00
DAV:   2    -0.879029655644E+02    0.12568E-01   -0.23389E-01  1680   0.171E+00    0.757E-01
DAV:   3    -0.878899030738E+02    0.13062E-01   -0.15132E-02  1888   0.479E-01    0.466E-01
DAV:   4    -0.878845482092E+02    0.53549E-02   -0.10765E-02  1696   0.384E-01    0.776E-02
DAV:   5    -0.878846927376E+02   -0.14453E-03   -0.15816E-03  1752   0.167E-01    0.102E-01
DAV:   6    -0.878847083204E+02   -0.15583E-04   -0.75598E-05  2040   0.336E-02    0.598E-02
DAV:   7    -0.878847181313E+02   -0.98109E-05   -0.14369E-05  1624   0.151E-02    0.171E-02
DAV:   8    -0.878847203188E+02   -0.21875E-05   -0.28471E-06  1456   0.675E-03    0.362E-03
DAV:   9    -0.878847207255E+02   -0.40671E-06   -0.41081E-07   960   0.320E-03
  25 F= -.87884721E+02 E0= -.87884721E+02  d E =-.861565E-15
       N       E                     dE             d eps       ncg     rms          rms(c)
DAV:   1    -0.880998167967E+02   -0.21510E+00   -0.14423E+01  1480   0.135E+01    0.338E+00
DAV:   2    -0.879957386518E+02    0.10408E+00   -0.50033E-01  1696   0.280E+00    0.147E+00
DAV:   3    -0.879371285324E+02    0.58610E-01   -0.74318E-02  1872   0.961E-01    0.708E-01
DAV:   4    -0.879248690370E+02    0.12259E-01   -0.30245E-02  1896   0.630E-01    0.179E-01
DAV:   5    -0.879250617917E+02   -0.19275E-03   -0.30916E-03  1728   0.240E-01    0.163E-01
DAV:   6    -0.879251281019E+02   -0.66310E-04   -0.22359E-04  1816   0.579E-02    0.616E-02
DAV:   7    -0.879251515321E+02   -0.23430E-04   -0.39945E-05  1664   0.260E-02    0.261E-02
DAV:   8    -0.879251609835E+02   -0.94515E-05   -0.12064E-05  1600   0.146E-02    0.484E-03
DAV:   9    -0.879251617361E+02   -0.75256E-06   -0.98109E-07   984   0.554E-03
  26 F= -.87925162E+02 E0= -.87925162E+02  d E =-.321245E-14
       N       E                     dE             d eps       ncg     rms          rms(c)
DAV:   1    -0.879231905852E+02    0.19704E-02   -0.16511E+00  1528   0.245E+00    0.368E-02
DAV:   2    -0.879257456120E+02   -0.25550E-02   -0.25649E-02  1648   0.365E-01    0.148E-02
DAV:   3    -0.879258213663E+02   -0.75754E-04   -0.79220E-04  1952   0.665E-02    0.108E-02
DAV:   4    -0.879258238396E+02   -0.24734E-05   -0.38154E-05  1368   0.210E-02    0.584E-03
DAV:   5    -0.879258237068E+02    0.13277E-06   -0.36242E-06  1256   0.149E-02
  27 F= -.87925824E+02 E0= -.87925824E+02  d E =-.213692E-14
       N       E                     dE             d eps       ncg     rms          rms(c)
DAV:   1    -0.879208732831E+02    0.49506E-02   -0.31140E+00  1552   0.358E+00    0.858E-02
DAV:   2    -0.879257130904E+02   -0.48398E-02   -0.49007E-02  1672   0.561E-01    0.293E-02
DAV:   3    -0.879258374689E+02   -0.12438E-03   -0.14181E-03  1992   0.927E-02    0.206E-02
DAV:   4    -0.879258398849E+02   -0.24160E-05   -0.66914E-05  1888   0.255E-02    0.130E-02
DAV:   5    -0.879258387123E+02    0.11726E-05   -0.41841E-06  1336   0.164E-02    0.656E-03
DAV:   6    -0.879258381658E+02    0.54654E-06   -0.64113E-06  1768   0.252E-02
  28 F= -.87925838E+02 E0= -.87925838E+02  d E =-.186525E-14
       N       E                     dE             d eps       ncg     rms          rms(c)
DAV:   1    -0.879225865149E+02    0.32522E-02   -0.16513E+00  1528   0.247E+00    0.538E-02
DAV:   2    -0.879250985748E+02   -0.25121E-02   -0.25311E-02  1656   0.347E-01    0.144E-02
DAV:   3    -0.879251729015E+02   -0.74327E-04   -0.77783E-04  1976   0.633E-02    0.141E-02
DAV:   4    -0.879251746391E+02   -0.17376E-05   -0.30329E-05  1224   0.160E-02    0.105E-02
DAV:   5    -0.879251739375E+02    0.70158E-06   -0.22461E-06  1136   0.108E-02
  29 F= -.87925174E+02 E0= -.87925174E+02  d E =-.255344E-14
       N       E                     dE             d eps       ncg     rms          rms(c)
DAV:   1    -0.879139248384E+02    0.11250E-01   -0.70523E+00  1536   0.537E+00    0.120E-01
DAV:   2    -0.879250770526E+02   -0.11152E-01   -0.11271E-01  1648   0.813E-01    0.349E-02
DAV:   3    -0.879253764612E+02   -0.29941E-03   -0.31838E-03  1976   0.131E-01    0.291E-02
DAV:   4    -0.879253842516E+02   -0.77905E-05   -0.14093E-04  2008   0.331E-02    0.187E-02
DAV:   5    -0.879253838497E+02    0.40194E-06   -0.97438E-06  1304   0.201E-02
  30 F= -.87925384E+02 E0= -.87925384E+02  d E =-.196658E-14
       N       E                     dE             d eps       ncg     rms          rms(c)
DAV:   1    -0.879232225177E+02    0.21617E-02   -0.16512E+00  1536   0.213E+00    0.343E-02
DAV:   2    -0.879256997127E+02   -0.24772E-02   -0.24844E-02  1608   0.349E-01    0.871E-03
DAV:   3    -0.879257713940E+02   -0.71681E-04   -0.72238E-04  1696   0.540E-02    0.863E-03
DAV:   4    -0.879257743269E+02   -0.29329E-05   -0.31151E-05  1240   0.139E-02    0.630E-03
DAV:   5    -0.879257745864E+02   -0.25951E-06   -0.20941E-06  1128   0.108E-02
  31 F= -.87925775E+02 E0= -.87925775E+02  d E =-.178495E-14
       N       E                     dE             d eps       ncg     rms          rms(c)
DAV:   1    -0.879213906716E+02    0.43837E-02   -0.31174E+00  1520   0.330E+00    0.834E-02
DAV:   2    -0.879261149871E+02   -0.47243E-02   -0.47648E-02  1600   0.511E-01    0.196E-02
DAV:   3    -0.879262538957E+02   -0.13891E-03   -0.14134E-03  1896   0.737E-02    0.184E-02
DAV:   4    -0.879262588293E+02   -0.49336E-05   -0.59091E-05  1424   0.188E-02    0.135E-02
DAV:   5    -0.879262599764E+02   -0.11472E-05   -0.57299E-06  1304   0.187E-02    0.435E-03
DAV:   6    -0.879262607011E+02   -0.72468E-06   -0.18533E-06  1208   0.100E-02
  32 F= -.87926261E+02 E0= -.87926261E+02  d E =-.163153E-14
       N       E                     dE             d eps       ncg     rms          rms(c)
DAV:   1    -0.879237475878E+02    0.25124E-02   -0.16518E+00  1528   0.230E+00    0.526E-02
DAV:   2    -0.879262628532E+02   -0.25153E-02   -0.25353E-02  1592   0.320E-01    0.119E-02
DAV:   3    -0.879263386780E+02   -0.75825E-04   -0.76861E-04  1656   0.550E-02    0.125E-02
DAV:   4    -0.879263412586E+02   -0.25806E-05   -0.34076E-05  1200   0.151E-02    0.953E-03
DAV:   5    -0.879263413015E+02   -0.42891E-07   -0.27388E-06  1136   0.182E-02
  33 F= -.87926341E+02 E0= -.87926341E+02  d E =-.157031E-14
       N       E                     dE             d eps       ncg     rms          rms(c)
DAV:   1    -0.879139133459E+02    0.12428E-01   -0.70531E+00  1520   0.524E+00    0.119E-01
DAV:   2    -0.879249452292E+02   -0.11032E-01   -0.11160E-01  1648   0.728E-01    0.343E-02
DAV:   3    -0.879252738977E+02   -0.32867E-03   -0.34136E-03  1896   0.124E-01    0.290E-02
DAV:   4    -0.879252806702E+02   -0.67726E-05   -0.14284E-04  1816   0.329E-02    0.208E-02
DAV:   5    -0.879252795803E+02    0.10899E-05   -0.12081E-05  1592   0.255E-02    0.882E-03
DAV:   6    -0.879252809418E+02   -0.13615E-05   -0.81699E-06  1576   0.286E-02    0.529E-03
DAV:   7    -0.879252810040E+02   -0.62240E-07   -0.39341E-06  1120   0.154E-02
  34 F= -.87925281E+02 E0= -.87925281E+02  d E =-.264104E-14
       N       E                     dE             d eps       ncg     rms          rms(c)
DAV:   1    -0.879232772130E+02    0.20037E-02   -0.16513E+00  1520   0.247E+00    0.349E-02
DAV:   2    -0.879257587983E+02   -0.24816E-02   -0.24892E-02  1664   0.345E-01    0.123E-02
DAV:   3    -0.879258313914E+02   -0.72593E-04   -0.74000E-04  1920   0.592E-02    0.823E-03
DAV:   4    -0.879258341755E+02   -0.27841E-05   -0.32423E-05  1288   0.160E-02    0.580E-03
DAV:   5    -0.879258342472E+02   -0.71632E-07   -0.22576E-06  1104   0.109E-02
  35 F= -.87925834E+02 E0= -.87925834E+02  d E =-.212335E-14
       N       E                     dE             d eps       ncg     rms          rms(c)
DAV:   1    -0.879210728064E+02    0.47614E-02   -0.31161E+00  1544   0.358E+00    0.857E-02
DAV:   2    -0.879258251285E+02   -0.47523E-02   -0.48038E-02  1672   0.518E-01    0.253E-02
DAV:   3    -0.879259694232E+02   -0.14429E-03   -0.15030E-03  1888   0.825E-02    0.194E-02
DAV:   4    -0.879259731937E+02   -0.37705E-05   -0.63622E-05  1568   0.206E-02    0.141E-02
DAV:   5    -0.879259728323E+02    0.36135E-06   -0.53081E-06  1304   0.138E-02
  36 F= -.87925973E+02 E0= -.87925973E+02  d E =-.150104E-14
       N       E                     dE             d eps       ncg     rms          rms(c)
DAV:   1    -0.879229648673E+02    0.30083E-02   -0.16511E+00  1520   0.235E+00    0.548E-02
DAV:   2    -0.879255209253E+02   -0.25561E-02   -0.25782E-02  1680   0.364E-01    0.152E-02
DAV:   3    -0.879256000076E+02   -0.79082E-04   -0.80094E-04  1896   0.577E-02    0.128E-02
DAV:   4    -0.879256025439E+02   -0.25363E-05   -0.35115E-05  1296   0.144E-02    0.891E-03
DAV:   5    -0.879256024336E+02    0.11027E-06   -0.27965E-06  1048   0.105E-02
  37 F= -.87925602E+02 E0= -.87925602E+02  d E =-.121198E-14
       N       E                     dE             d eps       ncg     rms          rms(c)
DAV:   1    -0.879112240320E+02    0.14379E-01   -0.39535E+00  1440   0.469E+00    0.939E-01
DAV:   2    -0.879193532699E+02   -0.81292E-02   -0.90240E-02  1752   0.943E-01    0.178E-01
DAV:   3    -0.879194844925E+02   -0.13122E-03   -0.29899E-03  1904   0.211E-01    0.887E-02
DAV:   4    -0.879194617830E+02    0.22709E-04   -0.21922E-04  1920   0.606E-02    0.622E-02
DAV:   5    -0.879194525807E+02    0.92023E-05   -0.39173E-05  1776   0.336E-02    0.210E-02
DAV:   6    -0.879194532693E+02   -0.68864E-06   -0.15542E-05  1944   0.164E-02    0.183E-02
DAV:   7    -0.879194533514E+02   -0.82086E-07   -0.31101E-06  1480   0.788E-03
  38 F= -.87919453E+02 E0= -.87919453E+02  d E =-.167152E-14
       N       E                     dE             d eps       ncg     rms          rms(c)
DAV:   1    -0.879230248292E+02   -0.35716E-02   -0.21345E-01  1496   0.123E+00    0.357E-01
DAV:   2    -0.879243618808E+02   -0.13371E-02   -0.14846E-02  1688   0.325E-01    0.120E-01
DAV:   3    -0.879243848429E+02   -0.22962E-04   -0.54867E-04  2008   0.768E-02    0.572E-02
DAV:   4    -0.879243789208E+02    0.59221E-05   -0.33397E-05  1712   0.195E-02    0.260E-02
DAV:   5    -0.879243784014E+02    0.51939E-06   -0.78588E-06  1648   0.112E-02
  39 F= -.87924378E+02 E0= -.87924378E+02  d E =-.173636E-14
       N       E                     dE             d eps       ncg     rms          rms(c)
DAV:   1    -0.879223476095E+02    0.20313E-02   -0.39986E-01  1504   0.179E+00    0.869E-01
DAV:   2    -0.879244008333E+02   -0.20532E-02   -0.27854E-02  1736   0.485E-01    0.196E-01
DAV:   3    -0.879244079040E+02   -0.70706E-05   -0.13285E-03  1936   0.131E-01    0.785E-02
DAV:   4    -0.879243847657E+02    0.23138E-04   -0.10732E-04  1840   0.366E-02    0.567E-02
DAV:   5    -0.879243775043E+02    0.72614E-05   -0.32123E-05  1688   0.248E-02    0.196E-02
DAV:   6    -0.879243781901E+02   -0.68578E-06   -0.91769E-06  1856   0.125E-02
  40 F= -.87924378E+02 E0= -.87924378E+02  d E =-.168262E-14
       N       E                     dE             d eps       ncg     rms          rms(c)
DAV:   1    -0.879181579321E+02    0.62196E-02   -0.21278E-01  1504   0.122E+00    0.534E-01
DAV:   2    -0.879194591423E+02   -0.13012E-02   -0.15639E-02  1664   0.332E-01    0.855E-02
DAV:   3    -0.879194653505E+02   -0.62082E-05   -0.54935E-04  1888   0.856E-02    0.571E-02
DAV:   4    -0.879194565588E+02    0.87917E-05   -0.54210E-05  1848   0.232E-02    0.401E-02
DAV:   5    -0.879194535188E+02    0.30400E-05   -0.93398E-06  1608   0.123E-02    0.106E-02
DAV:   6    -0.879194534377E+02    0.81050E-07   -0.50292E-06  1648   0.800E-03
  41 F= -.87919453E+02 E0= -.87919453E+02  d E =-.167608E-14
       N       E                     dE             d eps       ncg     rms          rms(c)
DAV:   1    -0.879089879456E+02    0.10466E-01   -0.95399E-01  1160   0.290E+00    0.150E+00
DAV:   2    -0.879144252387E+02   -0.54373E-02   -0.75410E-02  1376   0.790E-01    0.339E-01
DAV:   3    -0.879140405769E+02    0.38466E-03   -0.33956E-03  1608   0.214E-01    0.197E-01
DAV:   4    -0.879137936823E+02    0.24689E-03   -0.61587E-04  1384   0.781E-02    0.797E-02
DAV:   5    -0.879137238292E+02    0.69853E-04   -0.16588E-04  1536   0.535E-02    0.646E-02
DAV:   6    -0.879137182008E+02    0.56284E-05   -0.68328E-05  1440   0.255E-02    0.510E-02
DAV:   7    -0.879137109552E+02    0.72456E-05   -0.84306E-06  1600   0.128E-02    0.175E-02
DAV:   8    -0.879137059079E+02    0.50473E-05   -0.12284E-05  1408   0.152E-02    0.626E-03
DAV:   9    -0.879137052179E+02    0.69000E-06   -0.75785E-06  1352   0.107E-02
  42 F= -.87913705E+02 E0= -.87913705E+02  d E =-.111649E-13
       N       E                     dE             d eps       ncg     rms          rms(c)
DAV:   1    -0.879224552418E+02   -0.87493E-02   -0.12707E-01  1152   0.104E+00    0.692E-01
DAV:   2    -0.879231010107E+02   -0.64577E-03   -0.11162E-02  1360   0.307E-01    0.118E-01
DAV:   3    -0.879230159952E+02    0.85016E-04   -0.61247E-04  1560   0.902E-02    0.588E-02
DAV:   4    -0.879229812639E+02    0.34731E-04   -0.86295E-05  1400   0.271E-02    0.304E-02
DAV:   5    -0.879229704995E+02    0.10764E-04   -0.28853E-05  1272   0.190E-02    0.241E-02
DAV:   6    -0.879229707261E+02   -0.22660E-06   -0.50310E-06  1272   0.787E-03
  43 F= -.87922971E+02 E0= -.87922971E+02  d E =-.460971E-14
       N       E                     dE             d eps       ncg     rms          rms(c)
DAV:   1    -0.879207831392E+02    0.21874E-02   -0.50995E-01  1192   0.211E+00    0.144E+00
DAV:   2    -0.879233363886E+02   -0.25532E-02   -0.44759E-02  1368   0.612E-01    0.233E-01
DAV:   3    -0.879229897464E+02    0.34664E-03   -0.24411E-03  1568   0.178E-01    0.122E-01
DAV:   4    -0.879228448735E+02    0.14487E-03   -0.37068E-04  1376   0.627E-02    0.612E-02
DAV:   5    -0.879228011710E+02    0.43703E-04   -0.10750E-04  1344   0.389E-02    0.496E-02
DAV:   6    -0.879228021120E+02   -0.94101E-06   -0.21891E-05  1440   0.164E-02    0.417E-02
DAV:   7    -0.879228021799E+02   -0.67939E-07   -0.55249E-06  1200   0.831E-03
  44 F= -.87922802E+02 E0= -.87922802E+02  d E =-.964271E-15
       N       E                     dE             d eps       ncg     rms          rms(c)
DAV:   1    -0.879125951026E+02    0.10207E-01   -0.12808E-01  1208   0.105E+00    0.722E-01
DAV:   2    -0.879132510044E+02   -0.65590E-03   -0.11422E-02  1376   0.304E-01    0.112E-01
DAV:   3    -0.879131629241E+02    0.88080E-04   -0.61149E-04  1560   0.879E-02    0.637E-02
DAV:   4    -0.879131248729E+02    0.38051E-04   -0.96501E-05  1304   0.275E-02    0.308E-02
DAV:   5    -0.879131138345E+02    0.11038E-04   -0.28147E-05  1360   0.191E-02    0.255E-02
DAV:   6    -0.879131140878E+02   -0.25321E-06   -0.54527E-06  1288   0.797E-03
  45 F= -.87913114E+02 E0= -.87913114E+02  d E =-.650282E-15
       N       E                     dE             d eps       ncg     rms          rms(c)
DAV:   1    -0.879119285781E+02    0.11853E-02   -0.98291E-01  1152   0.292E+00    0.181E+00
DAV:   2    -0.879169998695E+02   -0.50713E-02   -0.89147E-02  1360   0.835E-01    0.310E-01
DAV:   3    -0.879164129821E+02    0.58689E-03   -0.55932E-03  1584   0.253E-01    0.170E-01
DAV:   4    -0.879161135860E+02    0.29940E-03   -0.69257E-04  1376   0.776E-02    0.856E-02
DAV:   5    -0.879160153199E+02    0.98266E-04   -0.18292E-04  1400   0.519E-02    0.577E-02
DAV:   6    -0.879160128595E+02    0.24605E-05   -0.57828E-05  1560   0.260E-02    0.498E-02
DAV:   7    -0.879160117846E+02    0.10748E-05   -0.14989E-05  1392   0.126E-02    0.260E-02
DAV:   8    -0.879160120114E+02   -0.22677E-06   -0.44119E-06  1328   0.817E-03
  46 F= -.87916012E+02 E0= -.87916012E+02  d E =-.475667E-12
       N       E                     dE             d eps       ncg     rms          rms(c)
DAV:   1    -0.879232529925E+02   -0.72412E-02   -0.12026E-01  1088   0.984E-01    0.553E-01
DAV:   2    -0.879238001571E+02   -0.54716E-03   -0.10193E-02  1352   0.290E-01    0.109E-01
DAV:   3    -0.879237510759E+02    0.49081E-04   -0.69256E-04  1640   0.907E-02    0.564E-02
DAV:   4    -0.879237176908E+02    0.33385E-04   -0.71921E-05  1376   0.272E-02    0.315E-02
DAV:   5    -0.879237064928E+02    0.11198E-04   -0.17169E-05  1432   0.177E-02    0.172E-02
DAV:   6    -0.879237054066E+02    0.10862E-05   -0.80513E-06  1456   0.108E-02    0.116E-02
DAV:   7    -0.879237053197E+02    0.86899E-07   -0.31922E-06  1072   0.606E-03
  47 F= -.87923705E+02 E0= -.87923705E+02  d E =-.182023E-13
       N       E                     dE             d eps       ncg     rms          rms(c)
DAV:   1    -0.879212033338E+02    0.25021E-02   -0.48119E-01  1168   0.201E+00    0.112E+00
DAV:   2    -0.879233872953E+02   -0.21840E-02   -0.41221E-02  1344   0.589E-01    0.208E-01
DAV:   3    -0.879231882814E+02    0.19901E-03   -0.27749E-03  1624   0.181E-01    0.110E-01
DAV:   4    -0.879230436281E+02    0.14465E-03   -0.30618E-04  1424   0.576E-02    0.597E-02
DAV:   5    -0.879229961654E+02    0.47463E-04   -0.77875E-05  1416   0.384E-02    0.355E-02
DAV:   6    -0.879229926030E+02    0.35624E-05   -0.36795E-05  1536   0.228E-02    0.258E-02
DAV:   7    -0.879229924213E+02    0.18168E-06   -0.14325E-05  1296   0.121E-02    0.140E-02
DAV:   8    -0.879229923738E+02    0.47562E-07   -0.24259E-06   968   0.583E-03
  48 F= -.87922992E+02 E0= -.87922992E+02  d E =-.523519E-15
       N       E                     dE             d eps       ncg     rms          rms(c)
DAV:   1    -0.879143634016E+02    0.86290E-02   -0.12056E-01  1176   0.997E-01    0.547E-01
DAV:   2    -0.879149041541E+02   -0.54075E-03   -0.10290E-02  1344   0.283E-01    0.101E-01
DAV:   3    -0.879148533847E+02    0.50769E-04   -0.69152E-04  1656   0.883E-02    0.543E-02
DAV:   4    -0.879148166708E+02    0.36714E-04   -0.76086E-05  1392   0.272E-02    0.284E-02
DAV:   5    -0.879148049888E+02    0.11682E-04   -0.19968E-05  1416   0.188E-02    0.178E-02
DAV:   6    -0.879148041963E+02    0.79245E-06   -0.90521E-06  1472   0.107E-02
  49 F= -.87914804E+02 E0= -.87914804E+02  d E =-.367226E-15
       N       E                     dE             d eps       ncg     rms          rms(c)
DAV:   1    -0.879153502978E+02   -0.54531E-03   -0.92015E-01  1440   0.279E+00    0.128E+00
DAV:   2    -0.879204495707E+02   -0.50993E-02   -0.77348E-02  1744   0.816E-01    0.304E-01
DAV:   3    -0.879202813010E+02    0.16827E-03   -0.44727E-03  1992   0.244E-01    0.149E-01
DAV:   4    -0.879201488902E+02    0.13241E-03   -0.43011E-04  1816   0.723E-02    0.881E-02
DAV:   5    -0.879201016331E+02    0.47257E-04   -0.82930E-05  1744   0.408E-02    0.383E-02
DAV:   6    -0.879200959279E+02    0.57052E-05   -0.37234E-05  1960   0.249E-02    0.252E-02
DAV:   7    -0.879200966441E+02   -0.71620E-06   -0.14056E-05  1904   0.133E-02    0.137E-02
DAV:   8    -0.879200968403E+02   -0.19616E-06   -0.20575E-06  1176   0.563E-03
  50 F= -.87920097E+02 E0= -.87920097E+02  d E =-.135961E-14
       N       E                     dE             d eps       ncg     rms          rms(c)
DAV:   1    -0.879232625369E+02   -0.31659E-02   -0.21295E-01  1512   0.122E+00    0.337E-01
DAV:   2    -0.879245494893E+02   -0.12870E-02   -0.14436E-02  1696   0.319E-01    0.120E-01
DAV:   3    -0.879245777039E+02   -0.28215E-04   -0.54943E-04  1960   0.757E-02    0.559E-02
DAV:   4    -0.879245735156E+02    0.41883E-05   -0.31179E-05  1720   0.198E-02    0.276E-02
DAV:   5    -0.879245732216E+02    0.29394E-06   -0.80947E-06  1664   0.119E-02
  51 F= -.87924573E+02 E0= -.87924573E+02  d E =-.148886E-14
       N       E                     dE             d eps       ncg     rms          rms(c)
DAV:   1    -0.879226654292E+02    0.19081E-02   -0.39674E-01  1504   0.177E+00    0.803E-01
DAV:   2    -0.879245579535E+02   -0.18925E-02   -0.26738E-02  1760   0.475E-01    0.197E-01
DAV:   3    -0.879245963144E+02   -0.38361E-04   -0.13729E-03  1800   0.131E-01    0.803E-02
DAV:   4    -0.879245785295E+02    0.17785E-04   -0.94827E-05  1944   0.385E-02    0.616E-02
DAV:   5    -0.879245723447E+02    0.61848E-05   -0.35498E-05  1648   0.306E-02    0.188E-02
DAV:   6    -0.879245730224E+02   -0.67764E-06   -0.79038E-06  1768   0.136E-02
  52 F= -.87924573E+02 E0= -.87924573E+02  d E =-.143546E-14
       N       E                     dE             d eps       ncg     rms          rms(c)
DAV:   1    -0.879188539441E+02    0.57184E-02   -0.21160E-01  1496   0.121E+00    0.494E-01
DAV:   2    -0.879200912388E+02   -0.12373E-02   -0.15124E-02  1688   0.326E-01    0.853E-02
DAV:   3    -0.879201065572E+02   -0.15318E-04   -0.54784E-04  1824   0.838E-02    0.566E-02
DAV:   4    -0.879200995622E+02    0.69951E-05   -0.46390E-05  1856   0.221E-02    0.422E-02
DAV:   5    -0.879200968630E+02    0.26992E-05   -0.92299E-06  1616   0.125E-02    0.103E-02
DAV:   6    -0.879200967868E+02    0.76204E-07   -0.47505E-06  1640   0.824E-03
  53 F= -.87920097E+02 E0= -.87920097E+02  d E =-.133804E-14
       N       E                     dE             d eps       ncg     rms          rms(c)
DAV:   1    -0.879087010819E+02    0.11396E-01   -0.96233E-01  1152   0.291E+00    0.151E+00
DAV:   2    -0.879139265779E+02   -0.52255E-02   -0.74853E-02  1400   0.782E-01    0.340E-01
DAV:   3    -0.879135016549E+02    0.42492E-03   -0.35243E-03  1616   0.211E-01    0.191E-01
DAV:   4    -0.879132505421E+02    0.25111E-03   -0.61927E-04  1384   0.809E-02    0.839E-02
DAV:   5    -0.879131666004E+02    0.83942E-04   -0.18143E-04  1560   0.572E-02    0.626E-02
DAV:   6    -0.879131602192E+02    0.63812E-05   -0.77560E-05  1448   0.271E-02    0.514E-02
DAV:   7    -0.879131539894E+02    0.62297E-05   -0.64949E-06  1416   0.112E-02    0.247E-02
DAV:   8    -0.879131463255E+02    0.76639E-05   -0.16578E-05  1408   0.185E-02    0.525E-03
DAV:   9    -0.879131457000E+02    0.62554E-06   -0.93219E-06  1344   0.104E-02
  54 F= -.87913146E+02 E0= -.87913146E+02  d E =-.134448E-13
       N       E                     dE             d eps       ncg     rms          rms(c)
DAV:   1    -0.879223616043E+02   -0.92153E-02   -0.13006E-01  1216   0.104E+00    0.728E-01
DAV:   2    -0.879230117386E+02   -0.65013E-03   -0.11775E-02  1360   0.310E-01    0.120E-01
DAV:   3    -0.879229137434E+02    0.97995E-04   -0.66738E-04  1600   0.912E-02    0.644E-02
DAV:   4    -0.879228717984E+02    0.41945E-04   -0.10547E-04  1368   0.305E-02    0.321E-02
DAV:   5    -0.879228594131E+02    0.12385E-04   -0.29027E-05  1400   0.265E-02    0.261E-02
DAV:   6    -0.879228595658E+02   -0.15273E-06   -0.65712E-06  1384   0.896E-03
  55 F= -.87922860E+02 E0= -.87922860E+02  d E =-.442877E-14
       N       E                     dE             d eps       ncg     rms          rms(c)
DAV:   1    -0.879208343079E+02    0.20251E-02   -0.51575E-01  1248   0.210E+00    0.143E+00
DAV:   2    -0.879234355491E+02   -0.26012E-02   -0.46456E-02  1352   0.619E-01    0.231E-01
DAV:   3    -0.879230674992E+02    0.36805E-03   -0.25798E-03  1632   0.184E-01    0.130E-01
DAV:   4    -0.879229022610E+02    0.16524E-03   -0.39332E-04  1424   0.704E-02    0.639E-02
DAV:   5    -0.879228549340E+02    0.47327E-04   -0.12077E-04  1392   0.417E-02    0.508E-02
DAV:   6    -0.879228556287E+02   -0.69461E-06   -0.25933E-05  1472   0.175E-02    0.438E-02
DAV:   7    -0.879228555102E+02    0.11851E-06   -0.60589E-06  1296   0.813E-03
  56 F= -.87922856E+02 E0= -.87922856E+02  d E =-.157749E-14
       N       E                     dE             d eps       ncg     rms          rms(c)
DAV:   1    -0.879130705432E+02    0.97851E-02   -0.12805E-01  1192   0.103E+00    0.670E-01
DAV:   2    -0.879137128112E+02   -0.64227E-03   -0.11328E-02  1360   0.295E-01    0.111E-01
DAV:   3    -0.879136271053E+02    0.85706E-04   -0.61342E-04  1648   0.902E-02    0.636E-02
DAV:   4    -0.879135877274E+02    0.39378E-04   -0.94109E-05  1392   0.288E-02    0.315E-02
DAV:   5    -0.879135774303E+02    0.10297E-04   -0.27136E-05  1400   0.189E-02    0.249E-02
DAV:   6    -0.879135776464E+02   -0.21610E-06   -0.60937E-06  1336   0.838E-03
  57 F= -.87913578E+02 E0= -.87913578E+02  d E =-.184276E-14
       N       E                     dE             d eps       ncg     rms          rms(c)
DAV:   1    -0.879109608129E+02    0.26166E-02   -0.96813E-01  1152   0.280E+00    0.153E+00
DAV:   2    -0.879152125050E+02   -0.42517E-02   -0.80721E-02  1344   0.804E-01    0.290E-01
DAV:   3    -0.879148760334E+02    0.33647E-03   -0.51812E-03  1576   0.244E-01    0.157E-01
DAV:   4    -0.879146540149E+02    0.22202E-03   -0.58636E-04  1440   0.744E-02    0.841E-02
DAV:   5    -0.879145872225E+02    0.66792E-04   -0.12015E-04  1424   0.433E-02    0.512E-02
DAV:   6    -0.879145837884E+02    0.34341E-05   -0.50300E-05  1528   0.267E-02    0.338E-02
DAV:   7    -0.879145843936E+02   -0.60516E-06   -0.23695E-05  1280   0.156E-02    0.159E-02
DAV:   8    -0.879145846846E+02   -0.29102E-06   -0.37731E-06  1192   0.717E-03
  58 F= -.87914585E+02 E0= -.87914585E+02  d E =-.183998E-15
       N       E                     dE             d eps       ncg     rms          rms(c)
DAV:   1    -0.879227127980E+02   -0.81284E-02   -0.12290E-01  1152   0.999E-01    0.598E-01
DAV:   2    -0.879232438985E+02   -0.53110E-03   -0.10651E-02  1344   0.298E-01    0.114E-01
DAV:   3    -0.879231884248E+02    0.55474E-04   -0.72829E-04  1544   0.931E-02    0.603E-02
DAV:   4    -0.879231552195E+02    0.33205E-04   -0.78835E-05  1408   0.271E-02    0.302E-02
DAV:   5    -0.879231440972E+02    0.11122E-04   -0.22431E-05  1400   0.175E-02    0.198E-02
DAV:   6    -0.879231438159E+02    0.28125E-06   -0.62357E-06  1408   0.856E-03
  59 F= -.87923144E+02 E0= -.87923144E+02  d E =-.493756E-15
       N       E                     dE             d eps       ncg     rms          rms(c)
DAV:   1    -0.879215365568E+02    0.16075E-02   -0.49021E-01  1152   0.204E+00    0.119E+00
DAV:   2    -0.879237492084E+02   -0.22127E-02   -0.42822E-02  1352   0.595E-01    0.211E-01
DAV:   3    -0.879235260610E+02    0.22315E-03   -0.28267E-03  1560   0.181E-01    0.116E-01
DAV:   4    -0.879233912936E+02    0.13477E-03   -0.31336E-04  1392   0.616E-02    0.572E-02
DAV:   5    -0.879233495403E+02    0.41753E-04   -0.94968E-05  1392   0.378E-02    0.391E-02
DAV:   6    -0.879233492601E+02    0.28019E-06   -0.26557E-05  1536   0.181E-02    0.333E-02
DAV:   7    -0.879233494181E+02   -0.15808E-06   -0.78110E-06  1392   0.932E-03
  60 F= -.87923349E+02 E0= -.87923349E+02  d E =-.129527E-13
       N       E                     dE             d eps       ncg     rms          rms(c)
DAV:   1    -0.879148952414E+02    0.84540E-02   -0.12219E-01  1152   0.100E+00    0.559E-01
DAV:   2    -0.879154350939E+02   -0.53985E-03   -0.10390E-02  1344   0.281E-01    0.101E-01
DAV:   3    -0.879153816379E+02    0.53456E-04   -0.67007E-04  1624   0.857E-02    0.557E-02
DAV:   4    -0.879153492662E+02    0.32372E-04   -0.70222E-05  1320   0.252E-02    0.303E-02
DAV:   5    -0.879153397916E+02    0.94746E-05   -0.23779E-05  1336   0.181E-02    0.192E-02
DAV:   6    -0.879153399095E+02   -0.11787E-06   -0.66213E-06  1432   0.885E-03
  61 F= -.87915340E+02 E0= -.87915340E+02  d E =-.142142E-12
       N       E                     dE             d eps       ncg     rms          rms(c)
DAV:   1    -0.879136283471E+02    0.17114E-02   -0.14068E+00  1584   0.320E+00    0.141E+00
DAV:   2    -0.879211293418E+02   -0.75010E-02   -0.99765E-02  1784   0.935E-01    0.322E-01
DAV:   3    -0.879206525040E+02    0.47684E-03   -0.42278E-03  1976   0.235E-01    0.173E-01
DAV:   4    -0.879204778997E+02    0.17460E-03   -0.70977E-04  1760   0.847E-02    0.753E-02
DAV:   5    -0.879204582817E+02    0.19618E-04   -0.10293E-04  1784   0.454E-02    0.486E-02
DAV:   6    -0.879204577015E+02    0.58019E-06   -0.26304E-05  1936   0.198E-02    0.313E-02
DAV:   7    -0.879204572921E+02    0.40941E-06   -0.62533E-06  1616   0.942E-03
  62 F= -.87920457E+02 E0= -.87920457E+02  d E =-.500820E-15
       N       E                     dE             d eps       ncg     rms          rms(c)
DAV:   1    -0.879225929674E+02   -0.21353E-02   -0.43747E-01  1560   0.150E+00    0.365E-01
DAV:   2    -0.879249924039E+02   -0.23994E-02   -0.25574E-02  1768   0.415E-01    0.124E-01
DAV:   3    -0.879250030590E+02   -0.10655E-04   -0.78700E-04  1976   0.862E-02    0.698E-02
DAV:   4    -0.879249974352E+02    0.56238E-05   -0.77203E-05  1760   0.271E-02    0.210E-02
DAV:   5    -0.879249968338E+02    0.60137E-06   -0.11704E-05  1624   0.115E-02    0.171E-02
DAV:   6    -0.879249966069E+02    0.22690E-06   -0.17409E-06  1352   0.486E-03
  63 F= -.87924997E+02 E0= -.87924997E+02  d E =-.879586E-15
       N       E                     dE             d eps       ncg     rms          rms(c)
DAV:   1    -0.879197243928E+02    0.52724E-02   -0.85022E-01  1512   0.223E+00    0.739E-01
DAV:   2    -0.879242552386E+02   -0.45308E-02   -0.50722E-02  1800   0.621E-01    0.234E-01
DAV:   3    -0.879240554618E+02    0.19978E-03   -0.14630E-03  1840   0.142E-01    0.145E-01
DAV:   4    -0.879240161938E+02    0.39268E-04   -0.42898E-04  1696   0.715E-02    0.377E-02
DAV:   5    -0.879240140141E+02    0.21797E-05   -0.88077E-05  1696   0.311E-02    0.461E-02
DAV:   6    -0.879240137766E+02    0.23755E-06   -0.10514E-05  1712   0.117E-02    0.220E-02
DAV:   7    -0.879240137914E+02   -0.14822E-07   -0.80020E-07  1040   0.457E-03
  64 F= -.87924014E+02 E0= -.87924014E+02  d E =-.408943E-14
       N       E                     dE             d eps       ncg     rms          rms(c)
DAV:   1    -0.879163374577E+02    0.76763E-02   -0.44154E-01  1584   0.152E+00    0.449E-01
DAV:   2    -0.879188642315E+02   -0.25268E-02   -0.27133E-02  1768   0.414E-01    0.116E-01
DAV:   3    -0.879188112999E+02    0.52932E-04   -0.67661E-04  1824   0.890E-02    0.785E-02
DAV:   4    -0.879187875849E+02    0.23715E-04   -0.17012E-04  1616   0.376E-02    0.267E-02
DAV:   5    -0.879187883851E+02   -0.80018E-06   -0.31604E-05  1640   0.182E-02    0.243E-02
DAV:   6    -0.879187881332E+02    0.25192E-06   -0.30044E-06  1584   0.627E-03
  65 F= -.87918788E+02 E0= -.87918788E+02  d E =-.113338E-13
       N       E                     dE             d eps       ncg     rms          rms(c)
DAV:   1    -0.879153484836E+02    0.34399E-02   -0.19490E+00  1544   0.333E+00    0.919E-01
DAV:   2    -0.879242384807E+02   -0.88900E-02   -0.10482E-01  1728   0.896E-01    0.265E-01
DAV:   3    -0.879240456808E+02    0.19280E-03   -0.27510E-03  1968   0.193E-01    0.175E-01
DAV:   4    -0.879239386261E+02    0.10705E-03   -0.60496E-04  1728   0.811E-02    0.766E-02
DAV:   5    -0.879239484812E+02   -0.98551E-05   -0.10011E-04  1840   0.373E-02    0.366E-02
DAV:   6    -0.879239493202E+02   -0.83902E-06   -0.69306E-06  1768   0.109E-02
  66 F= -.87923949E+02 E0= -.87923949E+02  d E =-.189866E-14
       N       E                     dE             d eps       ncg     rms          rms(c)
DAV:   1    -0.879232652858E+02    0.68320E-03   -0.45950E-01  1568   0.151E+00    0.175E-01
DAV:   2    -0.879254079656E+02   -0.21427E-02   -0.23018E-02  1688   0.387E-01    0.842E-02
DAV:   3    -0.879254410242E+02   -0.33059E-04   -0.68142E-04  2104   0.844E-02    0.631E-02
DAV:   4    -0.879254257435E+02    0.15281E-04   -0.70143E-05  1688   0.263E-02    0.254E-02
DAV:   5    -0.879254273936E+02   -0.16501E-05   -0.18017E-05  1752   0.125E-02    0.105E-02
DAV:   6    -0.879254270465E+02    0.34709E-06   -0.90044E-07   960   0.411E-03
  67 F= -.87925427E+02 E0= -.87925427E+02  d E =-.177760E-14
       N       E                     dE             d eps       ncg     rms          rms(c)
DAV:   1    -0.879223154373E+02    0.31120E-02   -0.87991E-01  1488   0.223E+00    0.395E-01
DAV:   2    -0.879260398064E+02   -0.37244E-02   -0.45162E-02  1712   0.582E-01    0.190E-01
DAV:   3    -0.879259812703E+02    0.58536E-04   -0.11916E-03  1952   0.135E-01    0.148E-01
DAV:   4    -0.879258914869E+02    0.89783E-04   -0.36134E-04  1688   0.617E-02    0.581E-02
DAV:   5    -0.879259029829E+02   -0.11496E-04   -0.10922E-04  1752   0.312E-02    0.274E-02
DAV:   6    -0.879259020260E+02    0.95690E-06   -0.36386E-06  1456   0.794E-03
  68 F= -.87925902E+02 E0= -.87925902E+02  d E =-.127534E-14
       N       E                     dE             d eps       ncg     rms          rms(c)
DAV:   1    -0.879228241518E+02    0.30788E-02   -0.46431E-01  1568   0.153E+00    0.257E-01
DAV:   2    -0.879250470447E+02   -0.22229E-02   -0.25294E-02  1744   0.397E-01    0.123E-01
DAV:   3    -0.879250383376E+02    0.87071E-05   -0.63504E-04  1904   0.884E-02    0.977E-02
DAV:   4    -0.879249978668E+02    0.40471E-04   -0.15024E-04  1688   0.375E-02    0.445E-02
DAV:   5    -0.879250022353E+02   -0.43685E-05   -0.45227E-05  1672   0.191E-02    0.138E-02
DAV:   6    -0.879250023492E+02   -0.11387E-06   -0.13289E-06  1216   0.465E-03
  69 F= -.87925002E+02 E0= -.87925002E+02  d E =-.103462E-14
       N       E                     dE             d eps       ncg     rms          rms(c)
DAV:   1    -0.879140305679E+02    0.10972E-01   -0.18578E+00  1456   0.337E+00    0.730E-01
DAV:   2    -0.879224580097E+02   -0.84274E-02   -0.95857E-02  1680   0.928E-01    0.210E-01
DAV:   3    -0.879220863558E+02    0.37165E-03   -0.33624E-03  2072   0.216E-01    0.140E-01
DAV:   4    -0.879219649408E+02    0.12141E-03   -0.78840E-04  1696   0.864E-02    0.712E-02
DAV:   5    -0.879219726533E+02   -0.77125E-05   -0.10953E-04  1728   0.338E-02    0.540E-02
DAV:   6    -0.879219717994E+02    0.85388E-06   -0.11406E-05  1632   0.136E-02    0.192E-02
DAV:   7    -0.879219702540E+02    0.15454E-05   -0.53979E-06  1552   0.843E-03    0.785E-03
DAV:   8    -0.879219703269E+02   -0.72981E-07   -0.11774E-06  1056   0.435E-03
  70 F= -.87921970E+02 E0= -.87921970E+02  d E =-.206100E-14
       N       E                     dE             d eps       ncg     rms          rms(c)
DAV:   1    -0.879230342167E+02   -0.10640E-02   -0.40519E-01  1496   0.148E+00    0.230E-01
DAV:   2    -0.879250164484E+02   -0.19822E-02   -0.21891E-02  1680   0.410E-01    0.706E-02
DAV:   3    -0.879250284005E+02   -0.11952E-04   -0.80922E-04  2128   0.925E-02    0.415E-02
DAV:   4    -0.879250223318E+02    0.60687E-05   -0.77940E-05  1672   0.284E-02    0.262E-02
DAV:   5    -0.879250228983E+02   -0.56645E-06   -0.93819E-06  1680   0.106E-02
  71 F= -.87925023E+02 E0= -.87925023E+02  d E =-.184181E-14
       N       E                     dE             d eps       ncg     rms          rms(c)
DAV:   1    -0.879219074253E+02    0.31149E-02   -0.80899E-01  1496   0.221E+00    0.521E-01
DAV:   2    -0.879253704510E+02   -0.34630E-02   -0.40486E-02  1720   0.617E-01    0.137E-01
DAV:   3    -0.879251716151E+02    0.19884E-03   -0.14691E-03  2088   0.144E-01    0.798E-02
DAV:   4    -0.879251316244E+02    0.39991E-04   -0.38882E-04  1752   0.600E-02    0.509E-02
DAV:   5    -0.879251346813E+02   -0.30569E-05   -0.39816E-05  1672   0.209E-02    0.440E-02
DAV:   6    -0.879251340847E+02    0.59664E-06   -0.45504E-06  1608   0.841E-03
  72 F= -.87925134E+02 E0= -.87925134E+02  d E =-.136448E-14
       N       E                     dE             d eps       ncg     rms          rms(c)
DAV:   1    -0.879200956070E+02    0.50391E-02   -0.41576E-01  1472   0.150E+00    0.304E-01
DAV:   2    -0.879222606600E+02   -0.21651E-02   -0.23151E-02  1696   0.418E-01    0.834E-02
DAV:   3    -0.879222205913E+02    0.40069E-04   -0.72648E-04  1952   0.928E-02    0.534E-02
DAV:   4    -0.879221949688E+02    0.25623E-04   -0.13798E-04  1624   0.353E-02    0.274E-02
DAV:   5    -0.879221965083E+02   -0.15395E-05   -0.21965E-05  1680   0.149E-02    0.208E-02
DAV:   6    -0.879221966932E+02   -0.18485E-06   -0.29469E-06  1440   0.665E-03
  73 F= -.87922197E+02 E0= -.87922197E+02  d E =-.114558E-14
       N       E                     dE             d eps       ncg     rms          rms(c)
DAV:   1    -0.879160779209E+02    0.61186E-02   -0.18868E+00  1440   0.343E+00    0.694E-01
DAV:   2    -0.879254079748E+02   -0.93301E-02   -0.10641E-01  1760   0.102E+00    0.273E-01
DAV:   3    -0.879251410988E+02    0.26688E-03   -0.34194E-03  2048   0.236E-01    0.204E-01
DAV:   4    -0.879248983744E+02    0.24272E-03   -0.98401E-04  1792   0.104E-01    0.905E-02
DAV:   5    -0.879249203520E+02   -0.21978E-04   -0.24103E-04  1776   0.495E-02    0.422E-02
DAV:   6    -0.879249209207E+02   -0.56865E-06   -0.11368E-05  1760   0.127E-02    0.278E-02
DAV:   7    -0.879249188222E+02    0.20985E-05   -0.10536E-05  1376   0.108E-02    0.108E-02
DAV:   8    -0.879249189785E+02   -0.15630E-06   -0.22295E-06  1200   0.571E-03
  74 F= -.87924919E+02 E0= -.87924919E+02  d E =-.208963E-14
       N       E                     dE             d eps       ncg     rms          rms(c)
DAV:   1    -0.879239095270E+02    0.10093E-02   -0.46293E-01  1552   0.147E+00    0.157E-01
DAV:   2    -0.879257498952E+02   -0.18404E-02   -0.19591E-02  1624   0.391E-01    0.826E-02
DAV:   3    -0.879257989829E+02   -0.49088E-04   -0.77451E-04  2168   0.905E-02    0.628E-02
DAV:   4    -0.879257770214E+02    0.21961E-04   -0.10783E-04  1640   0.307E-02    0.296E-02
DAV:   5    -0.879257800522E+02   -0.30308E-05   -0.26107E-05  1824   0.149E-02    0.100E-02
DAV:   6    -0.879257782852E+02    0.17670E-05   -0.29682E-06  1248   0.592E-03    0.597E-03
DAV:   7    -0.879257778979E+02    0.38728E-06   -0.40046E-06  1408   0.605E-03
  75 F= -.87925778E+02 E0= -.87925778E+02  d E =-.188892E-14
       N       E                     dE             d eps       ncg     rms          rms(c)
DAV:   1    -0.879227029455E+02    0.30753E-02   -0.89855E-01  1544   0.214E+00    0.359E-01
DAV:   2    -0.879259271739E+02   -0.32242E-02   -0.37323E-02  1648   0.579E-01    0.199E-01
DAV:   3    -0.879258972864E+02    0.29888E-04   -0.12567E-03  2088   0.139E-01    0.152E-01
DAV:   4    -0.879257741284E+02    0.12316E-03   -0.78268E-04  1656   0.112E-01    0.645E-02
DAV:   5    -0.879257901474E+02   -0.16019E-04   -0.15617E-04  1712   0.388E-02    0.218E-02
DAV:   6    -0.879257802662E+02    0.98811E-05   -0.13375E-05  1648   0.128E-02    0.131E-02
DAV:   7    -0.879257777613E+02    0.25049E-05   -0.23062E-05  1536   0.143E-02    0.414E-03
DAV:   8    -0.879257779044E+02   -0.14313E-06   -0.26959E-06  1360   0.609E-03
  76 F= -.87925778E+02 E0= -.87925778E+02  d E =-.185717E-14
       N       E                     dE             d eps       ncg     rms          rms(c)
DAV:   1    -0.879231077367E+02    0.26700E-02   -0.46993E-01  1584   0.146E+00    0.236E-01
DAV:   2    -0.879249606415E+02   -0.18529E-02   -0.20466E-02  1704   0.395E-01    0.127E-01
DAV:   3    -0.879249653479E+02   -0.47064E-05   -0.64755E-04  1856   0.905E-02    0.976E-02
DAV:   4    -0.879249160375E+02    0.49310E-04   -0.28943E-04  1624   0.495E-02    0.447E-02
DAV:   5    -0.879249223853E+02   -0.63478E-05   -0.59699E-05  1656   0.238E-02    0.120E-02
DAV:   6    -0.879249193145E+02    0.30709E-05   -0.47516E-06  1512   0.809E-03    0.697E-03
DAV:   7    -0.879249189416E+02    0.37282E-06   -0.58749E-06  1520   0.757E-03
  77 F= -.87924919E+02 E0= -.87924919E+02  d E =-.210082E-14
       N       E                     dE             d eps       ncg     rms          rms(c)
DAV:   1    -0.879104651082E+02    0.14454E-01   -0.20106E+00  1160   0.342E+00    0.763E-01
DAV:   2    -0.879186370376E+02   -0.81719E-02   -0.94758E-02  1360   0.913E-01    0.335E-01
DAV:   3    -0.879181228369E+02    0.51420E-03   -0.33013E-03  1688   0.204E-01    0.256E-01
DAV:   4    -0.879178537176E+02    0.26912E-03   -0.11317E-03  1400   0.111E-01    0.593E-02
DAV:   5    -0.879178397416E+02    0.13976E-04   -0.21295E-04  1408   0.486E-02    0.821E-02
DAV:   6    -0.879178327470E+02    0.69946E-05   -0.15611E-05  1384   0.141E-02    0.559E-02
DAV:   7    -0.879178237185E+02    0.90285E-05   -0.89606E-06  1360   0.123E-02    0.343E-02
DAV:   8    -0.879178188691E+02    0.48494E-05   -0.67976E-06  1304   0.113E-02    0.154E-02
DAV:   9    -0.879178177215E+02    0.11476E-05   -0.14639E-06   864   0.514E-03    0.903E-03
DAV:  10    -0.879178167762E+02    0.94537E-06   -0.57139E-07   768   0.428E-03
  78 F= -.87917817E+02 E0= -.87917817E+02  d E =-.245707E-14
       N       E                     dE             d eps       ncg     rms          rms(c)
DAV:   1    -0.879230118161E+02   -0.51941E-02   -0.24990E-01  1160   0.116E+00    0.505E-01
DAV:   2    -0.879239812352E+02   -0.96942E-03   -0.12686E-02  1392   0.342E-01    0.925E-02
DAV:   3    -0.879238615107E+02    0.11972E-03   -0.54260E-04  1560   0.801E-02    0.543E-02
DAV:   4    -0.879238451686E+02    0.16342E-04   -0.14268E-04  1296   0.331E-02    0.407E-02
DAV:   5    -0.879238453840E+02   -0.21533E-06   -0.11221E-05  1480   0.118E-02    0.262E-02
DAV:   6    -0.879238455462E+02   -0.16218E-06   -0.10020E-06   896   0.406E-03
  79 F= -.87923846E+02 E0= -.87923846E+02  d E =-.201873E-14
       N       E                     dE             d eps       ncg     rms          rms(c)
DAV:   1    -0.879206609576E+02    0.31844E-02   -0.10104E+00  1152   0.238E+00    0.110E+00
DAV:   2    -0.879245486113E+02   -0.38877E-02   -0.52139E-02  1376   0.685E-01    0.185E-01
DAV:   3    -0.879240375196E+02    0.51109E-03   -0.22798E-03  1608   0.166E-01    0.107E-01
DAV:   4    -0.879239659108E+02    0.71609E-04   -0.59486E-04  1352   0.734E-02    0.763E-02
DAV:   5    -0.879239658023E+02    0.10856E-06   -0.49712E-05  1592   0.250E-02    0.519E-02
DAV:   6    -0.879239666444E+02   -0.84209E-06   -0.49156E-06  1200   0.872E-03
  80 F= -.87923967E+02 E0= -.87923967E+02  d E =-.212483E-14
       N       E                     dE             d eps       ncg     rms          rms(c)
DAV:   1    -0.879163277251E+02    0.76381E-02   -0.25657E-01  1200   0.122E+00    0.543E-01
DAV:   2    -0.879173499920E+02   -0.10223E-02   -0.13696E-02  1368   0.355E-01    0.104E-01
DAV:   3    -0.879172089166E+02    0.14108E-03   -0.60607E-04  1504   0.844E-02    0.574E-02
DAV:   4    -0.879171902434E+02    0.18673E-04   -0.17345E-04  1288   0.361E-02    0.391E-02
DAV:   5    -0.879171910478E+02   -0.80446E-06   -0.13086E-05  1456   0.127E-02    0.284E-02
DAV:   6    -0.879171913401E+02   -0.29226E-06   -0.94920E-07   856   0.381E-03
  81 F= -.87917191E+02 E0= -.87917191E+02  d E =-.306197E-14
       N       E                     dE             d eps       ncg     rms          rms(c)
DAV:   1    -0.879170278729E+02    0.16317E-03   -0.20322E+00  1184   0.337E+00    0.988E-01
DAV:   2    -0.879257779628E+02   -0.87501E-02   -0.10374E-01  1336   0.937E-01    0.373E-01
DAV:   3    -0.879250823666E+02    0.69560E-03   -0.38896E-03  1584   0.213E-01    0.266E-01
DAV:   4    -0.879248125445E+02    0.26982E-03   -0.18255E-03  1296   0.123E-01    0.702E-02
DAV:   5    -0.879248245181E+02   -0.11974E-04   -0.39441E-04  1336   0.637E-02    0.102E-01
DAV:   6    -0.879248255771E+02   -0.10590E-05   -0.18220E-05  1344   0.152E-02    0.608E-02
DAV:   7    -0.879248223594E+02    0.32177E-05   -0.82627E-06  1192   0.961E-03    0.471E-02
DAV:   8    -0.879248221447E+02    0.21472E-06   -0.67525E-06  1280   0.745E-03
  82 F= -.87924822E+02 E0= -.87924822E+02  d E =-.845130E-14
       N       E                     dE             d eps       ncg     rms          rms(c)
DAV:   1    -0.879248671360E+02   -0.44777E-04   -0.25666E-01  1176   0.112E+00    0.222E-01
DAV:   2    -0.879258284257E+02   -0.96129E-03   -0.11247E-02  1328   0.308E-01    0.118E-01
DAV:   3    -0.879258179503E+02    0.10475E-04   -0.35915E-04  1472   0.697E-02    0.867E-02
DAV:   4    -0.879257793407E+02    0.38610E-04   -0.16754E-04  1304   0.390E-02    0.410E-02
DAV:   5    -0.879257847155E+02   -0.53748E-05   -0.49564E-05  1392   0.205E-02    0.109E-02
DAV:   6    -0.879257830160E+02    0.16995E-05   -0.34655E-06  1136   0.632E-03    0.721E-03
DAV:   7    -0.879257827839E+02    0.23209E-06   -0.22752E-06   968   0.435E-03
  83 F= -.87925783E+02 E0= -.87925783E+02  d E =-.367928E-14
       N       E                     dE             d eps       ncg     rms          rms(c)
DAV:   1    -0.879218960140E+02    0.38870E-02   -0.10266E+00  1176   0.225E+00    0.478E-01
DAV:   2    -0.879257359581E+02   -0.38399E-02   -0.44853E-02  1320   0.621E-01    0.238E-01
DAV:   3    -0.879256945405E+02    0.41418E-04   -0.14644E-03  1464   0.142E-01    0.175E-01
DAV:   4    -0.879255417987E+02    0.15274E-03   -0.73318E-04  1304   0.934E-02    0.770E-02
DAV:   5    -0.879255634358E+02   -0.21637E-04   -0.20385E-04  1432   0.439E-02    0.238E-02
DAV:   6    -0.879255566252E+02    0.68106E-05   -0.11152E-05  1304   0.119E-02    0.169E-02
DAV:   7    -0.879255548327E+02    0.17924E-05   -0.12342E-05  1224   0.938E-03    0.425E-03
DAV:   8    -0.879255549642E+02   -0.13146E-06   -0.10305E-06   856   0.416E-03
  84 F= -.87925555E+02 E0= -.87925555E+02  d E =-.110641E-14
       N       E                     dE             d eps       ncg     rms          rms(c)
DAV:   1    -0.879232552335E+02    0.22996E-02   -0.25693E-01  1160   0.113E+00    0.210E-01
DAV:   2    -0.879242192275E+02   -0.96399E-03   -0.11233E-02  1344   0.310E-01    0.116E-01
DAV:   3    -0.879242079852E+02    0.11242E-04   -0.35562E-04  1392   0.705E-02    0.858E-02
DAV:   4    -0.879241682749E+02    0.39710E-04   -0.15270E-04  1312   0.395E-02    0.426E-02
DAV:   5    -0.879241735512E+02   -0.52763E-05   -0.51364E-05  1424   0.204E-02    0.103E-02
DAV:   6    -0.879241718435E+02    0.17077E-05   -0.48034E-06  1200   0.692E-03    0.715E-03
DAV:   7    -0.879241717601E+02    0.83412E-07   -0.15421E-06   896   0.381E-03
  85 F= -.87924172E+02 E0= -.87924172E+02  d E =-.770318E-15
       N       E                     dE             d eps       ncg     rms          rms(c)
DAV:   1    -0.879160346286E+02    0.81372E-02   -0.20177E+00  1440   0.334E+00    0.559E-01
DAV:   2    -0.879251191150E+02   -0.90845E-02   -0.10369E-01  1736   0.994E-01    0.293E-01
DAV:   3    -0.879250623834E+02    0.56732E-04   -0.34387E-03  2000   0.241E-01    0.233E-01
DAV:   4    -0.879247537164E+02    0.30867E-03   -0.10655E-03  1648   0.115E-01    0.116E-01
DAV:   5    -0.879247871669E+02   -0.33451E-04   -0.37600E-04  1832   0.587E-02    0.270E-02
DAV:   6    -0.879247766097E+02    0.10557E-04   -0.37640E-05  1624   0.203E-02    0.182E-02
DAV:   7    -0.879247767627E+02   -0.15293E-06   -0.10182E-05  1560   0.114E-02    0.636E-03
DAV:   8    -0.879247766015E+02    0.16110E-06   -0.34584E-06  1280   0.571E-03
  86 F= -.87924777E+02 E0= -.87924777E+02  d E =-.172203E-14
       N       E                     dE             d eps       ncg     rms          rms(c)
DAV:   1    -0.879239270217E+02    0.84974E-03   -0.46168E-01  1544   0.144E+00    0.153E-01
DAV:   2    -0.879256824758E+02   -0.17555E-02   -0.18685E-02  1688   0.390E-01    0.773E-02
DAV:   3    -0.879257304975E+02   -0.48022E-04   -0.75014E-04  2208   0.875E-02    0.588E-02
DAV:   4    -0.879257106119E+02    0.19886E-04   -0.87656E-05  1648   0.289E-02    0.270E-02
DAV:   5    -0.879257129701E+02   -0.23582E-05   -0.22033E-05  1784   0.142E-02    0.944E-03
DAV:   6    -0.879257115977E+02    0.13724E-05   -0.24523E-06  1208   0.565E-03    0.579E-03
DAV:   7    -0.879257113319E+02    0.26581E-06   -0.32044E-06  1360   0.576E-03
  87 F= -.87925711E+02 E0= -.87925711E+02  d E =-.168809E-14
       N       E                     dE             d eps       ncg     rms          rms(c)
DAV:   1    -0.879228484407E+02    0.28632E-02   -0.90650E-01  1528   0.212E+00    0.332E-01
DAV:   2    -0.879258342898E+02   -0.29858E-02   -0.34305E-02  1656   0.578E-01    0.182E-01
DAV:   3    -0.879258193293E+02    0.14961E-04   -0.12356E-03  2056   0.140E-01    0.139E-01
DAV:   4    -0.879257060950E+02    0.11323E-03   -0.65401E-04  1576   0.105E-01    0.601E-02
DAV:   5    -0.879257212093E+02   -0.15114E-04   -0.13905E-04  1752   0.385E-02    0.206E-02
DAV:   6    -0.879257131923E+02    0.80170E-05   -0.11348E-05  1648   0.121E-02    0.123E-02
DAV:   7    -0.879257112134E+02    0.19789E-05   -0.17524E-05  1528   0.127E-02    0.357E-03
DAV:   8    -0.879257113447E+02   -0.13130E-06   -0.19642E-06  1264   0.540E-03
  88 F= -.87925711E+02 E0= -.87925711E+02  d E =-.167621E-14
       N       E                     dE             d eps       ncg     rms          rms(c)
DAV:   1    -0.879230414160E+02    0.26698E-02   -0.46976E-01  1568   0.144E+00    0.224E-01
DAV:   2    -0.879248063635E+02   -0.17649E-02   -0.19308E-02  1704   0.395E-01    0.118E-01
DAV:   3    -0.879248200798E+02   -0.13716E-04   -0.66212E-04  1912   0.912E-02    0.917E-02
DAV:   4    -0.879247731655E+02    0.46914E-04   -0.24374E-04  1624   0.479E-02    0.449E-02
DAV:   5    -0.879247799945E+02   -0.68290E-05   -0.57547E-05  1744   0.229E-02    0.114E-02
DAV:   6    -0.879247769009E+02    0.30936E-05   -0.53774E-06  1456   0.788E-03    0.594E-03
DAV:   7    -0.879247766140E+02    0.28686E-06   -0.48579E-06  1528   0.625E-03
  89 F= -.87924777E+02 E0= -.87924777E+02  d E =-.171821E-14
       N       E                     dE             d eps       ncg     rms          rms(c)
DAV:   1    -0.879129403161E+02    0.11837E-01   -0.20104E+00  1152   0.339E+00    0.627E-01
DAV:   2    -0.879209452619E+02   -0.80049E-02   -0.90270E-02  1344   0.915E-01    0.303E-01
DAV:   3    -0.879207043009E+02    0.24096E-03   -0.30382E-03  1752   0.203E-01    0.228E-01
DAV:   4    -0.879204427928E+02    0.26151E-03   -0.10432E-03  1336   0.977E-02    0.520E-02
DAV:   5    -0.879204357380E+02    0.70549E-05   -0.22053E-04  1456   0.484E-02    0.743E-02
DAV:   6    -0.879204281096E+02    0.76283E-05   -0.16897E-05  1408   0.149E-02    0.499E-02
DAV:   7    -0.879204172926E+02    0.10817E-04   -0.15888E-05  1264   0.167E-02    0.295E-02
DAV:   8    -0.879204143737E+02    0.29189E-05   -0.77094E-06  1432   0.116E-02    0.133E-02
DAV:   9    -0.879204135066E+02    0.86704E-06   -0.91719E-07   808   0.433E-03
  90 F= -.87920414E+02 E0= -.87920414E+02  d E =-.150210E-14
       N       E                     dE             d eps       ncg     rms          rms(c)
DAV:   1    -0.879237112295E+02   -0.32969E-02   -0.24859E-01  1152   0.118E+00    0.393E-01
DAV:   2    -0.879247185632E+02   -0.10073E-02   -0.12198E-02  1360   0.341E-01    0.102E-01
DAV:   3    -0.879246424069E+02    0.76156E-04   -0.44997E-04  1528   0.771E-02    0.610E-02
DAV:   4    -0.879246216092E+02    0.20798E-04   -0.13939E-04  1288   0.350E-02    0.304E-02
DAV:   5    -0.879246233965E+02   -0.17873E-05   -0.17608E-05  1384   0.146E-02    0.313E-02
DAV:   6    -0.879246242530E+02   -0.85648E-06   -0.19985E-06   984   0.522E-03
  91 F= -.87924624E+02 E0= -.87924624E+02  d E =-.158337E-14
       N       E                     dE             d eps       ncg     rms          rms(c)
DAV:   1    -0.879208288397E+02    0.37946E-02   -0.10014E+00  1152   0.239E+00    0.863E-01
DAV:   2    -0.879248984605E+02   -0.40696E-02   -0.49683E-02  1368   0.672E-01    0.201E-01
DAV:   3    -0.879245882025E+02    0.31026E-03   -0.19275E-03  1560   0.156E-01    0.119E-01
DAV:   4    -0.879245032180E+02    0.84984E-04   -0.59489E-04  1336   0.708E-02    0.582E-02
DAV:   5    -0.879245109137E+02   -0.76957E-05   -0.72869E-05  1376   0.304E-02    0.633E-02
DAV:   6    -0.879245143600E+02   -0.34463E-05   -0.83638E-06  1312   0.989E-03    0.356E-02
DAV:   7    -0.879245096041E+02    0.47559E-05   -0.22734E-05  1216   0.149E-02    0.183E-02
DAV:   8    -0.879245100527E+02   -0.44858E-06   -0.41731E-06  1208   0.703E-03
  92 F= -.87924510E+02 E0= -.87924510E+02  d E =-.202630E-14
       N       E                     dE             d eps       ncg     rms          rms(c)
DAV:   1    -0.879189644055E+02    0.55452E-02   -0.25074E-01  1184   0.120E+00    0.435E-01
DAV:   2    -0.879199761397E+02   -0.10117E-02   -0.12411E-02  1344   0.335E-01    0.104E-01
DAV:   3    -0.879198935977E+02    0.82542E-04   -0.48839E-04  1472   0.776E-02    0.601E-02
DAV:   4    -0.879198732724E+02    0.20325E-04   -0.14965E-04  1256   0.352E-02    0.307E-02
DAV:   5    -0.879198753171E+02   -0.20447E-05   -0.17220E-05  1408   0.142E-02    0.308E-02
DAV:   6    -0.879198762234E+02   -0.90631E-06   -0.16032E-06   936   0.464E-03
  93 F= -.87919876E+02 E0= -.87919876E+02  d E =-.262030E-14
       N       E                     dE             d eps       ncg     rms          rms(c)
DAV:   1    -0.879158888931E+02    0.39864E-02   -0.20425E+00  1168   0.322E+00    0.579E-01
DAV:   2    -0.879233910957E+02   -0.75022E-02   -0.87842E-02  1400   0.884E-01    0.319E-01
DAV:   3    -0.879232835590E+02    0.10754E-03   -0.27515E-03  1520   0.203E-01    0.242E-01
DAV:   4    -0.879229973973E+02    0.28616E-03   -0.96178E-04  1328   0.937E-02    0.116E-01
DAV:   5    -0.879230270005E+02   -0.29603E-04   -0.32969E-04  1472   0.495E-02    0.288E-02
DAV:   6    -0.879230187730E+02    0.82275E-05   -0.22607E-05  1312   0.148E-02    0.212E-02
DAV:   7    -0.879230165592E+02    0.22138E-05   -0.13052E-05  1272   0.982E-03    0.730E-03
DAV:   8    -0.879230165066E+02    0.52546E-07   -0.93674E-07   808   0.381E-03
  94 F= -.87923017E+02 E0= -.87923017E+02  d E =-.458165E-15
       N       E                     dE             d eps       ncg     rms          rms(c)
DAV:   1    -0.879246726330E+02   -0.16561E-02   -0.25361E-01  1160   0.118E+00    0.304E-01
DAV:   2    -0.879257239115E+02   -0.10513E-02   -0.12624E-02  1376   0.342E-01    0.124E-01
DAV:   3    -0.879256634456E+02    0.60466E-04   -0.48056E-04  1712   0.826E-02    0.925E-02
DAV:   4    -0.879256266882E+02    0.36757E-04   -0.22211E-04  1304   0.419E-02    0.313E-02
DAV:   5    -0.879256288123E+02   -0.21241E-05   -0.42971E-05  1336   0.203E-02    0.290E-02
DAV:   6    -0.879256286971E+02    0.11520E-06   -0.17417E-06   976   0.549E-03
  95 F= -.87925629E+02 E0= -.87925629E+02  d E =-.865771E-15
       N       E                     dE             d eps       ncg     rms          rms(c)
[...]
       N       E                     dE             d eps       ncg     rms          rms(c)
DAV:   1    -0.879191251229E+02    0.50368E-02   -0.25642E-01  1176   0.119E+00    0.357E-01
DAV:   2    -0.879201435648E+02   -0.10184E-02   -0.12181E-02  1384   0.337E-01    0.107E-01
DAV:   3    -0.879200748857E+02    0.68679E-04   -0.45545E-04  1624   0.804E-02    0.699E-02
DAV:   4    -0.879200475542E+02    0.27332E-04   -0.16994E-04  1296   0.368E-02    0.302E-02
DAV:   5    -0.879200496836E+02   -0.21295E-05   -0.27380E-05  1344   0.165E-02    0.252E-02
DAV:   6    -0.879200493569E+02    0.32678E-06   -0.11628E-06   856   0.447E-03
  97 F= -.87920049E+02 E0= -.87920049E+02  d E =-.168430E-13
       N       E                     dE             d eps       ncg     rms          rms(c)
DAV:   1    -0.879162220437E+02    0.38276E-02   -0.19933E+00  1456   0.339E+00    0.830E-01
DAV:   2    -0.879252771690E+02   -0.90551E-02   -0.10535E-01  1712   0.101E+00    0.294E-01
DAV:   3    -0.879249748127E+02    0.30236E-03   -0.35861E-03  2096   0.241E-01    0.219E-01
DAV:   4    -0.879247278543E+02    0.24696E-03   -0.12632E-03  1624   0.108E-01    0.894E-02
DAV:   5    -0.879247515511E+02   -0.23697E-04   -0.24749E-04  1760   0.525E-02    0.549E-02
DAV:   6    -0.879247530890E+02   -0.15379E-05   -0.14797E-05  1824   0.146E-02    0.369E-02
DAV:   7    -0.879247470254E+02    0.60636E-05   -0.26998E-05  1456   0.151E-02    0.167E-02
DAV:   8    -0.879247476888E+02   -0.66341E-06   -0.68130E-06  1552   0.781E-03
  98 F= -.87924748E+02 E0= -.87924748E+02  d E =-.164370E-14
       N       E                     dE             d eps       ncg     rms          rms(c)
DAV:   1    -0.879238337799E+02    0.91325E-03   -0.46460E-01  1528   0.146E+00    0.153E-01
DAV:   2    -0.879256753592E+02   -0.18416E-02   -0.19496E-02  1672   0.389E-01    0.823E-02
DAV:   3    -0.879257238019E+02   -0.48443E-04   -0.74661E-04  2088   0.850E-02    0.608E-02
DAV:   4    -0.879257040239E+02    0.19778E-04   -0.95148E-05  1648   0.284E-02    0.301E-02
DAV:   5    -0.879257066518E+02   -0.26278E-05   -0.23462E-05  1752   0.142E-02    0.856E-03
DAV:   6    -0.879257052049E+02    0.14469E-05   -0.30103E-06  1232   0.602E-03    0.481E-03
DAV:   7    -0.879257050120E+02    0.19287E-06   -0.24787E-06  1304   0.511E-03
  99 F= -.87925705E+02 E0= -.87925705E+02  d E =-.163814E-14
       N       E                     dE             d eps       ncg     rms          rms(c)
DAV:   1    -0.879226689482E+02    0.30363E-02   -0.90433E-01  1488   0.213E+00    0.345E-01
DAV:   2    -0.879258477940E+02   -0.31788E-02   -0.36163E-02  1664   0.577E-01    0.201E-01
DAV:   3    -0.879258188232E+02    0.28971E-04   -0.11584E-03  2000   0.130E-01    0.149E-01
DAV:   4    -0.879256973701E+02    0.12145E-03   -0.65619E-04  1624   0.930E-02    0.687E-02
DAV:   5    -0.879257141278E+02   -0.16758E-04   -0.14355E-04  1744   0.368E-02    0.192E-02
DAV:   6    -0.879257065813E+02    0.75465E-05   -0.11759E-05  1640   0.119E-02    0.112E-02
DAV:   7    -0.879257048975E+02    0.16838E-05   -0.16278E-05  1528   0.117E-02    0.356E-03
DAV:   8    -0.879257050200E+02   -0.12252E-06   -0.17999E-06  1288   0.507E-03
 100 F= -.87925705E+02 E0= -.87925705E+02  d E =-.162644E-14
       N       E                     dE             d eps       ncg     rms          rms(c)
DAV:   1    -0.879229156843E+02    0.27892E-02   -0.47158E-01  1568   0.145E+00    0.233E-01
DAV:   2    -0.879247888320E+02   -0.18731E-02   -0.20466E-02  1736   0.395E-01    0.130E-01
DAV:   3    -0.879247924255E+02   -0.35935E-05   -0.62856E-04  1840   0.853E-02    0.970E-02
DAV:   4    -0.879247439544E+02    0.48471E-04   -0.27066E-04  1616   0.476E-02    0.466E-02
DAV:   5    -0.879247502663E+02   -0.63118E-05   -0.56208E-05  1728   0.225E-02    0.119E-02
DAV:   6    -0.879247478786E+02    0.23877E-05   -0.37334E-06  1472   0.683E-03    0.717E-03
DAV:   7    -0.879247474461E+02    0.43248E-06   -0.54089E-06  1520   0.649E-03
 101 F= -.87924747E+02 E0= -.87924747E+02  d E =-.165402E-14
       N       E                     dE             d eps       ncg     rms          rms(c)
DAV:   1    -0.879144653210E+02    0.10283E-01   -0.20391E+00  1152   0.331E+00    0.771E-01
DAV:   2    -0.879218246647E+02   -0.73593E-02   -0.83574E-02  1312   0.888E-01    0.214E-01
DAV:   3    -0.879216566276E+02    0.16804E-03   -0.28318E-03  1728   0.189E-01    0.158E-01
DAV:   4    -0.879214642002E+02    0.19243E-03   -0.69969E-04  1320   0.867E-02    0.609E-02
DAV:   5    -0.879214516415E+02    0.12559E-04   -0.15235E-04  1416   0.420E-02    0.596E-02
DAV:   6    -0.879214436138E+02    0.80277E-05   -0.20244E-05  1480   0.160E-02    0.389E-02
DAV:   7    -0.879214368928E+02    0.67210E-05   -0.18309E-05  1232   0.141E-02    0.193E-02
DAV:   8    -0.879214346640E+02    0.22288E-05   -0.66697E-06  1328   0.917E-03    0.563E-03
DAV:   9    -0.879214339494E+02    0.71451E-06   -0.78698E-07   768   0.368E-03
 102 F= -.87921434E+02 E0= -.87921434E+02  d E =-.163690E-14
       N       E                     dE             d eps       ncg     rms          rms(c)
DAV:   1    -0.879237568288E+02   -0.23222E-02   -0.25557E-01  1152   0.116E+00    0.303E-01
DAV:   2    -0.879248496157E+02   -0.10928E-02   -0.13025E-02  1328   0.333E-01    0.124E-01
DAV:   3    -0.879247899837E+02    0.59632E-04   -0.42002E-04  1544   0.745E-02    0.914E-02
DAV:   4    -0.879247527226E+02    0.37261E-04   -0.20412E-04  1248   0.431E-02    0.298E-02
DAV:   5    -0.879247552143E+02   -0.24917E-05   -0.41553E-05  1288   0.209E-02    0.308E-02
DAV:   6    -0.879247550201E+02    0.19418E-06   -0.15027E-06  1008   0.502E-03
 103 F= -.87924755E+02 E0= -.87924755E+02  d E =-.162254E-14
       N       E                     dE             d eps       ncg     rms          rms(c)
DAV:   1    -0.879212979193E+02    0.34573E-02   -0.10183E+00  1152   0.233E+00    0.584E-01
DAV:   2    -0.879256747496E+02   -0.43768E-02   -0.51851E-02  1336   0.645E-01    0.263E-01
DAV:   3    -0.879254460184E+02    0.22873E-03   -0.16067E-03  1600   0.144E-01    0.202E-01
DAV:   4    -0.879253003493E+02    0.14567E-03   -0.83132E-04  1320   0.880E-02    0.571E-02
DAV:   5    -0.879253108989E+02   -0.10550E-04   -0.16564E-04  1368   0.419E-02    0.588E-02
DAV:   6    -0.879253110933E+02   -0.19438E-06   -0.68012E-06  1416   0.897E-03
 104 F= -.87925311E+02 E0= -.87925311E+02  d E =-.243856E-14
       N       E                     dE             d eps       ncg     rms          rms(c)
DAV:   1    -0.879216361557E+02    0.36747E-02   -0.25515E-01  1152   0.116E+00    0.310E-01
DAV:   2    -0.879227257643E+02   -0.10896E-02   -0.12916E-02  1336   0.319E-01    0.126E-01
DAV:   3    -0.879226658922E+02    0.59872E-04   -0.39652E-04  1568   0.708E-02    0.916E-02
DAV:   4    -0.879226348730E+02    0.31019E-04   -0.21071E-04  1248   0.405E-02    0.252E-02
DAV:   5    -0.879226366189E+02   -0.17459E-05   -0.41891E-05  1312   0.207E-02    0.297E-02
DAV:   6    -0.879226366588E+02   -0.39925E-07   -0.15501E-06  1056   0.485E-03
 105 F= -.87922637E+02 E0= -.87922637E+02  d E =-.376518E-14
       N       E                     dE             d eps       ncg     rms          rms(c)
DAV:   1    -0.879121439040E+02    0.10493E-01   -0.20536E+00  1160   0.309E+00    0.625E-01
DAV:   2    -0.879200479521E+02   -0.79040E-02   -0.93882E-02  1344   0.848E-01    0.369E-01
DAV:   3    -0.879199622682E+02    0.85684E-04   -0.30570E-03  1528   0.199E-01    0.281E-01
DAV:   4    -0.879196447906E+02    0.31748E-03   -0.16261E-03  1304   0.107E-01    0.121E-01
DAV:   5    -0.879196836254E+02   -0.38835E-04   -0.35667E-04  1304   0.526E-02    0.363E-02
DAV:   6    -0.879196735861E+02    0.10039E-04   -0.15668E-05  1472   0.140E-02    0.243E-02
DAV:   7    -0.879196659743E+02    0.76117E-05   -0.34350E-05  1264   0.149E-02    0.897E-03
DAV:   8    -0.879196666124E+02   -0.63811E-06   -0.56274E-06  1200   0.737E-03
 106 F= -.87919667E+02 E0= -.87919667E+02  d E =-.266815E-13
       N       E                     dE             d eps       ncg     rms          rms(c)
DAV:   1    -0.879237310276E+02   -0.40651E-02   -0.25683E-01  1160   0.117E+00    0.446E-01
DAV:   2    -0.879246533054E+02   -0.92228E-03   -0.12138E-02  1464   0.355E-01    0.998E-02
DAV:   3    -0.879245515965E+02    0.10171E-03   -0.54930E-04  1568   0.835E-02    0.606E-02
DAV:   4    -0.879245323534E+02    0.19243E-04   -0.14677E-04  1328   0.339E-02    0.383E-02
DAV:   5    -0.879245334227E+02   -0.10693E-05   -0.14632E-05  1448   0.125E-02    0.277E-02
DAV:   6    -0.879245332573E+02    0.16538E-06   -0.89831E-07   864   0.380E-03
 107 F= -.87924533E+02 E0= -.87924533E+02  d E =-.677176E-14
       N       E                     dE             d eps       ncg     rms          rms(c)
DAV:   1    -0.879208116068E+02    0.37218E-02   -0.10369E+00  1168   0.239E+00    0.958E-01
DAV:   2    -0.879245028583E+02   -0.36913E-02   -0.49403E-02  1408   0.697E-01    0.204E-01
DAV:   3    -0.879240752752E+02    0.42758E-03   -0.22628E-03  1624   0.169E-01    0.127E-01
DAV:   4    -0.879239943986E+02    0.80877E-04   -0.60197E-04  1344   0.759E-02    0.748E-02
DAV:   5    -0.879239978428E+02   -0.34442E-05   -0.66083E-05  1560   0.278E-02    0.528E-02
DAV:   6    -0.879239966572E+02    0.11856E-05   -0.59745E-06  1320   0.941E-03    0.359E-02
DAV:   7    -0.879239952492E+02    0.14080E-05   -0.59276E-06  1176   0.806E-03    0.788E-03
DAV:   8    -0.879239952119E+02    0.37371E-07   -0.15095E-06   896   0.432E-03
 108 F= -.87923995E+02 E0= -.87923995E+02  d E =-.700734E-15
       N       E                     dE             d eps       ncg     rms          rms(c)
DAV:   1    -0.879175071860E+02    0.64881E-02   -0.26002E-01  1160   0.121E+00    0.470E-01
DAV:   2    -0.879184513764E+02   -0.94419E-03   -0.12645E-02  1400   0.355E-01    0.110E-01
DAV:   3    -0.879183398500E+02    0.11153E-03   -0.58989E-04  1640   0.851E-02    0.656E-02
DAV:   4    -0.879183182027E+02    0.21647E-04   -0.16202E-04  1320   0.358E-02    0.391E-02
DAV:   5    -0.879183197240E+02   -0.15213E-05   -0.18028E-05  1504   0.143E-02    0.282E-02
DAV:   6    -0.879183193363E+02    0.38764E-06   -0.13712E-06   920   0.469E-03
 109 F= -.87918319E+02 E0= -.87918319E+02  d E =-.295446E-15
       N       E                     dE             d eps       ncg     rms          rms(c)
DAV:   1    -0.879167086740E+02    0.16110E-02   -0.20062E+00  1488   0.346E+00    0.895E-01
DAV:   2    -0.879257417710E+02   -0.90331E-02   -0.11067E-01  1728   0.104E+00    0.345E-01
DAV:   3    -0.879252841155E+02    0.45766E-03   -0.42219E-03  2064   0.264E-01    0.257E-01
DAV:   4    -0.879250126165E+02    0.27150E-03   -0.15952E-03  1648   0.121E-01    0.827E-02
DAV:   5    -0.879250316621E+02   -0.19046E-04   -0.29407E-04  1744   0.592E-02    0.730E-02
DAV:   6    -0.879250338499E+02   -0.21878E-05   -0.17920E-05  1744   0.163E-02    0.501E-02
DAV:   7    -0.879250281331E+02    0.57169E-05   -0.20407E-05  1464   0.142E-02    0.319E-02
DAV:   8    -0.879250284099E+02   -0.27685E-06   -0.64826E-06  1632   0.796E-03
 110 F= -.87925028E+02 E0= -.87925028E+02  d E =-.237543E-14
       N       E                     dE             d eps       ncg     rms          rms(c)
DAV:   1    -0.879239988949E+02    0.10292E-02   -0.46137E-01  1560   0.145E+00    0.145E-01
DAV:   2    -0.879257789303E+02   -0.17800E-02   -0.18939E-02  1672   0.381E-01    0.748E-02
DAV:   3    -0.879258208167E+02   -0.41886E-04   -0.67317E-04  2232   0.844E-02    0.572E-02
DAV:   4    -0.879258022332E+02    0.18583E-04   -0.92575E-05  1616   0.290E-02    0.252E-02
DAV:   5    -0.879258046861E+02   -0.24529E-05   -0.21536E-05  1736   0.137E-02    0.959E-03
DAV:   6    -0.879258030301E+02    0.16560E-05   -0.29830E-06  1248   0.609E-03    0.546E-03
DAV:   7    -0.879258028120E+02    0.21811E-06   -0.32686E-06  1384   0.556E-03
 111 F= -.87925803E+02 E0= -.87925803E+02  d E =-.200717E-14
       N       E                     dE             d eps       ncg     rms          rms(c)
DAV:   1    -0.879229416926E+02    0.28613E-02   -0.90313E-01  1552   0.212E+00    0.318E-01
DAV:   2    -0.879259295934E+02   -0.29879E-02   -0.34466E-02  1664   0.563E-01    0.178E-01
DAV:   3    -0.879259078380E+02    0.21755E-04   -0.11251E-03  2024   0.132E-01    0.137E-01
DAV:   4    -0.879258000908E+02    0.10775E-03   -0.67671E-04  1616   0.100E-01    0.568E-02
DAV:   5    -0.879258137427E+02   -0.13652E-04   -0.13243E-04  1712   0.366E-02    0.206E-02
DAV:   6    -0.879258046826E+02    0.90601E-05   -0.12793E-05  1664   0.123E-02    0.117E-02
DAV:   7    -0.879258027014E+02    0.19812E-05   -0.19673E-05  1536   0.127E-02    0.367E-03
DAV:   8    -0.879258028170E+02   -0.11563E-06   -0.22744E-06  1336   0.559E-03
 112 F= -.87925803E+02 E0= -.87925803E+02  d E =-.198237E-14
       N       E                     dE             d eps       ncg     rms          rms(c)
DAV:   1    -0.879232046010E+02    0.25981E-02   -0.46784E-01  1552   0.145E+00    0.219E-01
DAV:   2    -0.879250648006E+02   -0.18602E-02   -0.20378E-02  1672   0.389E-01    0.119E-01
DAV:   3    -0.879250720167E+02   -0.72162E-05   -0.61298E-04  1840   0.892E-02    0.922E-02
DAV:   4    -0.879250258254E+02    0.46191E-04   -0.28051E-04  1632   0.481E-02    0.425E-02
DAV:   5    -0.879250322242E+02   -0.63989E-05   -0.58014E-05  1728   0.233E-02    0.114E-02
DAV:   6    -0.879250288407E+02    0.33835E-05   -0.51009E-06  1560   0.765E-03    0.600E-03
DAV:   7    -0.879250282649E+02    0.57580E-06   -0.64043E-06  1520   0.681E-03
 113 F= -.87925028E+02 E0= -.87925028E+02  d E =-.237478E-14
       N       E                     dE             d eps       ncg     rms          rms(c)
DAV:   1    -0.879112378886E+02    0.13791E-01   -0.20263E+00  1192   0.338E+00    0.121E+00
DAV:   2    -0.879183574078E+02   -0.71195E-02   -0.85857E-02  1376   0.892E-01    0.182E-01
DAV:   3    -0.879178769719E+02    0.48044E-03   -0.34281E-03  1656   0.210E-01    0.134E-01
DAV:   4    -0.879177283473E+02    0.14862E-03   -0.61059E-04  1368   0.748E-02    0.676E-02
DAV:   5    -0.879176884509E+02    0.39896E-04   -0.11657E-04  1488   0.379E-02    0.340E-02
DAV:   6    -0.879176820603E+02    0.63906E-05   -0.25106E-05  1536   0.172E-02    0.352E-02
DAV:   7    -0.879176761493E+02    0.59110E-05   -0.63089E-06  1336   0.106E-02    0.141E-02
DAV:   8    -0.879176725758E+02    0.35735E-05   -0.51164E-06  1224   0.105E-02    0.229E-03
DAV:   9    -0.879176711349E+02    0.14409E-05   -0.16782E-06   912   0.708E-03    0.336E-03
DAV:  10    -0.879176702494E+02    0.88555E-06   -0.10252E-06   816   0.572E-03
 114 F= -.87917670E+02 E0= -.87917670E+02  d E =-.141614E-14
       N       E                     dE             d eps       ncg     rms          rms(c)
DAV:   1    -0.879230637031E+02   -0.53926E-02   -0.25334E-01  1200   0.120E+00    0.439E-01
DAV:   2    -0.879240517788E+02   -0.98808E-03   -0.13215E-02  1376   0.362E-01    0.122E-01
DAV:   3    -0.879239329078E+02    0.11887E-03   -0.60772E-04  1616   0.885E-02    0.752E-02
DAV:   4    -0.879239088065E+02    0.24101E-04   -0.17991E-04  1312   0.373E-02    0.418E-02
DAV:   5    -0.879239094483E+02   -0.64180E-06   -0.16041E-05  1384   0.136E-02    0.315E-02
DAV:   6    -0.879239094391E+02    0.92168E-08   -0.79737E-07   832   0.396E-03
 115 F= -.87923909E+02 E0= -.87923909E+02  d E =-.150243E-14
       N       E                     dE             d eps       ncg     rms          rms(c)
DAV:   1    -0.879209509191E+02    0.29585E-02   -0.10097E+00  1216   0.241E+00    0.830E-01
DAV:   2    -0.879250511413E+02   -0.41002E-02   -0.53162E-02  1408   0.705E-01    0.254E-01
DAV:   3    -0.879245819365E+02    0.46920E-03   -0.22436E-03  1672   0.176E-01    0.163E-01
DAV:   4    -0.879244820370E+02    0.99900E-04   -0.72748E-04  1392   0.789E-02    0.716E-02
DAV:   5    -0.879244852344E+02   -0.31974E-05   -0.70825E-05  1360   0.287E-02    0.598E-02
DAV:   6    -0.879244869459E+02   -0.17115E-05   -0.53495E-06  1408   0.870E-03    0.297E-02
DAV:   7    -0.879244831888E+02    0.37571E-05   -0.16071E-05  1232   0.123E-02    0.248E-02
DAV:   8    -0.879244834859E+02   -0.29706E-06   -0.36084E-06  1184   0.584E-03
 116 F= -.87924483E+02 E0= -.87924483E+02  d E =-.287069E-14
       N       E                     dE             d eps       ncg     rms          rms(c)
DAV:   1    -0.879186485662E+02    0.58346E-02   -0.25015E-01  1176   0.119E+00    0.453E-01
DAV:   2    -0.879196148766E+02   -0.96631E-03   -0.12583E-02  1440   0.345E-01    0.102E-01
DAV:   3    -0.879195006930E+02    0.11418E-03   -0.54576E-04  1568   0.825E-02    0.585E-02
DAV:   4    -0.879194817346E+02    0.18958E-04   -0.14194E-04  1336   0.327E-02    0.376E-02
DAV:   5    -0.879194817867E+02   -0.52143E-07   -0.12590E-05  1528   0.119E-02    0.237E-02
DAV:   6    -0.879194815268E+02    0.25987E-06   -0.83059E-07   864   0.350E-03
 117 F= -.87919482E+02 E0= -.87919482E+02  d E =-.516705E-14
       N       E                     dE             d eps       ncg     rms          rms(c)
DAV:   1    -0.879169330645E+02    0.25487E-02   -0.20084E+00  1152   0.331E+00    0.159E+00
DAV:   2    -0.879247295102E+02   -0.77964E-02   -0.10017E-01  1384   0.920E-01    0.238E-01
DAV:   3    -0.879238942476E+02    0.83526E-03   -0.39152E-03  1624   0.211E-01    0.156E-01
DAV:   4    -0.879237217783E+02    0.17247E-03   -0.11181E-03  1384   0.925E-02    0.887E-02
DAV:   5    -0.879237248576E+02   -0.30793E-05   -0.10916E-04  1480   0.353E-02    0.734E-02
DAV:   6    -0.879237257128E+02   -0.85522E-06   -0.86191E-06  1424   0.102E-02
 118 F= -.87923726E+02 E0= -.87923726E+02  d E =-.826148E-15
       N       E                     dE             d eps       ncg     rms          rms(c)
DAV:   1    -0.879246350989E+02   -0.91024E-03   -0.25297E-01  1160   0.113E+00    0.238E-01
DAV:   2    -0.879256754130E+02   -0.10403E-02   -0.12190E-02  1344   0.315E-01    0.117E-01
DAV:   3    -0.879256419481E+02    0.33465E-04   -0.36935E-04  1456   0.698E-02    0.873E-02
DAV:   4    -0.879256011239E+02    0.40824E-04   -0.17946E-04  1248   0.397E-02    0.363E-02
DAV:   5    -0.879256051550E+02   -0.40311E-05   -0.45330E-05  1344   0.207E-02    0.208E-02
DAV:   6    -0.879256045778E+02    0.57718E-06   -0.14252E-06   944   0.466E-03
 119 F= -.87925605E+02 E0= -.87925605E+02  d E =-.110963E-14
       N       E                     dE             d eps       ncg     rms          rms(c)
DAV:   1    -0.879211106431E+02    0.44945E-02   -0.10181E+00  1152   0.228E+00    0.489E-01
DAV:   2    -0.879254392586E+02   -0.43286E-02   -0.50292E-02  1360   0.634E-01    0.241E-01
DAV:   3    -0.879252905230E+02    0.14874E-03   -0.14908E-03  1544   0.141E-01    0.184E-01
DAV:   4    -0.879251229467E+02    0.16758E-03   -0.72096E-04  1312   0.836E-02    0.739E-02
DAV:   5    -0.879251395128E+02   -0.16566E-04   -0.18385E-04  1432   0.433E-02    0.422E-02
DAV:   6    -0.879251376650E+02    0.18478E-05   -0.70560E-06  1432   0.997E-03    0.288E-02
DAV:   7    -0.879251354579E+02    0.22071E-05   -0.65161E-06  1176   0.738E-03    0.179E-02
DAV:   8    -0.879251354570E+02    0.87766E-09   -0.22155E-06  1000   0.469E-03
 120 F= -.87925135E+02 E0= -.87925135E+02  d E =-.368746E-14
       N       E                     dE             d eps       ncg     rms          rms(c)
DAV:   1    -0.879218061044E+02    0.33294E-02   -0.25362E-01  1168   0.114E+00    0.277E-01
DAV:   2    -0.879228761231E+02   -0.10700E-02   -0.12451E-02  1368   0.315E-01    0.114E-01
DAV:   3    -0.879228324802E+02    0.43643E-04   -0.35760E-04  1472   0.682E-02    0.792E-02
DAV:   4    -0.879227956806E+02    0.36800E-04   -0.23419E-04  1256   0.446E-02    0.298E-02
DAV:   5    -0.879227981276E+02   -0.24470E-05   -0.52897E-05  1328   0.237E-02    0.214E-02
DAV:   6    -0.879227976951E+02    0.43257E-06   -0.22048E-06  1136   0.539E-03
 121 F= -.87922798E+02 E0= -.87922798E+02  d E =-.974837E-14
