   4   4   0   0
  0.2057752E+02  0.3551187E-09  0.3551187E-09  0.6526887E-09  0.1500000E-16
   1.0000000000000000E-004
  CAR 
 unknown system                          
     24.44972040    -21.24082370  301      4.06031509      1.00000000
    -21.241  0.0000E+00  0.0000E+00
    -21.089  0.0000E+00  0.0000E+00
    -20.936  0.0000E+00  0.0000E+00
    -20.784  0.0000E+00  0.0000E+00
    -20.632  0.0000E+00  0.0000E+00
    -20.479  0.0000E+00  0.0000E+00
    -20.327  0.0000E+00  0.0000E+00
    -20.175  0.0000E+00  0.0000E+00
    -20.022  0.0000E+00  0.0000E+00
    -19.870  0.0000E+00  0.0000E+00
    -19.718  0.0000E+00  0.0000E+00
    -19.566  0.0000E+00  0.0000E+00
    -19.413  0.2298E-13  0.3499E-14
    -19.261  0.1963E-03  0.2990E-04
    -19.109  0.3478E+00  0.5300E-01
    -18.956  0.1155E+00  0.7059E-01
    -18.804  0.3518E-06  0.7059E-01
    -18.652  0.0000E+00  0.7059E-01
    -18.499  0.0000E+00  0.7059E-01
    -18.347  0.0000E+00  0.7059E-01
    -18.195  0.0000E+00  0.7059E-01
    -18.042  0.0000E+00  0.7059E-01
    -17.890  0.0000E+00  0.7059E-01
    -17.738  0.0000E+00  0.7059E-01
    -17.586  0.0000E+00  0.7059E-01
    -17.433  0.0000E+00  0.7059E-01
    -17.281  0.0000E+00  0.7059E-01
    -17.129  0.0000E+00  0.7059E-01
    -16.976  0.0000E+00  0.7059E-01
    -16.824  0.0000E+00  0.7059E-01
    -16.672  0.0000E+00  0.7059E-01
    -16.519  0.0000E+00  0.7059E-01
    -16.367  0.0000E+00  0.7059E-01
    -16.215  0.0000E+00  0.7059E-01
    -16.063  0.0000E+00  0.7059E-01
    -15.910  0.0000E+00  0.7059E-01
    -15.758  0.0000E+00  0.7059E-01
    -15.606  0.0000E+00  0.7059E-01
    -15.453  0.0000E+00  0.7059E-01
    -15.301  0.0000E+00  0.7059E-01
    -15.149  0.0000E+00  0.7059E-01
    -14.996  0.0000E+00  0.7059E-01
    -14.844  0.0000E+00  0.7059E-01
    -14.692  0.0000E+00  0.7059E-01
    -14.540  0.0000E+00  0.7059E-01
    -14.387  0.0000E+00  0.7059E-01
    -14.235  0.0000E+00  0.7059E-01
    -14.083  0.0000E+00  0.7059E-01
    -13.930  0.0000E+00  0.7059E-01
    -13.778  0.0000E+00  0.7059E-01
    -13.626  0.0000E+00  0.7059E-01
    -13.473  0.0000E+00  0.7059E-01
    -13.321  0.0000E+00  0.7059E-01
    -13.169  0.0000E+00  0.7059E-01
    -13.017  0.0000E+00  0.7059E-01
    -12.864  0.0000E+00  0.7059E-01
    -12.712  0.0000E+00  0.7059E-01
    -12.560  0.0000E+00  0.7059E-01
    -12.407  0.0000E+00  0.7059E-01
    -12.255  0.0000E+00  0.7059E-01
    -12.103  0.0000E+00  0.7059E-01
    -11.950  0.0000E+00  0.7059E-01
    -11.798  0.0000E+00  0.7059E-01
    -11.646  0.0000E+00  0.7059E-01
    -11.494  0.0000E+00  0.7059E-01
    -11.341  0.0000E+00  0.7059E-01
    -11.189  0.0000E+00  0.7059E-01
    -11.037  0.0000E+00  0.7059E-01
    -10.884  0.0000E+00  0.7059E-01
    -10.732  0.1605E-10  0.7059E-01
    -10.580  0.1795E-03  0.7062E-01
    -10.427  0.4062E-02  0.7123E-01
    -10.275  0.1192E-01  0.7305E-01
    -10.123  0.8010E-02  0.7427E-01
     -9.970  0.1444E-01  0.7647E-01
     -9.818  0.6425E-04  0.7648E-01
     -9.666  0.1547E-01  0.7883E-01
     -9.514  0.2468E-01  0.8259E-01
     -9.361  0.1130E-01  0.8431E-01
     -9.209  0.2008E-02  0.8462E-01
     -9.057  0.2069E-01  0.8777E-01
     -8.904  0.2021E-01  0.9085E-01
     -8.752  0.3955E-02  0.9145E-01
     -8.600  0.5158E-01  0.9931E-01
     -8.447  0.8013E-01  0.1115E+00
     -8.295  0.3874E-01  0.1174E+00
     -8.143  0.1552E-02  0.1176E+00
     -7.991  0.3763E-08  0.1176E+00
     -7.838  0.0000E+00  0.1176E+00
     -7.686  0.0000E+00  0.1176E+00
     -7.534  0.0000E+00  0.1176E+00
     -7.381  0.0000E+00  0.1176E+00
     -7.229  0.0000E+00  0.1176E+00
     -7.077  0.0000E+00  0.1176E+00
     -6.924  0.0000E+00  0.1176E+00
     -6.772  0.0000E+00  0.1176E+00
     -6.620  0.0000E+00  0.1176E+00
     -6.468  0.0000E+00  0.1176E+00
     -6.315  0.0000E+00  0.1176E+00
     -6.163  0.0000E+00  0.1176E+00
     -6.011  0.0000E+00  0.1176E+00
     -5.858  0.0000E+00  0.1176E+00
     -5.706  0.0000E+00  0.1176E+00
     -5.554  0.0000E+00  0.1176E+00
     -5.401  0.0000E+00  0.1176E+00
     -5.249  0.0000E+00  0.1176E+00
     -5.097  0.0000E+00  0.1176E+00
     -4.945  0.0000E+00  0.1176E+00
     -4.792  0.0000E+00  0.1176E+00
     -4.640  0.1668E-11  0.1176E+00
     -4.488  0.1692E-03  0.1177E+00
     -4.335  0.6579E-02  0.1187E+00
     -4.183  0.5352E-02  0.1195E+00
     -4.031  0.1295E-01  0.1215E+00
     -3.878  0.1063E-02  0.1216E+00
     -3.726  0.1461E-01  0.1238E+00
     -3.574  0.2428E-01  0.1275E+00
     -3.422  0.1731E-01  0.1302E+00
     -3.269  0.2064E-01  0.1333E+00
     -3.117  0.8584E-02  0.1346E+00
     -2.965  0.3520E-04  0.1346E+00
     -2.812  0.6915E-03  0.1347E+00
     -2.660  0.1793E-01  0.1375E+00
     -2.508  0.1553E-01  0.1398E+00
     -2.355  0.1622E-02  0.1401E+00
     -2.203  0.4744E-02  0.1408E+00
     -2.051  0.1096E-01  0.1425E+00
     -1.898  0.2461E-04  0.1425E+00
     -1.746  0.2428E-03  0.1425E+00
     -1.594  0.1687E-01  0.1451E+00
     -1.442  0.1695E-01  0.1477E+00
     -1.289  0.2755E-03  0.1477E+00
     -1.137  0.1308E-11  0.1477E+00
     -0.985  0.4019E-04  0.1477E+00
     -0.832  0.1495E-01  0.1500E+00
     -0.680  0.2649E-01  0.1540E+00
     -0.528  0.2268E-01  0.1575E+00
     -0.375  0.5534E-01  0.1659E+00
     -0.223  0.2894E-01  0.1703E+00
     -0.071  0.2749E-01  0.1745E+00
      0.081  0.1967E-01  0.1775E+00
      0.234  0.2181E-01  0.1808E+00
      0.386  0.1740E-01  0.1835E+00
      0.538  0.3701E-01  0.1891E+00
      0.691  0.3202E-01  0.1940E+00
      0.843  0.3470E-01  0.1993E+00
      0.995  0.2714E-01  0.2034E+00
      1.148  0.1465E-01  0.2056E+00
      1.300  0.1712E-01  0.2082E+00
      1.452  0.3214E-01  0.2131E+00
      1.604  0.2523E-01  0.2170E+00
      1.757  0.1655E-01  0.2195E+00
      1.909  0.3462E-01  0.2248E+00
      2.061  0.5686E-01  0.2334E+00
      2.214  0.5581E-01  0.2419E+00
      2.366  0.1002E-01  0.2435E+00
      2.518  0.2912E-01  0.2479E+00
      2.671  0.6122E-01  0.2572E+00
      2.823  0.1931E-02  0.2575E+00
      2.975  0.1163E-02  0.2577E+00
      3.127  0.8950E-02  0.2591E+00
      3.280  0.4052E-01  0.2652E+00
      3.432  0.1675E-01  0.2678E+00
      3.584  0.1276E-02  0.2680E+00
      3.737  0.1165E-02  0.2682E+00
      3.889  0.1595E-01  0.2706E+00
      4.041  0.4779E-04  0.2706E+00
      4.194  0.9201E-04  0.2706E+00
      4.346  0.3264E-01  0.2756E+00
      4.498  0.1759E-01  0.2783E+00
      4.650  0.1814E-01  0.2810E+00
      4.803  0.2074E-03  0.2810E+00
      4.955  0.8515E-12  0.2810E+00
      5.107  0.0000E+00  0.2810E+00
      5.260  0.0000E+00  0.2810E+00
      5.412  0.8894E-17  0.2810E+00
      5.564  0.9885E-06  0.2810E+00
      5.717  0.4388E-02  0.2817E+00
      5.869  0.1477E-02  0.2819E+00
      6.021  0.4981E-02  0.2827E+00
      6.174  0.1296E-01  0.2847E+00
      6.326  0.1938E-02  0.2850E+00
      6.478  0.1345E-02  0.2852E+00
      6.630  0.3430E-01  0.2904E+00
      6.783  0.2906E-01  0.2948E+00
      6.935  0.3161E-01  0.2996E+00
      7.087  0.1328E-01  0.3017E+00
      7.240  0.2619E-01  0.3056E+00
      7.392  0.2276E-01  0.3091E+00
      7.544  0.3767E-01  0.3148E+00
      7.697  0.2661E-01  0.3189E+00
      7.849  0.2461E-01  0.3227E+00
      8.001  0.2739E-01  0.3268E+00
      8.153  0.1391E-01  0.3289E+00
      8.306  0.1179E-01  0.3307E+00
      8.458  0.2531E-01  0.3346E+00
      8.610  0.3583E-01  0.3400E+00
      8.763  0.3887E-01  0.3460E+00
      8.915  0.1301E-01  0.3479E+00
      9.067  0.2314E-01  0.3515E+00
      9.220  0.1016E-01  0.3530E+00
      9.372  0.1230E-01  0.3549E+00
      9.524  0.4667E-01  0.3620E+00
      9.676  0.3214E-01  0.3669E+00
      9.829  0.3136E-01  0.3717E+00
      9.981  0.2725E-01  0.3758E+00
     10.133  0.2011E-01  0.3789E+00
     10.286  0.3042E-01  0.3835E+00
     10.438  0.1334E-01  0.3855E+00
     10.590  0.1039E-01  0.3871E+00
     10.743  0.2070E-01  0.3903E+00
     10.895  0.3024E-01  0.3949E+00
     11.047  0.3179E-01  0.3997E+00
     11.199  0.2332E-01  0.4033E+00
     11.352  0.5618E-01  0.4118E+00
     11.504  0.2384E-01  0.4155E+00
     11.656  0.2069E-01  0.4186E+00
     11.809  0.3472E-01  0.4239E+00
     11.961  0.1818E-01  0.4267E+00
     12.113  0.3174E-01  0.4315E+00
     12.266  0.6763E-01  0.4418E+00
     12.418  0.4406E-01  0.4485E+00
     12.570  0.2902E-01  0.4529E+00
     12.722  0.3047E-01  0.4576E+00
     12.875  0.4242E-01  0.4640E+00
     13.027  0.1349E-01  0.4661E+00
     13.179  0.2004E-01  0.4692E+00
     13.332  0.3970E-01  0.4752E+00
     13.484  0.3982E-01  0.4813E+00
     13.636  0.2227E-01  0.4847E+00
     13.789  0.2802E-01  0.4889E+00
     13.941  0.1837E-01  0.4917E+00
     14.093  0.9179E-02  0.4931E+00
     14.245  0.1196E-01  0.4949E+00
     14.398  0.4390E-01  0.5016E+00
     14.550  0.3102E-01  0.5063E+00
     14.702  0.1142E-01  0.5081E+00
     14.855  0.1762E-01  0.5108E+00
     15.007  0.4472E-01  0.5176E+00
     15.159  0.4222E-01  0.5240E+00
     15.312  0.3432E-01  0.5292E+00
     15.464  0.1826E-01  0.5320E+00
     15.616  0.3474E-01  0.5373E+00
     15.769  0.1643E-01  0.5398E+00
     15.921  0.4269E-01  0.5463E+00
     16.073  0.5692E-01  0.5550E+00
     16.225  0.4903E-01  0.5625E+00
     16.378  0.9235E-02  0.5639E+00
     16.530  0.8052E-02  0.5651E+00
     16.682  0.3380E-01  0.5702E+00
     16.835  0.5937E-01  0.5793E+00
     16.987  0.1996E-01  0.5823E+00
     17.139  0.3321E-01  0.5874E+00
     17.292  0.4586E-01  0.5944E+00
     17.444  0.4242E-01  0.6008E+00
     17.596  0.3023E-01  0.6054E+00
     17.748  0.2168E-01  0.6087E+00
     17.901  0.2769E-01  0.6129E+00
     18.053  0.2576E-01  0.6169E+00
     18.205  0.4879E-01  0.6243E+00
     18.358  0.5914E-01  0.6333E+00
     18.510  0.3915E-01  0.6393E+00
     18.662  0.1586E-01  0.6417E+00
     18.815  0.3823E-01  0.6475E+00
     18.967  0.4928E-01  0.6550E+00
     19.119  0.1285E-01  0.6570E+00
     19.271  0.2297E-01  0.6605E+00
     19.424  0.4551E-01  0.6674E+00
     19.576  0.2481E-01  0.6712E+00
     19.728  0.6430E-01  0.6810E+00
     19.881  0.4584E-01  0.6879E+00
     20.033  0.6149E-01  0.6973E+00
     20.185  0.4851E-01  0.7047E+00
     20.338  0.2331E-01  0.7082E+00
     20.490  0.1752E-01  0.7109E+00
     20.642  0.4153E-02  0.7115E+00
     20.794  0.3229E-02  0.7120E+00
     20.947  0.1650E-01  0.7146E+00
     21.099  0.4051E-01  0.7207E+00
     21.251  0.2768E-01  0.7249E+00
     21.404  0.6291E-01  0.7345E+00
     21.556  0.4695E-01  0.7417E+00
     21.708  0.4284E-01  0.7482E+00
     21.861  0.1259E-01  0.7501E+00
     22.013  0.6705E-02  0.7511E+00
     22.165  0.6162E-02  0.7521E+00
     22.317  0.3356E-03  0.7521E+00
     22.470  0.5369E-02  0.7529E+00
     22.622  0.1751E-04  0.7529E+00
     22.774  0.0000E+00  0.7529E+00
     22.927  0.0000E+00  0.7529E+00
     23.079  0.0000E+00  0.7529E+00
     23.231  0.0000E+00  0.7529E+00
     23.384  0.0000E+00  0.7529E+00
     23.536  0.0000E+00  0.7529E+00
     23.688  0.0000E+00  0.7529E+00
     23.841  0.0000E+00  0.7529E+00
     23.993  0.0000E+00  0.7529E+00
     24.145  0.0000E+00  0.7529E+00
     24.297  0.0000E+00  0.7529E+00
     24.450  0.0000E+00  0.7529E+00
