   4   4   0   0
  0.2057752E+02  0.3551187E-09  0.3551187E-09  0.6526887E-09  0.1500000E-16
   1.0000000000000000E-004
  CAR 
 unknown system                          
     11.68325982    -20.63276257  301      4.04859953      1.00000000
    -20.633  0.0000E+00  0.0000E+00
    -20.525  0.0000E+00  0.0000E+00
    -20.417  0.0000E+00  0.0000E+00
    -20.310  0.0000E+00  0.0000E+00
    -20.202  0.0000E+00  0.0000E+00
    -20.094  0.0000E+00  0.0000E+00
    -19.986  0.0000E+00  0.0000E+00
    -19.879  0.0000E+00  0.0000E+00
    -19.771  0.0000E+00  0.0000E+00
    -19.663  0.0000E+00  0.0000E+00
    -19.556  0.0000E+00  0.0000E+00
    -19.448  0.1415E-16  0.1524E-17
    -19.340  0.1572E-07  0.1693E-08
    -19.232  0.3165E-02  0.3409E-03
    -19.125  0.3884E+00  0.4218E-01
    -19.017  0.2632E+00  0.7053E-01
    -18.909  0.5428E-03  0.7059E-01
    -18.802  0.3449E-09  0.7059E-01
    -18.694  0.0000E+00  0.7059E-01
    -18.586  0.0000E+00  0.7059E-01
    -18.478  0.0000E+00  0.7059E-01
    -18.371  0.0000E+00  0.7059E-01
    -18.263  0.0000E+00  0.7059E-01
    -18.155  0.0000E+00  0.7059E-01
    -18.047  0.0000E+00  0.7059E-01
    -17.940  0.0000E+00  0.7059E-01
    -17.832  0.0000E+00  0.7059E-01
    -17.724  0.0000E+00  0.7059E-01
    -17.617  0.0000E+00  0.7059E-01
    -17.509  0.0000E+00  0.7059E-01
    -17.401  0.0000E+00  0.7059E-01
    -17.293  0.0000E+00  0.7059E-01
    -17.186  0.0000E+00  0.7059E-01
    -17.078  0.0000E+00  0.7059E-01
    -16.970  0.0000E+00  0.7059E-01
    -16.863  0.0000E+00  0.7059E-01
    -16.755  0.0000E+00  0.7059E-01
    -16.647  0.0000E+00  0.7059E-01
    -16.539  0.0000E+00  0.7059E-01
    -16.432  0.0000E+00  0.7059E-01
    -16.324  0.0000E+00  0.7059E-01
    -16.216  0.0000E+00  0.7059E-01
    -16.109  0.0000E+00  0.7059E-01
    -16.001  0.0000E+00  0.7059E-01
    -15.893  0.0000E+00  0.7059E-01
    -15.785  0.0000E+00  0.7059E-01
    -15.678  0.0000E+00  0.7059E-01
    -15.570  0.0000E+00  0.7059E-01
    -15.462  0.0000E+00  0.7059E-01
    -15.354  0.0000E+00  0.7059E-01
    -15.247  0.0000E+00  0.7059E-01
    -15.139  0.0000E+00  0.7059E-01
    -15.031  0.0000E+00  0.7059E-01
    -14.924  0.0000E+00  0.7059E-01
    -14.816  0.0000E+00  0.7059E-01
    -14.708  0.0000E+00  0.7059E-01
    -14.600  0.0000E+00  0.7059E-01
    -14.493  0.0000E+00  0.7059E-01
    -14.385  0.0000E+00  0.7059E-01
    -14.277  0.0000E+00  0.7059E-01
    -14.170  0.0000E+00  0.7059E-01
    -14.062  0.0000E+00  0.7059E-01
    -13.954  0.0000E+00  0.7059E-01
    -13.846  0.0000E+00  0.7059E-01
    -13.739  0.0000E+00  0.7059E-01
    -13.631  0.0000E+00  0.7059E-01
    -13.523  0.0000E+00  0.7059E-01
    -13.416  0.0000E+00  0.7059E-01
    -13.308  0.0000E+00  0.7059E-01
    -13.200  0.0000E+00  0.7059E-01
    -13.092  0.0000E+00  0.7059E-01
    -12.985  0.0000E+00  0.7059E-01
    -12.877  0.0000E+00  0.7059E-01
    -12.769  0.0000E+00  0.7059E-01
    -12.661  0.0000E+00  0.7059E-01
    -12.554  0.0000E+00  0.7059E-01
    -12.446  0.0000E+00  0.7059E-01
    -12.338  0.0000E+00  0.7059E-01
    -12.231  0.0000E+00  0.7059E-01
    -12.123  0.0000E+00  0.7059E-01
    -12.015  0.0000E+00  0.7059E-01
    -11.907  0.0000E+00  0.7059E-01
    -11.800  0.0000E+00  0.7059E-01
    -11.692  0.0000E+00  0.7059E-01
    -11.584  0.0000E+00  0.7059E-01
    -11.477  0.0000E+00  0.7059E-01
    -11.369  0.0000E+00  0.7059E-01
    -11.261  0.0000E+00  0.7059E-01
    -11.153  0.0000E+00  0.7059E-01
    -11.046  0.0000E+00  0.7059E-01
    -10.938  0.0000E+00  0.7059E-01
    -10.830  0.1123E-18  0.7059E-01
    -10.723  0.1041E-09  0.7059E-01
    -10.615  0.2575E-04  0.7059E-01
    -10.507  0.3304E-02  0.7095E-01
    -10.399  0.2810E-02  0.7125E-01
    -10.292  0.1273E-01  0.7262E-01
    -10.184  0.1154E-01  0.7386E-01
    -10.076  0.1411E-01  0.7538E-01
     -9.968  0.1006E-01  0.7647E-01
     -9.861  0.2297E-04  0.7647E-01
     -9.753  0.3606E-02  0.7686E-01
     -9.645  0.1996E-01  0.7901E-01
     -9.538  0.2103E-01  0.8127E-01
     -9.430  0.2807E-01  0.8430E-01
     -9.322  0.1508E-03  0.8431E-01
     -9.214  0.2308E-02  0.8456E-01
     -9.107  0.1297E-01  0.8596E-01
     -8.999  0.4029E-01  0.9030E-01
     -8.891  0.5108E-02  0.9085E-01
     -8.784  0.1586E-02  0.9102E-01
     -8.676  0.3229E-01  0.9450E-01
     -8.568  0.6385E-01  0.1014E+00
     -8.460  0.8473E-01  0.1105E+00
     -8.353  0.5452E-01  0.1164E+00
     -8.245  0.1163E-01  0.1176E+00
     -8.137  0.1758E-03  0.1176E+00
     -8.030  0.2336E-08  0.1176E+00
     -7.922  0.4042E-17  0.1176E+00
     -7.814  0.0000E+00  0.1176E+00
     -7.706  0.0000E+00  0.1176E+00
     -7.599  0.0000E+00  0.1176E+00
     -7.491  0.0000E+00  0.1176E+00
     -7.383  0.0000E+00  0.1176E+00
     -7.275  0.0000E+00  0.1176E+00
     -7.168  0.0000E+00  0.1176E+00
     -7.060  0.0000E+00  0.1176E+00
     -6.952  0.0000E+00  0.1176E+00
     -6.845  0.0000E+00  0.1176E+00
     -6.737  0.0000E+00  0.1176E+00
     -6.629  0.0000E+00  0.1176E+00
     -6.521  0.0000E+00  0.1176E+00
     -6.414  0.0000E+00  0.1176E+00
     -6.306  0.0000E+00  0.1176E+00
     -6.198  0.0000E+00  0.1176E+00
     -6.091  0.0000E+00  0.1176E+00
     -5.983  0.0000E+00  0.1176E+00
     -5.875  0.0000E+00  0.1176E+00
     -5.767  0.0000E+00  0.1176E+00
     -5.660  0.0000E+00  0.1176E+00
     -5.552  0.0000E+00  0.1176E+00
     -5.444  0.0000E+00  0.1176E+00
     -5.337  0.0000E+00  0.1176E+00
     -5.229  0.0000E+00  0.1176E+00
     -5.121  0.0000E+00  0.1176E+00
     -5.013  0.0000E+00  0.1176E+00
     -4.906  0.0000E+00  0.1176E+00
     -4.798  0.0000E+00  0.1176E+00
     -4.690  0.1051E-15  0.1176E+00
     -4.582  0.1973E-07  0.1176E+00
     -4.475  0.5166E-03  0.1177E+00
     -4.367  0.7509E-02  0.1185E+00
     -4.259  0.4036E-02  0.1189E+00
     -4.152  0.1068E-01  0.1201E+00
     -4.044  0.1192E-01  0.1214E+00
     -3.936  0.1741E-02  0.1216E+00
     -3.828  0.5365E-02  0.1221E+00
     -3.721  0.1632E-01  0.1239E+00
     -3.613  0.2021E-01  0.1261E+00
     -3.505  0.2821E-01  0.1291E+00
     -3.398  0.1438E-01  0.1307E+00
     -3.290  0.2043E-01  0.1329E+00
     -3.182  0.1436E-01  0.1344E+00
     -3.074  0.2075E-02  0.1346E+00
     -2.967  0.8501E-06  0.1346E+00
     -2.859  0.2651E-04  0.1346E+00
     -2.751  0.1193E-01  0.1359E+00
     -2.644  0.1630E-01  0.1377E+00
     -2.536  0.1886E-01  0.1397E+00
     -2.428  0.1525E-02  0.1399E+00
     -2.320  0.3944E-02  0.1403E+00
     -2.213  0.3947E-02  0.1407E+00
     -2.105  0.1485E-01  0.1423E+00
     -1.997  0.1438E-02  0.1425E+00
     -1.889  0.1065E-06  0.1425E+00
     -1.782  0.1831E-04  0.1425E+00
     -1.674  0.1017E-01  0.1436E+00
     -1.566  0.1628E-01  0.1453E+00
     -1.459  0.2092E-01  0.1476E+00
     -1.351  0.1150E-02  0.1477E+00
     -1.243  0.3478E-07  0.1477E+00
     -1.135  0.6729E-13  0.1477E+00
     -1.028  0.9305E-06  0.1477E+00
     -0.920  0.2710E-02  0.1480E+00
     -0.812  0.2285E-01  0.1505E+00
     -0.705  0.2416E-01  0.1531E+00
     -0.597  0.3764E-01  0.1571E+00
     -0.489  0.1284E-01  0.1585E+00
     -0.381  0.6568E-01  0.1656E+00
     -0.274  0.3404E-01  0.1692E+00
     -0.166  0.2728E-01  0.1722E+00
     -0.058  0.2402E-01  0.1748E+00
      0.049  0.1781E-01  0.1767E+00
      0.157  0.1605E-01  0.1784E+00
      0.265  0.3062E-01  0.1817E+00
      0.373  0.1575E-01  0.1834E+00
      0.480  0.2797E-01  0.1864E+00
      0.588  0.4360E-01  0.1911E+00
      0.696  0.2769E-01  0.1941E+00
      0.804  0.3566E-01  0.1980E+00
      0.911  0.2627E-01  0.2008E+00
      1.019  0.2906E-01  0.2039E+00
      1.127  0.1393E-01  0.2054E+00
      1.234  0.1578E-01  0.2071E+00
      1.342  0.2390E-01  0.2097E+00
      1.450  0.3187E-01  0.2131E+00
      1.558  0.2258E-01  0.2156E+00
      1.665  0.2648E-01  0.2184E+00
      1.773  0.1208E-01  0.2197E+00
      1.881  0.3201E-01  0.2232E+00
      1.988  0.5429E-01  0.2290E+00
      2.096  0.6237E-01  0.2357E+00
      2.204  0.5538E-01  0.2417E+00
      2.312  0.1012E-01  0.2428E+00
      2.419  0.1426E-01  0.2443E+00
      2.527  0.4072E-01  0.2487E+00
      2.635  0.6959E-01  0.2562E+00
      2.742  0.1226E-01  0.2575E+00
      2.850  0.1019E-04  0.2575E+00
      2.958  0.6980E-03  0.2576E+00
      3.066  0.1050E-01  0.2587E+00
      3.173  0.1656E-01  0.2605E+00
      3.281  0.4404E-01  0.2653E+00
      3.389  0.1691E-01  0.2671E+00
      3.497  0.8353E-02  0.2680E+00
      3.604  0.1884E-04  0.2680E+00
      3.712  0.3507E-03  0.2680E+00
      3.820  0.1901E-01  0.2701E+00
      3.927  0.4909E-02  0.2706E+00
      4.035  0.1451E-05  0.2706E+00
      4.143  0.7908E-06  0.2706E+00
      4.251  0.5025E-02  0.2711E+00
      4.358  0.4457E-01  0.2759E+00
      4.466  0.1492E-01  0.2775E+00
      4.574  0.2300E-01  0.2800E+00
      4.681  0.9538E-02  0.2810E+00
      4.789  0.2393E-04  0.2810E+00
      4.897  0.1410E-10  0.2810E+00
      5.005  0.0000E+00  0.2810E+00
      5.112  0.0000E+00  0.2810E+00
      5.220  0.0000E+00  0.2810E+00
      5.328  0.0000E+00  0.2810E+00
      5.435  0.2062E-14  0.2810E+00
      5.543  0.1201E-06  0.2810E+00
      5.651  0.1047E-02  0.2812E+00
      5.759  0.6820E-02  0.2819E+00
      5.866  0.3979E-03  0.2819E+00
      5.974  0.3846E-02  0.2824E+00
      6.082  0.1154E-01  0.2836E+00
      6.190  0.1103E-01  0.2848E+00
      6.297  0.1725E-02  0.2850E+00
      6.405  0.6175E-05  0.2850E+00
      6.513  0.9166E-02  0.2860E+00
      6.620  0.3828E-01  0.2901E+00
      6.728  0.3658E-01  0.2940E+00
      6.836  0.2340E-01  0.2965E+00
      6.944  0.2926E-01  0.2997E+00
      7.051  0.9740E-02  0.3007E+00
      7.159  0.3241E-01  0.3042E+00
      7.267  0.1617E-01  0.3060E+00
      7.374  0.2564E-01  0.3087E+00
      7.482  0.3504E-01  0.3125E+00
      7.590  0.2931E-01  0.3157E+00
      7.698  0.3030E-01  0.3189E+00
      7.805  0.2080E-01  0.3212E+00
      7.913  0.2977E-01  0.3244E+00
      8.021  0.2510E-01  0.3271E+00
      8.128  0.1265E-01  0.3284E+00
      8.236  0.1889E-01  0.3305E+00
      8.344  0.4081E-02  0.3309E+00
      8.452  0.3090E-01  0.3342E+00
      8.559  0.3612E-01  0.3381E+00
      8.667  0.4971E-01  0.3435E+00
      8.775  0.2461E-01  0.3461E+00
      8.883  0.1071E-01  0.3473E+00
      8.990  0.2180E-01  0.3496E+00
      9.098  0.2038E-01  0.3518E+00
      9.206  0.9970E-02  0.3529E+00
      9.313  0.6953E-02  0.3537E+00
      9.421  0.2953E-01  0.3568E+00
      9.529  0.4954E-01  0.3622E+00
      9.637  0.2906E-01  0.3653E+00
      9.744  0.2763E-01  0.3683E+00
      9.852  0.1833E-01  0.3703E+00
      9.960  0.1647E-01  0.3720E+00
     10.067  0.2192E-01  0.3744E+00
     10.175  0.4408E-02  0.3749E+00
     10.283  0.1439E-01  0.3764E+00
     10.391  0.4258E-03  0.3765E+00
     10.498  0.4996E-08  0.3765E+00
     10.606  0.7185E-17  0.3765E+00
     10.714  0.0000E+00  0.3765E+00
     10.821  0.0000E+00  0.3765E+00
     10.929  0.0000E+00  0.3765E+00
     11.037  0.0000E+00  0.3765E+00
     11.145  0.0000E+00  0.3765E+00
     11.252  0.0000E+00  0.3765E+00
     11.360  0.0000E+00  0.3765E+00
     11.468  0.0000E+00  0.3765E+00
     11.576  0.0000E+00  0.3765E+00
     11.683  0.0000E+00  0.3765E+00
