 vasp.6.3.2 27Jun22 (build Jun 14 2024 17:29:11) complex                         
 executed on             LinuxGNU date 2026.03.30  04:07:26
 running on   32 total cores
 distrk:  each k-point on   32 cores,    1 groups
 distr:  one band on NCORE=   1 cores,   32 groups


--------------------------------------------------------------------------------------------------------


 INCAR:
   EDIFF = 1e-06
   ENCUT = 400.0
   IBRION = 6
   ISIF = 3
   ISMEAR = 0
   LCHARG = False
   LREAL = Auto
   LWAVE = False
   NFREE = 4
   NSW = 1
   POTIM = 0.015
   SIGMA = 0.05

 POTCAR:    PAW_PBE Na_pv 19Sep2006               
 POTCAR:    PAW_PBE Si 05Jan2001                  
 POTCAR:    PAW_PBE S 06Sep2000                   
 -----------------------------------------------------------------------------
|                                                                             |
|           W    W    AA    RRRRR   N    N  II  N    N   GGGG   !!!           |
|           W    W   A  A   R    R  NN   N  II  NN   N  G    G  !!!           |
|           W    W  A    A  R    R  N N  N  II  N N  N  G       !!!           |
|           W WW W  AAAAAA  RRRRR   N  N N  II  N  N N  G  GGG   !            |
|           WW  WW  A    A  R   R   N   NN  II  N   NN  G    G                |
|           W    W  A    A  R    R  N    N  II  N    N   GGGG   !!!           |
|                                                                             |
|     For optimal performance we recommend to set                             |
|       NCORE = 2 up to number-of-cores-per-socket                            |
|     NCORE specifies how many cores store one orbital (NPAR=cpu/NCORE).      |
|     This setting can greatly improve the performance of VASP for DFT.       |
|     The default, NCORE=1 might be grossly inefficient on modern             |
|     multi-core architectures or massively parallel machines. Do your        |
|     own testing! More info at https://www.vasp.at/wiki/index.php/NCORE      |
|     Unfortunately you need to use the default for GW and RPA                |
|     calculations (for HF NCORE is supported but not extensively tested      |
|     yet).                                                                   |
|                                                                             |
 -----------------------------------------------------------------------------

 POTCAR:    PAW_PBE Na_pv 19Sep2006               
   SHA256 =  6a2f546d9e11350984debacf3dc457d8cffc0868e817d445faca461816a32b94 Na_pv/POTCAR          
   COPYR  = (c) Copyright 19Sep2006 Georg Kresse                                                    
   COPYR  = This file is part of the software VASP. Any use, copying, and all other rights are regul
   COPYR  = If you do not have a valid VASP license, you may not use, copy or distribute this file. 
   VRHFIN =Na: p6s1                                                                                 
   LEXCH  = PE                                                                                      
   EATOM  =   766.0439 eV,   56.3026 Ry                                                             
                                                                                                    
   TITEL  = PAW_PBE Na_pv 19Sep2006                                                                 
   LULTRA =        F    use ultrasoft PP ?                                                          
   IUNSCR =        1    unscreen: 0-lin 1-nonlin 2-no                                               
   RPACOR =    1.800    partial core radius                                                         
   POMASS =   22.990; ZVAL   =    7.000    mass and valenz                                          
   RCORE  =    2.200    outmost cutoff radius                                                       
   RWIGS  =    2.200; RWIGS  =    1.164    wigner-seitz radius (au A)                               
   ENMAX  =  259.561; ENMIN  =  194.671 eV                                                          
   ICORE  =        2    local potential                                                             
   LCOR   =        T    correct aug charges                                                         
   LPAW   =        T    paw PP                                                                      
   EAUG   =  368.056                                                                                
   DEXC   =    0.000                                                                                
   RMAX   =    2.245    core radius for proj-oper                                                   
   RAUG   =    1.300    factor for augmentation sphere                                              
   RDEP   =    2.259    radius for radial grids                                                     
   RDEPT  =    1.738    core radius for aug-charge                                                  
                                                                                                    
   Atomic configuration                                                                             
    5 entries                                                                                       
     n  l   j            E        occ.                                                              
     1  0  0.50     -1033.6933   2.0000                                                             
     2  0  0.50       -56.7526   2.0000                                                             
     2  1  1.50       -28.6721   6.0000                                                             
     3  0  0.50        -2.7440   1.0000                                                             
     3  2  1.50        -1.3606   0.0000                                                             
   Description                                                                                      
     l       E           TYP  RCUT    TYP  RCUT                                                     
     1    -28.6720912     23  2.000                                                                 
     1      6.8029130     23  2.000                                                                 
     0     -2.7439560     23  2.200                                                                 
     0     34.0145650     23  2.200                                                                 
     2     -1.3605826     23  2.200                                                                 
  local pseudopotential read in
  partial core-charges read in
  partial kinetic energy density read in
  atomic valenz-charges read in
  non local Contribution for L=           1  read in
    real space projection operators read in
  non local Contribution for L=           1  read in
    real space projection operators read in
  non local Contribution for L=           0  read in
    real space projection operators read in
  non local Contribution for L=           0  read in
    real space projection operators read in
    PAW grid and wavefunctions read in

   number of l-projection  operators is LMAX  =           4
   number of lm-projection operators is LMMAX =           8

 POTCAR:    PAW_PBE Si 05Jan2001                  
   SHA256 =  79d9987ad8750f624c4d6acb2a16d13abf6a777132adc04dc6c8399be72b42bb Si/POTCAR             
   COPYR  = (c) Copyright 05Jan2001 Georg Kresse                                                    
   COPYR  = This file is part of the software VASP. Any use, copying, and all other rights are regul
   COPYR  = If you do not have a valid VASP license, you may not use, copy or distribute this file. 
   VRHFIN =Si: s2p2                                                                                 
   LEXCH  = PE                                                                                      
   EATOM  =   103.0669 eV,    7.5752 Ry                                                             
                                                                                                    
   TITEL  = PAW_PBE Si 05Jan2001                                                                    
   LULTRA =        F    use ultrasoft PP ?                                                          
   IUNSCR =        1    unscreen: 0-lin 1-nonlin 2-no                                               
   RPACOR =    1.500    partial core radius                                                         
   POMASS =   28.085; ZVAL   =    4.000    mass and valenz                                          
   RCORE  =    1.900    outmost cutoff radius                                                       
   RWIGS  =    2.480; RWIGS  =    1.312    wigner-seitz radius (au A)                               
   ENMAX  =  245.345; ENMIN  =  184.009 eV                                                          
   ICORE  =        2    local potential                                                             
   LCOR   =        T    correct aug charges                                                         
   LPAW   =        T    paw PP                                                                      
   EAUG   =  322.069                                                                                
   DEXC   =    0.000                                                                                
   RMAX   =    1.950    core radius for proj-oper                                                   
   RAUG   =    1.300    factor for augmentation sphere                                              
   RDEP   =    1.993    radius for radial grids                                                     
   RDEPT  =    1.837    core radius for aug-charge                                                  
                                                                                                    
   Atomic configuration                                                                             
    6 entries                                                                                       
     n  l   j            E        occ.                                                              
     1  0  0.50     -1785.8828   2.0000                                                             
     2  0  0.50      -139.4969   2.0000                                                             
     2  1  1.50       -95.5546   6.0000                                                             
     3  0  0.50       -10.8127   2.0000                                                             
     3  1  0.50        -4.0811   2.0000                                                             
     3  2  1.50        -4.0817   0.0000                                                             
   Description                                                                                      
     l       E           TYP  RCUT    TYP  RCUT                                                     
     0    -10.8127223     23  1.900                                                                 
     0     -7.6451159     23  1.900                                                                 
     1     -4.0811372     23  1.900                                                                 
     1      2.4879257     23  1.900                                                                 
     2     -4.0817478      7  1.900                                                                 
  local pseudopotential read in
  partial core-charges read in
  partial kinetic energy density read in
  atomic valenz-charges read in
  non local Contribution for L=           0  read in
    real space projection operators read in
  non local Contribution for L=           0  read in
    real space projection operators read in
  non local Contribution for L=           1  read in
    real space projection operators read in
  non local Contribution for L=           1  read in
    real space projection operators read in
    PAW grid and wavefunctions read in

   number of l-projection  operators is LMAX  =           4
   number of lm-projection operators is LMMAX =           8

 POTCAR:    PAW_PBE S 06Sep2000                   
   SHA256 =  0fc7481fb0695f01bdc6462160264c5c84044ae9ec85a907d398b887a2bc3132 S/POTCAR              
   COPYR  = (c) Copyright 06Sep2000 Georg Kresse                                                    
   COPYR  = This file is part of the software VASP. Any use, copying, and all other rights are regul
   COPYR  = If you do not have a valid VASP license, you may not use, copy or distribute this file. 
   VRHFIN =S : s2p4                                                                                 
   LEXCH  = PE                                                                                      
   EATOM  =   276.8230 eV,   20.3459 Ry                                                             
                                                                                                    
   TITEL  = PAW_PBE S 06Sep2000                                                                     
   LULTRA =        F    use ultrasoft PP ?                                                          
   IUNSCR =        1    unscreen: 0-lin 1-nonlin 2-no                                               
   RPACOR =    1.500    partial core radius                                                         
   POMASS =   32.066; ZVAL   =    6.000    mass and valenz                                          
   RCORE  =    1.900    outmost cutoff radius                                                       
   RWIGS  =    2.200; RWIGS  =    1.164    wigner-seitz radius (au A)                               
   ENMAX  =  258.689; ENMIN  =  194.016 eV                                                          
   ICORE  =        2    local potential                                                             
   LCOR   =        T    correct aug charges                                                         
   LPAW   =        T    paw PP                                                                      
   EAUG   =  335.092                                                                                
   DEXC   =    0.000                                                                                
   RMAX   =    1.942    core radius for proj-oper                                                   
   RAUG   =    1.300    factor for augmentation sphere                                              
   RDEP   =    1.954    radius for radial grids                                                     
   RDEPT  =    1.744    core radius for aug-charge                                                  
                                                                                                    
   Atomic configuration                                                                             
    6 entries                                                                                       
     n  l   j            E        occ.                                                              
     1  0  0.50     -2405.8406   2.0000                                                             
     2  0  0.50      -211.7007   2.0000                                                             
     2  1  1.50      -156.4958   6.0000                                                             
     3  0  0.50       -17.2562   2.0000                                                             
     3  1  0.50        -7.0085   4.0000                                                             
     3  2  1.50        -6.8029   0.0000                                                             
   Description                                                                                      
     l       E           TYP  RCUT    TYP  RCUT                                                     
     0    -17.2561641     23  1.900                                                                 
     0    -15.8743224     23  1.900                                                                 
     1     -7.0085400     23  1.900                                                                 
     1     -2.7779785     23  1.900                                                                 
     2     -6.8029130     23  1.900                                                                 
  local pseudopotential read in
  partial core-charges read in
  partial kinetic energy density read in
  atomic valenz-charges read in
  non local Contribution for L=           0  read in
    real space projection operators read in
  non local Contribution for L=           0  read in
    real space projection operators read in
  non local Contribution for L=           1  read in
    real space projection operators read in
  non local Contribution for L=           1  read in
    real space projection operators read in
    PAW grid and wavefunctions read in

   number of l-projection  operators is LMAX  =           4
   number of lm-projection operators is LMMAX =           8

 -----------------------------------------------------------------------------
|                                                                             |
|               ----> ADVICE to this user running VASP <----                  |
|                                                                             |
|     You have a (more or less) 'small supercell' and for smaller cells       |
|     it is recommended to use the reciprocal-space projection scheme!        |
|     The real-space optimization is not efficient for small cells and it     |
|     is also less accurate ...                                               |
|     Therefore, set LREAL=.FALSE. in the INCAR file.                         |
|                                                                             |
 -----------------------------------------------------------------------------

 Optimization of the real space projectors (new method)

 maximal supplied QI-value         = 17.01
 optimisation between [QCUT,QGAM] = [ 10.20, 20.41] = [ 29.16,116.64] Ry 
 Optimized for a Real-space Cutoff    1.30 Angstroem

   l    n(q)    QCUT    max X(q) W(low)/X(q) W(high)/X(q)  e(spline) 
   1      7    10.205     4.940    0.23E-03    0.84E-03    0.11E-06
   1      7    10.205     6.253    0.40E-03    0.13E-02    0.18E-06
   0      8    10.205    37.438    0.23E-03    0.37E-03    0.42E-07
   0      8    10.205     9.606    0.16E-03    0.26E-03    0.31E-07
 Optimization of the real space projectors (new method)

 maximal supplied QI-value         = 19.84
 optimisation between [QCUT,QGAM] = [ 10.12, 20.44] = [ 28.68,116.96] Ry 
 Optimized for a Real-space Cutoff    1.23 Angstroem

   l    n(q)    QCUT    max X(q) W(low)/X(q) W(high)/X(q)  e(spline) 
   0      7    10.119   159.560    0.56E-04    0.22E-03    0.45E-07
   0      7    10.119   115.863    0.56E-04    0.21E-03    0.45E-07
   1      7    10.119    88.339    0.34E-03    0.49E-03    0.11E-06
   1      7    10.119    48.592    0.33E-03    0.48E-03    0.11E-06
 Optimization of the real space projectors (new method)

 maximal supplied QI-value         = 19.84
 optimisation between [QCUT,QGAM] = [ 10.12, 20.44] = [ 28.68,116.96] Ry 
 Optimized for a Real-space Cutoff    1.23 Angstroem

   l    n(q)    QCUT    max X(q) W(low)/X(q) W(high)/X(q)  e(spline) 
   0      7    10.119   187.594    0.62E-04    0.28E-03    0.52E-07
   0      7    10.119   164.243    0.61E-04    0.28E-03    0.52E-07
   1      7    10.119    67.533    0.45E-03    0.63E-03    0.13E-06
   1      7    10.119    50.729    0.44E-03    0.62E-03    0.12E-06
  PAW_PBE Na_pv 19Sep2006               :
 energy of atom  1       EATOM= -766.0439
 kinetic energy error for atom=    0.0103 (will be added to EATOM!!)
  PAW_PBE Si 05Jan2001                  :
 energy of atom  2       EATOM= -103.0669
 kinetic energy error for atom=    0.0012 (will be added to EATOM!!)
  PAW_PBE S 06Sep2000                   :
 energy of atom  3       EATOM= -276.8230
 kinetic energy error for atom=    0.0046 (will be added to EATOM!!)


 POSCAR: Na1 Si1 S2
  positions in direct lattice
  velocities in cartesian coordinates
 exchange correlation table for  LEXCH =        8
   RHO(1)=    0.500       N(1)  =     2000
   RHO(2)=  100.500       N(2)  =     4000



--------------------------------------------------------------------------------------------------------


 ion  position               nearest neighbor table
   1  0.500  0.500  0.462-   3 2.68   3 2.68   3 2.68   3 2.68
   2  0.000  0.000  0.923-   3 2.07   4 2.59   4 2.59   4 2.59   4 2.59
   3  0.000  0.000  0.606-   2 2.07   1 2.68   1 2.68   1 2.68   1 2.68
   4  0.500  0.500  0.019-   2 2.59   2 2.59   2 2.59   2 2.59

  LATTYP: Found a simple tetragonal cell.
 ALAT       =     3.5511865587
 C/A-ratio  =     1.8379452470
  
  Lattice vectors:
  
 A1 = (   3.5511865587,   0.0000000000,   0.0000000000)
 A2 = (   0.0000000000,   3.5511865587,   0.0000000000)
 A3 = (   0.0000000000,   0.0000000000,   6.5268864569)


Analysis of symmetry for initial positions (statically):
=====================================================================
 Subroutine PRICEL returns:
 Original cell was already a primitive cell.
 

 Routine SETGRP: Setting up the symmetry group for a 
 simple tetragonal supercell.


 Subroutine GETGRP returns: Found  8 space group operations
 (whereof  8 operations were pure point group operations)
 out of a pool of 16 trial point group operations.


The static configuration has the point symmetry C_4v.


Analysis of symmetry for dynamics (positions and initial velocities):
=====================================================================
 Subroutine PRICEL returns:
 Original cell was already a primitive cell.
 

 Routine SETGRP: Setting up the symmetry group for a 
 simple tetragonal supercell.


 Subroutine GETGRP returns: Found  8 space group operations
 (whereof  8 operations were pure point group operations)
 out of a pool of 16 trial point group operations.


The dynamic configuration has the point symmetry C_4v.


 Subroutine INISYM returns: Found  8 space group operations
 (whereof  8 operations are pure point group operations),
 and found     1 'primitive' translations


----------------------------------------------------------------------------------------

                                     Primitive cell                                     

  volume of cell :      82.3101

  direct lattice vectors                    reciprocal lattice vectors
     3.551186559  0.000000000  0.000000000     0.281596020  0.000000000  0.000000000
     0.000000000  3.551186559  0.000000000     0.000000000  0.281596020  0.000000000
     0.000000000  0.000000000  6.526886457     0.000000000  0.000000000  0.153212409

  length of vectors
     3.551186559  3.551186559  6.526886457     0.281596020  0.281596020  0.153212409

  position of ions in fractional coordinates (direct lattice)
     0.499999939  0.499999939  0.461665591
     0.000000000  0.000000000  0.923042497
     0.000000000  0.000000000  0.605927419
     0.499999939  0.499999939  0.019363807

  ion indices of the primitive-cell ions
   primitive index   ion index
                 1           1
                 2           2
                 3           3
                 4           4

----------------------------------------------------------------------------------------



 KPOINTS: pymatgen with grid density = 600 / numbe

Automatic generation of k-mesh.
 Grid dimensions read from file:
 generate k-points for:    6    6    3

 Generating k-lattice:

  Cartesian coordinates                     Fractional coordinates (reciprocal lattice)
     0.046932670  0.000000000  0.000000000     0.166666667  0.000000000  0.000000000
     0.000000000  0.046932670  0.000000000     0.000000000  0.166666667  0.000000000
     0.000000000  0.000000000  0.051070803     0.000000000  0.000000000  0.333333333

  Length of vectors
     0.046932670  0.046932670  0.051070803

  Shift w.r.t. Gamma in fractional coordinates (k-lattice)
     0.000000000  0.000000000  0.000000000

 
 Subroutine IBZKPT returns following result:
 ===========================================
 
 Found     20 irreducible k-points:
 
 Following reciprocal coordinates:
            Coordinates               Weight
  0.000000  0.000000  0.000000      1.000000
  0.166667  0.000000  0.000000      4.000000
  0.333333  0.000000  0.000000      4.000000
  0.500000  0.000000  0.000000      2.000000
  0.166667  0.166667  0.000000      4.000000
  0.333333  0.166667  0.000000      8.000000
  0.500000  0.166667  0.000000      4.000000
  0.333333  0.333333  0.000000      4.000000
  0.500000  0.333333  0.000000      4.000000
  0.500000  0.500000  0.000000      1.000000
  0.000000  0.000000  0.333333      2.000000
  0.166667  0.000000  0.333333      8.000000
  0.333333  0.000000  0.333333      8.000000
  0.500000  0.000000  0.333333      4.000000
  0.166667  0.166667  0.333333      8.000000
  0.333333  0.166667  0.333333     16.000000
  0.500000  0.166667  0.333333      8.000000
  0.333333  0.333333  0.333333      8.000000
  0.500000  0.333333  0.333333      8.000000
  0.500000  0.500000  0.333333      2.000000
 
 Following cartesian coordinates:
            Coordinates               Weight
  0.000000  0.000000  0.000000      1.000000
  0.046933  0.000000  0.000000      4.000000
  0.093865  0.000000  0.000000      4.000000
  0.140798  0.000000  0.000000      2.000000
  0.046933  0.046933  0.000000      4.000000
  0.093865  0.046933  0.000000      8.000000
  0.140798  0.046933  0.000000      4.000000
  0.093865  0.093865  0.000000      4.000000
  0.140798  0.093865  0.000000      4.000000
  0.140798  0.140798  0.000000      1.000000
  0.000000  0.000000  0.051071      2.000000
  0.046933  0.000000  0.051071      8.000000
  0.093865  0.000000  0.051071      8.000000
  0.140798  0.000000  0.051071      4.000000
  0.046933  0.046933  0.051071      8.000000
  0.093865  0.046933  0.051071     16.000000
  0.140798  0.046933  0.051071      8.000000
  0.093865  0.093865  0.051071      8.000000
  0.140798  0.093865  0.051071      8.000000
  0.140798  0.140798  0.051071      2.000000
 
 
 Subroutine IBZKPT_HF returns following result:
 ==============================================
 
 Found    108 k-points in 1st BZ
 the following    108 k-points will be used (e.g. in the exchange kernel)
 Following reciprocal coordinates:   # in IRBZ
  0.000000  0.000000  0.000000    0.00925926   1 t-inv F
  0.166667  0.000000  0.000000    0.00925926   2 t-inv F
  0.333333  0.000000  0.000000    0.00925926   3 t-inv F
  0.500000  0.000000  0.000000    0.00925926   4 t-inv F
  0.166667  0.166667  0.000000    0.00925926   5 t-inv F
  0.333333  0.166667  0.000000    0.00925926   6 t-inv F
  0.500000  0.166667  0.000000    0.00925926   7 t-inv F
  0.333333  0.333333  0.000000    0.00925926   8 t-inv F
  0.500000  0.333333  0.000000    0.00925926   9 t-inv F
  0.500000  0.500000  0.000000    0.00925926  10 t-inv F
  0.000000  0.000000  0.333333    0.00925926  11 t-inv F
  0.166667  0.000000  0.333333    0.00925926  12 t-inv F
  0.333333  0.000000  0.333333    0.00925926  13 t-inv F
  0.500000  0.000000  0.333333    0.00925926  14 t-inv F
  0.166667  0.166667  0.333333    0.00925926  15 t-inv F
  0.333333  0.166667  0.333333    0.00925926  16 t-inv F
  0.500000  0.166667  0.333333    0.00925926  17 t-inv F
  0.333333  0.333333  0.333333    0.00925926  18 t-inv F
  0.500000  0.333333  0.333333    0.00925926  19 t-inv F
  0.500000  0.500000  0.333333    0.00925926  20 t-inv F
 -0.000000  0.166667  0.000000    0.00925926   2 t-inv F
 -0.166667 -0.000000  0.000000    0.00925926   2 t-inv F
  0.000000 -0.166667  0.000000    0.00925926   2 t-inv F
 -0.000000  0.333333  0.000000    0.00925926   3 t-inv F
 -0.333333 -0.000000  0.000000    0.00925926   3 t-inv F
  0.000000 -0.333333  0.000000    0.00925926   3 t-inv F
 -0.000000  0.500000  0.000000    0.00925926   4 t-inv F
 -0.166667  0.166667  0.000000    0.00925926   5 t-inv F
 -0.166667 -0.166667  0.000000    0.00925926   5 t-inv F
  0.166667 -0.166667  0.000000    0.00925926   5 t-inv F
 -0.166667  0.333333  0.000000    0.00925926   6 t-inv F
 -0.333333 -0.166667  0.000000    0.00925926   6 t-inv F
  0.166667 -0.333333  0.000000    0.00925926   6 t-inv F
  0.333333 -0.166667  0.000000    0.00925926   6 t-inv F
 -0.166667 -0.333333  0.000000    0.00925926   6 t-inv F
 -0.333333  0.166667  0.000000    0.00925926   6 t-inv F
  0.166667  0.333333  0.000000    0.00925926   6 t-inv F
 -0.166667  0.500000  0.000000    0.00925926   7 t-inv F
 -0.500000 -0.166667  0.000000    0.00925926   7 t-inv F
  0.166667 -0.500000  0.000000    0.00925926   7 t-inv F
 -0.333333  0.333333  0.000000    0.00925926   8 t-inv F
 -0.333333 -0.333333  0.000000    0.00925926   8 t-inv F
  0.333333 -0.333333  0.000000    0.00925926   8 t-inv F
 -0.333333  0.500000  0.000000    0.00925926   9 t-inv F
 -0.500000 -0.333333  0.000000    0.00925926   9 t-inv F
  0.333333 -0.500000  0.000000    0.00925926   9 t-inv F
 -0.000000  0.166667  0.333333    0.00925926  12 t-inv F
 -0.166667 -0.000000  0.333333    0.00925926  12 t-inv F
  0.000000 -0.166667  0.333333    0.00925926  12 t-inv F
 -0.000000  0.333333  0.333333    0.00925926  13 t-inv F
 -0.333333 -0.000000  0.333333    0.00925926  13 t-inv F
  0.000000 -0.333333  0.333333    0.00925926  13 t-inv F
 -0.000000  0.500000  0.333333    0.00925926  14 t-inv F
 -0.166667  0.166667  0.333333    0.00925926  15 t-inv F
 -0.166667 -0.166667  0.333333    0.00925926  15 t-inv F
  0.166667 -0.166667  0.333333    0.00925926  15 t-inv F
 -0.166667  0.333333  0.333333    0.00925926  16 t-inv F
 -0.333333 -0.166667  0.333333    0.00925926  16 t-inv F
  0.166667 -0.333333  0.333333    0.00925926  16 t-inv F
  0.333333 -0.166667  0.333333    0.00925926  16 t-inv F
 -0.166667 -0.333333  0.333333    0.00925926  16 t-inv F
 -0.333333  0.166667  0.333333    0.00925926  16 t-inv F
  0.166667  0.333333  0.333333    0.00925926  16 t-inv F
 -0.166667  0.500000  0.333333    0.00925926  17 t-inv F
 -0.500000 -0.166667  0.333333    0.00925926  17 t-inv F
  0.166667 -0.500000  0.333333    0.00925926  17 t-inv F
 -0.333333  0.333333  0.333333    0.00925926  18 t-inv F
 -0.333333 -0.333333  0.333333    0.00925926  18 t-inv F
  0.333333 -0.333333  0.333333    0.00925926  18 t-inv F
 -0.333333  0.500000  0.333333    0.00925926  19 t-inv F
 -0.500000 -0.333333  0.333333    0.00925926  19 t-inv F
  0.333333 -0.500000  0.333333    0.00925926  19 t-inv F
 -0.000000 -0.000000 -0.333333    0.00925926  11 t-inv T
 -0.166667 -0.000000 -0.333333    0.00925926  12 t-inv T
  0.000000 -0.166667 -0.333333    0.00925926  12 t-inv T
  0.166667  0.000000 -0.333333    0.00925926  12 t-inv T
 -0.000000  0.166667 -0.333333    0.00925926  12 t-inv T
 -0.333333 -0.000000 -0.333333    0.00925926  13 t-inv T
  0.000000 -0.333333 -0.333333    0.00925926  13 t-inv T
  0.333333  0.000000 -0.333333    0.00925926  13 t-inv T
 -0.000000  0.333333 -0.333333    0.00925926  13 t-inv T
 -0.500000 -0.000000 -0.333333    0.00925926  14 t-inv T
  0.000000 -0.500000 -0.333333    0.00925926  14 t-inv T
 -0.166667 -0.166667 -0.333333    0.00925926  15 t-inv T
  0.166667 -0.166667 -0.333333    0.00925926  15 t-inv T
  0.166667  0.166667 -0.333333    0.00925926  15 t-inv T
 -0.166667  0.166667 -0.333333    0.00925926  15 t-inv T
 -0.333333 -0.166667 -0.333333    0.00925926  16 t-inv T
  0.166667 -0.333333 -0.333333    0.00925926  16 t-inv T
  0.333333  0.166667 -0.333333    0.00925926  16 t-inv T
 -0.166667  0.333333 -0.333333    0.00925926  16 t-inv T
 -0.333333  0.166667 -0.333333    0.00925926  16 t-inv T
  0.166667  0.333333 -0.333333    0.00925926  16 t-inv T
  0.333333 -0.166667 -0.333333    0.00925926  16 t-inv T
 -0.166667 -0.333333 -0.333333    0.00925926  16 t-inv T
 -0.500000 -0.166667 -0.333333    0.00925926  17 t-inv T
  0.166667 -0.500000 -0.333333    0.00925926  17 t-inv T
  0.500000  0.166667 -0.333333    0.00925926  17 t-inv T
 -0.166667  0.500000 -0.333333    0.00925926  17 t-inv T
 -0.333333 -0.333333 -0.333333    0.00925926  18 t-inv T
  0.333333 -0.333333 -0.333333    0.00925926  18 t-inv T
  0.333333  0.333333 -0.333333    0.00925926  18 t-inv T
 -0.333333  0.333333 -0.333333    0.00925926  18 t-inv T
 -0.500000 -0.333333 -0.333333    0.00925926  19 t-inv T
  0.333333 -0.500000 -0.333333    0.00925926  19 t-inv T
  0.500000  0.333333 -0.333333    0.00925926  19 t-inv T
 -0.333333  0.500000 -0.333333    0.00925926  19 t-inv T
 -0.500000 -0.500000 -0.333333    0.00925926  20 t-inv T


--------------------------------------------------------------------------------------------------------




 Dimension of arrays:
   k-points           NKPTS =     20   k-points in BZ     NKDIM =     20   number of bands    NBANDS=     32
   number of dos      NEDOS =    301   number of ions     NIONS =      4
   non local maximal  LDIM  =      4   non local SUM 2l+1 LMDIM =      8
   total plane-waves  NPLWV =  10368
   max r-space proj   IRMAX =   1212   max aug-charges    IRDMAX=   4411
   dimension x,y,z NGX =    18 NGY =   18 NGZ =   32
   dimension x,y,z NGXF=    36 NGYF=   36 NGZF=   64
   support grid    NGXF=    36 NGYF=   36 NGZF=   64
   ions per type =               1   1   2
   NGX,Y,Z   is equivalent  to a cutoff of   8.43,  8.43,  8.15 a.u.
   NGXF,Y,Z  is equivalent  to a cutoff of  16.85, 16.85, 16.30 a.u.

 SYSTEM =  unknown system                          
 POSCAR =  Na1 Si1 S2                              

 Startparameter for this run:
   NWRITE =      2    write-flag & timer
   PREC   = normal    normal or accurate (medium, high low for compatibility)
   ISTART =      0    job   : 0-new  1-cont  2-samecut
   ICHARG =      2    charge: 1-file 2-atom 10-const
   ISPIN  =      1    spin polarized calculation?
   LNONCOLLINEAR =      F non collinear calculations
   LSORBIT =      F    spin-orbit coupling
   INIWAV =      1    electr: 0-lowe 1-rand  2-diag
   LASPH  =      F    aspherical Exc in radial PAW
 Electronic Relaxation 1
   ENCUT  =  400.0 eV  29.40 Ry    5.42 a.u.   5.79  5.79 10.64*2*pi/ulx,y,z
   ENINI  =  400.0     initial cutoff
   ENAUG  =  368.1 eV  augmentation charge cutoff
   NELM   =     60;   NELMIN=  2; NELMDL= -5     # of ELM steps 
   EDIFF  = 0.1E-05   stopping-criterion for ELM
   LREAL  =      T    real-space projection
   NLSPLINE    = F    spline interpolate recip. space projectors
   LCOMPAT=      F    compatible to vasp.4.4
   GGA_COMPAT  = T    GGA compatible to vasp.4.4-vasp.4.6
   LMAXPAW     = -100 max onsite density
   LMAXMIX     =    2 max onsite mixed and CHGCAR
   VOSKOWN=      0    Vosko Wilk Nusair interpolation
   ROPT   =   -0.00050  -0.00050  -0.00050
 Ionic relaxation
   EDIFFG = 0.1E-04   stopping-criterion for IOM
   NSW    =     85    number of steps for IOM
   NBLOCK =      1;   KBLOCK =     85    inner block; outer block 
   IBRION =      6    ionic relax: 0-MD 1-quasi-New 2-CG
   NFREE  =      4    steps in history (QN), initial steepest desc. (CG)
   ISIF   =      3    stress and relaxation
   IWAVPR =     11    prediction:  0-non 1-charg 2-wave 3-comb
   ISYM   =      2    0-nonsym 1-usesym 2-fastsym
   LCORR  =      T    Harris-Foulkes like correction to forces

   POTIM  = 0.0150    time-step for ionic-motion
   TEIN   =    0.0    initial temperature
   TEBEG  =    0.0;   TEEND  =   0.0 temperature during run
   SMASS  =  -3.00    Nose mass-parameter (am)
   estimated Nose-frequenzy (Omega)   =  0.10E-29 period in steps = 0.42E+48 mass=  -0.288E-27a.u.
   SCALEE = 1.0000    scale energy and forces
   NPACO  =    256;   APACO  = 10.0  distance and # of slots for P.C.
   PSTRESS=    0.0 pullay stress

  Mass of Ions in am
   POMASS =  22.99 28.09 32.07
  Ionic Valenz
   ZVAL   =   7.00  4.00  6.00
  Atomic Wigner-Seitz radii
   RWIGS  =  -1.00 -1.00 -1.00
  virtual crystal weights 
   VCA    =   1.00  1.00  1.00
   NELECT =      23.0000    total number of electrons
   NUPDOWN=      -1.0000    fix difference up-down

 DOS related values:
   EMIN   =  10.00;   EMAX   =-10.00  energy-range for DOS
   EFERMI =   0.00
   ISMEAR =     0;   SIGMA  =   0.05  broadening in eV -4-tet -1-fermi 0-gaus

 Electronic relaxation 2 (details)
   IALGO  =     38    algorithm
   LDIAG  =      T    sub-space diagonalisation (order eigenvalues)
   LSUBROT=      F    optimize rotation matrix (better conditioning)
   TURBO    =      0    0=normal 1=particle mesh
   IRESTART =      0    0=no restart 2=restart with 2 vectors
   NREBOOT  =      0    no. of reboots
   NMIN     =      0    reboot dimension
   EREF     =   0.00    reference energy to select bands
   IMIX   =      4    mixing-type and parameters
     AMIX     =   0.40;   BMIX     =  1.00
     AMIX_MAG =   1.60;   BMIX_MAG =  1.00
     AMIN     =   0.10
     WC   =   100.;   INIMIX=   1;  MIXPRE=   1;  MAXMIX= -45

 Intra band minimization:
   WEIMIN = 0.0010     energy-eigenvalue tresh-hold
   EBREAK =  0.78E-08  absolut break condition
   DEPER  =   0.30     relativ break condition  

   TIME   =   0.40     timestep for ELM

  volume/ion in A,a.u.               =      20.58       138.86
  Fermi-wavevector in a.u.,A,eV,Ry     =   1.070286  2.022547 15.585633  1.145512
  Thomas-Fermi vector in A             =   2.205991

 Write flags
   LWAVE        =      F    write WAVECAR
   LDOWNSAMPLE  =      F    k-point downsampling of WAVECAR
   LCHARG       =      F    write CHGCAR
   LVTOT        =      F    write LOCPOT, total local potential
   LVHAR        =      F    write LOCPOT, Hartree potential only
   LELF         =      F    write electronic localiz. function (ELF)
   LORBIT       =      0    0 simple, 1 ext, 2 COOP (PROOUT), +10 PAW based schemes


 Dipole corrections
   LMONO  =      F    monopole corrections only (constant potential shift)
   LDIPOL =      F    correct potential (dipole corrections)
   IDIPOL =      0    1-x, 2-y, 3-z, 4-all directions 
   EPSILON=  1.0000000 bulk dielectric constant

 Exchange correlation treatment:
   GGA     =    --    GGA type
   LEXCH   =     8    internal setting for exchange type
   LIBXC   =     F    Libxc                    
   VOSKOWN =     0    Vosko Wilk Nusair interpolation
   LHFCALC =     F    Hartree Fock is set to
   LHFONE  =     F    Hartree Fock one center treatment
   AEXX    =    0.0000 exact exchange contribution

 Linear response parameters
   LEPSILON=     F    determine dielectric tensor
   LRPA    =     F    only Hartree local field effects (RPA)
   LNABLA  =     F    use nabla operator in PAW spheres
   LVEL    =     F    velocity operator in full k-point grid
   CSHIFT  =0.1000    complex shift for real part using Kramers Kronig
   OMEGAMAX=  -1.0    maximum frequency
   DEG_THRESHOLD= 0.2000000E-02 threshold for treating states as degnerate
   RTIME   =   -0.100 relaxation time in fs
  (WPLASMAI=    0.000 imaginary part of plasma frequency in eV, 0.658/RTIME)
   DFIELD  = 0.0000000 0.0000000 0.0000000 field for delta impulse in time

  Optional k-point grid parameters
   LKPOINTS_OPT  =     F    use optional k-point grid
   KPOINTS_OPT_MODE=     1    mode for optional k-point grid

 Orbital magnetization related:
   ORBITALMAG=     F  switch on orbital magnetization
   LCHIMAG   =     F  perturbation theory with respect to B field
   DQ        =  0.001000  dq finite difference perturbation B field
   LLRAUG    =     F  two centre corrections for induced B field



--------------------------------------------------------------------------------------------------------


 finite differences with symmetry
 charge density and potential will be updated during run
 non-spin polarized calculation
 Variant of blocked Davidson
 Davidson routine will perform the subspace rotation
 perform sub-space diagonalisation
    after iterative eigenvector-optimisation
 modified Broyden-mixing scheme, WC =      100.0
 initial mixing is a Kerker type mixing with AMIX =  0.4000 and BMIX =      1.0000
 Hartree-type preconditioning will be used
 using additional bands           20
 real space projection scheme for non local part
 use partial core corrections
 calculate Harris-corrections to forces   (improved forces if not selfconsistent)
 use gradient corrections 
 use of overlap-Matrix (Vanderbilt PP)
 Gauss-broadening in eV      SIGMA  =   0.05


--------------------------------------------------------------------------------------------------------


  energy-cutoff  :      400.00
  volume of cell :       82.31
      direct lattice vectors                 reciprocal lattice vectors
     3.551186559  0.000000000  0.000000000     0.281596020  0.000000000  0.000000000
     0.000000000  3.551186559  0.000000000     0.000000000  0.281596020  0.000000000
     0.000000000  0.000000000  6.526886457     0.000000000  0.000000000  0.153212409

  length of vectors
     3.551186559  3.551186559  6.526886457     0.281596020  0.281596020  0.153212409



 k-points in units of 2pi/SCALE and weight: pymatgen with grid density = 600 / numbe
   0.00000000  0.00000000  0.00000000       0.009
   0.04693267  0.00000000  0.00000000       0.037
   0.09386534  0.00000000  0.00000000       0.037
   0.14079801  0.00000000  0.00000000       0.019
   0.04693267  0.04693267  0.00000000       0.037
   0.09386534  0.04693267  0.00000000       0.074
   0.14079801  0.04693267  0.00000000       0.037
   0.09386534  0.09386534  0.00000000       0.037
   0.14079801  0.09386534  0.00000000       0.037
   0.14079801  0.14079801  0.00000000       0.009
   0.00000000  0.00000000  0.05107080       0.019
   0.04693267  0.00000000  0.05107080       0.074
   0.09386534  0.00000000  0.05107080       0.074
   0.14079801  0.00000000  0.05107080       0.037
   0.04693267  0.04693267  0.05107080       0.074
   0.09386534  0.04693267  0.05107080       0.148
   0.14079801  0.04693267  0.05107080       0.074
   0.09386534  0.09386534  0.05107080       0.074
   0.14079801  0.09386534  0.05107080       0.074
   0.14079801  0.14079801  0.05107080       0.019

 k-points in reciprocal lattice and weights: pymatgen with grid density = 600 / numbe
   0.00000000  0.00000000  0.00000000       0.009
   0.16666667  0.00000000  0.00000000       0.037
   0.33333333  0.00000000  0.00000000       0.037
   0.50000000  0.00000000  0.00000000       0.019
   0.16666667  0.16666667  0.00000000       0.037
   0.33333333  0.16666667  0.00000000       0.074
   0.50000000  0.16666667  0.00000000       0.037
   0.33333333  0.33333333  0.00000000       0.037
   0.50000000  0.33333333  0.00000000       0.037
   0.50000000  0.50000000  0.00000000       0.009
   0.00000000  0.00000000  0.33333333       0.019
   0.16666667  0.00000000  0.33333333       0.074
   0.33333333  0.00000000  0.33333333       0.074
   0.50000000  0.00000000  0.33333333       0.037
   0.16666667  0.16666667  0.33333333       0.074
   0.33333333  0.16666667  0.33333333       0.148
   0.50000000  0.16666667  0.33333333       0.074
   0.33333333  0.33333333  0.33333333       0.074
   0.50000000  0.33333333  0.33333333       0.074
   0.50000000  0.50000000  0.33333333       0.019

 position of ions in fractional coordinates (direct lattice) 
   0.49999994  0.49999994  0.46166559
   0.00000000  0.00000000  0.92304250
   0.00000000  0.00000000  0.60592742
   0.49999994  0.49999994  0.01936381

 position of ions in cartesian coordinates  (Angst):
   1.77559306  1.77559306  3.01323889
   0.00000000  0.00000000  6.02459357
   0.00000000  0.00000000  3.95481947
   1.77559306  1.77559306  0.12638537



--------------------------------------------------------------------------------------------------------


 k-point   1 :   0.0000 0.0000 0.0000  plane waves:    1481
 k-point   2 :   0.1667 0.0000 0.0000  plane waves:    1491
 k-point   3 :   0.3333 0.0000 0.0000  plane waves:    1516
 k-point   4 :   0.5000 0.0000 0.0000  plane waves:    1496
 k-point   5 :   0.1667 0.1667 0.0000  plane waves:    1488
 k-point   6 :   0.3333 0.1667 0.0000  plane waves:    1492
 k-point   7 :   0.5000 0.1667 0.0000  plane waves:    1488
 k-point   8 :   0.3333 0.3333 0.0000  plane waves:    1504
 k-point   9 :   0.5000 0.3333 0.0000  plane waves:    1506
 k-point  10 :   0.5000 0.5000 0.0000  plane waves:    1520
 k-point  11 :   0.0000 0.0000 0.3333  plane waves:    1485
 k-point  12 :   0.1667 0.0000 0.3333  plane waves:    1498
 k-point  13 :   0.3333 0.0000 0.3333  plane waves:    1504
 k-point  14 :   0.5000 0.0000 0.3333  plane waves:    1494
 k-point  15 :   0.1667 0.1667 0.3333  plane waves:    1489
 k-point  16 :   0.3333 0.1667 0.3333  plane waves:    1494
 k-point  17 :   0.5000 0.1667 0.3333  plane waves:    1500
 k-point  18 :   0.3333 0.3333 0.3333  plane waves:    1492
 k-point  19 :   0.5000 0.3333 0.3333  plane waves:    1486
 k-point  20 :   0.5000 0.5000 0.3333  plane waves:    1500

 maximum and minimum number of plane-waves per node :      1520     1481

 maximum number of plane-waves:      1520
 maximum index in each direction: 
   IXMAX=    5   IYMAX=    5   IZMAX=   10
   IXMIN=   -6   IYMIN=   -6   IZMIN=  -10


 serial   3D FFT for wavefunctions
 parallel 3D FFT for charge:
    minimum data exchange during FFTs selected (reduces bandwidth)


 total amount of memory used by VASP MPI-rank0    31781. kBytes
=======================================================================

   base      :      30000. kBytes
   nonlr-proj:        359. kBytes
   fftplans  :        188. kBytes
   grid      :        721. kBytes
   one-center:         12. kBytes
   wavefun   :        501. kBytes

     INWAV:  cpu time      0.0000: real time      0.0002
 Broyden mixing: mesh for mixing (old mesh)
   NGX = 11   NGY = 11   NGZ = 21
  (NGX  = 36   NGY  = 36   NGZ  = 64)
  gives a total of   2541 points

 initial charge density was supplied:
 charge density of overlapping atoms calculated
 number of electron      23.0000000 magnetization 
 keeping initial charge density in first step


--------------------------------------------------------------------------------------------------------


 Maximum index for non-local projection operator         1149
 Maximum index for augmentation-charges          554 (set IRDMAX)


--------------------------------------------------------------------------------------------------------


 First call to EWALD:  gamma=   0.407
 Maximum number of real-space cells 3x 3x 2
 Maximum number of reciprocal cells 2x 2x 4

    FEWALD:  cpu time      0.0006: real time      0.0006


--------------------------------------- Iteration      1(   1)  ---------------------------------------


    POTLOK:  cpu time      0.0062: real time      0.0065
    SETDIJ:  cpu time      0.0017: real time      0.0019
     EDDAV:  cpu time      0.3089: real time      0.3091
       DOS:  cpu time      0.0007: real time      0.0009
    --------------------------------------------
      LOOP:  cpu time      0.3174: real time      0.3184

 eigenvalue-minimisations  :  1280
 total energy-change (2. order) : 0.3469155E+02  (-0.1028634E+04)
 number of electron      23.0000000 magnetization 
 augmentation part       23.0000000 magnetization 

 Free energy of the ion-electron system (eV)
  ---------------------------------------------------
  alpha Z        PSCENC =        28.58252497
  Ewald energy   TEWEN  =      -970.16601149
  -Hartree energ DENC   =      -319.11594309
  -exchange      EXHF   =         0.00000000
  -V(xc)+E(xc)   XCENC  =        39.95787468
  PAW double counting   =      1025.43992223    -1090.03883641
  entropy T*S    EENTRO =        -0.00083247
  eigenvalues    EBANDS =      -102.70327764
  atomic energy  EATOM  =      1422.73612946
  Solvation  Ediel_sol  =         0.00000000
  ---------------------------------------------------
  free energy    TOTEN  =        34.69155026 eV

  energy without entropy =       34.69238273  energy(sigma->0) =       34.69196649


--------------------------------------------------------------------------------------------------------




--------------------------------------- Iteration      1(   2)  ---------------------------------------


     EDDAV:  cpu time      0.5847: real time      0.5852
       DOS:  cpu time      0.0003: real time      0.0004
    --------------------------------------------
      LOOP:  cpu time      0.5850: real time      0.5856

 eigenvalue-minimisations  :  1952
 total energy-change (2. order) :-0.5207490E+02  (-0.5202241E+02)
 number of electron      23.0000000 magnetization 
 augmentation part       23.0000000 magnetization 

 Free energy of the ion-electron system (eV)
  ---------------------------------------------------
  alpha Z        PSCENC =        28.58252497
  Ewald energy   TEWEN  =      -970.16601149
  -Hartree energ DENC   =      -319.11594309
  -exchange      EXHF   =         0.00000000
  -V(xc)+E(xc)   XCENC  =        39.95787468
  PAW double counting   =      1025.43992223    -1090.03883641
  entropy T*S    EENTRO =        -0.00000000
  eigenvalues    EBANDS =      -154.77900958
  atomic energy  EATOM  =      1422.73612946
  Solvation  Ediel_sol  =         0.00000000
  ---------------------------------------------------
  free energy    TOTEN  =       -17.38334921 eV

  energy without entropy =      -17.38334921  energy(sigma->0) =      -17.38334921


--------------------------------------------------------------------------------------------------------




--------------------------------------- Iteration      1(   3)  ---------------------------------------


     EDDAV:  cpu time      0.3166: real time      0.3168
       DOS:  cpu time      0.0002: real time      0.0003
    --------------------------------------------
      LOOP:  cpu time      0.3168: real time      0.3171

 eigenvalue-minimisations  :  1344
 total energy-change (2. order) :-0.6077474E+00  (-0.6077474E+00)
 number of electron      23.0000000 magnetization 
 augmentation part       23.0000000 magnetization 

 Free energy of the ion-electron system (eV)
  ---------------------------------------------------
  alpha Z        PSCENC =        28.58252497
  Ewald energy   TEWEN  =      -970.16601149
  -Hartree energ DENC   =      -319.11594309
  -exchange      EXHF   =         0.00000000
  -V(xc)+E(xc)   XCENC  =        39.95787468
  PAW double counting   =      1025.43992223    -1090.03883641
  entropy T*S    EENTRO =        -0.00000000
  eigenvalues    EBANDS =      -155.38675694
  atomic energy  EATOM  =      1422.73612946
  Solvation  Ediel_sol  =         0.00000000
  ---------------------------------------------------
  free energy    TOTEN  =       -17.99109657 eV

  energy without entropy =      -17.99109657  energy(sigma->0) =      -17.99109657


--------------------------------------------------------------------------------------------------------




--------------------------------------- Iteration      1(   4)  ---------------------------------------


     EDDAV:  cpu time      0.9993: real time      0.9996
       DOS:  cpu time      0.0004: real time      0.0005
    --------------------------------------------
      LOOP:  cpu time      0.9997: real time      1.0002

 eigenvalue-minimisations  :  2528
 total energy-change (2. order) :-0.2336081E-02  (-0.2336081E-02)
 number of electron      23.0000000 magnetization 
 augmentation part       23.0000000 magnetization 

 Free energy of the ion-electron system (eV)
  ---------------------------------------------------
  alpha Z        PSCENC =        28.58252497
  Ewald energy   TEWEN  =      -970.16601149
  -Hartree energ DENC   =      -319.11594309
  -exchange      EXHF   =         0.00000000
  -V(xc)+E(xc)   XCENC  =        39.95787468
  PAW double counting   =      1025.43992223    -1090.03883641
  entropy T*S    EENTRO =        -0.00000000
  eigenvalues    EBANDS =      -155.38909302
  atomic energy  EATOM  =      1422.73612946
  Solvation  Ediel_sol  =         0.00000000
  ---------------------------------------------------
  free energy    TOTEN  =       -17.99343265 eV

  energy without entropy =      -17.99343265  energy(sigma->0) =      -17.99343265


--------------------------------------------------------------------------------------------------------




--------------------------------------- Iteration      1(   5)  ---------------------------------------


     EDDAV:  cpu time      0.4262: real time      0.4267
       DOS:  cpu time      0.0003: real time      0.0004
    CHARGE:  cpu time      0.0071: real time      0.0073
    MIXING:  cpu time      0.0009: real time      0.0011
    --------------------------------------------
      LOOP:  cpu time      0.4345: real time      0.4355

 eigenvalue-minimisations  :  1344
 total energy-change (2. order) :-0.9183395E-07  (-0.9183355E-07)
 number of electron      23.0000081 magnetization 
 augmentation part        2.5206432 magnetization 

 Broyden mixing:
  rms(total) = 0.91382E+00    rms(broyden)= 0.91380E+00
  rms(prec ) = 0.11675E+01
  weight for this iteration     100.00

 Free energy of the ion-electron system (eV)
  ---------------------------------------------------
  alpha Z        PSCENC =        28.58252497
  Ewald energy   TEWEN  =      -970.16601149
  -Hartree energ DENC   =      -319.11594309
  -exchange      EXHF   =         0.00000000
  -V(xc)+E(xc)   XCENC  =        39.95787468
  PAW double counting   =      1025.43992223    -1090.03883641
  entropy T*S    EENTRO =        -0.00000000
  eigenvalues    EBANDS =      -155.38909311
  atomic energy  EATOM  =      1422.73612946
  Solvation  Ediel_sol  =         0.00000000
  ---------------------------------------------------
  free energy    TOTEN  =       -17.99343274 eV

  energy without entropy =      -17.99343274  energy(sigma->0) =      -17.99343274


--------------------------------------------------------------------------------------------------------




--------------------------------------- Iteration      1(   6)  ---------------------------------------


    POTLOK:  cpu time      0.0049: real time      0.0051
    SETDIJ:  cpu time      0.0011: real time      0.0011
     EDDAV:  cpu time      0.6958: real time      0.6974
       DOS:  cpu time      0.0002: real time      0.0004
    CHARGE:  cpu time      0.0062: real time      0.0062
    MIXING:  cpu time      0.0004: real time      0.0004
    --------------------------------------------
      LOOP:  cpu time      0.7085: real time      0.7105

 eigenvalue-minimisations  :  2080
 total energy-change (2. order) : 0.7487206E+00  (-0.2354262E+00)
 number of electron      23.0000081 magnetization 
 augmentation part        2.5685610 magnetization 

 Broyden mixing:
  rms(total) = 0.64452E+00    rms(broyden)= 0.64452E+00
  rms(prec ) = 0.70163E+00
  weight for this iteration     100.00

 eigenvalues of (default mixing * dielectric matrix)
  average eigenvalue GAMMA=   2.2168
  2.2168

 Free energy of the ion-electron system (eV)
  ---------------------------------------------------
  alpha Z        PSCENC =        28.58252497
  Ewald energy   TEWEN  =      -970.16601149
  -Hartree energ DENC   =      -324.70973059
  -exchange      EXHF   =         0.00000000
  -V(xc)+E(xc)   XCENC  =        40.47535973
  PAW double counting   =      1307.63609380    -1372.45271454
  entropy T*S    EENTRO =        -0.00000000
  eigenvalues    EBANDS =      -149.34636352
  atomic energy  EATOM  =      1422.73612946
  Solvation  Ediel_sol  =         0.00000000
  ---------------------------------------------------
  free energy    TOTEN  =       -17.24471216 eV

  energy without entropy =      -17.24471216  energy(sigma->0) =      -17.24471216


--------------------------------------------------------------------------------------------------------




--------------------------------------- Iteration      1(   7)  ---------------------------------------


    POTLOK:  cpu time      0.0047: real time      0.0049
    SETDIJ:  cpu time      0.0010: real time      0.0010
     EDDAV:  cpu time      0.8934: real time      0.8952
       DOS:  cpu time      0.0002: real time      0.0004
    CHARGE:  cpu time      0.0062: real time      0.0062
    MIXING:  cpu time      0.0002: real time      0.0002
    --------------------------------------------
      LOOP:  cpu time      0.9058: real time      0.9080

 eigenvalue-minimisations  :  2368
 total energy-change (2. order) : 0.7031250E-01  (-0.6308930E-01)
 number of electron      23.0000080 magnetization 
 augmentation part        2.5868474 magnetization 

 Broyden mixing:
  rms(total) = 0.24838E+00    rms(broyden)= 0.24838E+00
  rms(prec ) = 0.26543E+00
  weight for this iteration     100.00

 eigenvalues of (default mixing * dielectric matrix)
  average eigenvalue GAMMA=   1.8147
  1.3259  2.3036

 Free energy of the ion-electron system (eV)
  ---------------------------------------------------
  alpha Z        PSCENC =        28.58252497
  Ewald energy   TEWEN  =      -970.16601149
  -Hartree energ DENC   =      -328.02265200
  -exchange      EXHF   =         0.00000000
  -V(xc)+E(xc)   XCENC  =        40.85058209
  PAW double counting   =      1742.32092316    -1807.48678473
  entropy T*S    EENTRO =        -0.00000000
  eigenvalues    EBANDS =      -145.98911113
  atomic energy  EATOM  =      1422.73612946
  Solvation  Ediel_sol  =         0.00000000
  ---------------------------------------------------
  free energy    TOTEN  =       -17.17439966 eV

  energy without entropy =      -17.17439966  energy(sigma->0) =      -17.17439966


--------------------------------------------------------------------------------------------------------




--------------------------------------- Iteration      1(   8)  ---------------------------------------


    POTLOK:  cpu time      0.0046: real time      0.0048
    SETDIJ:  cpu time      0.0010: real time      0.0010
     EDDAV:  cpu time      0.5614: real time      0.5630
       DOS:  cpu time      0.0003: real time      0.0004
    CHARGE:  cpu time      0.0075: real time      0.0075
    MIXING:  cpu time      0.0008: real time      0.0008
    --------------------------------------------
      LOOP:  cpu time      0.5755: real time      0.5775

 eigenvalue-minimisations  :  1824
 total energy-change (2. order) :-0.1163247E-02  (-0.7291372E-02)
 number of electron      23.0000080 magnetization 
 augmentation part        2.5809504 magnetization 

 Broyden mixing:
  rms(total) = 0.27122E-01    rms(broyden)= 0.27121E-01
  rms(prec ) = 0.44618E-01
  weight for this iteration     100.00

 eigenvalues of (default mixing * dielectric matrix)
  average eigenvalue GAMMA=   1.6152
  2.3441  1.2508  1.2508

 Free energy of the ion-electron system (eV)
  ---------------------------------------------------
  alpha Z        PSCENC =        28.58252497
  Ewald energy   TEWEN  =      -970.16601149
  -Hartree energ DENC   =      -327.99159311
  -exchange      EXHF   =         0.00000000
  -V(xc)+E(xc)   XCENC  =        40.92193421
  PAW double counting   =      1963.43419335    -2028.74390588
  entropy T*S    EENTRO =        -0.00000000
  eigenvalues    EBANDS =      -145.94883443
  atomic energy  EATOM  =      1422.73612946
  Solvation  Ediel_sol  =         0.00000000
  ---------------------------------------------------
  free energy    TOTEN  =       -17.17556290 eV

  energy without entropy =      -17.17556290  energy(sigma->0) =      -17.17556290


--------------------------------------------------------------------------------------------------------




--------------------------------------- Iteration      1(   9)  ---------------------------------------


    POTLOK:  cpu time      0.0067: real time      0.0069
    SETDIJ:  cpu time      0.0011: real time      0.0011
     EDDAV:  cpu time      0.8228: real time      0.8259
       DOS:  cpu time      0.0003: real time      0.0009
    CHARGE:  cpu time      0.0073: real time      0.0073
    MIXING:  cpu time      0.0002: real time      0.0002
    --------------------------------------------
      LOOP:  cpu time      0.8385: real time      0.8424

 eigenvalue-minimisations  :  2208
 total energy-change (2. order) :-0.3299541E-03  (-0.1046926E-02)
 number of electron      23.0000080 magnetization 
 augmentation part        2.5817929 magnetization 

 Broyden mixing:
  rms(total) = 0.24775E-01    rms(broyden)= 0.24775E-01
  rms(prec ) = 0.28040E-01
  weight for this iteration     100.00

 eigenvalues of (default mixing * dielectric matrix)
  average eigenvalue GAMMA=   1.4639
  2.2806  1.4654  1.4654  0.6442

 Free energy of the ion-electron system (eV)
  ---------------------------------------------------
  alpha Z        PSCENC =        28.58252497
  Ewald energy   TEWEN  =      -970.16601149
  -Hartree energ DENC   =      -328.28122038
  -exchange      EXHF   =         0.00000000
  -V(xc)+E(xc)   XCENC  =        40.95409547
  PAW double counting   =      1983.02601198    -2048.33894842
  entropy T*S    EENTRO =        -0.00000000
  eigenvalues    EBANDS =      -145.68847446
  atomic energy  EATOM  =      1422.73612946
  Solvation  Ediel_sol  =         0.00000000
  ---------------------------------------------------
  free energy    TOTEN  =       -17.17589286 eV

  energy without entropy =      -17.17589286  energy(sigma->0) =      -17.17589286


--------------------------------------------------------------------------------------------------------




--------------------------------------- Iteration      1(  10)  ---------------------------------------


    POTLOK:  cpu time      0.0049: real time      0.0050
    SETDIJ:  cpu time      0.0011: real time      0.0011
     EDDAV:  cpu time      0.4655: real time      0.4668
       DOS:  cpu time      0.0002: real time      0.0003
    CHARGE:  cpu time      0.0061: real time      0.0061
    MIXING:  cpu time      0.0002: real time      0.0002
    --------------------------------------------
      LOOP:  cpu time      0.4780: real time      0.4796

 eigenvalue-minimisations  :  1600
 total energy-change (2. order) :-0.4442561E-03  (-0.4604274E-04)
 number of electron      23.0000080 magnetization 
 augmentation part        2.5818259 magnetization 

 Broyden mixing:
  rms(total) = 0.12091E-01    rms(broyden)= 0.12091E-01
  rms(prec ) = 0.15591E-01
  weight for this iteration     100.00

 eigenvalues of (default mixing * dielectric matrix)
  average eigenvalue GAMMA=   1.6489
  2.4530  2.4530  1.2453  1.2453  0.8478

 Free energy of the ion-electron system (eV)
  ---------------------------------------------------
  alpha Z        PSCENC =        28.58252497
  Ewald energy   TEWEN  =      -970.16601149
  -Hartree energ DENC   =      -328.31515862
  -exchange      EXHF   =         0.00000000
  -V(xc)+E(xc)   XCENC  =        40.95681865
  PAW double counting   =      1969.25976079    -2034.56489557
  entropy T*S    EENTRO =        -0.00000000
  eigenvalues    EBANDS =      -145.66550532
  atomic energy  EATOM  =      1422.73612946
  Solvation  Ediel_sol  =         0.00000000
  ---------------------------------------------------
  free energy    TOTEN  =       -17.17633711 eV

  energy without entropy =      -17.17633711  energy(sigma->0) =      -17.17633711


--------------------------------------------------------------------------------------------------------




--------------------------------------- Iteration      1(  11)  ---------------------------------------


    POTLOK:  cpu time      0.0046: real time      0.0048
    SETDIJ:  cpu time      0.0010: real time      0.0010
     EDDAV:  cpu time      0.5154: real time      0.5162
       DOS:  cpu time      0.0002: real time      0.0004
    CHARGE:  cpu time      0.0062: real time      0.0062
    MIXING:  cpu time      0.0003: real time      0.0003
    --------------------------------------------
      LOOP:  cpu time      0.5276: real time      0.5288

 eigenvalue-minimisations  :  1728
 total energy-change (2. order) :-0.3861651E-03  (-0.7740572E-04)
 number of electron      23.0000080 magnetization 
 augmentation part        2.5816370 magnetization 

 Broyden mixing:
  rms(total) = 0.44005E-02    rms(broyden)= 0.44004E-02
  rms(prec ) = 0.53633E-02
  weight for this iteration     100.00

 eigenvalues of (default mixing * dielectric matrix)
  average eigenvalue GAMMA=   1.5618
  2.5948  2.5948  1.3518  1.0310  1.0310  0.7675

 Free energy of the ion-electron system (eV)
  ---------------------------------------------------
  alpha Z        PSCENC =        28.58252497
  Ewald energy   TEWEN  =      -970.16601149
  -Hartree energ DENC   =      -328.38922450
  -exchange      EXHF   =         0.00000000
  -V(xc)+E(xc)   XCENC  =        40.96557336
  PAW double counting   =      1962.14852077    -2027.45579030
  entropy T*S    EENTRO =        -0.00000000
  eigenvalues    EBANDS =      -145.59844556
  atomic energy  EATOM  =      1422.73612946
  Solvation  Ediel_sol  =         0.00000000
  ---------------------------------------------------
  free energy    TOTEN  =       -17.17672328 eV

  energy without entropy =      -17.17672328  energy(sigma->0) =      -17.17672328


--------------------------------------------------------------------------------------------------------




--------------------------------------- Iteration      1(  12)  ---------------------------------------


    POTLOK:  cpu time      0.0046: real time      0.0048
    SETDIJ:  cpu time      0.0010: real time      0.0010
     EDDAV:  cpu time      0.7050: real time      0.7066
       DOS:  cpu time      0.0002: real time      0.0003
    CHARGE:  cpu time      0.0062: real time      0.0062
    MIXING:  cpu time      0.0002: real time      0.0002
    --------------------------------------------
      LOOP:  cpu time      0.7172: real time      0.7192

 eigenvalue-minimisations  :  2016
 total energy-change (2. order) :-0.2548210E-04  (-0.8954694E-05)
 number of electron      23.0000080 magnetization 
 augmentation part        2.5817999 magnetization 

 Broyden mixing:
  rms(total) = 0.16696E-02    rms(broyden)= 0.16696E-02
  rms(prec ) = 0.19020E-02
  weight for this iteration     100.00

 eigenvalues of (default mixing * dielectric matrix)
  average eigenvalue GAMMA=   1.6265
  2.8731  2.4684  1.6607  1.3896  1.0045  0.9946  0.9946

 Free energy of the ion-electron system (eV)
  ---------------------------------------------------
  alpha Z        PSCENC =        28.58252497
  Ewald energy   TEWEN  =      -970.16601149
  -Hartree energ DENC   =      -328.43627183
  -exchange      EXHF   =         0.00000000
  -V(xc)+E(xc)   XCENC  =        40.96911279
  PAW double counting   =      1959.68543096    -2024.99407529
  entropy T*S    EENTRO =        -0.00000000
  eigenvalues    EBANDS =      -145.55358834
  atomic energy  EATOM  =      1422.73612946
  Solvation  Ediel_sol  =         0.00000000
  ---------------------------------------------------
  free energy    TOTEN  =       -17.17674876 eV

  energy without entropy =      -17.17674876  energy(sigma->0) =      -17.17674876


--------------------------------------------------------------------------------------------------------




--------------------------------------- Iteration      1(  13)  ---------------------------------------


    POTLOK:  cpu time      0.0046: real time      0.0048
    SETDIJ:  cpu time      0.0010: real time      0.0010
     EDDAV:  cpu time      0.5838: real time      0.5858
       DOS:  cpu time      0.0002: real time      0.0003
    CHARGE:  cpu time      0.0061: real time      0.0061
    MIXING:  cpu time      0.0003: real time      0.0003
    --------------------------------------------
      LOOP:  cpu time      0.5960: real time      0.5983

 eigenvalue-minimisations  :  1728
 total energy-change (2. order) :-0.7006417E-05  (-0.9182349E-06)
 number of electron      23.0000080 magnetization 
 augmentation part        2.5818047 magnetization 

 Broyden mixing:
  rms(total) = 0.37136E-03    rms(broyden)= 0.37136E-03
  rms(prec ) = 0.47342E-03
  weight for this iteration     100.00

 eigenvalues of (default mixing * dielectric matrix)
  average eigenvalue GAMMA=   1.6966
  3.1661  2.6843  2.3688  1.3833  1.0520  1.0520  0.9333  0.9333

 Free energy of the ion-electron system (eV)
  ---------------------------------------------------
  alpha Z        PSCENC =        28.58252497
  Ewald energy   TEWEN  =      -970.16601149
  -Hartree energ DENC   =      -328.45055022
  -exchange      EXHF   =         0.00000000
  -V(xc)+E(xc)   XCENC  =        40.96997531
  PAW double counting   =      1959.24240888    -2024.55234521
  entropy T*S    EENTRO =        -0.00000000
  eigenvalues    EBANDS =      -145.53888747
  atomic energy  EATOM  =      1422.73612946
  Solvation  Ediel_sol  =         0.00000000
  ---------------------------------------------------
  free energy    TOTEN  =       -17.17675577 eV

  energy without entropy =      -17.17675577  energy(sigma->0) =      -17.17675577


--------------------------------------------------------------------------------------------------------




--------------------------------------- Iteration      1(  14)  ---------------------------------------


    POTLOK:  cpu time      0.0046: real time      0.0048
    SETDIJ:  cpu time      0.0011: real time      0.0011
     EDDAV:  cpu time      0.7820: real time      0.7825
       DOS:  cpu time      0.0002: real time      0.0003
    --------------------------------------------
      LOOP:  cpu time      0.7879: real time      0.7887

 eigenvalue-minimisations  :  2144
 total energy-change (2. order) :-0.8465627E-06  (-0.1273249E-06)
 number of electron      23.0000080 magnetization 
 augmentation part        2.5818047 magnetization 

 Free energy of the ion-electron system (eV)
  ---------------------------------------------------
  alpha Z        PSCENC =        28.58252497
  Ewald energy   TEWEN  =      -970.16601149
  -Hartree energ DENC   =      -328.45515016
  -exchange      EXHF   =         0.00000000
  -V(xc)+E(xc)   XCENC  =        40.97010723
  PAW double counting   =      1959.20269524    -2024.51253656
  entropy T*S    EENTRO =        -0.00000000
  eigenvalues    EBANDS =      -145.53451532
  atomic energy  EATOM  =      1422.73612946
  Solvation  Ediel_sol  =         0.00000000
  ---------------------------------------------------
  free energy    TOTEN  =       -17.17675661 eV

  energy without entropy =      -17.17675661  energy(sigma->0) =      -17.17675661


--------------------------------------------------------------------------------------------------------




 average (electrostatic) potential at core
  the test charge radii are     0.9254  0.9892  0.9698
  (the norm of the test charge is              1.0000)
       1 -44.9264       2 -86.4534       3 -86.6927       4 -88.1403



 E-fermi :   4.0539     XC(G=0):  -8.9667     alpha+bet :-10.0064

 Fermi energy:         4.0539056209

 k-point     1 :       0.0000    0.0000    0.0000
  band No.  band energies     occupation 
      1     -19.1343      2.00000
      2     -19.1184      2.00000
      3     -19.1184      2.00000
      4     -10.5010      2.00000
      5      -8.6314      2.00000
      6      -2.4163      2.00000
      7       0.6219      2.00000
      8       0.6219      2.00000
      9       1.2848      2.00000
     10       2.0412      2.00000
     11       3.2061      2.00000
     12       3.2061      2.00000
     13       7.5093      0.00000
     14       7.7727      0.00000
     15       9.3240      0.00000
     16       9.3240      0.00000
     17       9.6752      0.00000
     18      10.9335      0.00000
     19      11.2128      0.00000
     20      13.1583      0.00000
     21      13.5385      0.00000
     22      13.5385      0.00000
     23      15.1073      0.00000
     24      15.4155      0.00000
     25      17.1574      0.00000
     26      17.1574      0.00000
     27      17.5386      0.00000
     28      17.9827      0.00000
     29      18.3086      0.00000
     30      18.7498      0.00000
     31      18.7498      0.00000
     32      21.9453      0.00000

 k-point     2 :       0.1667    0.0000    0.0000
  band No.  band energies     occupation 
      1     -19.1341      2.00000
      2     -19.1288      2.00000
      3     -19.1173      2.00000
      4     -10.2836      2.00000
      5      -8.5736      2.00000
      6      -2.6566      2.00000
      7      -0.6368      2.00000
      8       0.8396      2.00000
      9       1.4809      2.00000
     10       2.2260      2.00000
     11       3.2239      2.00000
     12       3.3295      2.00000
     13       7.9410      0.00000
     14       8.4383      0.00000
     15       8.4435      0.00000
     16       8.9900      0.00000
     17       9.9714      0.00000
     18      10.4194      0.00000
     19      12.0862      0.00000
     20      12.1063      0.00000
     21      12.2035      0.00000
     22      14.9945      0.00000
     23      15.5319      0.00000
     24      16.6223      0.00000
     25      16.7270      0.00000
     26      16.9674      0.00000
     27      17.1228      0.00000
     28      17.7196      0.00000
     29      18.9555      0.00000
     30      19.4046      0.00000
     31      19.9604      0.00000
     32      20.3653      0.00000

 k-point     3 :       0.3333    0.0000    0.0000
  band No.  band energies     occupation 
      1     -19.1535      2.00000
      2     -19.1298      2.00000
      3     -19.1149      2.00000
      4      -9.7032      2.00000
      5      -8.5484      2.00000
      6      -3.7128      2.00000
      7      -0.7391      2.00000
      8       0.4496      2.00000
      9       1.4159      2.00000
     10       1.7943      2.00000
     11       3.1729      2.00000
     12       4.5773      0.00000
     13       6.8913      0.00000
     14       7.2913      0.00000
     15       8.5020      0.00000
     16       9.2000      0.00000
     17      10.3319      0.00000
     18      10.7448      0.00000
     19      12.0187      0.00000
     20      12.4245      0.00000
     21      13.0327      0.00000
     22      14.3493      0.00000
     23      15.8087      0.00000
     24      15.9025      0.00000
     25      16.0275      0.00000
     26      17.5117      0.00000
     27      18.7216      0.00000
     28      19.2202      0.00000
     29      19.5588      0.00000
     30      20.1087      0.00000
     31      20.8703      0.00000
     32      21.4598      0.00000

 k-point     4 :       0.5000    0.0000    0.0000
  band No.  band energies     occupation 
      1     -19.1646      2.00000
      2     -19.1284      2.00000
      3     -19.1136      2.00000
      4      -9.1612      2.00000
      5      -8.7584      2.00000
      6      -4.2937      2.00000
      7      -0.2897      2.00000
      8      -0.2156      2.00000
      9       1.4415      2.00000
     10       1.8788      2.00000
     11       2.9995      2.00000
     12       5.9671      0.00000
     13       6.0646      0.00000
     14       6.2123      0.00000
     15       7.9408      0.00000
     16       9.6884      0.00000
     17      10.1368      0.00000
     18      11.1875      0.00000
     19      11.3191      0.00000
     20      13.2699      0.00000
     21      13.3179      0.00000
     22      15.2296      0.00000
     23      15.6199      0.00000
     24      15.7060      0.00000
     25      16.8970      0.00000
     26      18.0019      0.00000
     27      18.1067      0.00000
     28      19.3316      0.00000
     29      19.9510      0.00000
     30      20.1455      0.00000
     31      20.2682      0.00000
     32      21.6838      0.00000

 k-point     5 :       0.1667    0.1667    0.0000
  band No.  band energies     occupation 
      1     -19.1336      2.00000
      2     -19.1277      2.00000
      3     -19.1269      2.00000
      4     -10.0740      2.00000
      5      -8.5160      2.00000
      6      -2.7596      2.00000
      7      -0.4332      2.00000
      8      -0.3445      2.00000
      9       1.2798      2.00000
     10       2.4789      2.00000
     11       2.5669      2.00000
     12       4.3924      0.00000
     13       6.9253      0.00000
     14       8.4328      0.00000
     15       8.6161      0.00000
     16       9.4960      0.00000
     17       9.7183      0.00000
     18      10.9846      0.00000
     19      11.9915      0.00000
     20      12.5061      0.00000
     21      12.8466      0.00000
     22      14.3742      0.00000
     23      15.2351      0.00000
     24      16.1447      0.00000
     25      16.5149      0.00000
     26      17.3397      0.00000
     27      17.3975      0.00000
     28      17.7714      0.00000
     29      18.6878      0.00000
     30      19.9691      0.00000
     31      20.9588      0.00000
     32      21.7550      0.00000

 k-point     6 :       0.3333    0.1667    0.0000
  band No.  band energies     occupation 
      1     -19.1508      2.00000
      2     -19.1289      2.00000
      3     -19.1244      2.00000
      4      -9.5196      2.00000
      5      -8.4791      2.00000
      6      -3.5154      2.00000
      7      -0.7783      2.00000
      8       0.0827      2.00000
      9       0.6338      2.00000
     10       1.8458      2.00000
     11       2.4881      2.00000
     12       4.3099      0.00000
     13       6.7352      0.00000
     14       7.8685      0.00000
     15       9.0392      0.00000
     16       9.3786      0.00000
     17      10.6150      0.00000
     18      11.0276      0.00000
     19      12.1306      0.00000
     20      12.7326      0.00000
     21      13.4534      0.00000
     22      13.7779      0.00000
     23      15.3963      0.00000
     24      16.0267      0.00000
     25      17.0210      0.00000
     26      17.3660      0.00000
     27      17.8822      0.00000
     28      19.1069      0.00000
     29      20.0165      0.00000
     30      20.1045      0.00000
     31      20.9751      0.00000
     32      21.5344      0.00000

 k-point     7 :       0.5000    0.1667    0.0000
  band No.  band energies     occupation 
      1     -19.1615      2.00000
      2     -19.1276      2.00000
      3     -19.1229      2.00000
      4      -9.0108      2.00000
      5      -8.6596      2.00000
      6      -4.0409      2.00000
      7      -0.3602      2.00000
      8      -0.3149      2.00000
      9       0.9534      2.00000
     10       1.5490      2.00000
     11       2.1233      2.00000
     12       3.8130      2.00000
     13       7.2530      0.00000
     14       7.7520      0.00000
     15       8.8683      0.00000
     16       9.5485      0.00000
     17      10.1754      0.00000
     18      10.8505      0.00000
     19      12.2282      0.00000
     20      12.9193      0.00000
     21      13.0244      0.00000
     22      14.4059      0.00000
     23      16.6376      0.00000
     24      16.9497      0.00000
     25      17.6716      0.00000
     26      17.7067      0.00000
     27      18.2209      0.00000
     28      18.6021      0.00000
     29      19.5953      0.00000
     30      19.7516      0.00000
     31      20.9227      0.00000
     32      21.2547      0.00000

 k-point     8 :       0.3333    0.3333    0.0000
  band No.  band energies     occupation 
      1     -19.1469      2.00000
      2     -19.1438      2.00000
      3     -19.1262      2.00000
      4      -9.0544      2.00000
      5      -8.3793      2.00000
      6      -3.1832      2.00000
      7      -1.6272      2.00000
      8      -0.3155      2.00000
      9       0.5650      2.00000
     10       1.6131      2.00000
     11       1.9341      2.00000
     12       2.5704      2.00000
     13       7.4632      0.00000
     14       7.7842      0.00000
     15       9.3764      0.00000
     16       9.6613      0.00000
     17      10.3886      0.00000
     18      11.9655      0.00000
[...]
   0.166E-03 0.166E-03 0.239E+01   -.400E-15 -.407E-15 0.000E+00   0.176E-17 -.211E-17 -.240E+01   0.983E-08 0.164E-07 -.150E-02


 POSITION                                       TOTAL-FORCE (eV/Angst)
 -----------------------------------------------------------------------------------
      1.77559      1.77559      3.01324        -0.000000      0.000000     -0.065996
      0.00000      0.00000      6.02459        -0.000000      0.000000     -0.073694
      0.00000      0.00000      3.95482        -0.000000      0.000000     -0.021068
      1.77559      1.77559      0.09639         0.000000     -0.000000      0.160757
 -----------------------------------------------------------------------------------
    total drift:                                0.000166      0.000166     -0.002330


--------------------------------------------------------------------------------------------------------



  FREE ENERGIE OF THE ION-ELECTRON SYSTEM (eV)
  ---------------------------------------------------
  free  energy   TOTEN  =       -17.17445351 eV

  energy  without entropy=      -17.17445351  energy(sigma->0) =      -17.17445351

 d Force =-0.1767696E-02[-0.241E-02,-0.112E-02]  d Energy =-0.1736558E-02-0.311E-04
 d Force =-0.6316430E+00[-0.645E+00,-0.618E+00]  d Ewald  =-0.6316714E+00 0.284E-04


--------------------------------------------------------------------------------------------------------


    POTLOK:  cpu time      0.0054: real time      0.0054


--------------------------------------------------------------------------------------------------------


 Finite differences progress:
  Degree of freedom:  14/ 14
  Displacement:        4/  4
  Total:              56/ 56


--------------------------------------------------------------------------------------------------------



  ELASTIC MODULI  (kBar)
 Direction    XX          YY          ZZ          XY          YZ          ZX
 --------------------------------------------------------------------------------
 XX        1228.3950    179.2949    124.7813     -0.0000     -0.0000     -0.0000
 YY         179.4703   1228.5847    124.6596     -0.0000     -0.0000     -0.0000
 ZZ         130.5039    130.5039   1785.4995     -0.0000     -0.0000      0.0000
 XY          -0.7403     -0.7459     -0.5154    367.8059     -0.0000     -0.0000
 YZ           0.0035      0.0695     -0.0168     -0.0000    182.3313     -0.0000
 ZX          -0.0054     -0.0734     -0.0220     -0.0000     -0.0000    181.5900
 --------------------------------------------------------------------------------


  SYMMETRIZED ELASTIC MODULI (kBar)
 Direction    XX          YY          ZZ          XY          YZ          ZX
 --------------------------------------------------------------------------------
 XX        1228.4898    179.3826    127.6122      0.0000      0.0000      0.0000
 YY         179.3826   1228.4898    127.6122      0.0000     -0.0000     -0.0000
 ZZ         127.6122    127.6122   1785.4995      0.0000      0.0000      0.0000
 XY           0.0000      0.0000      0.0000    367.8059      0.0000      0.0000
 YZ           0.0000     -0.0000      0.0000      0.0000    181.9606      0.0000
 ZX           0.0000     -0.0000      0.0000      0.0000      0.0000    181.9606
 --------------------------------------------------------------------------------

 INTERNAL STRAIN TENSORS FROM STRAINED CELLS
 ============================================

 INTERNAL STRAIN TENSOR FOR ION    1 for displacements in x,y,z  (eV/Angst):
          X           Y           Z          XY          YZ          ZX
  --------------------------------------------------------------------------------
  x     0.00000     0.00000    -0.00000    -0.00000     0.00000     2.98710
  y    -0.00000    -0.00000    -0.00000    -0.00000     3.03783    -0.00000
  z     2.72652     2.72636     0.33119    -0.00052     0.00013    -0.00021

 INTERNAL STRAIN TENSOR FOR ION    2 for displacements in x,y,z  (eV/Angst):
          X           Y           Z          XY          YZ          ZX
  --------------------------------------------------------------------------------
  x     0.00000     0.00000    -0.00000    -0.00000     0.00000    -2.98387
  y    -0.00000    -0.00000    -0.00000    -0.00000    -3.03830     0.00000
  z     0.54550     0.54664   -31.49859    -0.00157    -0.00021    -0.00052

 INTERNAL STRAIN TENSOR FOR ION    3 for displacements in x,y,z  (eV/Angst):
          X           Y           Z          XY          YZ          ZX
  --------------------------------------------------------------------------------
  x    -0.00000     0.00000    -0.00000    -0.00000     0.00000     0.19364
  y     0.00000    -0.00000    -0.00000    -0.00000     0.18473     0.00000
  z    -1.80024    -1.80247    33.26219     0.00226     0.00105     0.00097

 INTERNAL STRAIN TENSOR FOR ION    4 for displacements in x,y,z  (eV/Angst):
          X           Y           Z          XY          YZ          ZX
  --------------------------------------------------------------------------------
  x    -0.00000    -0.00000     0.00000     0.00000    -0.00000    -0.19688
  y     0.00000     0.00000     0.00000     0.00000    -0.18426    -0.00000
  z    -1.47178    -1.47053    -2.09479    -0.00018    -0.00098    -0.00024

 INTERNAL STRAIN TENSORS FROM DISPLACED ATOMS
 ============================================

 INTERNAL STRAIN TENSOR FOR ION    1 for displacements in x,y,z  (eV/Angst):
          X           Y           Z          XY          YZ          ZX
  --------------------------------------------------------------------------------
  x     0.00000     0.00000     0.00000     0.00000     0.00000     3.03349
  y     0.00000     0.00000     0.00000     0.00000     3.03349     0.00000
  z     2.60651     2.60651    -0.08668     0.00000     0.00000     0.00000

 INTERNAL STRAIN TENSOR FOR ION    2 for displacements in x,y,z  (eV/Angst):
          X           Y           Z          XY          YZ          ZX
  --------------------------------------------------------------------------------
  x     0.00000     0.00000     0.00000     0.00000     0.00000    -3.09600
  y     0.00000     0.00000     0.00000     0.00000    -3.09600     0.00000
  z     0.40874     0.40874   -31.20350     0.00000     0.00000     0.00000

 INTERNAL STRAIN TENSOR FOR ION    3 for displacements in x,y,z  (eV/Angst):
          X           Y           Z          XY          YZ          ZX
  --------------------------------------------------------------------------------
  x     0.00000     0.00000     0.00000     0.00000     0.00000     0.07744
  y     0.00000     0.00000     0.00000     0.00000     0.07743     0.00000
  z    -1.61653    -1.61653    33.23924     0.00000     0.00000     0.00000

 INTERNAL STRAIN TENSOR FOR ION    4 for displacements in x,y,z  (eV/Angst):
          X           Y           Z          XY          YZ          ZX
  --------------------------------------------------------------------------------
  x     0.00000     0.00000     0.00000     0.00000     0.00000    -0.06601
  y     0.00000     0.00000     0.00000     0.00000    -0.06601     0.00000
  z    -1.64271    -1.64271    -2.37821     0.00000     0.00000     0.00000


--------------------------------------------------------------------------------------------------------



 Eigenvectors and eigenvalues of the dynamical matrix
 ----------------------------------------------------


   1 f  =   16.957651 THz   106.548065 2PiTHz  565.646357 cm-1    70.131179 meV
             X         Y         Z           dx          dy          dz
      1.775593  1.775593  3.013239     0.000000   -0.000000    0.018121  
      0.000000  0.000000  6.024594    -0.000000   -0.000000   -0.760651  
      0.000000  0.000000  3.954819     0.000000    0.000000    0.646565  
      1.775593  1.775593  0.126385    -0.000000   -0.000000    0.055091  

   2 f  =    8.188633 THz    51.450700 2PiTHz  273.143402 cm-1    33.865451 meV
             X         Y         Z           dx          dy          dz
      1.775593  1.775593  3.013239    -0.513441    0.499162    0.000000  
      0.000000  0.000000  6.024594    -0.044854    0.043606    0.000000  
      0.000000  0.000000  3.954819     0.497800   -0.483956   -0.000000  
      1.775593  1.775593  0.126385    -0.025701    0.024986    0.000000  

   3 f  =    8.188633 THz    51.450700 2PiTHz  273.143402 cm-1    33.865451 meV
             X         Y         Z           dx          dy          dz
      1.775593  1.775593  3.013239    -0.499162   -0.513441    0.000000  
      0.000000  0.000000  6.024594    -0.043606   -0.044854    0.000000  
      0.000000  0.000000  3.954819     0.483956    0.497800    0.000000  
      1.775593  1.775593  0.126385    -0.024986   -0.025701   -0.000000  

   4 f  =    7.922437 THz    49.778138 2PiTHz  264.264045 cm-1    32.764551 meV
             X         Y         Z           dx          dy          dz
      1.775593  1.775593  3.013239    -0.000000   -0.000000   -0.032398  
      0.000000  0.000000  6.024594     0.000000    0.000000   -0.338312  
      0.000000  0.000000  3.954819     0.000000    0.000000   -0.466672  
      1.775593  1.775593  0.126385     0.000000    0.000000    0.816525  

   5 f  =    4.931618 THz    30.986268 2PiTHz  164.501062 cm-1    20.395523 meV
             X         Y         Z           dx          dy          dz
      1.775593  1.775593  3.013239    -0.000000    0.000000   -0.896543  
      0.000000  0.000000  6.024594     0.000000   -0.000000    0.242181  
      0.000000  0.000000  3.954819    -0.000000    0.000000    0.290382  
      1.775593  1.775593  0.126385     0.000000   -0.000000    0.230734  

   6 f  =    3.123623 THz    19.626305 2PiTHz  104.192861 cm-1    12.918263 meV
             X         Y         Z           dx          dy          dz
      1.775593  1.775593  3.013239    -0.315157    0.448127    0.000000  
      0.000000  0.000000  6.024594     0.274316   -0.390054   -0.000000  
      0.000000  0.000000  3.954819    -0.286260    0.407038   -0.000000  
      1.775593  1.775593  0.126385     0.272774   -0.387862   -0.000000  

   7 f  =    3.123623 THz    19.626305 2PiTHz  104.192861 cm-1    12.918263 meV
             X         Y         Z           dx          dy          dz
      1.775593  1.775593  3.013239    -0.448127   -0.315157   -0.000000  
      0.000000  0.000000  6.024594     0.390054    0.274316   -0.000000  
      0.000000  0.000000  3.954819    -0.407038   -0.286260   -0.000000  
      1.775593  1.775593  0.126385     0.387862    0.272774   -0.000000  

   8 f  =    0.246720 THz     1.550189 2PiTHz    8.229701 cm-1     1.020352 meV
             X         Y         Z           dx          dy          dz
      1.775593  1.775593  3.013239     0.309201   -0.301686   -0.000000  
      0.000000  0.000000  6.024594     0.332373   -0.324295   -0.000000  
      0.000000  0.000000  3.954819     0.370104   -0.361109   -0.000000  
      1.775593  1.775593  0.126385     0.411395   -0.401396   -0.000000  

   9 f  =    0.246720 THz     1.550189 2PiTHz    8.229701 cm-1     1.020352 meV
             X         Y         Z           dx          dy          dz
      1.775593  1.775593  3.013239     0.301686    0.309201   -0.000000  
      0.000000  0.000000  6.024594     0.324295    0.332373   -0.000000  
      0.000000  0.000000  3.954819     0.361109    0.370104   -0.000000  
      1.775593  1.775593  0.126385     0.401396    0.411395   -0.000000  

  10 f/i=    0.059752 THz     0.375434 2PiTHz    1.993121 cm-1     0.247115 meV
             X         Y         Z           dx          dy          dz
      1.775593  1.775593  3.013239     0.000000    0.000000    0.441399  
      0.000000  0.000000  6.024594     0.000000    0.000000    0.498300  
      0.000000  0.000000  3.954819     0.000000    0.000000    0.529008  
      1.775593  1.775593  0.126385     0.000000    0.000000    0.526321  

  11 f/i=    4.743902 THz    29.806816 2PiTHz  158.239543 cm-1    19.619194 meV
             X         Y         Z           dx          dy          dz
      1.775593  1.775593  3.013239    -0.015424    0.014699    0.000000  
      0.000000  0.000000  6.024594    -0.538374    0.513039   -0.000000  
      0.000000  0.000000  3.954819    -0.039528    0.037667   -0.000000  
      1.775593  1.775593  0.126385     0.482115   -0.459427    0.000000  

  12 f/i=    4.743902 THz    29.806816 2PiTHz  158.239543 cm-1    19.619194 meV
             X         Y         Z           dx          dy          dz
      1.775593  1.775593  3.013239     0.014699    0.015424   -0.000000  
      0.000000  0.000000  6.024594     0.513039    0.538374   -0.000000  
      0.000000  0.000000  3.954819     0.037667    0.039528   -0.000000  
      1.775593  1.775593  0.126385    -0.459427   -0.482115   -0.000000  



--------------------------------------------------------------------------------------------------------



 ELASTIC MODULI CONTR FROM IONIC RELAXATION (kBar)
 Direction    XX          YY          ZZ          XY          YZ          ZX
 --------------------------------------------------------------------------------
 XX         -78.3003    -78.3003     45.1216      0.0000      0.0000     -0.0000
 YY         -78.3003    -78.3003     45.1216      0.0000      0.0000     -0.0000
 ZZ          45.1216     45.1216  -1222.7672      0.0000      0.0000     -0.0000
 XY           0.0000      0.0000      0.0000      0.0000      0.0000      0.0000
 YZ           0.0000      0.0000      0.0000      0.0000   -207.2490      0.0000
 ZX          -0.0000     -0.0000     -0.0000      0.0000      0.0000   -207.2492
 --------------------------------------------------------------------------------


 TOTAL ELASTIC MODULI (kBar)
 Direction    XX          YY          ZZ          XY          YZ          ZX
 --------------------------------------------------------------------------------
 XX        1150.1896    101.0823    172.7338      0.0000      0.0000     -0.0000
 YY         101.0823   1150.1896    172.7338      0.0000      0.0000     -0.0000
 ZZ         172.7338    172.7338    562.7323      0.0000      0.0000     -0.0000
 XY           0.0000      0.0000      0.0000    367.8059      0.0000      0.0000
 YZ           0.0000      0.0000      0.0000      0.0000    -25.2884      0.0000
 ZX          -0.0000     -0.0000     -0.0000      0.0000      0.0000    -25.2886
 --------------------------------------------------------------------------------



--------------------------------------------------------------------------------------------------------


  LATTYP: Found a simple tetragonal cell.
 ALAT       =     3.5511865587
 C/A-ratio  =     1.8379452470
  
  Lattice vectors:
  
 A1 = (   3.5511865587,   0.0000000000,   0.0000000000)
 A2 = (   0.0000000000,   3.5511865587,   0.0000000000)
 A3 = (   0.0000000000,   0.0000000000,   6.5268864569)


Analysis of symmetry for initial positions (statically):
=====================================================================
 Subroutine PRICEL returns:
 Original cell was already a primitive cell.
 

 Routine SETGRP: Setting up the symmetry group for a 
 simple tetragonal supercell.


 Subroutine GETGRP returns: Found  8 space group operations
 (whereof  8 operations were pure point group operations)
 out of a pool of 16 trial point group operations.


The static configuration has the point symmetry C_4v.


Analysis of symmetry for dynamics (positions and initial velocities):
=====================================================================
 Subroutine PRICEL returns:
 Original cell was already a primitive cell.
 

 Routine SETGRP: Setting up the symmetry group for a 
 simple tetragonal supercell.


 Subroutine GETGRP returns: Found  8 space group operations
 (whereof  8 operations were pure point group operations)
 out of a pool of 16 trial point group operations.


The dynamic configuration has the point symmetry C_4v.


 Subroutine INISYM returns: Found  8 space group operations
 (whereof  8 operations are pure point group operations),
 and found     1 'primitive' translations


 KPOINTS: pymatgen with grid density = 600 / numbe

Automatic generation of k-mesh.
 Grid dimensions read from file:
 generate k-points for:    6    6    3

 Generating k-lattice:

  Cartesian coordinates                     Fractional coordinates (reciprocal lattice)
     0.046932670  0.000000000  0.000000000     0.166666667  0.000000000  0.000000000
     0.000000000  0.046932670  0.000000000     0.000000000  0.166666667  0.000000000
     0.000000000  0.000000000  0.051070803     0.000000000  0.000000000  0.333333333

  Length of vectors
     0.046932670  0.046932670  0.051070803

  Shift w.r.t. Gamma in fractional coordinates (k-lattice)
     0.000000000  0.000000000  0.000000000

 
 Subroutine IBZKPT returns following result:
 ===========================================
 
 Found     20 irreducible k-points:
 
 Following reciprocal coordinates:
            Coordinates               Weight
  0.000000  0.000000  0.000000      1.000000
  0.166667  0.000000  0.000000      4.000000
  0.333333  0.000000  0.000000      4.000000
  0.500000  0.000000  0.000000      2.000000
  0.166667  0.166667  0.000000      4.000000
  0.333333  0.166667  0.000000      8.000000
  0.500000  0.166667  0.000000      4.000000
  0.333333  0.333333  0.000000      4.000000
  0.500000  0.333333  0.000000      4.000000
  0.500000  0.500000  0.000000      1.000000
  0.000000  0.000000  0.333333      2.000000
  0.166667  0.000000  0.333333      8.000000
  0.333333  0.000000  0.333333      8.000000
  0.500000  0.000000  0.333333      4.000000
  0.166667  0.166667  0.333333      8.000000
  0.333333  0.166667  0.333333     16.000000
  0.500000  0.166667  0.333333      8.000000
  0.333333  0.333333  0.333333      8.000000
  0.500000  0.333333  0.333333      8.000000
  0.500000  0.500000  0.333333      2.000000
 
 Following cartesian coordinates:
            Coordinates               Weight
  0.000000  0.000000  0.000000      1.000000
  0.046933  0.000000  0.000000      4.000000
  0.093865  0.000000  0.000000      4.000000
  0.140798  0.000000  0.000000      2.000000
  0.046933  0.046933  0.000000      4.000000
  0.093865  0.046933  0.000000      8.000000
  0.140798  0.046933  0.000000      4.000000
  0.093865  0.093865  0.000000      4.000000
  0.140798  0.093865  0.000000      4.000000
  0.140798  0.140798  0.000000      1.000000
  0.000000  0.000000  0.051071      2.000000
  0.046933  0.000000  0.051071      8.000000
  0.093865  0.000000  0.051071      8.000000
  0.140798  0.000000  0.051071      4.000000
  0.046933  0.046933  0.051071      8.000000
  0.093865  0.046933  0.051071     16.000000
  0.140798  0.046933  0.051071      8.000000
  0.093865  0.093865  0.051071      8.000000
  0.140798  0.093865  0.051071      8.000000
  0.140798  0.140798  0.051071      2.000000
 
     LOOP+:  cpu time      2.4116: real time      2.4210
    4ORBIT:  cpu time      0.0000: real time      0.0000

 total amount of memory used by VASP MPI-rank0    31781. kBytes
=======================================================================

   base      :      30000. kBytes
   nonlr-proj:        359. kBytes
   fftplans  :        188. kBytes
   grid      :        721. kBytes
   one-center:         12. kBytes
   wavefun   :        501. kBytes

  
  
 General timing and accounting informations for this job:
 ========================================================
  
                  Total CPU time used (sec):      365.831
                            User time (sec):      364.767
                          System time (sec):        1.064
                         Elapsed time (sec):      370.203
  
                   Maximum memory used (kb):      128160.
                   Average memory used (kb):          N/A
  
                          Minor page faults:        41102
                          Major page faults:          137
                 Voluntary context switches:         1824
