 vasp.6.3.2 27Jun22 (build Mar 25 2024 10:42:18) complex                         
 executed on             LinuxGNU date 2024.03.29  15:05:37
 running on   32 total cores
 distrk:  each k-point on   32 cores,    1 groups
 distr:  one band on NCORE=   1 cores,   32 groups


--------------------------------------------------------------------------------------------------------


 INCAR:
   ISTART = 0
   ICHARG = 2
   PREC = Accurate
   IBRION = -1
   EDIFF = 0.000000001
   EDIFFG = -0.0005
   NSW = 0
   NELM = 100
   ENCUT = 520
   ISMEAR = -5
   SIGMA = 0.05
   ISPIN = 2
   ISYM = 0
   LWAVE = False
   LCHARG = False
   LASPH = True
   LORBIT = 11
   ADDGRID = TRUE

 POTCAR:    PAW_PBE Na_pv 19Sep2006               
 POTCAR:    PAW_PBE S 06Sep2000                   
 -----------------------------------------------------------------------------
|                                                                             |
|           W    W    AA    RRRRR   N    N  II  N    N   GGGG   !!!           |
|           W    W   A  A   R    R  NN   N  II  NN   N  G    G  !!!           |
|           W    W  A    A  R    R  N N  N  II  N N  N  G       !!!           |
|           W WW W  AAAAAA  RRRRR   N  N N  II  N  N N  G  GGG   !            |
|           WW  WW  A    A  R   R   N   NN  II  N   NN  G    G                |
|           W    W  A    A  R    R  N    N  II  N    N   GGGG   !!!           |
|                                                                             |
|     You use a magnetic or noncollinear calculation, but did not specify     |
|     the initial magnetic moment with the MAGMOM tag. Note that a            |
|     default of 1 will be used for all atoms. This ferromagnetic setup       |
|     may break the symmetry of the crystal, in particular it may rule        |
|     out finding an antiferromagnetic solution. Thence, we recommend         |
|     setting the initial magnetic moment manually or verifying carefully     |
|     that this magnetic setup is desired.                                    |
|                                                                             |
 -----------------------------------------------------------------------------

 -----------------------------------------------------------------------------
|                                                                             |
|           W    W    AA    RRRRR   N    N  II  N    N   GGGG   !!!           |
|           W    W   A  A   R    R  NN   N  II  NN   N  G    G  !!!           |
|           W    W  A    A  R    R  N N  N  II  N N  N  G       !!!           |
|           W WW W  AAAAAA  RRRRR   N  N N  II  N  N N  G  GGG   !            |
|           WW  WW  A    A  R   R   N   NN  II  N   NN  G    G                |
|           W    W  A    A  R    R  N    N  II  N    N   GGGG   !!!           |
|                                                                             |
|     For optimal performance we recommend to set                             |
|       NCORE = 2 up to number-of-cores-per-socket                            |
|     NCORE specifies how many cores store one orbital (NPAR=cpu/NCORE).      |
|     This setting can greatly improve the performance of VASP for DFT.       |
|     The default, NCORE=1 might be grossly inefficient on modern             |
|     multi-core architectures or massively parallel machines. Do your        |
|     own testing! More info at https://www.vasp.at/wiki/index.php/NCORE      |
|     Unfortunately you need to use the default for GW and RPA                |
|     calculations (for HF NCORE is supported but not extensively tested      |
|     yet).                                                                   |
|                                                                             |
 -----------------------------------------------------------------------------

 POTCAR:    PAW_PBE Na_pv 19Sep2006               
   SHA256 =  6a2f546d9e11350984debacf3dc457d8cffc0868e817d445faca461816a32b94 Na_pv/POTCAR          
   COPYR  = (c) Copyright 19Sep2006 Georg Kresse                                                    
   COPYR  = This file is part of the software VASP. Any use, copying, and all other rights are regul
   COPYR  = If you do not have a valid VASP license, you may not use, copy or distribute this file. 
   VRHFIN =Na: p6s1                                                                                 
   LEXCH  = PE                                                                                      
   EATOM  =   766.0439 eV,   56.3026 Ry                                                             
                                                                                                    
   TITEL  = PAW_PBE Na_pv 19Sep2006                                                                 
   LULTRA =        F    use ultrasoft PP ?                                                          
   IUNSCR =        1    unscreen: 0-lin 1-nonlin 2-no                                               
   RPACOR =    1.800    partial core radius                                                         
   POMASS =   22.990; ZVAL   =    7.000    mass and valenz                                          
   RCORE  =    2.200    outmost cutoff radius                                                       
   RWIGS  =    2.200; RWIGS  =    1.164    wigner-seitz radius (au A)                               
   ENMAX  =  259.561; ENMIN  =  194.671 eV                                                          
   ICORE  =        2    local potential                                                             
   LCOR   =        T    correct aug charges                                                         
   LPAW   =        T    paw PP                                                                      
   EAUG   =  368.056                                                                                
   DEXC   =    0.000                                                                                
   RMAX   =    2.245    core radius for proj-oper                                                   
   RAUG   =    1.300    factor for augmentation sphere                                              
   RDEP   =    2.259    radius for radial grids                                                     
   RDEPT  =    1.738    core radius for aug-charge                                                  
                                                                                                    
   Atomic configuration                                                                             
    5 entries                                                                                       
     n  l   j            E        occ.                                                              
     1  0  0.50     -1033.6933   2.0000                                                             
     2  0  0.50       -56.7526   2.0000                                                             
     2  1  1.50       -28.6721   6.0000                                                             
     3  0  0.50        -2.7440   1.0000                                                             
     3  2  1.50        -1.3606   0.0000                                                             
   Description                                                                                      
     l       E           TYP  RCUT    TYP  RCUT                                                     
     1    -28.6720912     23  2.000                                                                 
     1      6.8029130     23  2.000                                                                 
     0     -2.7439560     23  2.200                                                                 
     0     34.0145650     23  2.200                                                                 
     2     -1.3605826     23  2.200                                                                 
  local pseudopotential read in
  partial core-charges read in
  partial kinetic energy density read in
  atomic valenz-charges read in
  non local Contribution for L=           1  read in
    real space projection operators read in
  non local Contribution for L=           1  read in
    real space projection operators read in
  non local Contribution for L=           0  read in
    real space projection operators read in
  non local Contribution for L=           0  read in
    real space projection operators read in
    PAW grid and wavefunctions read in

   number of l-projection  operators is LMAX  =           4
   number of lm-projection operators is LMMAX =           8

 POTCAR:    PAW_PBE S 06Sep2000                   
   SHA256 =  0fc7481fb0695f01bdc6462160264c5c84044ae9ec85a907d398b887a2bc3132 S/POTCAR              
   COPYR  = (c) Copyright 06Sep2000 Georg Kresse                                                    
   COPYR  = This file is part of the software VASP. Any use, copying, and all other rights are regul
   COPYR  = If you do not have a valid VASP license, you may not use, copy or distribute this file. 
   VRHFIN =S : s2p4                                                                                 
   LEXCH  = PE                                                                                      
   EATOM  =   276.8230 eV,   20.3459 Ry                                                             
                                                                                                    
   TITEL  = PAW_PBE S 06Sep2000                                                                     
   LULTRA =        F    use ultrasoft PP ?                                                          
   IUNSCR =        1    unscreen: 0-lin 1-nonlin 2-no                                               
   RPACOR =    1.500    partial core radius                                                         
   POMASS =   32.066; ZVAL   =    6.000    mass and valenz                                          
   RCORE  =    1.900    outmost cutoff radius                                                       
   RWIGS  =    2.200; RWIGS  =    1.164    wigner-seitz radius (au A)                               
   ENMAX  =  258.689; ENMIN  =  194.016 eV                                                          
   ICORE  =        2    local potential                                                             
   LCOR   =        T    correct aug charges                                                         
   LPAW   =        T    paw PP                                                                      
   EAUG   =  335.092                                                                                
   DEXC   =    0.000                                                                                
   RMAX   =    1.942    core radius for proj-oper                                                   
   RAUG   =    1.300    factor for augmentation sphere                                              
   RDEP   =    1.954    radius for radial grids                                                     
   RDEPT  =    1.744    core radius for aug-charge                                                  
                                                                                                    
   Atomic configuration                                                                             
    6 entries                                                                                       
     n  l   j            E        occ.                                                              
     1  0  0.50     -2405.8406   2.0000                                                             
     2  0  0.50      -211.7007   2.0000                                                             
     2  1  1.50      -156.4958   6.0000                                                             
     3  0  0.50       -17.2562   2.0000                                                             
     3  1  0.50        -7.0085   4.0000                                                             
     3  2  1.50        -6.8029   0.0000                                                             
   Description                                                                                      
     l       E           TYP  RCUT    TYP  RCUT                                                     
     0    -17.2561641     23  1.900                                                                 
     0    -15.8743224     23  1.900                                                                 
     1     -7.0085400     23  1.900                                                                 
     1     -2.7779785     23  1.900                                                                 
     2     -6.8029130     23  1.900                                                                 
  local pseudopotential read in
  partial core-charges read in
  partial kinetic energy density read in
  atomic valenz-charges read in
  non local Contribution for L=           0  read in
    real space projection operators read in
  non local Contribution for L=           0  read in
    real space projection operators read in
  non local Contribution for L=           1  read in
    real space projection operators read in
  non local Contribution for L=           1  read in
    real space projection operators read in
    PAW grid and wavefunctions read in

   number of l-projection  operators is LMAX  =           4
   number of lm-projection operators is LMMAX =           8

 -----------------------------------------------------------------------------
|                                                                             |
|               ----> ADVICE to this user running VASP <----                  |
|                                                                             |
|     You have a (more or less) 'large supercell' and for larger cells it     |
|     might be more efficient to use real-space projection operators.         |
|     Therefore, try LREAL= Auto in the INCAR file.                           |
|     Mind: For very accurate calculation, you might also keep the            |
|     reciprocal projection scheme (i.e. LREAL=.FALSE.).                      |
|                                                                             |
 -----------------------------------------------------------------------------

  PAW_PBE Na_pv 19Sep2006               :
 energy of atom  1       EATOM= -766.0439
 kinetic energy error for atom=    0.0019 (will be added to EATOM!!)
  PAW_PBE S 06Sep2000                   :
 energy of atom  2       EATOM= -276.8230
 kinetic energy error for atom=    0.0016 (will be added to EATOM!!)


 POSCAR: generated by phonopy
  positions in direct lattice
  No initial velocities read in
 exchange correlation table for  LEXCH =        8
   RHO(1)=    0.500       N(1)  =     2000
   RHO(2)=  100.500       N(2)  =     4000



--------------------------------------------------------------------------------------------------------


 ion  position               nearest neighbor table
   1  0.000  0.000  0.000-
   2  0.333  0.000  0.000-
   3  0.667  0.000  0.000-
   4  0.000  0.333  0.000-
   5  0.333  0.333  0.000-
   6  0.667  0.333  0.000-
   7  0.000  0.667  0.000-
   8  0.333  0.667  0.000-
   9  0.667  0.667  0.000-
  10  0.000  0.000  0.500-
  11  0.333  0.000  0.500-
  12  0.667  0.000  0.500-
  13  0.000  0.333  0.500-
  14  0.333  0.333  0.500-
  15  0.667  0.333  0.500-
  16  0.000  0.667  0.500-
  17  0.333  0.667  0.500-
  18  0.667  0.667  0.500-
  19  0.111  0.222  0.250-
  20  0.444  0.222  0.250-
  21  0.778  0.222  0.250-
  22  0.111  0.556  0.250-
  23  0.444  0.556  0.250-
  24  0.778  0.556  0.250-
  25  0.111  0.889  0.250-
  26  0.444  0.889  0.250-
  27  0.778  0.889  0.250-
  28  0.222  0.111  0.750-
  29  0.556  0.111  0.750-
  30  0.889  0.111  0.750-
  31  0.222  0.444  0.750-
  32  0.556  0.444  0.750-
  33  0.889  0.444  0.750-
  34  0.222  0.778  0.750-
  35  0.556  0.778  0.750-
  36  0.889  0.778  0.750-
  37  0.112  0.222  0.645-  64 2.16
  38  0.444  0.222  0.645-  65 2.17
  39  0.778  0.222  0.645-  66 2.17
  40  0.111  0.556  0.645-  67 2.17
  41  0.444  0.556  0.645-  68 2.17
  42  0.778  0.556  0.645-  69 2.17
  43  0.111  0.889  0.645-  70 2.17
  44  0.444  0.889  0.645-  71 2.17
  45  0.778  0.889  0.645-  72 2.17
  46  0.222  0.111  0.145-  55 2.17
  47  0.556  0.111  0.145-  56 2.17
  48  0.889  0.111  0.145-  57 2.17
  49  0.222  0.444  0.145-  58 2.17
  50  0.556  0.444  0.145-  59 2.17
  51  0.889  0.444  0.145-  60 2.17
  52  0.222  0.778  0.145-  61 2.17
  53  0.556  0.778  0.145-  62 2.17
  54  0.889  0.778  0.145-  63 2.17
  55  0.222  0.111  0.355-  46 2.17
  56  0.556  0.111  0.355-  47 2.17
  57  0.889  0.111  0.355-  48 2.17
  58  0.222  0.444  0.355-  49 2.17
  59  0.556  0.444  0.355-  50 2.17
  60  0.889  0.444  0.355-  51 2.17
  61  0.222  0.778  0.355-  52 2.17
  62  0.556  0.778  0.355-  53 2.17
  63  0.889  0.778  0.355-  54 2.17
  64  0.111  0.222  0.855-  37 2.16
  65  0.444  0.222  0.855-  38 2.17
  66  0.778  0.222  0.855-  39 2.17
  67  0.111  0.556  0.855-  40 2.17
  68  0.444  0.556  0.855-  41 2.17
  69  0.778  0.556  0.855-  42 2.17
  70  0.111  0.889  0.855-  43 2.17
  71  0.444  0.889  0.855-  44 2.17
  72  0.778  0.889  0.855-  45 2.17


IMPORTANT INFORMATION: All symmetrisations will be switched off!
NOSYMM: (Re-)initialisation of all symmetry stuff for point group C_1.


----------------------------------------------------------------------------------------

                                     Primitive cell                                     

  volume of cell :    1632.5578

  direct lattice vectors                    reciprocal lattice vectors
     6.766693413-11.720256790  0.000000000     0.073891334 -0.042661181  0.000000000
     6.766693413 11.720256790  0.000000000     0.073891334  0.042661181 -0.000000000
     0.000000000  0.000000000 10.292596541    -0.000000000  0.000000000  0.097157214

  length of vectors
    13.533386826 13.533386826 10.292596541     0.085322363  0.085322363  0.097157214

  position of ions in fractional coordinates (direct lattice)
     0.000000000  0.000000000  0.000000000
     0.333333333  0.000000000  0.000000000
     0.666666667  0.000000000  0.000000000
     0.000000000  0.333333333  0.000000000
     0.333333333  0.333333333  0.000000000
     0.666666667  0.333333333  0.000000000
     0.000000000  0.666666667  0.000000000
     0.333333333  0.666666667  0.000000000
     0.666666667  0.666666667  0.000000000
     0.000000000  0.000000000  0.500000000
     0.333333333  0.000000000  0.500000000
     0.666666667  0.000000000  0.500000000
     0.000000000  0.333333333  0.500000000
     0.333333333  0.333333333  0.500000000
     0.666666667  0.333333333  0.500000000
     0.000000000  0.666666667  0.500000000
     0.333333333  0.666666667  0.500000000
     0.666666667  0.666666667  0.500000000
     0.111111111  0.222222222  0.250000000
     0.444444444  0.222222222  0.250000000
     0.777777778  0.222222222  0.250000000
     0.111111111  0.555555556  0.250000000
     0.444444444  0.555555556  0.250000000
     0.777777778  0.555555556  0.250000000
     0.111111111  0.888888889  0.250000000
     0.444444444  0.888888889  0.250000000
     0.777777778  0.888888889  0.250000000
     0.222222222  0.111111111  0.750000000
     0.555555556  0.111111111  0.750000000
     0.888888889  0.111111111  0.750000000
     0.222222222  0.444444444  0.750000000
     0.555555556  0.444444444  0.750000000
     0.888888889  0.444444444  0.750000000
     0.222222222  0.777777778  0.750000000
     0.555555556  0.777777778  0.750000000
     0.888888889  0.777777778  0.750000000
     0.111699255  0.222222222  0.645203249
     0.444444444  0.222222222  0.644615105
     0.777777778  0.222222222  0.644615105
     0.111111111  0.555555556  0.644615105
     0.444444444  0.555555556  0.644615105
     0.777777778  0.555555556  0.644615105
     0.111111111  0.888888889  0.644615105
     0.444444444  0.888888889  0.644615105
     0.777777778  0.888888889  0.644615105
     0.222222222  0.111111111  0.144615105
     0.555555556  0.111111111  0.144615105
     0.888888889  0.111111111  0.144615105
     0.222222222  0.444444444  0.144615105
     0.555555556  0.444444444  0.144615105
     0.888888889  0.444444444  0.144615105
     0.222222222  0.777777778  0.144615105
     0.555555556  0.777777778  0.144615105
     0.888888889  0.777777778  0.144615105
     0.222222222  0.111111111  0.355384895
     0.555555556  0.111111111  0.355384895
     0.888888889  0.111111111  0.355384895
     0.222222222  0.444444444  0.355384895
     0.555555556  0.444444444  0.355384895
     0.888888889  0.444444444  0.355384895
     0.222222222  0.777777778  0.355384895
     0.555555556  0.777777778  0.355384895
     0.888888889  0.777777778  0.355384895
     0.111111111  0.222222222  0.855384895
     0.444444444  0.222222222  0.855384895
     0.777777778  0.222222222  0.855384895
     0.111111111  0.555555556  0.855384895
     0.444444444  0.555555556  0.855384895
     0.777777778  0.555555556  0.855384895
     0.111111111  0.888888889  0.855384895
     0.444444444  0.888888889  0.855384895
     0.777777778  0.888888889  0.855384895

  ion indices of the primitive-cell ions
   primitive index   ion index
                 1           1
                 2           2
                 3           3
                 4           4
                 5           5
                 6           6
                 7           7
                 8           8
                 9           9
                10          10
                11          11
                12          12
                13          13
                14          14
                15          15
                16          16
                17          17
                18          18
                19          19
                20          20
                21          21
                22          22
                23          23
                24          24
                25          25
                26          26
                27          27
                28          28
                29          29
                30          30
                31          31
                32          32
                33          33
                34          34
                35          35
                36          36
                37          37
                38          38
                39          39
                40          40
                41          41
                42          42
                43          43
                44          44
                45          45
                46          46
                47          47
                48          48
                49          49
                50          50
                51          51
                52          52
                53          53
                54          54
                55          55
                56          56
                57          57
                58          58
                59          59
                60          60
                61          61
                62          62
                63          63
                64          64
                65          65
                66          66
                67          67
                68          68
                69          69
                70          70
                71          71
                72          72

----------------------------------------------------------------------------------------



 KPOINTS: pymatgen with grid density = 727 / numbe

Automatic generation of k-mesh.
 Grid dimensions read from file:
 generate k-points for:    3    3    2

 Generating k-lattice:

  Cartesian coordinates                     Fractional coordinates (reciprocal lattice)
     0.024630445 -0.014220394  0.000000000     0.333333333  0.000000000  0.000000000
     0.024630445  0.014220394 -0.000000000     0.000000000  0.333333333  0.000000000
    -0.000000000  0.000000000  0.048578607     0.000000000  0.000000000  0.500000000

  Length of vectors
     0.028440788  0.028440788  0.048578607

  Shift w.r.t. Gamma in fractional coordinates (k-lattice)
     0.000000000  0.000000000  0.000000000

 TETIRR: Found     51 inequivalent tetrahedra from      108
 
 Subroutine IBZKPT returns following result:
 ===========================================
 
 Found     10 irreducible k-points:
 
 Following reciprocal coordinates:
            Coordinates               Weight
  0.000000  0.000000  0.000000      1.000000
  0.333333  0.000000  0.000000      2.000000
  0.000000  0.333333  0.000000      2.000000
 -0.333333  0.333333  0.000000      2.000000
  0.333333  0.333333  0.000000      2.000000
  0.000000  0.000000  0.500000      1.000000
  0.333333  0.000000  0.500000      2.000000
  0.000000  0.333333  0.500000      2.000000
 -0.333333  0.333333  0.500000      2.000000
  0.333333  0.333333  0.500000      2.000000
 
 Following cartesian coordinates:
            Coordinates               Weight
  0.000000  0.000000  0.000000      1.000000
  0.024630 -0.014220  0.000000      2.000000
  0.024630  0.014220  0.000000      2.000000
  0.000000  0.028441  0.000000      2.000000
  0.049261  0.000000  0.000000      2.000000
  0.000000  0.000000  0.048579      1.000000
  0.024630 -0.014220  0.048579      2.000000
  0.024630  0.014220  0.048579      2.000000
  0.000000  0.028441  0.048579      2.000000
  0.049261  0.000000  0.048579      2.000000
 


--------------------------------------------------------------------------------------------------------




 Dimension of arrays:
   k-points           NKPTS =     10   k-points in BZ     NKDIM =     10   number of bands    NBANDS=    320
   number of dos      NEDOS =    301   number of ions     NIONS =     72
   non local maximal  LDIM  =      4   non local SUM 2l+1 LMDIM =      8
   total plane-waves  NPLWV = 933120
   max r-space proj   IRMAX =      1   max aug-charges    IRDMAX= 144241
   dimension x,y,z NGX =   108 NGY =  108 NGZ =   80
   dimension x,y,z NGXF=   216 NGYF=  216 NGZF=  160
   support grid    NGXF=   432 NGYF=  432 NGZF=  320
   ions per type =              36  36
   NGX,Y,Z   is equivalent  to a cutoff of  13.27, 13.27, 12.92 a.u.
   NGXF,Y,Z  is equivalent  to a cutoff of  26.53, 26.53, 25.84 a.u.

 SYSTEM =  unknown system                          
 POSCAR =  generated by phonopy                    

 Startparameter for this run:
   NWRITE =      2    write-flag & timer
   PREC   = accura    normal or accurate (medium, high low for compatibility)
   ISTART =      0    job   : 0-new  1-cont  2-samecut
   ICHARG =      2    charge: 1-file 2-atom 10-const
   ISPIN  =      2    spin polarized calculation?
   LNONCOLLINEAR =      F non collinear calculations
   LSORBIT =      F    spin-orbit coupling
   INIWAV =      1    electr: 0-lowe 1-rand  2-diag
   LASPH  =      T    aspherical Exc in radial PAW
 Electronic Relaxation 1
   ENCUT  =  520.0 eV  38.22 Ry    6.18 a.u.  25.16 25.16 19.14*2*pi/ulx,y,z
   ENINI  =  520.0     initial cutoff
   ENAUG  =  368.1 eV  augmentation charge cutoff
   NELM   =    100;   NELMIN=  2; NELMDL= -5     # of ELM steps 
   EDIFF  = 0.1E-08   stopping-criterion for ELM
   LREAL  =      F    real-space projection
   NLSPLINE    = F    spline interpolate recip. space projectors
   LCOMPAT=      F    compatible to vasp.4.4
   GGA_COMPAT  = T    GGA compatible to vasp.4.4-vasp.4.6
   LMAXPAW     = -100 max onsite density
   LMAXMIX     =    2 max onsite mixed and CHGCAR
   VOSKOWN=      0    Vosko Wilk Nusair interpolation
   ROPT   =    0.00000   0.00000
 Ionic relaxation
   EDIFFG = -.5E-03   stopping-criterion for IOM
   NSW    =      0    number of steps for IOM
   NBLOCK =      1;   KBLOCK =      1    inner block; outer block 
   IBRION =     -1    ionic relax: 0-MD 1-quasi-New 2-CG
   NFREE  =      0    steps in history (QN), initial steepest desc. (CG)
   ISIF   =      2    stress and relaxation
   IWAVPR =     10    prediction:  0-non 1-charg 2-wave 3-comb
   ISYM   =      0    0-nonsym 1-usesym 2-fastsym
   LCORR  =      T    Harris-Foulkes like correction to forces

   POTIM  = 0.5000    time-step for ionic-motion
   TEIN   =    0.0    initial temperature
   TEBEG  =    0.0;   TEEND  =   0.0 temperature during run
   SMASS  =  -3.00    Nose mass-parameter (am)
   estimated Nose-frequenzy (Omega)   =  0.10E-29 period in steps = 0.13E+47 mass=  -0.419E-26a.u.
   SCALEE = 1.0000    scale energy and forces
   NPACO  =    256;   APACO  = 10.0  distance and # of slots for P.C.
   PSTRESS=    0.0 pullay stress

  Mass of Ions in am
   POMASS =  22.99 32.07
  Ionic Valenz
   ZVAL   =   7.00  6.00
  Atomic Wigner-Seitz radii
   RWIGS  =  -1.00 -1.00
  virtual crystal weights 
   VCA    =   1.00  1.00
   NELECT =     468.0000    total number of electrons
   NUPDOWN=      -1.0000    fix difference up-down

 DOS related values:
   EMIN   =  10.00;   EMAX   =-10.00  energy-range for DOS
   EFERMI =   0.00
   ISMEAR =    -5;   SIGMA  =   0.05  broadening in eV -4-tet -1-fermi 0-gaus

 Electronic relaxation 2 (details)
   IALGO  =     38    algorithm
   LDIAG  =      T    sub-space diagonalisation (order eigenvalues)
   LSUBROT=      F    optimize rotation matrix (better conditioning)
   TURBO    =      0    0=normal 1=particle mesh
   IRESTART =      0    0=no restart 2=restart with 2 vectors
   NREBOOT  =      0    no. of reboots
   NMIN     =      0    reboot dimension
   EREF     =   0.00    reference energy to select bands
   IMIX   =      4    mixing-type and parameters
     AMIX     =   0.40;   BMIX     =  1.00
     AMIX_MAG =   1.60;   BMIX_MAG =  1.00
     AMIN     =   0.10
     WC   =   100.;   INIMIX=   1;  MIXPRE=   1;  MAXMIX= -45

 Intra band minimization:
   WEIMIN = 0.0000     energy-eigenvalue tresh-hold
   EBREAK =  0.78E-12  absolut break condition
   DEPER  =   0.30     relativ break condition  

   TIME   =   0.40     timestep for ELM

  volume/ion in A,a.u.               =      22.67       153.01
  Fermi-wavevector in a.u.,A,eV,Ry     =   1.079445  2.039856 15.853534  1.165202
  Thomas-Fermi vector in A             =   2.215410

 Write flags
   LWAVE        =      F    write WAVECAR
   LDOWNSAMPLE  =      F    k-point downsampling of WAVECAR
   LCHARG       =      F    write CHGCAR
   LVTOT        =      F    write LOCPOT, total local potential
   LVHAR        =      F    write LOCPOT, Hartree potential only
   LELF         =      F    write electronic localiz. function (ELF)
   LORBIT       =     11    0 simple, 1 ext, 2 COOP (PROOUT), +10 PAW based schemes


 Dipole corrections
   LMONO  =      F    monopole corrections only (constant potential shift)
   LDIPOL =      F    correct potential (dipole corrections)
   IDIPOL =      0    1-x, 2-y, 3-z, 4-all directions 
   EPSILON=  1.0000000 bulk dielectric constant

 Exchange correlation treatment:
   GGA     =    --    GGA type
   LEXCH   =     8    internal setting for exchange type
   LIBXC   =     F    Libxc                    
   VOSKOWN =     0    Vosko Wilk Nusair interpolation
   LHFCALC =     F    Hartree Fock is set to
   LHFONE  =     F    Hartree Fock one center treatment
   AEXX    =    0.0000 exact exchange contribution

 Linear response parameters
   LEPSILON=     F    determine dielectric tensor
   LRPA    =     F    only Hartree local field effects (RPA)
   LNABLA  =     F    use nabla operator in PAW spheres
   LVEL    =     F    velocity operator in full k-point grid
   CSHIFT  =0.1000    complex shift for real part using Kramers Kronig
   OMEGAMAX=  -1.0    maximum frequency
   DEG_THRESHOLD= 0.2000000E-02 threshold for treating states as degnerate
   RTIME   =   -0.100 relaxation time in fs
  (WPLASMAI=    0.000 imaginary part of plasma frequency in eV, 0.658/RTIME)
   DFIELD  = 0.0000000 0.0000000 0.0000000 field for delta impulse in time

  Optional k-point grid parameters
   LKPOINTS_OPT  =     F    use optional k-point grid
   KPOINTS_OPT_MODE=     1    mode for optional k-point grid

 Orbital magnetization related:
   ORBITALMAG=     F  switch on orbital magnetization
   LCHIMAG   =     F  perturbation theory with respect to B field
   DQ        =  0.001000  dq finite difference perturbation B field
   LLRAUG    =     F  two centre corrections for induced B field



--------------------------------------------------------------------------------------------------------


 Static calculation
 charge density and potential will be updated during run
 spin polarized calculation
 Variant of blocked Davidson
 Davidson routine will perform the subspace rotation
 perform sub-space diagonalisation
    after iterative eigenvector-optimisation
 modified Broyden-mixing scheme, WC =      100.0
 initial mixing is a Kerker type mixing with AMIX =  0.4000 and BMIX =      1.0000
 Hartree-type preconditioning will be used
 using additional bands           86
 reciprocal scheme for non local part
 use partial core corrections
 calculate Harris-corrections to forces   (improved forces if not selfconsistent)
 use gradient corrections 
 use of overlap-Matrix (Vanderbilt PP)
 Fermi weights with tetrahedron method with Bloechl corrections


--------------------------------------------------------------------------------------------------------


  energy-cutoff  :      520.00
  volume of cell :     1632.56
      direct lattice vectors                 reciprocal lattice vectors
     6.766693413-11.720256790  0.000000000     0.073891334 -0.042661181  0.000000000
     6.766693413 11.720256790  0.000000000     0.073891334  0.042661181 -0.000000000
     0.000000000  0.000000000 10.292596541    -0.000000000  0.000000000  0.097157214

  length of vectors
    13.533386826 13.533386826 10.292596541     0.085322363  0.085322363  0.097157214



 k-points in units of 2pi/SCALE and weight: pymatgen with grid density = 727 / numbe
   0.00000000 -0.00000000  0.00000000       0.056
   0.02463044 -0.01422039  0.00000000       0.111
   0.02463044  0.01422039  0.00000000       0.111
   0.00000000  0.02844079  0.00000000       0.111
   0.04926089 -0.00000000  0.00000000       0.111
   0.00000000 -0.00000000  0.04857861       0.056
   0.02463044 -0.01422039  0.04857861       0.111
   0.02463044  0.01422039  0.04857861       0.111
   0.00000000  0.02844079  0.04857861       0.111
   0.04926089 -0.00000000  0.04857861       0.111

 k-points in reciprocal lattice and weights: pymatgen with grid density = 727 / numbe
   0.00000000  0.00000000  0.00000000       0.056
   0.33333333  0.00000000  0.00000000       0.111
   0.00000000  0.33333333  0.00000000       0.111
  -0.33333333  0.33333333  0.00000000       0.111
   0.33333333  0.33333333  0.00000000       0.111
   0.00000000  0.00000000  0.50000000       0.056
   0.33333333  0.00000000  0.50000000       0.111
   0.00000000  0.33333333  0.50000000       0.111
  -0.33333333  0.33333333  0.50000000       0.111
   0.33333333  0.33333333  0.50000000       0.111

 position of ions in fractional coordinates (direct lattice) 
   0.00000000  0.00000000  0.00000000
   0.33333333  0.00000000  0.00000000
   0.66666667  0.00000000  0.00000000
   0.00000000  0.33333333  0.00000000
   0.33333333  0.33333333  0.00000000
   0.66666667  0.33333333  0.00000000
   0.00000000  0.66666667  0.00000000
   0.33333333  0.66666667  0.00000000
   0.66666667  0.66666667  0.00000000
   0.00000000  0.00000000  0.50000000
   0.33333333  0.00000000  0.50000000
   0.66666667  0.00000000  0.50000000
   0.00000000  0.33333333  0.50000000
   0.33333333  0.33333333  0.50000000
   0.66666667  0.33333333  0.50000000
   0.00000000  0.66666667  0.50000000
   0.33333333  0.66666667  0.50000000
   0.66666667  0.66666667  0.50000000
   0.11111111  0.22222222  0.25000000
   0.44444444  0.22222222  0.25000000
   0.77777778  0.22222222  0.25000000
   0.11111111  0.55555556  0.25000000
   0.44444444  0.55555556  0.25000000
   0.77777778  0.55555556  0.25000000
   0.11111111  0.88888889  0.25000000
   0.44444444  0.88888889  0.25000000
   0.77777778  0.88888889  0.25000000
   0.22222222  0.11111111  0.75000000
   0.55555556  0.11111111  0.75000000
   0.88888889  0.11111111  0.75000000
   0.22222222  0.44444444  0.75000000
   0.55555556  0.44444444  0.75000000
   0.88888889  0.44444444  0.75000000
   0.22222222  0.77777778  0.75000000
   0.55555556  0.77777778  0.75000000
   0.88888889  0.77777778  0.75000000
   0.11169925  0.22222222  0.64520325
   0.44444444  0.22222222  0.64461511
   0.77777778  0.22222222  0.64461511
   0.11111111  0.55555556  0.64461511
   0.44444444  0.55555556  0.64461511
   0.77777778  0.55555556  0.64461511
   0.11111111  0.88888889  0.64461511
   0.44444444  0.88888889  0.64461511
   0.77777778  0.88888889  0.64461511
   0.22222222  0.11111111  0.14461511
   0.55555556  0.11111111  0.14461511
   0.88888889  0.11111111  0.14461511
   0.22222222  0.44444444  0.14461511
   0.55555556  0.44444444  0.14461511
   0.88888889  0.44444444  0.14461511
   0.22222222  0.77777778  0.14461511
   0.55555556  0.77777778  0.14461511
   0.88888889  0.77777778  0.14461511
   0.22222222  0.11111111  0.35538489
   0.55555556  0.11111111  0.35538489
   0.88888889  0.11111111  0.35538489
   0.22222222  0.44444444  0.35538489
   0.55555556  0.44444444  0.35538489
   0.88888889  0.44444444  0.35538489
   0.22222222  0.77777778  0.35538489
   0.55555556  0.77777778  0.35538489
   0.88888889  0.77777778  0.35538489
   0.11111111  0.22222222  0.85538489
   0.44444444  0.22222222  0.85538489
   0.77777778  0.22222222  0.85538489
   0.11111111  0.55555556  0.85538489
   0.44444444  0.55555556  0.85538489
   0.77777778  0.55555556  0.85538489
   0.11111111  0.88888889  0.85538489
   0.44444444  0.88888889  0.85538489
   0.77777778  0.88888889  0.85538489

 position of ions in cartesian coordinates  (Angst):
   0.00000000  0.00000000  0.00000000
   2.25556447 -3.90675226  0.00000000
   4.51112894 -7.81350453  0.00000000
   2.25556447  3.90675226  0.00000000
   4.51112894  0.00000000  0.00000000
   6.76669341 -3.90675226  0.00000000
   4.51112894  7.81350453  0.00000000
   6.76669341  3.90675226  0.00000000
   9.02225788 -0.00000000  0.00000000
   0.00000000  0.00000000  5.14629827
   2.25556447 -3.90675226  5.14629827
   4.51112894 -7.81350453  5.14629827
   2.25556447  3.90675226  5.14629827
   4.51112894  0.00000000  5.14629827
   6.76669341 -3.90675226  5.14629827
   4.51112894  7.81350453  5.14629827
   6.76669341  3.90675226  5.14629827
   9.02225788 -0.00000000  5.14629827
   2.25556447  1.30225075  2.57314914
   4.51112894 -2.60450151  2.57314914
   6.76669341 -6.51125377  2.57314914
   4.51112894  5.20900302  2.57314914
   6.76669341  1.30225075  2.57314914
   9.02225788 -2.60450151  2.57314914
   6.76669341  9.11575528  2.57314914
   9.02225788  5.20900302  2.57314914
  11.27782235  1.30225075  2.57314914
   2.25556447 -1.30225075  7.71944741
   4.51112894 -5.20900302  7.71944741
   6.76669341 -9.11575528  7.71944741
   4.51112894  2.60450151  7.71944741
   6.76669341 -1.30225075  7.71944741
   9.02225788 -5.20900302  7.71944741
   6.76669341  6.51125377  7.71944741
   9.02225788  2.60450151  7.71944741
  11.27782235 -1.30225075  7.71944741
   2.25954426  1.29535756  6.64081673
   4.51112894 -2.60450151  6.63476320
   6.76669341 -6.51125377  6.63476320
   4.51112894  5.20900302  6.63476320
   6.76669341  1.30225075  6.63476320
   9.02225788 -2.60450151  6.63476320
   6.76669341  9.11575528  6.63476320
   9.02225788  5.20900302  6.63476320
  11.27782235  1.30225075  6.63476320
   2.25556447 -1.30225075  1.48846493
   4.51112894 -5.20900302  1.48846493
   6.76669341 -9.11575528  1.48846493
   4.51112894  2.60450151  1.48846493
   6.76669341 -1.30225075  1.48846493
   9.02225788 -5.20900302  1.48846493
   6.76669341  6.51125377  1.48846493
   9.02225788  2.60450151  1.48846493
  11.27782235 -1.30225075  1.48846493
   2.25556447 -1.30225075  3.65783334
   4.51112894 -5.20900302  3.65783334
   6.76669341 -9.11575528  3.65783334
   4.51112894  2.60450151  3.65783334
   6.76669341 -1.30225075  3.65783334
   9.02225788 -5.20900302  3.65783334
   6.76669341  6.51125377  3.65783334
   9.02225788  2.60450151  3.65783334
  11.27782235 -1.30225075  3.65783334
   2.25556447  1.30225075  8.80413161
   4.51112894 -2.60450151  8.80413161
   6.76669341 -6.51125377  8.80413161
   4.51112894  5.20900302  8.80413161
   6.76669341  1.30225075  8.80413161
   9.02225788 -2.60450151  8.80413161
   6.76669341  9.11575528  8.80413161
   9.02225788  5.20900302  8.80413161
  11.27782235  1.30225075  8.80413161



--------------------------------------------------------------------------------------------------------


 k-point   1 :   0.0000 0.0000 0.0000  plane waves:   44013
 k-point   2 :   0.3333 0.0000 0.0000  plane waves:   43952
 k-point   3 :   0.0000 0.3333 0.0000  plane waves:   43952
 k-point   4 :  -0.3333 0.3333 0.0000  plane waves:   43952
 k-point   5 :   0.3333 0.3333 0.0000  plane waves:   43929
 k-point   6 :   0.0000 0.0000 0.5000  plane waves:   43946
 k-point   7 :   0.3333 0.0000 0.5000  plane waves:   43984
 k-point   8 :   0.0000 0.3333 0.5000  plane waves:   43984
 k-point   9 :  -0.3333 0.3333 0.5000  plane waves:   43984
 k-point  10 :   0.3333 0.3333 0.5000  plane waves:   43986

 maximum and minimum number of plane-waves per node :     44013    43929

 maximum number of plane-waves:     44013
 maximum index in each direction: 
   IXMAX=   25   IYMAX=   25   IZMAX=   19
   IXMIN=  -25   IYMIN=  -25   IZMIN=  -19


 serial   3D FFT for wavefunctions
 parallel 3D FFT for charge:
    minimum data exchange during FFTs selected (reduces bandwidth)


 total amount of memory used by VASP MPI-rank0   413811. kBytes
=======================================================================

   base      :      30000. kBytes
   nonl-proj :     107085. kBytes
   fftplans  :      38970. kBytes
   grid      :      94569. kBytes
   one-center:        442. kBytes
   wavefun   :     142745. kBytes

     INWAV:  cpu time      0.0000: real time      0.0002
 Broyden mixing: mesh for mixing (old mesh)
   NGX = 51   NGY = 51   NGZ = 39
  (NGX  =216   NGY  =216   NGZ  =160)
  gives a total of 101439 points

 initial charge density was supplied:
 charge density of overlapping atoms calculated
 number of electron     468.0000000 magnetization      72.0000000
 keeping initial charge density in first step


--------------------------------------------------------------------------------------------------------


 Maximum index for augmentation-charges         5089 (set IRDMAX)


--------------------------------------------------------------------------------------------------------


 First call to EWALD:  gamma=   0.151
 Maximum number of real-space cells 3x 3x 3
 Maximum number of reciprocal cells 3x 3x 2

    FEWALD:  cpu time      0.0035: real time      0.0035


--------------------------------------- Iteration      1(   1)  ---------------------------------------


    POTLOK:  cpu time      0.6499: real time      0.6565
    SETDIJ:  cpu time      6.8618: real time      6.8739
     EDDAV:  cpu time    118.8429: real time    119.0250
 BZINTS: Fermi energy:   16.538354;  468.000000 electrons
         Band energy:-0.290340E+03;  BLOECHL correction:   -0.113282
       DOS:  cpu time      0.1367: real time      0.1368
    --------------------------------------------
      LOOP:  cpu time    126.4912: real time    126.6923

 eigenvalue-minimisations  : 13312
 total energy-change (2. order) : 0.4949516E+04  (-0.2155937E+05)
 number of electron     468.0000000 magnetization      72.0000000
 augmentation part      468.0000000 magnetization      72.0000000

 Free energy of the ion-electron system (eV)
  ---------------------------------------------------
  alpha Z        PSCENC =       709.13725613
  Ewald energy   TEWEN  =    -21666.70070938
  -Hartree energ DENC   =     -9609.35579089
  -exchange      EXHF   =         0.00000000
  -V(xc)+E(xc)   XCENC  =      1335.11966752
  PAW double counting   =     25905.63174358   -28977.05906808
  entropy T*S    EENTRO =         0.00000000
  eigenvalues    EBANDS =      -290.34035700
  atomic energy  EATOM  =     37543.08313351
  Solvation  Ediel_sol  =         0.00000000
  ---------------------------------------------------
  free energy    TOTEN  =      4949.51587539 eV

  energy without entropy =     4949.51587539  energy(sigma->0) =     4949.51587539


--------------------------------------------------------------------------------------------------------




--------------------------------------- Iteration      1(   2)  ---------------------------------------


     EDDAV:  cpu time    120.3757: real time    120.6985
 BZINTS: Fermi energy:    6.019685;  468.000000 electrons
         Band energy:-0.473979E+04;  BLOECHL correction:   -0.254006
       DOS:  cpu time      0.1331: real time      0.1332
    --------------------------------------------
      LOOP:  cpu time    120.5088: real time    120.8317

 eigenvalue-minimisations  : 13024
 total energy-change (2. order) :-0.4449450E+04  (-0.4238768E+04)
 number of electron     468.0000000 magnetization      72.0000000
 augmentation part      468.0000000 magnetization      72.0000000

 Free energy of the ion-electron system (eV)
  ---------------------------------------------------
  alpha Z        PSCENC =       709.13725613
  Ewald energy   TEWEN  =    -21666.70070938
  -Hartree energ DENC   =     -9609.35579089
  -exchange      EXHF   =         0.00000000
  -V(xc)+E(xc)   XCENC  =      1335.11966752
  PAW double counting   =     25905.63174358   -28977.05906808
  entropy T*S    EENTRO =         0.00000000
  eigenvalues    EBANDS =     -4739.79057651
  atomic energy  EATOM  =     37543.08313351
  Solvation  Ediel_sol  =         0.00000000
  ---------------------------------------------------
  free energy    TOTEN  =       500.06565589 eV

  energy without entropy =      500.06565589  energy(sigma->0) =      500.06565589


--------------------------------------------------------------------------------------------------------




--------------------------------------- Iteration      1(   3)  ---------------------------------------


     EDDAV:  cpu time    135.1925: real time    135.4584
 BZINTS: Fermi energy:    1.886004;  468.000000 electrons
         Band energy:-0.543784E+04;  BLOECHL correction:    0.000000
       DOS:  cpu time      0.0779: real time      0.0783
    --------------------------------------------
      LOOP:  cpu time    135.2704: real time    135.5368

 eigenvalue-minimisations  : 15840
 total energy-change (2. order) :-0.6980476E+03  (-0.6781937E+03)
 number of electron     468.0000000 magnetization      72.0000000
 augmentation part      468.0000000 magnetization      72.0000000

 Free energy of the ion-electron system (eV)
  ---------------------------------------------------
  alpha Z        PSCENC =       709.13725613
  Ewald energy   TEWEN  =    -21666.70070938
  -Hartree energ DENC   =     -9609.35579089
  -exchange      EXHF   =         0.00000000
  -V(xc)+E(xc)   XCENC  =      1335.11966752
  PAW double counting   =     25905.63174358   -28977.05906808
  entropy T*S    EENTRO =         0.00000000
  eigenvalues    EBANDS =     -5437.83815696
  atomic energy  EATOM  =     37543.08313351
  Solvation  Ediel_sol  =         0.00000000
  ---------------------------------------------------
  free energy    TOTEN  =      -197.98192457 eV

  energy without entropy =     -197.98192457  energy(sigma->0) =     -197.98192457


--------------------------------------------------------------------------------------------------------




--------------------------------------- Iteration      1(   4)  ---------------------------------------


     EDDAV:  cpu time    133.9120: real time    134.1962
 BZINTS: Fermi energy:    1.338217;  468.000000 electrons
         Band energy:-0.548149E+04;  BLOECHL correction:    0.000000
       DOS:  cpu time      0.0743: real time      0.0747
    --------------------------------------------
      LOOP:  cpu time    133.9863: real time    134.2709

 eigenvalue-minimisations  : 15776
 total energy-change (2. order) :-0.4364844E+02  (-0.4319296E+02)
 number of electron     468.0000000 magnetization      72.0000000
 augmentation part      468.0000000 magnetization      72.0000000

 Free energy of the ion-electron system (eV)
  ---------------------------------------------------
  alpha Z        PSCENC =       709.13725613
  Ewald energy   TEWEN  =    -21666.70070938
  -Hartree energ DENC   =     -9609.35579089
  -exchange      EXHF   =         0.00000000
  -V(xc)+E(xc)   XCENC  =      1335.11966752
  PAW double counting   =     25905.63174358   -28977.05906808
  entropy T*S    EENTRO =         0.00000000
  eigenvalues    EBANDS =     -5481.48659696
  atomic energy  EATOM  =     37543.08313351
  Solvation  Ediel_sol  =         0.00000000
  ---------------------------------------------------
  free energy    TOTEN  =      -241.63036457 eV

  energy without entropy =     -241.63036457  energy(sigma->0) =     -241.63036457


--------------------------------------------------------------------------------------------------------




--------------------------------------- Iteration      1(   5)  ---------------------------------------


     EDDAV:  cpu time    138.0306: real time    138.2729
 BZINTS: Fermi energy:    1.334799;  468.000000 electrons
         Band energy:-0.548281E+04;  BLOECHL correction:    0.000000
       DOS:  cpu time      0.0758: real time      0.0759
    CHARGE:  cpu time      8.5845: real time      8.6668
    MIXING:  cpu time      0.0308: real time      0.0309
    --------------------------------------------
      LOOP:  cpu time    146.7218: real time    147.0466

 eigenvalue-minimisations  : 16288
 total energy-change (2. order) :-0.1326626E+01  (-0.1323727E+01)
 number of electron     468.0000004 magnetization      46.2827372
 augmentation part      130.0409883 magnetization      47.0980252

 Broyden mixing:
  rms(total) = 0.59565E+01    rms(broyden)= 0.59565E+01
  rms(prec ) = 0.61045E+01
  weight for this iteration     100.00

 Free energy of the ion-electron system (eV)
  ---------------------------------------------------
  alpha Z        PSCENC =       709.13725613
  Ewald energy   TEWEN  =    -21666.70070938
  -Hartree energ DENC   =     -9609.35579089
  -exchange      EXHF   =         0.00000000
  -V(xc)+E(xc)   XCENC  =      1335.11966752
  PAW double counting   =     25905.63174358   -28977.05906808
  entropy T*S    EENTRO =         0.00000000
  eigenvalues    EBANDS =     -5482.81322312
  atomic energy  EATOM  =     37543.08313351
  Solvation  Ediel_sol  =         0.00000000
  ---------------------------------------------------
  free energy    TOTEN  =      -242.95699073 eV

  energy without entropy =     -242.95699073  energy(sigma->0) =     -242.95699073


--------------------------------------------------------------------------------------------------------




--------------------------------------- Iteration      1(   6)  ---------------------------------------


    POTLOK:  cpu time      0.5101: real time      0.5211
    SETDIJ:  cpu time      3.1740: real time      3.2268
     EDDAV:  cpu time    120.6830: real time    120.8786
 BZINTS: Fermi energy:    1.670539;  468.000000 electrons
         Band energy:-0.542029E+04;  BLOECHL correction:    0.000000
       DOS:  cpu time      0.0775: real time      0.0776
    CHARGE:  cpu time      9.6666: real time      9.6988
    MIXING:  cpu time      0.0313: real time      0.0313
    --------------------------------------------
      LOOP:  cpu time    134.1424: real time    134.4342

 eigenvalue-minimisations  : 14080
 total energy-change (2. order) : 0.3028405E+02  (-0.7621570E+01)
 number of electron     468.0000004 magnetization      32.2046345
 augmentation part      131.1025191 magnetization      31.8709943

 Broyden mixing:
  rms(total) = 0.30228E+01    rms(broyden)= 0.30228E+01
  rms(prec ) = 0.31157E+01
  weight for this iteration     100.00

 eigenvalues of (default mixing * dielectric matrix)
  average eigenvalue GAMMA=   0.7582
  0.7582

 Free energy of the ion-electron system (eV)
  ---------------------------------------------------
  alpha Z        PSCENC =       709.13725613
  Ewald energy   TEWEN  =    -21666.70070938
  -Hartree energ DENC   =     -9664.13091658
  -exchange      EXHF   =         0.00000000
  -V(xc)+E(xc)   XCENC  =      1356.50990356
  PAW double counting   =     29106.44067858   -32176.71935075
  entropy T*S    EENTRO =         0.00000000
  eigenvalues    EBANDS =     -5420.29293330
  atomic energy  EATOM  =     37543.08313351
  Solvation  Ediel_sol  =         0.00000000
  ---------------------------------------------------
  free energy    TOTEN  =      -212.67293822 eV

  energy without entropy =     -212.67293822  energy(sigma->0) =     -212.67293822


--------------------------------------------------------------------------------------------------------




--------------------------------------- Iteration      1(   7)  ---------------------------------------


    POTLOK:  cpu time      2.3197: real time      2.3229
    SETDIJ:  cpu time     10.6833: real time     10.6912
     EDDAV:  cpu time    124.0923: real time    124.4320
 BZINTS: Fermi energy:    1.773851;  468.000000 electrons
         Band energy:-0.540930E+04;  BLOECHL correction:   -0.000000
       DOS:  cpu time      0.0701: real time      0.0702
    CHARGE:  cpu time      3.4428: real time      3.4461
    MIXING:  cpu time      0.0311: real time      0.0311
    --------------------------------------------
      LOOP:  cpu time    140.6394: real time    140.9935

 eigenvalue-minimisations  : 15008
 total energy-change (2. order) :-0.3433940E+02  (-0.3359500E+01)
 number of electron     468.0000004 magnetization      10.0098207
 augmentation part      131.3315524 magnetization      10.4376336

 Broyden mixing:
  rms(total) = 0.17512E+01    rms(broyden)= 0.17512E+01
  rms(prec ) = 0.17856E+01
  weight for this iteration     100.00

 eigenvalues of (default mixing * dielectric matrix)
  average eigenvalue GAMMA=   1.1536
  1.5814  0.7258

 Free energy of the ion-electron system (eV)
  ---------------------------------------------------
  alpha Z        PSCENC =       709.13725613
  Ewald energy   TEWEN  =    -21666.70070938
  -Hartree energ DENC   =     -9694.26473981
  -exchange      EXHF   =         0.00000000
  -V(xc)+E(xc)   XCENC  =      1348.40733667
  PAW double counting   =     31440.39229540   -34517.76840437
  entropy T*S    EENTRO =         0.00000000
  eigenvalues    EBANDS =     -5409.29850659
  atomic energy  EATOM  =     37543.08313351
  Solvation  Ediel_sol  =         0.00000000
  ---------------------------------------------------
  free energy    TOTEN  =      -247.01233843 eV

  energy without entropy =     -247.01233843  energy(sigma->0) =     -247.01233843


--------------------------------------------------------------------------------------------------------




--------------------------------------- Iteration      1(   8)  ---------------------------------------


    POTLOK:  cpu time      0.5186: real time      0.5193
    SETDIJ:  cpu time      9.9294: real time      9.9354
     EDDAV:  cpu time    115.1237: real time    115.2405
 BZINTS: Fermi energy:    1.885070;  468.000000 electrons
         Band energy:-0.541047E+04;  BLOECHL correction:    0.000000
       DOS:  cpu time      0.0711: real time      0.0713
    CHARGE:  cpu time     12.1603: real time     12.1713
    MIXING:  cpu time      0.0285: real time      0.0285
    --------------------------------------------
      LOOP:  cpu time    137.8317: real time    137.9662

 eigenvalue-minimisations  : 13376
 total energy-change (2. order) :-0.8366695E+01  (-0.1085994E+01)
 number of electron     468.0000004 magnetization       2.3426796
 augmentation part      131.5586480 magnetization       2.4872577

 Broyden mixing:
  rms(total) = 0.65614E+00    rms(broyden)= 0.65614E+00
  rms(prec ) = 0.66587E+00
  weight for this iteration     100.00

 eigenvalues of (default mixing * dielectric matrix)
  average eigenvalue GAMMA=   1.2789
  2.3815  0.7599  0.6954

 Free energy of the ion-electron system (eV)
  ---------------------------------------------------
  alpha Z        PSCENC =       709.13725613
  Ewald energy   TEWEN  =    -21666.70070938
  -Hartree energ DENC   =     -9694.86206705
  -exchange      EXHF   =         0.00000000
  -V(xc)+E(xc)   XCENC  =      1345.78738648
  PAW double counting   =     35504.16534083   -38585.52240517
  entropy T*S    EENTRO =         0.00000000
  eigenvalues    EBANDS =     -5410.46696903
  atomic energy  EATOM  =     37543.08313351
  Solvation  Ediel_sol  =         0.00000000
  ---------------------------------------------------
  free energy    TOTEN  =      -255.37903367 eV

  energy without entropy =     -255.37903367  energy(sigma->0) =     -255.37903367


--------------------------------------------------------------------------------------------------------




--------------------------------------- Iteration      1(   9)  ---------------------------------------


    POTLOK:  cpu time      0.5682: real time      0.5723
    SETDIJ:  cpu time      2.8887: real time      2.8947
     EDDAV:  cpu time    128.1466: real time    128.4440
 BZINTS: Fermi energy:    1.878869;  468.000000 electrons
         Band energy:-0.541619E+04;  BLOECHL correction:    0.000000
       DOS:  cpu time      0.0751: real time      0.0752
    CHARGE:  cpu time      9.7529: real time      9.7695
    MIXING:  cpu time      0.0115: real time      0.0115
    --------------------------------------------
      LOOP:  cpu time    141.4430: real time    141.7673

 eigenvalue-minimisations  : 14976
 total energy-change (2. order) :-0.6354654E+00  (-0.1052904E+00)
 number of electron     468.0000004 magnetization       1.1678176
 augmentation part      131.5617375 magnetization       1.1748258

 Broyden mixing:
  rms(total) = 0.14298E+00    rms(broyden)= 0.14297E+00
  rms(prec ) = 0.15320E+00
  weight for this iteration     100.00

 eigenvalues of (default mixing * dielectric matrix)
  average eigenvalue GAMMA=   1.2618
  2.6000  0.9926  0.7683  0.6861

 Free energy of the ion-electron system (eV)
  ---------------------------------------------------
  alpha Z        PSCENC =       709.13725613
  Ewald energy   TEWEN  =    -21666.70070938
  -Hartree energ DENC   =     -9688.50280879
  -exchange      EXHF   =         0.00000000
  -V(xc)+E(xc)   XCENC  =      1346.23203786
  PAW double counting   =     37033.12818392   -40116.19669060
  entropy T*S    EENTRO =         0.00000000
  eigenvalues    EBANDS =     -5416.19490173
  atomic energy  EATOM  =     37543.08313351
  Solvation  Ediel_sol  =         0.00000000
  ---------------------------------------------------
  free energy    TOTEN  =      -256.01449908 eV

  energy without entropy =     -256.01449908  energy(sigma->0) =     -256.01449908


--------------------------------------------------------------------------------------------------------




--------------------------------------- Iteration      1(  10)  ---------------------------------------


    POTLOK:  cpu time      0.5932: real time      0.5950
    SETDIJ:  cpu time     11.8093: real time     11.8255
     EDDAV:  cpu time    132.3533: real time    132.7494
 BZINTS: Fermi energy:    1.857413;  468.000000 electrons
         Band energy:-0.541901E+04;  BLOECHL correction:   -0.000000
       DOS:  cpu time      0.0722: real time      0.0723
    CHARGE:  cpu time     12.4451: real time     12.4617
    MIXING:  cpu time      0.0206: real time      0.0206
    --------------------------------------------
      LOOP:  cpu time    157.2937: real time    157.7245

 eigenvalue-minimisations  : 16192
 total energy-change (2. order) :-0.6045802E-01  (-0.9464713E-02)
 number of electron     468.0000004 magnetization       1.1795192
 augmentation part      131.5312462 magnetization       1.2056524

 Broyden mixing:
  rms(total) = 0.86497E-01    rms(broyden)= 0.86497E-01
  rms(prec ) = 0.90756E-01
  weight for this iteration     100.00

 eigenvalues of (default mixing * dielectric matrix)
  average eigenvalue GAMMA=   1.1599
  2.4981  1.1686  0.7523  0.7523  0.6283

 Free energy of the ion-electron system (eV)
  ---------------------------------------------------
  alpha Z        PSCENC =       709.13725613
  Ewald energy   TEWEN  =    -21666.70070938
  -Hartree energ DENC   =     -9685.03525970
  -exchange      EXHF   =         0.00000000
  -V(xc)+E(xc)   XCENC  =      1346.05448243
  PAW double counting   =     37115.06431016   -40198.66706865
  entropy T*S    EENTRO =         0.00000000
  eigenvalues    EBANDS =     -5419.01110160
  atomic energy  EATOM  =     37543.08313351
  Solvation  Ediel_sol  =         0.00000000
  ---------------------------------------------------
  free energy    TOTEN  =      -256.07495710 eV

  energy without entropy =     -256.07495710  energy(sigma->0) =     -256.07495710


--------------------------------------------------------------------------------------------------------




--------------------------------------- Iteration      1(  11)  ---------------------------------------


    POTLOK:  cpu time      0.5693: real time      0.5712
    SETDIJ:  cpu time      6.4501: real time      6.4615
     EDDAV:  cpu time    131.3330: real time    131.5146
 BZINTS: Fermi energy:    1.851367;  468.000000 electrons
         Band energy:-0.541985E+04;  BLOECHL correction:    0.000000
       DOS:  cpu time      0.0782: real time      0.0783
    CHARGE:  cpu time     13.8505: real time     13.8552
    MIXING:  cpu time      0.0675: real time      0.0676
    --------------------------------------------
      LOOP:  cpu time    152.3487: real time    152.5484

 eigenvalue-minimisations  : 15264
 total energy-change (2. order) :-0.8589082E-02  (-0.1299569E-02)
 number of electron     468.0000004 magnetization       0.7726753
 augmentation part      131.5176587 magnetization       0.7858943

 Broyden mixing:
  rms(total) = 0.52276E-01    rms(broyden)= 0.52276E-01
  rms(prec ) = 0.55240E-01
  weight for this iteration     100.00

 eigenvalues of (default mixing * dielectric matrix)
  average eigenvalue GAMMA=   1.2262
  2.1390  2.1390  0.8657  0.8657  0.7288  0.6190

 Free energy of the ion-electron system (eV)
  ---------------------------------------------------
  alpha Z        PSCENC =       709.13725613
  Ewald energy   TEWEN  =    -21666.70070938
  -Hartree energ DENC   =     -9684.01567548
  -exchange      EXHF   =         0.00000000
  -V(xc)+E(xc)   XCENC  =      1345.93014425
  PAW double counting   =     36958.71420765   -40042.38309327
  entropy T*S    EENTRO =         0.00000000
  eigenvalues    EBANDS =     -5419.84880960
  atomic energy  EATOM  =     37543.08313351
  Solvation  Ediel_sol  =         0.00000000
  ---------------------------------------------------
  free energy    TOTEN  =      -256.08354618 eV

  energy without entropy =     -256.08354618  energy(sigma->0) =     -256.08354618


--------------------------------------------------------------------------------------------------------




--------------------------------------- Iteration      1(  12)  ---------------------------------------


    POTLOK:  cpu time      2.5227: real time      2.5259
    SETDIJ:  cpu time      6.4079: real time      6.4118
     EDDAV:  cpu time    125.2828: real time    125.7994
 BZINTS: Fermi energy:    1.849110;  468.000000 electrons
         Band energy:-0.542051E+04;  BLOECHL correction:    0.000000
       DOS:  cpu time      0.0714: real time      0.0716
    CHARGE:  cpu time     12.1916: real time     12.2090
    MIXING:  cpu time      0.0310: real time      0.0310
    --------------------------------------------
      LOOP:  cpu time    146.5074: real time    147.0487

 eigenvalue-minimisations  : 14112
 total energy-change (2. order) :-0.1249445E-01  (-0.6794517E-03)
 number of electron     468.0000004 magnetization       0.0559124
 augmentation part      131.5137489 magnetization       0.0617430

 Broyden mixing:
  rms(total) = 0.23745E-01    rms(broyden)= 0.23745E-01
  rms(prec ) = 0.25933E-01
  weight for this iteration     100.00

 eigenvalues of (default mixing * dielectric matrix)
  average eigenvalue GAMMA=   1.3502
  2.5215  2.5215  1.3535  0.8898  0.6337  0.7657  0.7657

 Free energy of the ion-electron system (eV)
  ---------------------------------------------------
  alpha Z        PSCENC =       709.13725613
  Ewald energy   TEWEN  =    -21666.70070938
  -Hartree energ DENC   =     -9683.22113689
  -exchange      EXHF   =         0.00000000
  -V(xc)+E(xc)   XCENC  =      1345.90327133
  PAW double counting   =     36807.03839418   -39890.83082622
  entropy T*S    EENTRO =         0.00000000
  eigenvalues    EBANDS =     -5420.50542329
  atomic energy  EATOM  =     37543.08313351
  Solvation  Ediel_sol  =         0.00000000
  ---------------------------------------------------
  free energy    TOTEN  =      -256.09604063 eV

  energy without entropy =     -256.09604063  energy(sigma->0) =     -256.09604063


--------------------------------------------------------------------------------------------------------




--------------------------------------- Iteration      1(  13)  ---------------------------------------


    POTLOK:  cpu time      0.5720: real time      0.5741
    SETDIJ:  cpu time     11.5795: real time     11.6238
     EDDAV:  cpu time    123.2623: real time    123.6889
 BZINTS: Fermi energy:    1.850513;  468.000000 electrons
         Band energy:-0.542063E+04;  BLOECHL correction:   -0.000000
       DOS:  cpu time      0.0834: real time      0.0835
    CHARGE:  cpu time     11.3247: real time     11.3848
    MIXING:  cpu time      0.0192: real time      0.0192
    --------------------------------------------
      LOOP:  cpu time    146.8412: real time    147.3743

 eigenvalue-minimisations  : 14400
 total energy-change (2. order) :-0.6466340E-02  (-0.5652951E-03)
 number of electron     468.0000004 magnetization       0.0049842
 augmentation part      131.5172490 magnetization       0.0077925

 Broyden mixing:
  rms(total) = 0.88856E-02    rms(broyden)= 0.88856E-02
  rms(prec ) = 0.91618E-02
  weight for this iteration     100.00

 eigenvalues of (default mixing * dielectric matrix)
  average eigenvalue GAMMA=   1.3146
  2.6137  2.3834  1.6283  0.8887  0.8887  0.6469  0.7334  0.7334

 Free energy of the ion-electron system (eV)
  ---------------------------------------------------
  alpha Z        PSCENC =       709.13725613
  Ewald energy   TEWEN  =    -21666.70070938
  -Hartree energ DENC   =     -9683.04865875
  -exchange      EXHF   =         0.00000000
  -V(xc)+E(xc)   XCENC  =      1346.01974809
  PAW double counting   =     36788.31480644   -39872.28000453
  entropy T*S    EENTRO =         0.00000000
  eigenvalues    EBANDS =     -5420.62807848
  atomic energy  EATOM  =     37543.08313351
  Solvation  Ediel_sol  =         0.00000000
  ---------------------------------------------------
  free energy    TOTEN  =      -256.10250697 eV

  energy without entropy =     -256.10250697  energy(sigma->0) =     -256.10250697


--------------------------------------------------------------------------------------------------------




--------------------------------------- Iteration      1(  14)  ---------------------------------------


    POTLOK:  cpu time      1.9361: real time      1.9493
    SETDIJ:  cpu time      6.7397: real time      6.7445
     EDDAV:  cpu time    137.3146: real time    137.5853
 BZINTS: Fermi energy:    1.851598;  468.000000 electrons
         Band energy:-0.542047E+04;  BLOECHL correction:   -0.000000
       DOS:  cpu time      0.0744: real time      0.0745
    CHARGE:  cpu time      9.0158: real time      9.0283
    MIXING:  cpu time      0.0246: real time      0.0246
    --------------------------------------------
      LOOP:  cpu time    155.1052: real time    155.4065

 eigenvalue-minimisations  : 16000
 total energy-change (2. order) :-0.1892870E-03  (-0.4048133E-04)
 number of electron     468.0000004 magnetization      -0.0062552
 augmentation part      131.5175991 magnetization      -0.0053097

 Broyden mixing:
  rms(total) = 0.63655E-02    rms(broyden)= 0.63655E-02
  rms(prec ) = 0.64485E-02
  weight for this iteration     100.00

 eigenvalues of (default mixing * dielectric matrix)
  average eigenvalue GAMMA=   1.3056
  2.8074  2.0919  2.0919  0.9911  0.7725  0.7725  0.6290  0.8404  0.7536

 Free energy of the ion-electron system (eV)
  ---------------------------------------------------
  alpha Z        PSCENC =       709.13725613
  Ewald energy   TEWEN  =    -21666.70070938
  -Hartree energ DENC   =     -9683.18593916
  -exchange      EXHF   =         0.00000000
  -V(xc)+E(xc)   XCENC  =      1346.04289788
  PAW double counting   =     36783.00282071   -39867.01439984
  entropy T*S    EENTRO =         0.00000000
  eigenvalues    EBANDS =     -5420.46775611
  atomic energy  EATOM  =     37543.08313351
  Solvation  Ediel_sol  =         0.00000000
  ---------------------------------------------------
  free energy    TOTEN  =      -256.10269626 eV

  energy without entropy =     -256.10269626  energy(sigma->0) =     -256.10269626


--------------------------------------------------------------------------------------------------------




--------------------------------------- Iteration      1(  15)  ---------------------------------------


    POTLOK:  cpu time      0.5467: real time      0.5477
    SETDIJ:  cpu time      9.3842: real time      9.3894
     EDDAV:  cpu time    131.3041: real time    131.6312
 BZINTS: Fermi energy:    1.852077;  468.000000 electrons
         Band energy:-0.542037E+04;  BLOECHL correction:    0.000000
       DOS:  cpu time      0.0727: real time      0.0728
    CHARGE:  cpu time     11.9518: real time     11.9622
    MIXING:  cpu time      0.0242: real time      0.0242
    --------------------------------------------
      LOOP:  cpu time    153.2837: real time    153.6274

 eigenvalue-minimisations  : 14336
 total energy-change (2. order) :-0.4169286E-04  (-0.7622700E-05)
 number of electron     468.0000004 magnetization      -0.0031757
 augmentation part      131.5179130 magnetization      -0.0032079

 Broyden mixing:
  rms(total) = 0.30693E-02    rms(broyden)= 0.30693E-02
  rms(prec ) = 0.31231E-02
  weight for this iteration     100.00

 eigenvalues of (default mixing * dielectric matrix)
  average eigenvalue GAMMA=   1.3687
  2.9045  2.4524  2.4524  1.3664  0.8840  0.8840  0.7082  0.7082  0.6170  0.7098

 Free energy of the ion-electron system (eV)
  ---------------------------------------------------
  alpha Z        PSCENC =       709.13725613
  Ewald energy   TEWEN  =    -21666.70070938
  -Hartree energ DENC   =     -9683.26624607
  -exchange      EXHF   =         0.00000000
  -V(xc)+E(xc)   XCENC  =      1346.05127489
  PAW double counting   =     36771.32987954   -39855.36876086
  entropy T*S    EENTRO =         0.00000000
  eigenvalues    EBANDS =     -5420.36856571
  atomic energy  EATOM  =     37543.08313351
  Solvation  Ediel_sol  =         0.00000000
  ---------------------------------------------------
  free energy    TOTEN  =      -256.10273795 eV

  energy without entropy =     -256.10273795  energy(sigma->0) =     -256.10273795


--------------------------------------------------------------------------------------------------------




--------------------------------------- Iteration      1(  16)  ---------------------------------------


    POTLOK:  cpu time      0.6222: real time      0.6320
    SETDIJ:  cpu time      6.2452: real time      6.2649
     EDDAV:  cpu time    123.1914: real time    123.4312
 BZINTS: Fermi energy:    1.852309;  468.000000 electrons
         Band energy:-0.542032E+04;  BLOECHL correction:    0.000000
       DOS:  cpu time      0.0737: real time      0.0739
    CHARGE:  cpu time      7.0463: real time      7.0588
    MIXING:  cpu time      0.0330: real time      0.0330
    --------------------------------------------
      LOOP:  cpu time    137.2119: real time    137.4937

 eigenvalue-minimisations  : 14080
 total energy-change (2. order) :-0.2531088E-04  (-0.2949165E-05)
 number of electron     468.0000004 magnetization      -0.0021904
 augmentation part      131.5177839 magnetization      -0.0024984

 Broyden mixing:
  rms(total) = 0.11547E-02    rms(broyden)= 0.11546E-02
  rms(prec ) = 0.11840E-02
  weight for this iteration     100.00

 eigenvalues of (default mixing * dielectric matrix)
  average eigenvalue GAMMA=   1.3237
  2.9150  2.5702  1.7366  1.7366  1.1784  0.7974  0.7974  0.8111  0.7740  0.6223
  0.6223

 Free energy of the ion-electron system (eV)
  ---------------------------------------------------
  alpha Z        PSCENC =       709.13725613
  Ewald energy   TEWEN  =    -21666.70070938
  -Hartree energ DENC   =     -9683.30372395
  -exchange      EXHF   =         0.00000000
  -V(xc)+E(xc)   XCENC  =      1346.05264190
  PAW double counting   =     36760.50725657   -39844.56177061
  entropy T*S    EENTRO =         0.00000000
  eigenvalues    EBANDS =     -5420.31684745
  atomic energy  EATOM  =     37543.08313351
  Solvation  Ediel_sol  =         0.00000000
  ---------------------------------------------------
  free energy    TOTEN  =      -256.10276326 eV

  energy without entropy =     -256.10276326  energy(sigma->0) =     -256.10276326


--------------------------------------------------------------------------------------------------------




--------------------------------------- Iteration      1(  17)  ---------------------------------------


    POTLOK:  cpu time      0.5566: real time      0.5571
    SETDIJ:  cpu time     13.5101: real time     13.5372
     EDDAV:  cpu time    149.8379: real time    150.0787
 BZINTS: Fermi energy:    1.851825;  468.000000 electrons
         Band energy:-0.542034E+04;  BLOECHL correction:   -0.000000
       DOS:  cpu time      0.0807: real time      0.0808
    CHARGE:  cpu time      9.6364: real time      9.6394
    MIXING:  cpu time      0.0132: real time      0.0233
    --------------------------------------------
      LOOP:  cpu time    173.6350: real time    173.9164

 eigenvalue-minimisations  : 16896
 total energy-change (2. order) : 0.1325279E-05  (-0.2973250E-06)
 number of electron     468.0000004 magnetization      -0.0014532
 augmentation part      131.5176046 magnetization      -0.0014514

 Broyden mixing:
  rms(total) = 0.33097E-03    rms(broyden)= 0.33055E-03
  rms(prec ) = 0.35589E-03
  weight for this iteration     100.00

 eigenvalues of (default mixing * dielectric matrix)
  average eigenvalue GAMMA=   1.2964
  2.9174  2.6738  1.8212  1.8212  1.0607  0.9209  0.9209  0.7341  0.7341  0.7278
  0.6203  0.6040

 Free energy of the ion-electron system (eV)
  ---------------------------------------------------
  alpha Z        PSCENC =       709.13725613
  Ewald energy   TEWEN  =    -21666.70070938
  -Hartree energ DENC   =     -9683.28424539
  -exchange      EXHF   =         0.00000000
  -V(xc)+E(xc)   XCENC  =      1346.05045469
  PAW double counting   =     36761.92504505   -39845.97373906
  entropy T*S    EENTRO =         0.00000000
  eigenvalues    EBANDS =     -5420.33995747
  atomic energy  EATOM  =     37543.08313351
  Solvation  Ediel_sol  =         0.00000000
  ---------------------------------------------------
  free energy    TOTEN  =      -256.10276193 eV

  energy without entropy =     -256.10276193  energy(sigma->0) =     -256.10276193


--------------------------------------------------------------------------------------------------------




--------------------------------------- Iteration      1(  18)  ---------------------------------------


    POTLOK:  cpu time      0.5285: real time      0.5325
    SETDIJ:  cpu time      2.8134: real time      2.8157
     EDDAV:  cpu time    120.9135: real time    121.1009
 BZINTS: Fermi energy:    1.851882;  468.000000 electrons
         Band energy:-0.542034E+04;  BLOECHL correction:    0.000000
       DOS:  cpu time      0.0790: real time      0.0791
    CHARGE:  cpu time     12.7526: real time     12.7892
    MIXING:  cpu time      0.0305: real time      0.0305
    --------------------------------------------
      LOOP:  cpu time    137.1174: real time    137.3479

 eigenvalue-minimisations  : 14240
 total energy-change (2. order) :-0.4852991E-06  (-0.7048403E-07)
 number of electron     468.0000004 magnetization      -0.0006741
 augmentation part      131.5176101 magnetization      -0.0006741

 Broyden mixing:
  rms(total) = 0.18402E-03    rms(broyden)= 0.18326E-03
  rms(prec ) = 0.20105E-03
  weight for this iteration     100.00

 eigenvalues of (default mixing * dielectric matrix)
  average eigenvalue GAMMA=   1.3164
  2.9768  2.6527  1.9833  1.9833  1.3595  1.0201  0.8653  0.8653  0.7584  0.7584
  0.6824  0.6282  0.5791

 Free energy of the ion-electron system (eV)
  ---------------------------------------------------
  alpha Z        PSCENC =       709.13725613
  Ewald energy   TEWEN  =    -21666.70070938
  -Hartree energ DENC   =     -9683.29104467
  -exchange      EXHF   =         0.00000000
  -V(xc)+E(xc)   XCENC  =      1346.05095980
  PAW double counting   =     36762.32742939   -39846.37450730
  entropy T*S    EENTRO =         0.00000000
  eigenvalues    EBANDS =     -5420.33527990
  atomic energy  EATOM  =     37543.08313351
  Solvation  Ediel_sol  =         0.00000000
  ---------------------------------------------------
  free energy    TOTEN  =      -256.10276242 eV

  energy without entropy =     -256.10276242  energy(sigma->0) =     -256.10276242


--------------------------------------------------------------------------------------------------------




--------------------------------------- Iteration      1(  19)  ---------------------------------------


    POTLOK:  cpu time      0.5020: real time      0.5031
    SETDIJ:  cpu time      9.5415: real time      9.5496
     EDDAV:  cpu time    123.3508: real time    123.5445
 BZINTS: Fermi energy:    1.851920;  468.000000 electrons
         Band energy:-0.542033E+04;  BLOECHL correction:    0.000000
       DOS:  cpu time      0.0764: real time      0.0765
    CHARGE:  cpu time     10.1617: real time     10.1657
    MIXING:  cpu time      0.0385: real time      0.0385
    --------------------------------------------
      LOOP:  cpu time    143.6709: real time    143.8779

 eigenvalue-minimisations  : 14080
 total energy-change (2. order) :-0.1371300E-06  (-0.2967491E-07)
 number of electron     468.0000004 magnetization      -0.0002415
 augmentation part      131.5176390 magnetization      -0.0002586

 Broyden mixing:
  rms(total) = 0.48345E-04    rms(broyden)= 0.45366E-04
  rms(prec ) = 0.53841E-04
  weight for this iteration     100.00

 eigenvalues of (default mixing * dielectric matrix)
  average eigenvalue GAMMA=   1.3160
  3.0562  2.7058  2.3674  1.6140  1.6140  1.0999  0.8886  0.8886  0.7633  0.7633
  0.7836  0.6679  0.6249  0.5859

 Free energy of the ion-electron system (eV)
  ---------------------------------------------------
  alpha Z        PSCENC =       709.13725613
  Ewald energy   TEWEN  =    -21666.70070938
  -Hartree energ DENC   =     -9683.30008130
  -exchange      EXHF   =         0.00000000
  -V(xc)+E(xc)   XCENC  =      1346.05160328
  PAW double counting   =     36762.58341201   -39846.62892649
  entropy T*S    EENTRO =         0.00000000
[...]
   0.198E-01 -.113E-01 0.138E-01   -.188E-01 0.921E-02 -.137E-01   -.929E-03 0.183E-02 -.895E-04   -.112E-06 0.173E-06 -.413E-07
   0.318E+00 -.552E+00 0.647E+02   -.300E+00 0.522E+00 -.721E+02   -.284E-01 0.495E-01 0.738E+01   -.200E-06 0.301E-06 0.509E-06
   -.546E-01 0.943E-01 0.638E+02   0.524E-01 -.907E-01 -.712E+02   0.353E-02 -.582E-02 0.742E+01   0.800E-07 -.118E-06 0.461E-06
   -.548E-01 0.945E-01 0.638E+02   0.522E-01 -.904E-01 -.712E+02   0.395E-02 -.640E-02 0.742E+01   0.126E-06 -.152E-06 0.366E-06
   0.565E-01 0.308E-01 0.638E+02   -.544E-01 -.291E-01 -.712E+02   -.314E-02 -.271E-02 0.742E+01   -.219E-06 -.541E-08 0.404E-06
   -.541E-01 -.334E-01 0.638E+02   0.522E-01 0.328E-01 -.712E+02   0.318E-02 0.997E-03 0.742E+01   0.349E-07 0.109E-06 0.422E-06
   -.104E-01 0.180E-01 0.638E+02   0.102E-01 -.175E-01 -.712E+02   0.329E-03 -.563E-03 0.742E+01   0.105E-06 -.163E-06 0.410E-06
   0.563E-01 0.301E-01 0.638E+02   -.545E-01 -.288E-01 -.712E+02   -.277E-02 -.214E-02 0.742E+01   -.173E-06 0.527E-07 0.398E-06
   -.102E-01 0.178E-01 0.638E+02   0.101E-01 -.176E-01 -.712E+02   0.227E-03 -.395E-03 0.742E+01   0.952E-07 -.105E-06 0.426E-06
   -.550E-01 -.332E-01 0.638E+02   0.524E-01 0.326E-01 -.712E+02   0.399E-02 0.955E-03 0.742E+01   0.149E-06 0.895E-07 0.390E-06
   0.159E-01 0.123E-02 0.637E+02   -.152E-01 0.366E-02 -.711E+02   -.828E-03 -.455E-02 0.742E+01   -.126E-06 0.179E-06 0.119E-06
   -.132E-01 0.229E-01 0.637E+02   0.127E-01 -.220E-01 -.712E+02   0.621E-03 -.100E-02 0.742E+01   0.196E-06 -.217E-06 0.168E-06
   -.516E-02 -.153E-01 0.637E+02   0.438E-02 0.149E-01 -.711E+02   0.109E-02 0.324E-03 0.742E+01   0.607E-07 0.107E-06 0.685E-07
   0.139E-01 -.285E-01 0.637E+02   -.151E-01 0.262E-01 -.711E+02   0.813E-03 0.238E-02 0.742E+01   -.224E-06 0.164E-06 0.107E-06
   -.179E-01 0.645E-02 0.637E+02   0.173E-01 -.635E-02 -.712E+02   0.739E-03 -.149E-03 0.742E+01   0.108E-06 -.705E-07 0.106E-06
   0.329E-02 0.185E-01 0.637E+02   -.308E-02 -.181E-01 -.712E+02   -.241E-03 -.424E-03 0.742E+01   -.261E-07 -.164E-06 0.162E-06
   0.998E-02 0.949E-02 0.637E+02   -.970E-02 -.910E-02 -.712E+02   -.358E-03 -.473E-03 0.742E+01   -.174E-06 -.513E-07 0.145E-06
   -.132E-01 -.383E-02 0.637E+02   0.127E-01 0.384E-02 -.712E+02   0.590E-03 -.546E-05 0.742E+01   0.169E-06 0.155E-07 0.188E-06
   0.340E-02 -.569E-02 0.637E+02   -.310E-02 0.539E-02 -.712E+02   -.366E-03 0.344E-03 0.742E+01   0.634E-08 0.467E-07 0.186E-06
   0.322E-01 -.510E-01 -.637E+02   -.314E-01 0.463E-01 0.711E+02   -.915E-03 0.470E-02 -.742E+01   -.133E-06 0.160E-06 -.837E-07
   -.187E-01 0.299E-01 -.638E+02   0.181E-01 -.289E-01 0.712E+02   0.639E-03 -.105E-02 -.742E+01   0.200E-06 -.225E-06 -.816E-07
   -.982E-01 0.197E-01 -.639E+02   0.954E-01 -.191E-01 0.713E+02   0.254E-02 -.386E-03 -.742E+01   0.451E-07 0.117E-06 -.440E-07
   0.952E-01 -.192E-01 -.638E+02   -.913E-01 0.196E-01 0.712E+02   -.395E-02 -.146E-03 -.742E+01   -.202E-06 0.177E-06 -.853E-07
   -.184E-01 0.490E-02 -.637E+02   0.178E-01 -.480E-02 0.712E+02   0.780E-03 -.149E-03 -.742E+01   0.120E-06 -.856E-07 -.631E-07
   0.488E-02 0.433E-01 -.638E+02   -.464E-02 -.424E-01 0.712E+02   -.261E-03 -.108E-02 -.742E+01   -.371E-07 -.160E-06 -.615E-07
   0.141E-01 0.122E-01 -.638E+02   -.138E-01 -.118E-01 0.712E+02   -.371E-03 -.496E-03 -.742E+01   -.176E-06 -.553E-07 -.936E-07
   -.176E-01 -.351E-02 -.638E+02   0.170E-01 0.349E-02 0.712E+02   0.618E-03 0.141E-04 -.742E+01   0.169E-06 0.206E-07 -.914E-07
   -.592E-02 -.148E-01 -.638E+02   0.604E-02 0.143E-01 0.712E+02   -.118E-03 0.535E-03 -.742E+01   0.304E-08 0.412E-07 -.898E-07
   0.192E+00 -.333E+00 -.643E+02   -.202E+00 0.349E+00 0.718E+02   0.987E-02 -.171E-01 -.739E+01   -.195E-06 0.292E-06 -.483E-06
   -.433E-01 0.749E-01 -.638E+02   0.428E-01 -.742E-01 0.712E+02   0.526E-03 -.642E-03 -.742E+01   0.747E-07 -.104E-06 -.476E-06
   -.187E-01 0.321E-01 -.637E+02   0.184E-01 -.319E-01 0.711E+02   0.320E-03 -.384E-03 -.742E+01   0.122E-06 -.174E-06 -.453E-06
   0.238E-01 -.654E-02 -.637E+02   -.234E-01 0.623E-02 0.711E+02   -.533E-03 0.263E-03 -.742E+01   -.207E-06 -.178E-07 -.458E-06
   -.554E-01 -.238E-01 -.638E+02   0.549E-01 0.235E-01 0.712E+02   0.376E-03 0.374E-03 -.742E+01   0.153E-07 0.101E-06 -.458E-06
   -.867E-02 0.149E-01 -.637E+02   0.846E-02 -.146E-01 0.712E+02   0.260E-03 -.446E-03 -.742E+01   0.947E-07 -.149E-06 -.497E-06
   0.486E-01 0.362E-01 -.638E+02   -.478E-01 -.358E-01 0.712E+02   -.842E-03 -.222E-03 -.742E+01   -.161E-06 0.552E-07 -.460E-06
   -.850E-02 0.148E-01 -.637E+02   0.839E-02 -.146E-01 0.712E+02   0.167E-03 -.289E-03 -.742E+01   0.839E-07 -.946E-07 -.508E-06
   -.643E-02 -.237E-01 -.637E+02   0.629E-02 0.234E-01 0.711E+02   0.284E-03 0.399E-03 -.742E+01   0.169E-06 0.866E-07 -.434E-06
 -----------------------------------------------------------------------------------------------
   -.176E-01 0.307E-01 -.207E-01   -.107E-12 0.512E-14 -.156E-12   0.176E-01 -.306E-01 0.207E-01   -.373E-07 0.512E-07 0.142E-06


 POSITION                                       TOTAL-FORCE (eV/Angst)
 -----------------------------------------------------------------------------------
      0.00000      0.00000      0.00000         0.000695     -0.000195      0.000119
      2.25556     -3.90675      0.00000         0.000049      0.000263     -0.000004
      4.51113     -7.81350      0.00000        -0.000191      0.000055      0.000175
      2.25556      3.90675      0.00000         0.000259     -0.000049      0.000246
      4.51113      0.00000      0.00000        -0.000958      0.000256     -0.000008
      6.76669     -3.90675      0.00000        -0.000172      0.000292      0.000037
      4.51113      7.81350      0.00000         0.000119      0.000126     -0.000006
      6.76669      3.90675      0.00000         0.000017     -0.000102      0.000086
      9.02226     -0.00000      0.00000        -0.000170     -0.000035      0.000080
      0.00000      0.00000      5.14630         0.001228     -0.000286      0.000528
      2.25556     -3.90675      5.14630         0.000098      0.000357      0.000151
      4.51113     -7.81350      5.14630        -0.000337      0.000083     -0.000296
      2.25556      3.90675      5.14630         0.000437     -0.003640      0.000356
      4.51113      0.00000      5.14630         0.001430     -0.001316      0.000649
      6.76669     -3.90675      5.14630        -0.000256      0.000432     -0.000036
      4.51113      7.81350      5.14630         0.000157      0.000199      0.000017
      6.76669      3.90675      5.14630         0.000087     -0.000175     -0.000073
      9.02226     -0.00000      5.14630        -0.000251     -0.000028     -0.000092
      2.25556      1.30225      2.57315         0.000176     -0.000299     -0.000496
      4.51113     -2.60450      2.57315        -0.000136      0.000154     -0.000022
      6.76669     -6.51125      2.57315        -0.000138      0.000076     -0.000057
      4.51113      5.20900      2.57315         0.000141     -0.000087     -0.000065
      6.76669      1.30225      2.57315        -0.000061     -0.000038     -0.000015
      9.02226     -2.60450      2.57315        -0.000081      0.000142     -0.000018
      6.76669      9.11576      2.57315         0.000212      0.000079     -0.000047
      9.02226      5.20900      2.57315        -0.000011      0.000022     -0.000008
     11.27782      1.30225      2.57315        -0.000105     -0.000018     -0.000032
      2.25556     -1.30225      7.71945         0.000391     -0.008412      0.002590
      4.51113     -5.20900      7.71945        -0.000335      0.000523      0.000011
      6.76669     -9.11576      7.71945         0.003045     -0.002230     -0.000588
      4.51113      2.60450      7.71945         0.002324      0.000417      0.000949
      6.76669     -1.30225      7.71945        -0.000391      0.000035     -0.000108
      9.02226     -5.20900      7.71945         0.000161      0.000423      0.000143
      6.76669      6.51125      7.71945         0.000173      0.000256      0.000027
      9.02226      2.60450      7.71945        -0.000312      0.000033     -0.000004
     11.27782     -1.30225      7.71945         0.000131     -0.000301      0.000018
      2.25954      1.29536      6.64082        -0.010928      0.019026     -0.065456
      4.51113     -2.60450      6.63476         0.001258     -0.002208      0.003238
      6.76669     -6.51125      6.63476         0.001386     -0.002310      0.003017
      4.51113      5.20900      6.63476        -0.001097     -0.001005      0.003054
      6.76669      1.30225      6.63476         0.001252      0.000420      0.003200
      9.02226     -2.60450      6.63476         0.000076     -0.000129      0.003336
      6.76669      9.11576      6.63476        -0.000962     -0.000826      0.003165
      9.02226      5.20900      6.63476         0.000075     -0.000130      0.003336
     11.27782      1.30225      6.63476         0.001368      0.000387      0.003090
      2.25556     -1.30225      1.48846        -0.000144      0.000343      0.003884
      4.51113     -5.20900      1.48846         0.000115     -0.000177      0.003325
      6.76669     -9.11576      1.48846         0.000314     -0.000015      0.003179
      4.51113      2.60450      1.48846        -0.000411      0.000095      0.003529
      6.76669     -1.30225      1.48846         0.000153     -0.000052      0.003329
      9.02226     -5.20900      1.48846        -0.000032     -0.000082      0.003416
      6.76669      6.51125      1.48846        -0.000080     -0.000076      0.003339
      9.02226      2.60450      1.48846         0.000105      0.000007      0.003312
     11.27782     -1.30225      1.48846        -0.000065      0.000035      0.003372
      2.25556     -1.30225      3.65783        -0.000111      0.000017     -0.001935
      4.51113     -5.20900      3.65783         0.000066     -0.000089     -0.003327
      6.76669     -9.11576      3.65783        -0.000255      0.000275     -0.002310
      4.51113      2.60450      3.65783         0.000034      0.000276     -0.002127
      6.76669     -1.30225      3.65783         0.000122     -0.000045     -0.003359
      9.02226     -5.20900      3.65783        -0.000023     -0.000182     -0.003299
      6.76669      6.51125      3.65783        -0.000052     -0.000034     -0.003342
      9.02226      2.60450      3.65783         0.000055      0.000002     -0.003312
     11.27782     -1.30225      3.65783        -0.000000      0.000053     -0.003329
      2.25556      1.30225      8.80413         0.000314     -0.000533      0.058113
      4.51113     -2.60450      8.80413         0.000010      0.000061     -0.003453
      6.76669     -6.51125      8.80413         0.000054     -0.000132     -0.003204
      4.51113      5.20900      8.80413        -0.000114     -0.000040     -0.003254
      6.76669      1.30225      8.80413        -0.000095      0.000061     -0.003401
      9.02226     -2.60450      8.80413         0.000054     -0.000092     -0.003340
      6.76669      9.11576      8.80413        -0.000070      0.000094     -0.003379
      9.02226      5.20900      8.80413         0.000054     -0.000092     -0.003339
     11.27782      1.30225      8.80413         0.000143      0.000089     -0.003276
 -----------------------------------------------------------------------------------
    total drift:                               -0.000002      0.000002      0.000002


--------------------------------------------------------------------------------------------------------



  FREE ENERGIE OF THE ION-ELECTRON SYSTEM (eV)
  ---------------------------------------------------
  free  energy   TOTEN  =      -256.10276257 eV

  energy  without entropy=     -256.10276257  energy(sigma->0) =     -256.10276257



--------------------------------------------------------------------------------------------------------


    POTLOK:  cpu time      5.7603: real time      5.7768


--------------------------------------------------------------------------------------------------------


     LOOP+:  cpu time   3897.5998: real time   3910.4236
    4ORBIT:  cpu time      0.0000: real time      0.0000



 total charge

# of ion       s       p       d       tot
------------------------------------------
    1        0.049   5.976   0.000   6.025
    2        0.049   5.976   0.000   6.025
    3        0.049   5.976   0.000   6.025
    4        0.049   5.976   0.000   6.025
    5        0.049   5.976   0.000   6.025
    6        0.049   5.976   0.000   6.025
    7        0.049   5.976   0.000   6.025
    8        0.049   5.976   0.000   6.025
    9        0.049   5.976   0.000   6.025
   10        0.049   5.976   0.000   6.025
   11        0.049   5.976   0.000   6.025
   12        0.049   5.976   0.000   6.025
   13        0.049   5.976   0.000   6.025
   14        0.049   5.976   0.000   6.025
   15        0.049   5.976   0.000   6.025
   16        0.049   5.976   0.000   6.025
   17        0.049   5.976   0.000   6.025
   18        0.049   5.976   0.000   6.025
   19        0.050   5.989   0.000   6.039
   20        0.050   5.989   0.000   6.039
   21        0.050   5.989   0.000   6.039
   22        0.050   5.989   0.000   6.039
   23        0.050   5.989   0.000   6.039
   24        0.050   5.989   0.000   6.039
   25        0.050   5.989   0.000   6.039
   26        0.050   5.989   0.000   6.039
   27        0.050   5.989   0.000   6.039
   28        0.050   5.989   0.000   6.039
   29        0.050   5.989   0.000   6.039
   30        0.050   5.988   0.000   6.039
   31        0.050   5.989   0.000   6.039
   32        0.050   5.989   0.000   6.039
   33        0.050   5.989   0.000   6.039
   34        0.050   5.989   0.000   6.039
   35        0.050   5.989   0.000   6.039
   36        0.050   5.989   0.000   6.039
   37        1.337   2.354   0.000   3.691
   38        1.337   2.353   0.000   3.690
   39        1.337   2.353   0.000   3.690
   40        1.337   2.353   0.000   3.690
   41        1.337   2.353   0.000   3.690
   42        1.337   2.353   0.000   3.690
   43        1.337   2.353   0.000   3.690
   44        1.337   2.353   0.000   3.690
   45        1.337   2.353   0.000   3.690
   46        1.337   2.353   0.000   3.690
   47        1.337   2.353   0.000   3.690
   48        1.337   2.353   0.000   3.690
   49        1.337   2.353   0.000   3.690
   50        1.337   2.353   0.000   3.690
   51        1.337   2.353   0.000   3.690
   52        1.337   2.353   0.000   3.690
   53        1.337   2.353   0.000   3.690
   54        1.337   2.353   0.000   3.690
   55        1.337   2.353   0.000   3.690
   56        1.337   2.353   0.000   3.690
   57        1.337   2.353   0.000   3.690
   58        1.337   2.353   0.000   3.690
   59        1.337   2.353   0.000   3.690
   60        1.337   2.353   0.000   3.690
   61        1.337   2.353   0.000   3.690
   62        1.337   2.353   0.000   3.690
   63        1.337   2.353   0.000   3.690
   64        1.337   2.354   0.000   3.691
   65        1.337   2.353   0.000   3.690
   66        1.337   2.353   0.000   3.690
   67        1.337   2.353   0.000   3.690
   68        1.337   2.353   0.000   3.690
   69        1.337   2.353   0.000   3.690
   70        1.337   2.353   0.000   3.690
   71        1.337   2.353   0.000   3.690
   72        1.337   2.353   0.000   3.690
--------------------------------------------------
tot         49.916 300.066   0.000 349.982



 magnetization (x)

# of ion       s       p       d       tot
------------------------------------------
    1       -0.000   0.000   0.000   0.000
    2       -0.000  -0.000   0.000  -0.000
    3       -0.000   0.000   0.000   0.000
    4       -0.000   0.000   0.000   0.000
    5       -0.000  -0.000   0.000  -0.000
    6       -0.000  -0.000   0.000  -0.000
    7       -0.000   0.000   0.000  -0.000
    8       -0.000  -0.000   0.000  -0.000
    9       -0.000  -0.000   0.000  -0.000
   10       -0.000  -0.000   0.000  -0.000
   11       -0.000  -0.000   0.000  -0.000
   12       -0.000   0.000   0.000   0.000
   13       -0.000  -0.000   0.000  -0.000
   14       -0.000   0.000   0.000  -0.000
   15       -0.000  -0.000   0.000  -0.000
   16       -0.000   0.000   0.000   0.000
   17       -0.000  -0.000   0.000  -0.000
   18       -0.000  -0.000   0.000  -0.000
   19       -0.000   0.000   0.000   0.000
   20       -0.000   0.000   0.000  -0.000
   21       -0.000   0.000   0.000   0.000
   22       -0.000   0.000   0.000   0.000
   23       -0.000   0.000   0.000   0.000
   24       -0.000   0.000   0.000   0.000
   25       -0.000   0.000   0.000   0.000
   26       -0.000   0.000   0.000  -0.000
   27       -0.000   0.000   0.000   0.000
   28       -0.000   0.000   0.000   0.000
   29       -0.000   0.000   0.000   0.000
   30       -0.000   0.000   0.000   0.000
   31       -0.000   0.000   0.000   0.000
   32       -0.000   0.000   0.000  -0.000
   33       -0.000   0.000   0.000   0.000
   34       -0.000   0.000   0.000   0.000
   35       -0.000   0.000   0.000   0.000
   36       -0.000   0.000   0.000   0.000
   37        0.000   0.000   0.000   0.000
   38        0.000   0.000   0.000   0.000
   39        0.000   0.000   0.000   0.000
   40        0.000   0.000   0.000   0.000
   41        0.000   0.000   0.000   0.000
   42        0.000   0.000   0.000   0.000
   43        0.000   0.000   0.000   0.000
   44        0.000   0.000   0.000   0.000
   45        0.000   0.000   0.000   0.000
   46        0.000   0.000   0.000   0.000
   47        0.000   0.000   0.000   0.000
   48        0.000   0.000   0.000   0.000
   49        0.000   0.000   0.000   0.000
   50        0.000   0.000   0.000   0.000
   51        0.000   0.000   0.000   0.000
   52        0.000   0.000   0.000   0.000
   53        0.000   0.000   0.000   0.000
   54        0.000   0.000   0.000   0.000
   55        0.000   0.000   0.000   0.000
   56        0.000   0.000   0.000   0.000
   57        0.000   0.000   0.000   0.000
   58        0.000   0.000   0.000   0.000
   59        0.000   0.000   0.000   0.000
   60        0.000   0.000   0.000   0.000
   61        0.000   0.000   0.000   0.000
   62        0.000   0.000   0.000   0.000
   63        0.000   0.000   0.000   0.000
   64        0.000   0.000   0.000   0.000
   65        0.000   0.000   0.000   0.000
   66        0.000   0.000   0.000   0.000
   67        0.000   0.000   0.000   0.000
   68        0.000   0.000   0.000   0.000
   69        0.000   0.000   0.000   0.000
   70        0.000   0.000   0.000   0.000
   71        0.000   0.000   0.000   0.000
   72        0.000   0.000   0.000   0.000
--------------------------------------------------
tot          0.000   0.000   0.000   0.000

 BZINTS: Fermi energy:    1.851905;  468.000000 electrons
         Band energy:-0.542032E+04;  BLOECHL correction:    0.000000

 total amount of memory used by VASP MPI-rank0   413811. kBytes
=======================================================================

   base      :      30000. kBytes
   nonl-proj :     107085. kBytes
   fftplans  :      38970. kBytes
   grid      :      94569. kBytes
   one-center:        442. kBytes
   wavefun   :     142745. kBytes

  
  
 General timing and accounting informations for this job:
 ========================================================
  
                  Total CPU time used (sec):     3987.205
                            User time (sec):     3984.665
                          System time (sec):        2.541
                         Elapsed time (sec):     4001.122
  
                   Maximum memory used (kb):      730924.
                   Average memory used (kb):          N/A
  
                          Minor page faults:       900216
                          Major page faults:           41
                 Voluntary context switches:         3382
