phonopy:
  version: "2.22.0"
  frequency_unit_conversion_factor: 15.633302
  symmetry_tolerance: 1.00000e-05
  configuration:
    create_displacements: ".true."
    dim: "1 2 1"

physical_unit:
  atomic_mass: "AMU"
  length: "angstrom"
  force_constants: "eV/angstrom^2"

space_group:
  type: "P2_1/c"
  number: 14
  Hall_symbol: "-P 2ybc"

supercell_matrix:
- [   1,   0,   0 ]
- [   0,   2,   0 ]
- [   0,   0,   1 ]

primitive_cell:
  lattice:
  - [     0.000000000000000,    10.307367086401033,    -0.372855730828706 ] # a
  - [     8.394247205630073,     0.000000000000000,     0.000000000000000 ] # b
  - [     0.000000000000000,    -1.732519800630094,   -10.707215182200086 ] # c
  points:
  - symbol: S  # 1
    coordinates: [  0.886423141018846,  0.934009502859630,  0.678126385671780 ]
    mass: 32.065000
  - symbol: S  # 2
    coordinates: [  0.329563263635111,  0.377487645676274,  0.550707721124312 ]
    mass: 32.065000
  - symbol: S  # 3
    coordinates: [  0.912671285329742,  0.210483769860035,  0.911960471381961 ]
    mass: 32.065000
  - symbol: S  # 4
    coordinates: [  0.239736404768033,  0.601662093553246,  0.776574188687408 ]
    mass: 32.065000
  - symbol: S  # 5
    coordinates: [  0.144417516045635,  0.611377524298355,  0.224396680434326 ]
    mass: 32.065000
  - symbol: S  # 6
    coordinates: [  0.855582483954366,  0.388622475701645,  0.775603319565674 ]
    mass: 32.065000
  - symbol: S  # 7
    coordinates: [  0.760263595231967,  0.398337906446755,  0.223425811312592 ]
    mass: 32.065000
  - symbol: S  # 8
    coordinates: [  0.170436736364888,  0.877487645676275,  0.449292278875688 ]
    mass: 32.065000
  - symbol: S  # 9
    coordinates: [  0.412671285329742,  0.289516230139965,  0.911960471381961 ]
    mass: 32.065000
  - symbol: S  # 10
    coordinates: [  0.386423141018845,  0.565990497140370,  0.678126385671780 ]
    mass: 32.065000
  - symbol: S  # 11
    coordinates: [  0.644417516045634,  0.888622475701645,  0.224396680434326 ]
    mass: 32.065000
  - symbol: S  # 12
    coordinates: [  0.829563263635112,  0.122512354323726,  0.550707721124312 ]
    mass: 32.065000
  - symbol: S  # 13
    coordinates: [  0.260263595231968,  0.101662093553245,  0.223425811312592 ]
    mass: 32.065000
  - symbol: S  # 14
    coordinates: [  0.613576858981154,  0.434009502859630,  0.321873614328220 ]
    mass: 32.065000
  - symbol: S  # 15
    coordinates: [  0.113576858981154,  0.065990497140370,  0.321873614328220 ]
    mass: 32.065000
  - symbol: S  # 16
    coordinates: [  0.059895700075009,  0.690175468093111,  0.374484366826105 ]
    mass: 32.065000
  - symbol: S  # 17
    coordinates: [  0.743425209604304,  0.578688686862349,  0.071165234078190 ]
    mass: 32.065000
  - symbol: S  # 18
    coordinates: [  0.587328714670258,  0.710483769860035,  0.088039528618045 ]
    mass: 32.065000
  - symbol: S  # 19
    coordinates: [  0.256574790395695,  0.421311313137650,  0.928834765921810 ]
    mass: 32.065000
  - symbol: S  # 20
    coordinates: [  0.087328714670258,  0.789516230139965,  0.088039528618045 ]
    mass: 32.065000
  - symbol: S  # 21
    coordinates: [  0.440104299924991,  0.190175468093111,  0.625515633173895 ]
    mass: 32.065000
  - symbol: S  # 22
    coordinates: [  0.355582483954365,  0.111377524298355,  0.775603319565674 ]
    mass: 32.065000
  - symbol: S  # 23
    coordinates: [  0.739736404768033,  0.898337906446754,  0.776574188687408 ]
    mass: 32.065000
  - symbol: S  # 24
    coordinates: [  0.940104299924990,  0.309824531906889,  0.625515633173895 ]
    mass: 32.065000
  - symbol: S  # 25
    coordinates: [  0.243425209604305,  0.921311313137651,  0.071165234078190 ]
    mass: 32.065000
  - symbol: S  # 26
    coordinates: [  0.756574790395696,  0.078688686862350,  0.928834765921810 ]
    mass: 32.065000
  - symbol: S  # 27
    coordinates: [  0.559895700075010,  0.809824531906889,  0.374484366826105 ]
    mass: 32.065000
  - symbol: S  # 28
    coordinates: [  0.670436736364888,  0.622512354323725,  0.449292278875688 ]
    mass: 32.065000
  reciprocal_lattice: # without 2pi
  - [     0.000000000000000,     0.096453423431751,    -0.015606996132091 ] # a*
  - [     0.119129205455052,     0.000000000000000,    -0.000000000000000 ] # b*
  - [     0.000000000000000,    -0.003358782939598,    -0.092851486136552 ] # c*

unit_cell:
  lattice:
  - [     0.000000000000000,    10.307367086401033,    -0.372855730828706 ] # a
  - [     8.394247205630073,     0.000000000000000,     0.000000000000000 ] # b
  - [     0.000000000000000,    -1.732519800630094,   -10.707215182200086 ] # c
  points:
  - symbol: S  # 1
    coordinates: [  0.886423141018846,  0.934009502859630,  0.678126385671780 ]
    mass: 32.065000
    reduced_to: 1
  - symbol: S  # 2
    coordinates: [  0.329563263635111,  0.377487645676274,  0.550707721124312 ]
    mass: 32.065000
    reduced_to: 2
  - symbol: S  # 3
    coordinates: [  0.912671285329742,  0.210483769860035,  0.911960471381961 ]
    mass: 32.065000
    reduced_to: 3
  - symbol: S  # 4
    coordinates: [  0.239736404768033,  0.601662093553246,  0.776574188687408 ]
    mass: 32.065000
    reduced_to: 4
  - symbol: S  # 5
    coordinates: [  0.144417516045635,  0.611377524298355,  0.224396680434326 ]
    mass: 32.065000
    reduced_to: 5
  - symbol: S  # 6
    coordinates: [  0.855582483954366,  0.388622475701645,  0.775603319565674 ]
    mass: 32.065000
    reduced_to: 6
  - symbol: S  # 7
    coordinates: [  0.760263595231967,  0.398337906446755,  0.223425811312592 ]
    mass: 32.065000
    reduced_to: 7
  - symbol: S  # 8
    coordinates: [  0.170436736364888,  0.877487645676275,  0.449292278875688 ]
    mass: 32.065000
    reduced_to: 8
  - symbol: S  # 9
    coordinates: [  0.412671285329742,  0.289516230139965,  0.911960471381961 ]
    mass: 32.065000
    reduced_to: 9
  - symbol: S  # 10
    coordinates: [  0.386423141018845,  0.565990497140370,  0.678126385671780 ]
    mass: 32.065000
    reduced_to: 10
  - symbol: S  # 11
    coordinates: [  0.644417516045634,  0.888622475701645,  0.224396680434326 ]
    mass: 32.065000
    reduced_to: 11
  - symbol: S  # 12
    coordinates: [  0.829563263635112,  0.122512354323726,  0.550707721124312 ]
    mass: 32.065000
    reduced_to: 12
  - symbol: S  # 13
    coordinates: [  0.260263595231968,  0.101662093553245,  0.223425811312592 ]
    mass: 32.065000
    reduced_to: 13
  - symbol: S  # 14
    coordinates: [  0.613576858981154,  0.434009502859630,  0.321873614328220 ]
    mass: 32.065000
    reduced_to: 14
  - symbol: S  # 15
    coordinates: [  0.113576858981154,  0.065990497140370,  0.321873614328220 ]
    mass: 32.065000
    reduced_to: 15
  - symbol: S  # 16
    coordinates: [  0.059895700075009,  0.690175468093111,  0.374484366826105 ]
    mass: 32.065000
    reduced_to: 16
  - symbol: S  # 17
    coordinates: [  0.743425209604304,  0.578688686862349,  0.071165234078190 ]
    mass: 32.065000
    reduced_to: 17
  - symbol: S  # 18
    coordinates: [  0.587328714670258,  0.710483769860035,  0.088039528618045 ]
    mass: 32.065000
    reduced_to: 18
  - symbol: S  # 19
    coordinates: [  0.256574790395695,  0.421311313137650,  0.928834765921810 ]
    mass: 32.065000
    reduced_to: 19
  - symbol: S  # 20
    coordinates: [  0.087328714670258,  0.789516230139965,  0.088039528618045 ]
    mass: 32.065000
    reduced_to: 20
  - symbol: S  # 21
    coordinates: [  0.440104299924991,  0.190175468093111,  0.625515633173895 ]
    mass: 32.065000
    reduced_to: 21
  - symbol: S  # 22
    coordinates: [  0.355582483954365,  0.111377524298355,  0.775603319565674 ]
    mass: 32.065000
    reduced_to: 22
  - symbol: S  # 23
    coordinates: [  0.739736404768033,  0.898337906446754,  0.776574188687408 ]
    mass: 32.065000
    reduced_to: 23
  - symbol: S  # 24
    coordinates: [  0.940104299924990,  0.309824531906889,  0.625515633173895 ]
    mass: 32.065000
    reduced_to: 24
  - symbol: S  # 25
    coordinates: [  0.243425209604305,  0.921311313137651,  0.071165234078190 ]
    mass: 32.065000
    reduced_to: 25
  - symbol: S  # 26
    coordinates: [  0.756574790395696,  0.078688686862350,  0.928834765921810 ]
    mass: 32.065000
    reduced_to: 26
  - symbol: S  # 27
    coordinates: [  0.559895700075010,  0.809824531906889,  0.374484366826105 ]
    mass: 32.065000
    reduced_to: 27
  - symbol: S  # 28
    coordinates: [  0.670436736364888,  0.622512354323725,  0.449292278875688 ]
    mass: 32.065000
    reduced_to: 28

supercell:
  lattice:
  - [     0.000000000000000,    10.307367086401033,    -0.372855730828706 ] # a
  - [    16.788494411260146,     0.000000000000000,     0.000000000000000 ] # b
  - [     0.000000000000000,    -1.732519800630094,   -10.707215182200086 ] # c
  points:
  - symbol: S  # 1
    coordinates: [  0.886423141018846,  0.467004751429815,  0.678126385671780 ]
    mass: 32.065000
    reduced_to: 1
  - symbol: S  # 2
    coordinates: [  0.886423141018846,  0.967004751429815,  0.678126385671780 ]
    mass: 32.065000
    reduced_to: 1
  - symbol: S  # 3
    coordinates: [  0.329563263635111,  0.188743822838137,  0.550707721124312 ]
    mass: 32.065000
    reduced_to: 3
  - symbol: S  # 4
    coordinates: [  0.329563263635111,  0.688743822838137,  0.550707721124312 ]
    mass: 32.065000
    reduced_to: 3
  - symbol: S  # 5
    coordinates: [  0.912671285329742,  0.105241884930017,  0.911960471381961 ]
    mass: 32.065000
    reduced_to: 5
  - symbol: S  # 6
    coordinates: [  0.912671285329742,  0.605241884930017,  0.911960471381961 ]
    mass: 32.065000
    reduced_to: 5
  - symbol: S  # 7
    coordinates: [  0.239736404768033,  0.300831046776623,  0.776574188687408 ]
    mass: 32.065000
    reduced_to: 7
  - symbol: S  # 8
    coordinates: [  0.239736404768033,  0.800831046776623,  0.776574188687408 ]
    mass: 32.065000
    reduced_to: 7
  - symbol: S  # 9
    coordinates: [  0.144417516045635,  0.305688762149178,  0.224396680434326 ]
    mass: 32.065000
    reduced_to: 9
  - symbol: S  # 10
    coordinates: [  0.144417516045635,  0.805688762149178,  0.224396680434326 ]
    mass: 32.065000
    reduced_to: 9
  - symbol: S  # 11
    coordinates: [  0.855582483954366,  0.194311237850822,  0.775603319565674 ]
    mass: 32.065000
    reduced_to: 11
  - symbol: S  # 12
    coordinates: [  0.855582483954366,  0.694311237850822,  0.775603319565674 ]
    mass: 32.065000
    reduced_to: 11
  - symbol: S  # 13
    coordinates: [  0.760263595231967,  0.199168953223378,  0.223425811312592 ]
    mass: 32.065000
    reduced_to: 13
  - symbol: S  # 14
    coordinates: [  0.760263595231967,  0.699168953223378,  0.223425811312592 ]
    mass: 32.065000
    reduced_to: 13
  - symbol: S  # 15
    coordinates: [  0.170436736364888,  0.438743822838137,  0.449292278875688 ]
    mass: 32.065000
    reduced_to: 15
  - symbol: S  # 16
    coordinates: [  0.170436736364888,  0.938743822838137,  0.449292278875688 ]
    mass: 32.065000
    reduced_to: 15
  - symbol: S  # 17
    coordinates: [  0.412671285329742,  0.144758115069983,  0.911960471381961 ]
    mass: 32.065000
    reduced_to: 17
  - symbol: S  # 18
    coordinates: [  0.412671285329742,  0.644758115069983,  0.911960471381961 ]
    mass: 32.065000
    reduced_to: 17
  - symbol: S  # 19
    coordinates: [  0.386423141018845,  0.282995248570185,  0.678126385671780 ]
    mass: 32.065000
    reduced_to: 19
  - symbol: S  # 20
    coordinates: [  0.386423141018845,  0.782995248570185,  0.678126385671780 ]
    mass: 32.065000
    reduced_to: 19
  - symbol: S  # 21
    coordinates: [  0.644417516045634,  0.444311237850822,  0.224396680434326 ]
    mass: 32.065000
    reduced_to: 21
  - symbol: S  # 22
    coordinates: [  0.644417516045634,  0.944311237850822,  0.224396680434326 ]
    mass: 32.065000
    reduced_to: 21
  - symbol: S  # 23
    coordinates: [  0.829563263635112,  0.061256177161863,  0.550707721124312 ]
    mass: 32.065000
    reduced_to: 23
  - symbol: S  # 24
    coordinates: [  0.829563263635112,  0.561256177161863,  0.550707721124312 ]
    mass: 32.065000
    reduced_to: 23
  - symbol: S  # 25
    coordinates: [  0.260263595231968,  0.050831046776623,  0.223425811312592 ]
    mass: 32.065000
    reduced_to: 25
  - symbol: S  # 26
    coordinates: [  0.260263595231968,  0.550831046776623,  0.223425811312592 ]
    mass: 32.065000
    reduced_to: 25
  - symbol: S  # 27
    coordinates: [  0.613576858981154,  0.217004751429815,  0.321873614328220 ]
    mass: 32.065000
    reduced_to: 27
  - symbol: S  # 28
    coordinates: [  0.613576858981154,  0.717004751429815,  0.321873614328220 ]
    mass: 32.065000
    reduced_to: 27
  - symbol: S  # 29
    coordinates: [  0.113576858981154,  0.032995248570185,  0.321873614328220 ]
    mass: 32.065000
    reduced_to: 29
  - symbol: S  # 30
    coordinates: [  0.113576858981154,  0.532995248570185,  0.321873614328220 ]
    mass: 32.065000
    reduced_to: 29
  - symbol: S  # 31
    coordinates: [  0.059895700075009,  0.345087734046555,  0.374484366826105 ]
    mass: 32.065000
    reduced_to: 31
  - symbol: S  # 32
    coordinates: [  0.059895700075009,  0.845087734046555,  0.374484366826105 ]
    mass: 32.065000
    reduced_to: 31
  - symbol: S  # 33
    coordinates: [  0.743425209604304,  0.289344343431174,  0.071165234078190 ]
    mass: 32.065000
    reduced_to: 33
  - symbol: S  # 34
    coordinates: [  0.743425209604304,  0.789344343431174,  0.071165234078190 ]
    mass: 32.065000
    reduced_to: 33
  - symbol: S  # 35
    coordinates: [  0.587328714670258,  0.355241884930017,  0.088039528618045 ]
    mass: 32.065000
    reduced_to: 35
  - symbol: S  # 36
    coordinates: [  0.587328714670258,  0.855241884930017,  0.088039528618045 ]
    mass: 32.065000
    reduced_to: 35
  - symbol: S  # 37
    coordinates: [  0.256574790395695,  0.210655656568825,  0.928834765921810 ]
    mass: 32.065000
    reduced_to: 37
  - symbol: S  # 38
    coordinates: [  0.256574790395695,  0.710655656568825,  0.928834765921810 ]
    mass: 32.065000
    reduced_to: 37
  - symbol: S  # 39
    coordinates: [  0.087328714670258,  0.394758115069983,  0.088039528618045 ]
    mass: 32.065000
    reduced_to: 39
  - symbol: S  # 40
    coordinates: [  0.087328714670258,  0.894758115069983,  0.088039528618045 ]
    mass: 32.065000
    reduced_to: 39
  - symbol: S  # 41
    coordinates: [  0.440104299924991,  0.095087734046555,  0.625515633173895 ]
    mass: 32.065000
    reduced_to: 41
  - symbol: S  # 42
    coordinates: [  0.440104299924991,  0.595087734046555,  0.625515633173895 ]
    mass: 32.065000
    reduced_to: 41
  - symbol: S  # 43
    coordinates: [  0.355582483954365,  0.055688762149178,  0.775603319565674 ]
    mass: 32.065000
    reduced_to: 43
  - symbol: S  # 44
    coordinates: [  0.355582483954365,  0.555688762149178,  0.775603319565674 ]
    mass: 32.065000
    reduced_to: 43
  - symbol: S  # 45
    coordinates: [  0.739736404768033,  0.449168953223377,  0.776574188687408 ]
    mass: 32.065000
    reduced_to: 45
  - symbol: S  # 46
    coordinates: [  0.739736404768033,  0.949168953223377,  0.776574188687408 ]
    mass: 32.065000
    reduced_to: 45
  - symbol: S  # 47
    coordinates: [  0.940104299924990,  0.154912265953445,  0.625515633173895 ]
    mass: 32.065000
    reduced_to: 47
  - symbol: S  # 48
    coordinates: [  0.940104299924990,  0.654912265953445,  0.625515633173895 ]
    mass: 32.065000
    reduced_to: 47
  - symbol: S  # 49
    coordinates: [  0.243425209604305,  0.460655656568826,  0.071165234078190 ]
    mass: 32.065000
    reduced_to: 49
  - symbol: S  # 50
    coordinates: [  0.243425209604305,  0.960655656568826,  0.071165234078190 ]
    mass: 32.065000
    reduced_to: 49
  - symbol: S  # 51
    coordinates: [  0.756574790395696,  0.039344343431175,  0.928834765921810 ]
    mass: 32.065000
    reduced_to: 51
  - symbol: S  # 52
    coordinates: [  0.756574790395696,  0.539344343431175,  0.928834765921810 ]
    mass: 32.065000
    reduced_to: 51
  - symbol: S  # 53
    coordinates: [  0.559895700075010,  0.404912265953445,  0.374484366826105 ]
    mass: 32.065000
    reduced_to: 53
  - symbol: S  # 54
    coordinates: [  0.559895700075010,  0.904912265953445,  0.374484366826105 ]
    mass: 32.065000
    reduced_to: 53
  - symbol: S  # 55
    coordinates: [  0.670436736364888,  0.311256177161863,  0.449292278875688 ]
    mass: 32.065000
    reduced_to: 55
  - symbol: S  # 56
    coordinates: [  0.670436736364888,  0.811256177161863,  0.449292278875688 ]
    mass: 32.065000
    reduced_to: 55

displacements:
- atom:    1
  displacement:
    [   0.0000000000000000,  0.0099934637267374, -0.0003615006810283 ]
- atom:    1
  displacement:
    [   0.0000000000000000, -0.0099934637267374,  0.0003615006810283 ]
- atom:    1
  displacement:
    [   0.0100000000000000,  0.0000000000000000,  0.0000000000000000 ]
- atom:    1
  displacement:
    [  -0.0100000000000000,  0.0000000000000000,  0.0000000000000000 ]
- atom:    1
  displacement:
    [   0.0000000000000000, -0.0015973109649940, -0.0098716056283216 ]
- atom:    1
  displacement:
    [   0.0000000000000000,  0.0015973109649940,  0.0098716056283216 ]
- atom:    3
  displacement:
    [   0.0000000000000000,  0.0099934637267374, -0.0003615006810283 ]
- atom:    3
  displacement:
    [   0.0000000000000000, -0.0099934637267374,  0.0003615006810283 ]
- atom:    3
  displacement:
    [   0.0100000000000000,  0.0000000000000000,  0.0000000000000000 ]
- atom:    3
  displacement:
    [  -0.0100000000000000,  0.0000000000000000,  0.0000000000000000 ]
- atom:    3
  displacement:
    [   0.0000000000000000, -0.0015973109649940, -0.0098716056283216 ]
- atom:    3
  displacement:
    [   0.0000000000000000,  0.0015973109649940,  0.0098716056283216 ]
- atom:    5
  displacement:
    [   0.0000000000000000,  0.0099934637267374, -0.0003615006810283 ]
- atom:    5
  displacement:
    [   0.0000000000000000, -0.0099934637267374,  0.0003615006810283 ]
- atom:    5
  displacement:
    [   0.0100000000000000,  0.0000000000000000,  0.0000000000000000 ]
- atom:    5
  displacement:
    [  -0.0100000000000000,  0.0000000000000000,  0.0000000000000000 ]
- atom:    5
  displacement:
    [   0.0000000000000000, -0.0015973109649940, -0.0098716056283216 ]
- atom:    5
  displacement:
    [   0.0000000000000000,  0.0015973109649940,  0.0098716056283216 ]
- atom:    7
  displacement:
    [   0.0000000000000000,  0.0099934637267374, -0.0003615006810283 ]
- atom:    7
  displacement:
    [   0.0000000000000000, -0.0099934637267374,  0.0003615006810283 ]
- atom:    7
  displacement:
    [   0.0100000000000000,  0.0000000000000000,  0.0000000000000000 ]
- atom:    7
  displacement:
    [  -0.0100000000000000,  0.0000000000000000,  0.0000000000000000 ]
- atom:    7
  displacement:
    [   0.0000000000000000, -0.0015973109649940, -0.0098716056283216 ]
- atom:    7
  displacement:
    [   0.0000000000000000,  0.0015973109649940,  0.0098716056283216 ]
- atom:    9
  displacement:
    [   0.0000000000000000,  0.0099934637267374, -0.0003615006810283 ]
- atom:    9
  displacement:
    [   0.0000000000000000, -0.0099934637267374,  0.0003615006810283 ]
- atom:    9
  displacement:
    [   0.0100000000000000,  0.0000000000000000,  0.0000000000000000 ]
- atom:    9
  displacement:
    [  -0.0100000000000000,  0.0000000000000000,  0.0000000000000000 ]
- atom:    9
  displacement:
    [   0.0000000000000000, -0.0015973109649940, -0.0098716056283216 ]
- atom:    9
  displacement:
    [   0.0000000000000000,  0.0015973109649940,  0.0098716056283216 ]
- atom:   31
  displacement:
    [   0.0000000000000000,  0.0099934637267374, -0.0003615006810283 ]
- atom:   31
  displacement:
    [   0.0000000000000000, -0.0099934637267374,  0.0003615006810283 ]
- atom:   31
  displacement:
    [   0.0100000000000000,  0.0000000000000000,  0.0000000000000000 ]
- atom:   31
  displacement:
    [  -0.0100000000000000,  0.0000000000000000,  0.0000000000000000 ]
- atom:   31
  displacement:
    [   0.0000000000000000, -0.0015973109649940, -0.0098716056283216 ]
- atom:   31
  displacement:
    [   0.0000000000000000,  0.0015973109649940,  0.0098716056283216 ]
- atom:   33
  displacement:
    [   0.0000000000000000,  0.0099934637267374, -0.0003615006810283 ]
- atom:   33
  displacement:
    [   0.0000000000000000, -0.0099934637267374,  0.0003615006810283 ]
- atom:   33
  displacement:
    [   0.0100000000000000,  0.0000000000000000,  0.0000000000000000 ]
- atom:   33
  displacement:
    [  -0.0100000000000000,  0.0000000000000000,  0.0000000000000000 ]
- atom:   33
  displacement:
    [   0.0000000000000000, -0.0015973109649940, -0.0098716056283216 ]
- atom:   33
  displacement:
    [   0.0000000000000000,  0.0015973109649940,  0.0098716056283216 ]
