  30  30   0   0
  0.2535214E+02  0.7201539E-09  0.7201539E-09  0.1532369E-08  0.1500000E-16
   1.0000000000000000E-004
  CAR 
 unknown system                          
      9.50825731    -22.77772279  301      1.55783471      1.00000000
    -22.778  0.0000E+00  0.0000E+00
    -22.670  0.0000E+00  0.0000E+00
    -22.562  0.0000E+00  0.0000E+00
    -22.455  0.0000E+00  0.0000E+00
    -22.347  0.0000E+00  0.0000E+00
    -22.240  0.0000E+00  0.0000E+00
    -22.132  0.0000E+00  0.0000E+00
    -22.024  0.0000E+00  0.0000E+00
    -21.917  0.0000E+00  0.0000E+00
    -21.809  0.0000E+00  0.0000E+00
    -21.702  0.0000E+00  0.0000E+00
    -21.594  0.3378E-16  0.3635E-17
    -21.486  0.2569E-07  0.2765E-08
    -21.379  0.3186E-02  0.3429E-03
    -21.271  0.2848E+00  0.3099E-01
    -21.163  0.2714E+00  0.6020E-01
    -21.056  0.1451E+00  0.7582E-01
    -20.948  0.7794E+00  0.1597E+00
    -20.841  0.2000E+00  0.1812E+00
    -20.733  0.1291E-02  0.1814E+00
    -20.625  0.8848E-08  0.1814E+00
    -20.518  0.1039E-16  0.1814E+00
    -20.410  0.0000E+00  0.1814E+00
    -20.302  0.0000E+00  0.1814E+00
    -20.195  0.0000E+00  0.1814E+00
    -20.087  0.0000E+00  0.1814E+00
    -19.980  0.0000E+00  0.1814E+00
    -19.872  0.0000E+00  0.1814E+00
    -19.764  0.0000E+00  0.1814E+00
    -19.657  0.1423E-08  0.1814E+00
    -19.549  0.6669E-03  0.1814E+00
    -19.442  0.1828E+00  0.2011E+00
    -19.334  0.5543E+00  0.2608E+00
    -19.226  0.1976E+00  0.2820E+00
    -19.119  0.8195E-03  0.2821E+00
    -19.011  0.1475E-08  0.2821E+00
    -18.903  0.0000E+00  0.2821E+00
    -18.796  0.0000E+00  0.2821E+00
    -18.688  0.0000E+00  0.2821E+00
    -18.581  0.0000E+00  0.2821E+00
    -18.473  0.0000E+00  0.2821E+00
    -18.365  0.0000E+00  0.2821E+00
    -18.258  0.0000E+00  0.2821E+00
    -18.150  0.0000E+00  0.2821E+00
    -18.042  0.0000E+00  0.2821E+00
    -17.935  0.0000E+00  0.2821E+00
    -17.827  0.0000E+00  0.2821E+00
    -17.720  0.0000E+00  0.2821E+00
    -17.612  0.0000E+00  0.2821E+00
    -17.504  0.0000E+00  0.2821E+00
    -17.397  0.0000E+00  0.2821E+00
    -17.289  0.0000E+00  0.2821E+00
    -17.181  0.0000E+00  0.2821E+00
    -17.074  0.0000E+00  0.2821E+00
    -16.966  0.0000E+00  0.2821E+00
    -16.859  0.0000E+00  0.2821E+00
    -16.751  0.0000E+00  0.2821E+00
    -16.643  0.0000E+00  0.2821E+00
    -16.536  0.0000E+00  0.2821E+00
    -16.428  0.0000E+00  0.2821E+00
    -16.321  0.0000E+00  0.2821E+00
    -16.213  0.0000E+00  0.2821E+00
    -16.105  0.0000E+00  0.2821E+00
    -15.998  0.0000E+00  0.2821E+00
    -15.890  0.0000E+00  0.2821E+00
    -15.782  0.0000E+00  0.2821E+00
    -15.675  0.0000E+00  0.2821E+00
    -15.567  0.0000E+00  0.2821E+00
    -15.460  0.0000E+00  0.2821E+00
    -15.352  0.0000E+00  0.2821E+00
    -15.244  0.0000E+00  0.2821E+00
    -15.137  0.0000E+00  0.2821E+00
    -15.029  0.0000E+00  0.2821E+00
    -14.921  0.0000E+00  0.2821E+00
    -14.814  0.0000E+00  0.2821E+00
    -14.706  0.0000E+00  0.2821E+00
    -14.599  0.0000E+00  0.2821E+00
    -14.491  0.0000E+00  0.2821E+00
    -14.383  0.0000E+00  0.2821E+00
    -14.276  0.0000E+00  0.2821E+00
    -14.168  0.0000E+00  0.2821E+00
    -14.061  0.0000E+00  0.2821E+00
    -13.953  0.0000E+00  0.2821E+00
    -13.845  0.0000E+00  0.2821E+00
    -13.738  0.0000E+00  0.2821E+00
    -13.630  0.0000E+00  0.2821E+00
    -13.522  0.0000E+00  0.2821E+00
    -13.415  0.0000E+00  0.2821E+00
    -13.307  0.0000E+00  0.2821E+00
    -13.200  0.0000E+00  0.2821E+00
    -13.092  0.0000E+00  0.2821E+00
    -12.984  0.0000E+00  0.2821E+00
    -12.877  0.0000E+00  0.2821E+00
    -12.769  0.0000E+00  0.2821E+00
    -12.661  0.0000E+00  0.2821E+00
    -12.554  0.0000E+00  0.2821E+00
    -12.446  0.0000E+00  0.2821E+00
    -12.339  0.0000E+00  0.2821E+00
    -12.231  0.0000E+00  0.2821E+00
    -12.123  0.0000E+00  0.2821E+00
    -12.016  0.0000E+00  0.2821E+00
    -11.908  0.0000E+00  0.2821E+00
    -11.800  0.0000E+00  0.2821E+00
    -11.693  0.0000E+00  0.2821E+00
    -11.585  0.0000E+00  0.2821E+00
    -11.478  0.0000E+00  0.2821E+00
    -11.370  0.0000E+00  0.2821E+00
    -11.262  0.0000E+00  0.2821E+00
    -11.155  0.4135E-13  0.2821E+00
    -11.047  0.5743E-06  0.2821E+00
    -10.940  0.1832E-02  0.2823E+00
    -10.832  0.5127E-01  0.2878E+00
    -10.724  0.4035E-01  0.2922E+00
    -10.617  0.1732E-03  0.2922E+00
    -10.509  0.2799E-09  0.2922E+00
    -10.401  0.3522E-07  0.2922E+00
    -10.294  0.5702E-03  0.2923E+00
    -10.186  0.2339E-01  0.2948E+00
    -10.079  0.5758E-01  0.3010E+00
     -9.971  0.1202E-01  0.3023E+00
     -9.863  0.9899E-04  0.3023E+00
     -9.756  0.1104E-01  0.3035E+00
     -9.648  0.6683E-01  0.3107E+00
     -9.540  0.1575E-01  0.3123E+00
     -9.433  0.2786E-01  0.3153E+00
     -9.325  0.1468E+00  0.3311E+00
     -9.218  0.1812E+00  0.3506E+00
     -9.110  0.1862E-01  0.3526E+00
     -9.002  0.6036E-05  0.3526E+00
     -8.895  0.5610E-12  0.3526E+00
     -8.787  0.0000E+00  0.3526E+00
     -8.680  0.0000E+00  0.3526E+00
     -8.572  0.0000E+00  0.3526E+00
     -8.464  0.0000E+00  0.3526E+00
     -8.357  0.0000E+00  0.3526E+00
     -8.249  0.0000E+00  0.3526E+00
     -8.141  0.0000E+00  0.3526E+00
     -8.034  0.0000E+00  0.3526E+00
     -7.926  0.0000E+00  0.3526E+00
     -7.819  0.0000E+00  0.3526E+00
     -7.711  0.0000E+00  0.3526E+00
     -7.603  0.0000E+00  0.3526E+00
     -7.496  0.0000E+00  0.3526E+00
     -7.388  0.0000E+00  0.3526E+00
     -7.280  0.0000E+00  0.3526E+00
     -7.173  0.0000E+00  0.3526E+00
     -7.065  0.0000E+00  0.3526E+00
     -6.958  0.0000E+00  0.3526E+00
     -6.850  0.0000E+00  0.3526E+00
     -6.742  0.0000E+00  0.3526E+00
     -6.635  0.0000E+00  0.3526E+00
     -6.527  0.0000E+00  0.3526E+00
     -6.419  0.0000E+00  0.3526E+00
     -6.312  0.0000E+00  0.3526E+00
     -6.204  0.0000E+00  0.3526E+00
     -6.097  0.0000E+00  0.3526E+00
     -5.989  0.0000E+00  0.3526E+00
     -5.881  0.0000E+00  0.3526E+00
     -5.774  0.0000E+00  0.3526E+00
     -5.666  0.0000E+00  0.3526E+00
     -5.559  0.0000E+00  0.3526E+00
     -5.451  0.0000E+00  0.3526E+00
     -5.343  0.0000E+00  0.3526E+00
     -5.236  0.0000E+00  0.3526E+00
     -5.128  0.0000E+00  0.3526E+00
     -5.020  0.1617E-16  0.3526E+00
     -4.913  0.9622E-08  0.3526E+00
     -4.805  0.9123E-03  0.3527E+00
     -4.698  0.4985E-01  0.3581E+00
     -4.590  0.4056E-01  0.3625E+00
     -4.482  0.2300E-02  0.3627E+00
     -4.375  0.9346E-04  0.3627E+00
     -4.267  0.5059E-02  0.3633E+00
     -4.159  0.1280E-01  0.3647E+00
     -4.052  0.4974E-01  0.3700E+00
     -3.944  0.2535E-01  0.3727E+00
     -3.837  0.5809E-03  0.3728E+00
     -3.729  0.1010E-07  0.3728E+00
     -3.621  0.2772E-16  0.3728E+00
     -3.514  0.0000E+00  0.3728E+00
     -3.406  0.0000E+00  0.3728E+00
     -3.299  0.0000E+00  0.3728E+00
     -3.191  0.0000E+00  0.3728E+00
     -3.083  0.0000E+00  0.3728E+00
     -2.976  0.0000E+00  0.3728E+00
     -2.868  0.0000E+00  0.3728E+00
     -2.760  0.0000E+00  0.3728E+00
     -2.653  0.0000E+00  0.3728E+00
     -2.545  0.0000E+00  0.3728E+00
     -2.438  0.0000E+00  0.3728E+00
     -2.330  0.0000E+00  0.3728E+00
     -2.222  0.0000E+00  0.3728E+00
     -2.115  0.1157E-12  0.3728E+00
     -2.007  0.2314E-05  0.3728E+00
     -1.899  0.9436E-02  0.3738E+00
     -1.792  0.6037E-01  0.3803E+00
     -1.684  0.2343E-01  0.3828E+00
     -1.577  0.4085E-01  0.3872E+00
     -1.469  0.5290E-01  0.3929E+00
     -1.361  0.4547E-01  0.3978E+00
     -1.254  0.3707E-01  0.4018E+00
     -1.146  0.3952E-01  0.4061E+00
     -1.038  0.4041E-01  0.4104E+00
     -0.931  0.4245E-01  0.4150E+00
     -0.823  0.6368E-01  0.4218E+00
     -0.716  0.5272E-01  0.4275E+00
     -0.608  0.4448E-01  0.4323E+00
     -0.500  0.8923E-02  0.4332E+00
     -0.393  0.3761E-02  0.4337E+00
     -0.285  0.2695E-01  0.4366E+00
     -0.178  0.3885E-01  0.4407E+00
     -0.070  0.3521E-01  0.4445E+00
      0.038  0.6081E-01  0.4511E+00
      0.145  0.5779E-01  0.4573E+00
      0.253  0.6120E-01  0.4639E+00
      0.361  0.5715E-01  0.4700E+00
      0.468  0.1004E+00  0.4808E+00
      0.576  0.1085E+00  0.4925E+00
      0.683  0.8939E-01  0.5021E+00
      0.791  0.1110E+00  0.5141E+00
      0.899  0.9345E-01  0.5241E+00
      1.006  0.1142E+00  0.5364E+00
      1.114  0.1238E+00  0.5497E+00
      1.222  0.8478E-01  0.5589E+00
      1.329  0.4636E-01  0.5639E+00
      1.437  0.3491E-02  0.5642E+00
      1.544  0.2848E-05  0.5642E+00
      1.652  0.6833E-12  0.5642E+00
      1.760  0.0000E+00  0.5642E+00
      1.867  0.0000E+00  0.5642E+00
      1.975  0.0000E+00  0.5642E+00
      2.082  0.0000E+00  0.5642E+00
      2.190  0.0000E+00  0.5642E+00
      2.298  0.0000E+00  0.5642E+00
      2.405  0.0000E+00  0.5642E+00
      2.513  0.0000E+00  0.5642E+00
      2.621  0.0000E+00  0.5642E+00
      2.728  0.0000E+00  0.5642E+00
      2.836  0.0000E+00  0.5642E+00
      2.943  0.0000E+00  0.5642E+00
      3.051  0.0000E+00  0.5642E+00
      3.159  0.4168E-12  0.5642E+00
      3.266  0.2092E-05  0.5642E+00
      3.374  0.1971E-02  0.5644E+00
      3.482  0.3212E-02  0.5648E+00
      3.589  0.1614E-04  0.5648E+00
      3.697  0.1937E-10  0.5648E+00
      3.804  0.1471E-06  0.5648E+00
      3.912  0.2022E-02  0.5650E+00
      4.020  0.2009E-01  0.5672E+00
      4.127  0.3752E-01  0.5712E+00
      4.235  0.2984E-01  0.5744E+00
      4.343  0.4144E-01  0.5789E+00
      4.450  0.2430E-01  0.5815E+00
      4.558  0.2545E-01  0.5842E+00
      4.665  0.1377E-02  0.5844E+00
      4.773  0.4842E-06  0.5844E+00
      4.881  0.3101E-13  0.5844E+00
      4.988  0.0000E+00  0.5844E+00
      5.096  0.0000E+00  0.5844E+00
      5.203  0.1974E-09  0.5844E+00
      5.311  0.7315E-04  0.5844E+00
      5.419  0.9426E-02  0.5854E+00
      5.526  0.5134E-01  0.5909E+00
      5.634  0.3815E-01  0.5950E+00
      5.742  0.5739E-01  0.6012E+00
      5.849  0.3153E-01  0.6046E+00
      5.957  0.4624E-01  0.6096E+00
      6.064  0.5408E-01  0.6154E+00
      6.172  0.3738E-01  0.6194E+00
      6.280  0.2137E-01  0.6217E+00
      6.387  0.2903E-01  0.6248E+00
      6.495  0.4767E-01  0.6300E+00
      6.603  0.6168E-01  0.6366E+00
      6.710  0.5888E-01  0.6430E+00
      6.818  0.4272E-01  0.6476E+00
      6.925  0.5872E-01  0.6539E+00
      7.033  0.4635E-01  0.6589E+00
      7.141  0.1946E-01  0.6610E+00
      7.248  0.1868E-01  0.6630E+00
      7.356  0.4620E-01  0.6679E+00
      7.463  0.3596E-01  0.6718E+00
      7.571  0.3393E-01  0.6755E+00
      7.679  0.1908E-01  0.6775E+00
      7.786  0.3277E-01  0.6810E+00
      7.894  0.7749E-02  0.6819E+00
      8.002  0.2490E-01  0.6846E+00
      8.109  0.5329E-02  0.6851E+00
      8.217  0.1372E-03  0.6851E+00
      8.324  0.1645E-08  0.6851E+00
      8.432  0.2310E-17  0.6851E+00
      8.540  0.0000E+00  0.6851E+00
      8.647  0.0000E+00  0.6851E+00
      8.755  0.0000E+00  0.6851E+00
      8.863  0.0000E+00  0.6851E+00
      8.970  0.0000E+00  0.6851E+00
      9.078  0.0000E+00  0.6851E+00
      9.185  0.0000E+00  0.6851E+00
      9.293  0.0000E+00  0.6851E+00
      9.401  0.0000E+00  0.6851E+00
      9.508  0.0000E+00  0.6851E+00
