       N       E                     dE             d eps       ncg     rms          rms(c)
DAV:   1     0.234639256925E+04    0.23464E+04   -0.89235E+04  1104   0.153E+03
DAV:   2     0.291463722523E+03   -0.20549E+04   -0.19939E+04  1120   0.431E+02
DAV:   3    -0.917789634933E+02   -0.38324E+03   -0.37058E+03  1272   0.193E+02
DAV:   4    -0.121993855257E+03   -0.30215E+02   -0.29818E+02  1280   0.505E+01
DAV:   5    -0.123230806250E+03   -0.12370E+01   -0.12307E+01  1296   0.104E+01    0.192E+01
DAV:   6    -0.116616014693E+03    0.66148E+01   -0.11788E+01  1456   0.118E+01    0.146E+01
DAV:   7    -0.116211661934E+03    0.40435E+00   -0.52496E+00  1352   0.494E+00    0.561E+00
DAV:   8    -0.116216203962E+03   -0.45420E-02   -0.54896E-01  1432   0.294E+00    0.194E+00
DAV:   9    -0.116233040444E+03   -0.16836E-01   -0.10152E-01  1240   0.105E+00    0.522E-01
DAV:  10    -0.116235613700E+03   -0.25733E-02   -0.58292E-03  1456   0.273E-01    0.309E-01
DAV:  11    -0.116241360675E+03   -0.57470E-02   -0.61550E-03  1304   0.195E-01    0.132E-01
DAV:  12    -0.116242151270E+03   -0.79059E-03   -0.95277E-04  1304   0.938E-02    0.903E-02
DAV:  13    -0.116242400659E+03   -0.24939E-03   -0.34634E-04  1224   0.471E-02    0.376E-02
DAV:  14    -0.116242440072E+03   -0.39413E-04   -0.57959E-05  1296   0.202E-02    0.283E-02
DAV:  15    -0.116242455003E+03   -0.14931E-04   -0.99411E-06   928   0.856E-03    0.168E-02
DAV:  16    -0.116242464116E+03   -0.91127E-05   -0.11057E-05   928   0.980E-03    0.403E-03
DAV:  17    -0.116242465269E+03   -0.11532E-05   -0.23612E-06  1016   0.438E-03    0.561E-03
DAV:  18    -0.116242465651E+03   -0.38262E-06   -0.36323E-07   704   0.251E-03
   1 F= -.11624247E+03 E0= -.11624247E+03  d E =-.303768E-13
 Found    25 degrees of freedom:
 Adding 6 more for cell shape distortion
       N       E                     dE             d eps       ncg     rms          rms(c)
DAV:   1    -0.117643806033E+03   -0.14013E+01   -0.56371E+01  1800   0.383E+01    0.881E+00
DAV:   2    -0.116525704172E+03    0.11181E+01   -0.37669E+00  1712   0.105E+01    0.425E+00
DAV:   3    -0.116127344468E+03    0.39836E+00   -0.88066E-01  1760   0.404E+00    0.171E+00
DAV:   4    -0.116096086994E+03    0.31257E-01   -0.86539E-02  1592   0.102E+00    0.818E-01
DAV:   5    -0.116088231971E+03    0.78550E-02   -0.16070E-02  1736   0.506E-01    0.380E-01
DAV:   6    -0.116087920359E+03    0.31161E-03   -0.54131E-03  1680   0.386E-01    0.125E-01
DAV:   7    -0.116087929128E+03   -0.87693E-05   -0.29854E-04  1800   0.705E-02    0.762E-02
DAV:   8    -0.116087939585E+03   -0.10457E-04   -0.10305E-04  1744   0.456E-02    0.205E-02
DAV:   9    -0.116087942806E+03   -0.32209E-05   -0.96694E-06  1504   0.112E-02    0.106E-02
DAV:  10    -0.116087946445E+03   -0.36398E-05   -0.78099E-06  1176   0.687E-03    0.425E-03
DAV:  11    -0.116087946131E+03    0.31487E-06   -0.52715E-07   968   0.333E-03
   2 F= -.11608795E+03 E0= -.11608795E+03  d E =-.320793E-11
       N       E                     dE             d eps       ncg     rms          rms(c)
DAV:   1    -0.116563486416E+03   -0.47554E+00   -0.19641E+01  1768   0.197E+01    0.447E+00
DAV:   2    -0.116305616986E+03    0.25787E+00   -0.10396E+00  1776   0.505E+00    0.213E+00
DAV:   3    -0.116210563824E+03    0.95053E-01   -0.22286E-01  1776   0.211E+00    0.886E-01
DAV:   4    -0.116204693730E+03    0.58701E-02   -0.29822E-02  1480   0.658E-01    0.470E-01
DAV:   5    -0.116202768805E+03    0.19249E-02   -0.43292E-03  1832   0.300E-01    0.196E-01
DAV:   6    -0.116202787384E+03   -0.18579E-04   -0.14451E-03  1656   0.200E-01    0.698E-02
DAV:   7    -0.116202793556E+03   -0.61722E-05   -0.93651E-05  1744   0.333E-02    0.402E-02
DAV:   8    -0.116202797211E+03   -0.36552E-05   -0.19585E-05  1464   0.178E-02    0.125E-02
DAV:   9    -0.116202797294E+03   -0.83011E-07   -0.26491E-06  1128   0.716E-03
   3 F= -.11620280E+03 E0= -.11620280E+03  d E =-.177258E-16
       N       E                     dE             d eps       ncg     rms          rms(c)
DAV:   1    -0.117786273388E+03   -0.15835E+01   -0.51020E+01  1816   0.350E+01    0.950E+00
DAV:   2    -0.116634266467E+03    0.11520E+01   -0.34665E+00  1808   0.981E+00    0.438E+00
DAV:   3    -0.116249371645E+03    0.38489E+00   -0.75235E-01  1800   0.381E+00    0.198E+00
DAV:   4    -0.116207977006E+03    0.41395E-01   -0.88026E-02  1560   0.108E+00    0.965E-01
DAV:   5    -0.116198982722E+03    0.89943E-02   -0.17551E-02  1624   0.568E-01    0.365E-01
DAV:   6    -0.116199245349E+03   -0.26263E-03   -0.60005E-03  1544   0.405E-01    0.124E-01
DAV:   7    -0.116199255833E+03   -0.10484E-04   -0.33132E-04  1768   0.837E-02    0.712E-02
DAV:   8    -0.116199265327E+03   -0.94939E-05   -0.92044E-05  1560   0.342E-02    0.233E-02
DAV:   9    -0.116199265983E+03   -0.65573E-06   -0.66888E-06  1344   0.109E-02
   4 F= -.11619927E+03 E0= -.11619927E+03  d E =-.959110E-17
       N       E                     dE             d eps       ncg     rms          rms(c)
DAV:   1    -0.116450908592E+03   -0.25164E+00   -0.22247E+01  1744   0.206E+01    0.493E+00
DAV:   2    -0.116180857683E+03    0.27005E+00   -0.11869E+00  1792   0.554E+00    0.226E+00
DAV:   3    -0.116081600575E+03    0.99257E-01   -0.18787E-01  1760   0.193E+00    0.105E+00
DAV:   4    -0.116068359811E+03    0.13241E-01   -0.29626E-02  1688   0.637E-01    0.490E-01
DAV:   5    -0.116066127958E+03    0.22319E-02   -0.50038E-03  1672   0.305E-01    0.184E-01
DAV:   6    -0.116066207724E+03   -0.79766E-04   -0.14314E-03  1512   0.191E-01    0.665E-02
DAV:   7    -0.116066216912E+03   -0.91882E-05   -0.10841E-04  1744   0.419E-02    0.421E-02
DAV:   8    -0.116066218639E+03   -0.17269E-05   -0.27848E-05  1464   0.193E-02    0.111E-02
DAV:   9    -0.116066218605E+03    0.34721E-07   -0.27919E-06  1104   0.774E-03
   5 F= -.11606622E+03 E0= -.11606622E+03  d E =-.124714E-19
       N       E                     dE             d eps       ncg     rms          rms(c)
DAV:   1    -0.121068738589E+03   -0.50025E+01   -0.16822E+02  1832   0.761E+01    0.151E+01
DAV:   2    -0.117302017480E+03    0.37667E+01   -0.10577E+01  1720   0.191E+01    0.702E+00
DAV:   3    -0.116168252098E+03    0.11338E+01   -0.35148E+00  1840   0.886E+00    0.256E+00
DAV:   4    -0.116124552064E+03    0.43700E-01   -0.25305E-01  1648   0.201E+00    0.136E+00
DAV:   5    -0.116093930445E+03    0.30622E-01   -0.30097E-02  1840   0.101E+00    0.584E-01
DAV:   6    -0.116092468742E+03    0.14617E-02   -0.82071E-03  1664   0.462E-01    0.178E-01
DAV:   7    -0.116092440573E+03    0.28169E-04   -0.53708E-04  1856   0.812E-02    0.952E-02
DAV:   8    -0.116092467814E+03   -0.27241E-04   -0.22104E-04  1568   0.551E-02    0.414E-02
DAV:   9    -0.116092465722E+03    0.20917E-05   -0.13020E-05  1648   0.157E-02    0.203E-02
DAV:  10    -0.116092471602E+03   -0.58801E-05   -0.15324E-05  1288   0.995E-03    0.693E-03
DAV:  11    -0.116092472773E+03   -0.11713E-05   -0.92639E-07  1064   0.365E-03    0.524E-03
DAV:  12    -0.116092473816E+03   -0.10424E-05   -0.94262E-07   944   0.262E-03    0.270E-03
DAV:  13    -0.116092474440E+03   -0.62371E-06   -0.41544E-07   920   0.199E-03
   6 F= -.11609247E+03 E0= -.11609247E+03  d E =-.190161E-11
       N       E                     dE             d eps       ncg     rms          rms(c)
DAV:   1    -0.116568785264E+03   -0.47631E+00   -0.19802E+01  1760   0.197E+01    0.448E+00
DAV:   2    -0.116308001993E+03    0.26078E+00   -0.10372E+00  1784   0.504E+00    0.214E+00
DAV:   3    -0.116212057064E+03    0.95945E-01   -0.22355E-01  1760   0.210E+00    0.894E-01
DAV:   4    -0.116205896146E+03    0.61609E-02   -0.29123E-02  1512   0.652E-01    0.481E-01
DAV:   5    -0.116203845059E+03    0.20511E-02   -0.41937E-03  1816   0.317E-01    0.197E-01
DAV:   6    -0.116203874993E+03   -0.29934E-04   -0.15212E-03  1656   0.205E-01    0.709E-02
DAV:   7    -0.116203880427E+03   -0.54333E-05   -0.98722E-05  1768   0.362E-02    0.407E-02
DAV:   8    -0.116203884448E+03   -0.40210E-05   -0.18937E-05  1520   0.186E-02    0.118E-02
DAV:   9    -0.116203884432E+03    0.15476E-07   -0.26473E-06  1184   0.764E-03
   7 F= -.11620388E+03 E0= -.11620388E+03  d E =-.184928E-16
       N       E                     dE             d eps       ncg     rms          rms(c)
DAV:   1    -0.117804209142E+03   -0.16003E+01   -0.51463E+01  1816   0.349E+01    0.952E+00
DAV:   2    -0.116640108800E+03    0.11641E+01   -0.34763E+00  1808   0.983E+00    0.438E+00
DAV:   3    -0.116252247422E+03    0.38786E+00   -0.76152E-01  1808   0.380E+00    0.199E+00
DAV:   4    -0.116210185785E+03    0.42062E-01   -0.86590E-02  1552   0.106E+00    0.973E-01
DAV:   5    -0.116200797362E+03    0.93884E-02   -0.17685E-02  1680   0.583E-01    0.356E-01
DAV:   6    -0.116201074207E+03   -0.27685E-03   -0.60615E-03  1536   0.415E-01    0.122E-01
DAV:   7    -0.116201081816E+03   -0.76091E-05   -0.32405E-04  1800   0.806E-02    0.716E-02
DAV:   8    -0.116201092021E+03   -0.10205E-04   -0.88934E-05  1632   0.357E-02    0.244E-02
DAV:   9    -0.116201092960E+03   -0.93855E-06   -0.70976E-06  1424   0.114E-02
   8 F= -.11620109E+03 E0= -.11620109E+03  d E =-.292584E-16
       N       E                     dE             d eps       ncg     rms          rms(c)
DAV:   1    -0.116461785030E+03   -0.26069E+00   -0.22297E+01  1744   0.206E+01    0.493E+00
DAV:   2    -0.116188352023E+03    0.27343E+00   -0.11876E+00  1800   0.552E+00    0.226E+00
DAV:   3    -0.116088555976E+03    0.99796E-01   -0.19116E-01  1776   0.193E+00    0.106E+00
DAV:   4    -0.116074949600E+03    0.13606E-01   -0.27395E-02  1672   0.628E-01    0.489E-01
DAV:   5    -0.116072627949E+03    0.23217E-02   -0.52586E-03  1696   0.301E-01    0.181E-01
DAV:   6    -0.116072721646E+03   -0.93697E-04   -0.15711E-03  1528   0.208E-01    0.616E-02
DAV:   7    -0.116072728723E+03   -0.70761E-05   -0.95052E-05  1768   0.434E-02    0.382E-02
DAV:   8    -0.116072731026E+03   -0.23030E-05   -0.24250E-05  1384   0.192E-02    0.106E-02
DAV:   9    -0.116072731167E+03   -0.14131E-06   -0.23263E-06  1112   0.728E-03
   9 F= -.11607273E+03 E0= -.11607273E+03  d E =-.357522E-19
       N       E                     dE             d eps       ncg     rms          rms(c)
DAV:   1    -0.121267036887E+03   -0.51943E+01   -0.15526E+02  1472   0.746E+01    0.149E+01
DAV:   2    -0.117386580435E+03    0.38805E+01   -0.10098E+01  1328   0.180E+01    0.696E+00
DAV:   3    -0.116203829828E+03    0.11828E+01   -0.35541E+00  1464   0.899E+00    0.252E+00
DAV:   4    -0.116155344071E+03    0.48486E-01   -0.26991E-01  1344   0.204E+00    0.138E+00
DAV:   5    -0.116117588495E+03    0.37756E-01   -0.36000E-02  1392   0.103E+00    0.559E-01
DAV:   6    -0.116114602014E+03    0.29865E-02   -0.16288E-02  1360   0.555E-01    0.151E-01
DAV:   7    -0.116114389485E+03    0.21253E-03   -0.13873E-03  1392   0.140E-01    0.913E-02
DAV:   8    -0.116113850542E+03    0.53894E-03   -0.52489E-04  1344   0.118E-01    0.252E-02
DAV:   9    -0.116113691164E+03    0.15938E-03   -0.19226E-04  1400   0.456E-02    0.286E-02
DAV:  10    -0.116113608647E+03    0.82517E-04   -0.33585E-05  1464   0.216E-02    0.833E-03
DAV:  11    -0.116113449294E+03    0.15935E-03   -0.49065E-05  1176   0.347E-02    0.700E-03
DAV:  12    -0.116113345038E+03    0.10426E-03   -0.63038E-05  1248   0.394E-02    0.651E-03
DAV:  13    -0.116113315774E+03    0.29264E-04   -0.22446E-05  1376   0.220E-02    0.447E-03
DAV:  14    -0.116113310081E+03    0.56934E-05   -0.89646E-06  1320   0.975E-03    0.289E-03
DAV:  15    -0.116113304284E+03    0.57964E-05   -0.53893E-07   800   0.708E-03    0.142E-03
DAV:  16    -0.116113303986E+03    0.29867E-06   -0.11415E-06   880   0.925E-03
  10 F= -.11611330E+03 E0= -.11611330E+03  d E =-.205572E-15
       N       E                     dE             d eps       ncg     rms          rms(c)
DAV:   1    -0.116583754898E+03   -0.47045E+00   -0.13348E+01  1408   0.175E+01    0.442E+00
DAV:   2    -0.116309765548E+03    0.27399E+00   -0.82089E-01  1440   0.481E+00    0.210E+00
DAV:   3    -0.116216674676E+03    0.93091E-01   -0.20510E-01  1464   0.206E+00    0.891E-01
DAV:   4    -0.116210660012E+03    0.60147E-02   -0.19843E-02  1256   0.552E-01    0.436E-01
DAV:   5    -0.116208660851E+03    0.19992E-02   -0.29831E-03  1432   0.245E-01    0.150E-01
DAV:   6    -0.116208718672E+03   -0.57821E-04   -0.93488E-04  1296   0.167E-01    0.439E-02
DAV:   7    -0.116208720545E+03   -0.18736E-05   -0.55107E-05  1448   0.274E-02    0.202E-02
DAV:   8    -0.116208720494E+03    0.51728E-07   -0.85225E-06   960   0.985E-03
  11 F= -.11620872E+03 E0= -.11620872E+03  d E =-.216169E-18
       N       E                     dE             d eps       ncg     rms          rms(c)
DAV:   1    -0.117763252829E+03   -0.15545E+01   -0.55062E+01  1432   0.351E+01    0.922E+00
DAV:   2    -0.116629600044E+03    0.11337E+01   -0.34223E+00  1440   0.973E+00    0.430E+00
DAV:   3    -0.116245894034E+03    0.38371E+00   -0.82335E-01  1472   0.408E+00    0.190E+00
DAV:   4    -0.116216969723E+03    0.28924E-01   -0.73415E-02  1312   0.105E+00    0.895E-01
DAV:   5    -0.116208322002E+03    0.86477E-02   -0.14552E-02  1496   0.527E-01    0.299E-01
DAV:   6    -0.116208526767E+03   -0.20476E-03   -0.37627E-03  1304   0.345E-01    0.806E-02
DAV:   7    -0.116208530348E+03   -0.35811E-05   -0.20824E-04  1432   0.594E-02    0.378E-02
DAV:   8    -0.116208533977E+03   -0.36289E-05   -0.33056E-05  1192   0.199E-02    0.159E-02
DAV:   9    -0.116208536973E+03   -0.29958E-05   -0.66025E-06  1008   0.733E-03    0.655E-03
DAV:  10    -0.116208538763E+03   -0.17903E-05   -0.14754E-06   808   0.387E-03    0.214E-03
DAV:  11    -0.116208539636E+03   -0.87260E-06   -0.48170E-07   768   0.286E-03
  12 F= -.11620854E+03 E0= -.11620854E+03  d E =-.140506E-15
       N       E                     dE             d eps       ncg     rms          rms(c)
DAV:   1    -0.116510200443E+03   -0.30166E+00   -0.14576E+01  1432   0.185E+01    0.466E+00
DAV:   2    -0.116213013571E+03    0.29719E+00   -0.90364E-01  1440   0.514E+00    0.220E+00
DAV:   3    -0.116110649115E+03    0.10236E+00   -0.22518E-01  1472   0.218E+00    0.937E-01
DAV:   4    -0.116104122243E+03    0.65269E-02   -0.21176E-02  1280   0.565E-01    0.458E-01
DAV:   5    -0.116101895353E+03    0.22269E-02   -0.31476E-03  1464   0.261E-01    0.157E-01
DAV:   6    -0.116101953548E+03   -0.58196E-04   -0.92350E-04  1312   0.166E-01    0.430E-02
DAV:   7    -0.116101952844E+03    0.70475E-06   -0.51438E-05  1416   0.286E-02    0.220E-02
DAV:   8    -0.116101953007E+03   -0.16310E-06   -0.92497E-06  1008   0.993E-03
  13 F= -.11610195E+03 E0= -.11610195E+03  d E =-.774781E-19
       N       E                     dE             d eps       ncg     rms          rms(c)
DAV:   1    -0.118144425798E+03   -0.20425E+01   -0.79406E+01  1752   0.423E+01    0.997E+00
DAV:   2    -0.116764558339E+03    0.13799E+01   -0.45467E+00  1752   0.115E+01    0.496E+00
DAV:   3    -0.116243750084E+03    0.52081E+00   -0.10463E+00  1776   0.429E+00    0.206E+00
DAV:   4    -0.116197772593E+03    0.45977E-01   -0.10696E-01  1672   0.115E+00    0.958E-01
DAV:   5    -0.116189434560E+03    0.83380E-02   -0.19702E-02  1616   0.524E-01    0.432E-01
DAV:   6    -0.116189054765E+03    0.37980E-03   -0.71473E-03  1688   0.430E-01    0.124E-01
DAV:   7    -0.116189079503E+03   -0.24738E-04   -0.39420E-04  1768   0.844E-02    0.878E-02
DAV:   8    -0.116189100370E+03   -0.20867E-04   -0.88888E-05  1608   0.386E-02    0.222E-02
DAV:   9    -0.116189107728E+03   -0.73581E-05   -0.13105E-05  1472   0.113E-02    0.117E-02
DAV:  10    -0.116189111575E+03   -0.38470E-05   -0.37076E-06  1168   0.566E-03    0.333E-03
DAV:  11    -0.116189112019E+03   -0.44393E-06   -0.69006E-07   992   0.309E-03
  14 F= -.11618911E+03 E0= -.11618911E+03  d E =-.572938E-13
       N       E                     dE             d eps       ncg     rms          rms(c)
DAV:   1    -0.116315350532E+03   -0.12624E+00   -0.53195E+00  1416   0.764E+00    0.232E+00
DAV:   2    -0.116264426366E+03    0.50924E-01   -0.20646E-01  1648   0.207E+00    0.126E+00
DAV:   3    -0.116235996937E+03    0.28429E-01   -0.25082E-02  1688   0.592E-01    0.696E-01
DAV:   4    -0.116228081228E+03    0.79157E-02   -0.15226E-02  1872   0.506E-01    0.162E-01
DAV:   5    -0.116228301324E+03   -0.22010E-03   -0.36904E-03  1496   0.247E-01    0.139E-01
DAV:   6    -0.116228312696E+03   -0.11372E-04   -0.23932E-04  1664   0.496E-02    0.500E-02
DAV:   7    -0.116228312016E+03    0.67979E-06   -0.20529E-05  1504   0.156E-02    0.265E-02
DAV:   8    -0.116228315643E+03   -0.36268E-05   -0.11296E-05  1288   0.114E-02    0.748E-03
DAV:   9    -0.116228315942E+03   -0.29868E-06   -0.11364E-06  1000   0.547E-03
  15 F= -.11622832E+03 E0= -.11622832E+03  d E =-.109418E-12
       N       E                     dE             d eps       ncg     rms          rms(c)
DAV:   1    -0.116581997232E+03   -0.35368E+00   -0.20369E+01  1400   0.148E+01    0.466E+00
DAV:   2    -0.116376258352E+03    0.20574E+00   -0.81082E-01  1680   0.392E+00    0.252E+00
DAV:   3    -0.116261845724E+03    0.11441E+00   -0.95145E-02  1696   0.994E-01    0.140E+00
DAV:   4    -0.116229864535E+03    0.31981E-01   -0.58831E-02  1952   0.947E-01    0.312E-01
DAV:   5    -0.116230471782E+03   -0.60725E-03   -0.12146E-02  1504   0.445E-01    0.271E-01
DAV:   6    -0.116230517120E+03   -0.45338E-04   -0.91045E-04  1624   0.969E-02    0.985E-02
DAV:   7    -0.116230513204E+03    0.39153E-05   -0.83448E-05  1664   0.297E-02    0.541E-02
DAV:   8    -0.116230527373E+03   -0.14168E-04   -0.45356E-05  1408   0.196E-02    0.146E-02
DAV:   9    -0.116230528341E+03   -0.96804E-06   -0.28420E-06  1192   0.877E-03
  16 F= -.11623053E+03 E0= -.11623053E+03  d E =-.130192E-11
       N       E                     dE             d eps       ncg     rms          rms(c)
DAV:   1    -0.116280742978E+03   -0.50216E-01   -0.53108E+00  1424   0.760E+00    0.234E+00
DAV:   2    -0.116229002547E+03    0.51740E-01   -0.20251E-01  1656   0.203E+00    0.126E+00
DAV:   3    -0.116200475655E+03    0.28527E-01   -0.23823E-02  1752   0.616E-01    0.708E-01
DAV:   4    -0.116192323706E+03    0.81519E-02   -0.15956E-02  1888   0.507E-01    0.158E-01
DAV:   5    -0.116192552979E+03   -0.22927E-03   -0.38301E-03  1520   0.256E-01    0.139E-01
DAV:   6    -0.116192566291E+03   -0.13312E-04   -0.24274E-04  1616   0.487E-02    0.481E-02
DAV:   7    -0.116192566263E+03    0.27285E-07   -0.20657E-05  1560   0.166E-02    0.253E-02
DAV:   8    -0.116192570042E+03   -0.37782E-05   -0.10998E-05  1312   0.113E-02    0.727E-03
DAV:   9    -0.116192570268E+03   -0.22600E-06   -0.86297E-07   888   0.488E-03
  17 F= -.11619257E+03 E0= -.11619257E+03  d E =-.723927E-11
       N       E                     dE             d eps       ncg     rms          rms(c)
DAV:   1    -0.116960396660E+03   -0.76783E+00   -0.42716E+01  1416   0.213E+01    0.717E+00
DAV:   2    -0.116504708906E+03    0.45569E+00   -0.19500E+00  1584   0.601E+00    0.361E+00
DAV:   3    -0.116251460628E+03    0.25325E+00   -0.22528E-01  1696   0.143E+00    0.213E+00
DAV:   4    -0.116173542967E+03    0.77918E-01   -0.15046E-01  1768   0.132E+00    0.431E-01
DAV:   5    -0.116174881134E+03   -0.13382E-02   -0.28087E-02  1528   0.648E-01    0.449E-01
DAV:   6    -0.116174972015E+03   -0.90881E-04   -0.22490E-03  1592   0.155E-01    0.176E-01
DAV:   7    -0.116174945506E+03    0.26509E-04   -0.25981E-04  1664   0.548E-02    0.830E-02
DAV:   8    -0.116174978286E+03   -0.32780E-04   -0.14455E-04  1624   0.341E-02    0.218E-02
DAV:   9    -0.116174981511E+03   -0.32252E-05   -0.83560E-06  1472   0.118E-02    0.213E-02
DAV:  10    -0.116174982858E+03   -0.13472E-05   -0.35030E-06  1160   0.540E-03    0.104E-02
DAV:  11    -0.116174982789E+03    0.69671E-07   -0.20919E-06  1160   0.518E-03
  18 F= -.11617498E+03 E0= -.11617498E+03  d E =-.142364E-13
       N       E                     dE             d eps       ncg     rms          rms(c)
DAV:   1    -0.116317638088E+03   -0.14266E+00   -0.81719E+00  1448   0.947E+00    0.241E+00
DAV:   2    -0.116265067851E+03    0.52570E-01   -0.30805E-01  1608   0.239E+00    0.128E+00
DAV:   3    -0.116233428072E+03    0.31640E-01   -0.37401E-02  1816   0.695E-01    0.704E-01
DAV:   4    -0.116224550033E+03    0.88780E-02   -0.19353E-02  1800   0.559E-01    0.196E-01
DAV:   5    -0.116224957047E+03   -0.40701E-03   -0.60631E-03  1560   0.311E-01    0.166E-01
DAV:   6    -0.116224964579E+03   -0.75324E-05   -0.31199E-04  1616   0.570E-02    0.596E-02
DAV:   7    -0.116224963119E+03    0.14598E-05   -0.40477E-05  1544   0.210E-02    0.241E-02
DAV:   8    -0.116224967234E+03   -0.41153E-05   -0.14796E-05  1432   0.130E-02    0.838E-03
DAV:   9    -0.116224967939E+03   -0.70501E-06   -0.97476E-07   904   0.458E-03
  19 F= -.11622497E+03 E0= -.11622497E+03  d E =-.339754E-13
       N       E                     dE             d eps       ncg     rms          rms(c)
DAV:   1    -0.116627865758E+03   -0.40290E+00   -0.19337E+01  1432   0.144E+01    0.492E+00
DAV:   2    -0.116393030811E+03    0.23483E+00   -0.90560E-01  1592   0.412E+00    0.254E+00
DAV:   3    -0.116262660684E+03    0.13037E+00   -0.11357E-01  1800   0.106E+00    0.146E+00
DAV:   4    -0.116226334286E+03    0.36326E-01   -0.82082E-02  1912   0.104E+00    0.333E-01
DAV:   5    -0.116227273765E+03   -0.93948E-03   -0.16946E-02  1536   0.527E-01    0.333E-01
DAV:   6    -0.116227313111E+03   -0.39346E-04   -0.12890E-03  1664   0.121E-01    0.117E-01
DAV:   7    -0.116227305553E+03    0.75585E-05   -0.15446E-04  1536   0.480E-02    0.454E-02
DAV:   8    -0.116227322579E+03   -0.17026E-04   -0.66012E-05  1576   0.266E-02    0.210E-02
DAV:   9    -0.116227326478E+03   -0.38994E-05   -0.49897E-06  1376   0.942E-03    0.185E-02
DAV:  10    -0.116227327243E+03   -0.76445E-06   -0.17744E-06   968   0.525E-03
  20 F= -.11622733E+03 E0= -.11622733E+03  d E =-.201258E-10
       N       E                     dE             d eps       ncg     rms          rms(c)
DAV:   1    -0.116267848124E+03   -0.40522E-01   -0.87414E+00  1416   0.925E+00    0.255E+00
DAV:   2    -0.116221087082E+03    0.46761E-01   -0.32890E-01  1584   0.239E+00    0.129E+00
DAV:   3    -0.116190671432E+03    0.30416E-01   -0.29190E-02  1808   0.648E-01    0.793E-01
DAV:   4    -0.116179572221E+03    0.11099E-01   -0.21165E-02  1792   0.574E-01    0.154E-01
DAV:   5    -0.116180033784E+03   -0.46156E-03   -0.63094E-03  1528   0.319E-01    0.184E-01
DAV:   6    -0.116180045148E+03   -0.11364E-04   -0.35650E-04  1624   0.607E-02    0.804E-02
DAV:   7    -0.116180044603E+03    0.54575E-06   -0.31730E-05  1592   0.228E-02    0.315E-02
DAV:   8    -0.116180047706E+03   -0.31036E-05   -0.17403E-05  1432   0.128E-02    0.723E-03
DAV:   9    -0.116180049041E+03   -0.13346E-05   -0.34081E-06  1144   0.574E-03    0.113E-02
DAV:  10    -0.116180049397E+03   -0.35621E-06   -0.54107E-07   888   0.258E-03
  21 F= -.11618005E+03 E0= -.11618005E+03  d E =-.625894E-17
       N       E                     dE             d eps       ncg     rms          rms(c)
DAV:   1    -0.116892428033E+03   -0.71238E+00   -0.49357E+01  1440   0.228E+01    0.709E+00
DAV:   2    -0.116488597927E+03    0.40383E+00   -0.21503E+00  1632   0.637E+00    0.359E+00
DAV:   3    -0.116247801890E+03    0.24080E+00   -0.23020E-01  1760   0.147E+00    0.211E+00
DAV:   4    -0.116173065376E+03    0.74737E-01   -0.15427E-01  1824   0.126E+00    0.438E-01
DAV:   5    -0.116174366158E+03   -0.13008E-02   -0.26767E-02  1544   0.642E-01    0.414E-01
DAV:   6    -0.116174503693E+03   -0.13754E-03   -0.22985E-03  1648   0.161E-01    0.167E-01
DAV:   7    -0.116174507584E+03   -0.38907E-05   -0.24115E-04  1696   0.513E-02    0.851E-02
DAV:   8    -0.116174543295E+03   -0.35711E-04   -0.10871E-04  1568   0.332E-02    0.216E-02
DAV:   9    -0.116174546447E+03   -0.31521E-05   -0.83413E-06  1592   0.120E-02    0.202E-02
DAV:  10    -0.116174546624E+03   -0.17682E-06   -0.54624E-06  1192   0.727E-03
  22 F= -.11617455E+03 E0= -.11617455E+03  d E =-.379898E-13
       N       E                     dE             d eps       ncg     rms          rms(c)
DAV:   1    -0.116315992327E+03   -0.14145E+00   -0.93039E+00  1456   0.997E+00    0.238E+00
DAV:   2    -0.116265306514E+03    0.50686E-01   -0.34377E-01  1592   0.248E+00    0.128E+00
DAV:   3    -0.116232872978E+03    0.32434E-01   -0.40297E-02  1752   0.717E-01    0.678E-01
DAV:   4    -0.116224548738E+03    0.83242E-02   -0.18633E-02  1856   0.549E-01    0.199E-01
DAV:   5    -0.116224887448E+03   -0.33871E-03   -0.55239E-03  1520   0.298E-01    0.165E-01
DAV:   6    -0.116224894778E+03   -0.73300E-05   -0.32320E-04  1648   0.579E-02    0.531E-02
DAV:   7    -0.116224893528E+03    0.12501E-05   -0.39195E-05  1536   0.199E-02    0.225E-02
DAV:   8    -0.116224897567E+03   -0.40388E-05   -0.13429E-05  1384   0.128E-02    0.805E-03
DAV:   9    -0.116224898299E+03   -0.73162E-06   -0.93099E-07   944   0.441E-03
  23 F= -.11622490E+03 E0= -.11622490E+03  d E =-.593865E-13
       N       E                     dE             d eps       ncg     rms          rms(c)
DAV:   1    -0.116638753602E+03   -0.41386E+00   -0.18752E+01  1456   0.141E+01    0.492E+00
DAV:   2    -0.116395747885E+03    0.24301E+00   -0.88468E-01  1584   0.411E+00    0.255E+00
DAV:   3    -0.116262232308E+03    0.13352E+00   -0.11567E-01  1744   0.108E+00    0.145E+00
DAV:   4    -0.116226029863E+03    0.36202E-01   -0.83388E-02  1920   0.100E+00    0.331E-01
DAV:   5    -0.116226835903E+03   -0.80604E-03   -0.16218E-02  1504   0.518E-01    0.332E-01
DAV:   6    -0.116226886130E+03   -0.50227E-04   -0.13784E-03  1624   0.123E-01    0.109E-01
DAV:   7    -0.116226879826E+03    0.63040E-05   -0.14631E-04  1568   0.474E-02    0.443E-02
DAV:   8    -0.116226896352E+03   -0.16526E-04   -0.60546E-05  1528   0.255E-02    0.176E-02
DAV:   9    -0.116226900542E+03   -0.41896E-05   -0.47598E-06  1352   0.899E-03    0.155E-02
DAV:  10    -0.116226901254E+03   -0.71240E-06   -0.15879E-06   968   0.481E-03
  24 F= -.11622690E+03 E0= -.11622690E+03  d E =-.124154E-10
       N       E                     dE             d eps       ncg     rms          rms(c)
DAV:   1    -0.116264558932E+03   -0.37658E-01   -0.10128E+01  1424   0.976E+00    0.259E+00
DAV:   2    -0.116220635531E+03    0.43923E-01   -0.37014E-01  1592   0.248E+00    0.130E+00
DAV:   3    -0.116189970174E+03    0.30665E-01   -0.29860E-02  1848   0.645E-01    0.811E-01
DAV:   4    -0.116178094698E+03    0.11875E-01   -0.21852E-02  1848   0.575E-01    0.147E-01
DAV:   5    -0.116178564701E+03   -0.47000E-03   -0.64796E-03  1520   0.322E-01    0.192E-01
DAV:   6    -0.116178575806E+03   -0.11105E-04   -0.38710E-04  1664   0.604E-02    0.856E-02
DAV:   7    -0.116178575464E+03    0.34147E-06   -0.26270E-05  1560   0.209E-02    0.352E-02
DAV:   8    -0.116178578147E+03   -0.26830E-05   -0.17769E-05  1344   0.126E-02    0.768E-03
DAV:   9    -0.116178579659E+03   -0.15124E-05   -0.44349E-06  1248   0.650E-03    0.111E-02
DAV:  10    -0.116178580013E+03   -0.35399E-06   -0.44374E-07   880   0.261E-03
  25 F= -.11617858E+03 E0= -.11617858E+03  d E =-.163398E-17
       N       E                     dE             d eps       ncg     rms          rms(c)
DAV:   1    -0.116639755080E+03   -0.46118E+00   -0.23867E+01  1464   0.159E+01    0.490E+00
DAV:   2    -0.116408563004E+03    0.23119E+00   -0.10303E+00  1608   0.441E+00    0.256E+00
DAV:   3    -0.116277794540E+03    0.13077E+00   -0.12661E-01  1776   0.115E+00    0.145E+00
DAV:   4    -0.116240813376E+03    0.36981E-01   -0.80109E-02  1832   0.103E+00    0.361E-01
DAV:   5    -0.116241615141E+03   -0.80176E-03   -0.16286E-02  1544   0.523E-01    0.332E-01
DAV:   6    -0.116241668353E+03   -0.53212E-04   -0.13849E-03  1656   0.123E-01    0.120E-01
DAV:   7    -0.116241660825E+03    0.75284E-05   -0.10422E-04  1624   0.405E-02    0.664E-02
DAV:   8    -0.116241677491E+03   -0.16667E-04   -0.57112E-05  1480   0.245E-02    0.249E-02
DAV:   9    -0.116241680931E+03   -0.34394E-05   -0.63292E-06  1464   0.103E-02    0.122E-02
DAV:  10    -0.116241680906E+03    0.24738E-07   -0.39800E-06  1168   0.716E-03
  26 F= -.11624168E+03 E0= -.11624168E+03  d E =-.331226E-12
       N       E                     dE             d eps       ncg     rms          rms(c)
DAV:   1    -0.116239576953E+03    0.21040E-02   -0.16467E+00  1384   0.128E+00    0.396E-02
DAV:   2    -0.116242141378E+03   -0.25644E-02   -0.25648E-02  1432   0.191E-01    0.117E-02
DAV:   3    -0.116242222713E+03   -0.81335E-04   -0.81202E-04  1672   0.358E-02    0.934E-03
DAV:   4    -0.116242226532E+03   -0.38194E-05   -0.38367E-05  1088   0.101E-02    0.582E-03
DAV:   5    -0.116242227337E+03   -0.80503E-06   -0.39274E-06  1120   0.799E-03
  27 F= -.11624223E+03 E0= -.11624223E+03  d E =-.313731E-12
       N       E                     dE             d eps       ncg     rms          rms(c)
DAV:   1    -0.116237396126E+03    0.48304E-02   -0.31066E+00  1400   0.180E+00    0.912E-02
DAV:   2    -0.116242221344E+03   -0.48252E-02   -0.48441E-02  1464   0.285E-01    0.205E-02
DAV:   3    -0.116242378239E+03   -0.15689E-03   -0.15737E-03  1744   0.557E-02    0.204E-02
DAV:   4    -0.116242384785E+03   -0.65460E-05   -0.76869E-05  1368   0.152E-02    0.148E-02
DAV:   5    -0.116242385772E+03   -0.98712E-06   -0.49356E-06  1088   0.115E-02
  28 F= -.11624239E+03 E0= -.11624239E+03  d E =-.299170E-12
       N       E                     dE             d eps       ncg     rms          rms(c)
DAV:   1    -0.116239348835E+03    0.30359E-02   -0.16467E+00  1408   0.136E+00    0.594E-02
DAV:   2    -0.116241903588E+03   -0.25548E-02   -0.25706E-02  1456   0.189E-01    0.132E-02
DAV:   3    -0.116241985179E+03   -0.81590E-04   -0.81976E-04  1656   0.400E-02    0.142E-02
DAV:   4    -0.116241988552E+03   -0.33732E-05   -0.41921E-05  1128   0.112E-02    0.103E-02
DAV:   5    -0.116241988700E+03   -0.14799E-06   -0.32980E-06  1024   0.745E-03
  29 F= -.11624199E+03 E0= -.11624199E+03  d E =-.310186E-12
       N       E                     dE             d eps       ncg     rms          rms(c)
DAV:   1    -0.116230376365E+03    0.11612E-01   -0.70369E+00  1424   0.268E+00    0.129E-01
DAV:   2    -0.116241454707E+03   -0.11078E-01   -0.11194E-01  1448   0.465E-01    0.302E-02
DAV:   3    -0.116241822560E+03   -0.36785E-03   -0.37535E-03  1736   0.807E-02    0.301E-02
DAV:   4    -0.116241835832E+03   -0.13273E-04   -0.17519E-04  1432   0.215E-02    0.223E-02
DAV:   5    -0.116241835787E+03    0.45849E-07   -0.10222E-05  1096   0.118E-02    0.140E-02
DAV:   6    -0.116241837838E+03   -0.20518E-05   -0.10817E-05  1280   0.180E-02    0.539E-03
DAV:   7    -0.116241838243E+03   -0.40502E-06   -0.37063E-06  1152   0.706E-03
  30 F= -.11624184E+03 E0= -.11624184E+03  d E =-.436336E-12
       N       E                     dE             d eps       ncg     rms          rms(c)
DAV:   1    -0.116239772727E+03    0.20651E-02   -0.16480E+00  1400   0.128E+00    0.376E-02
DAV:   2    -0.116242240895E+03   -0.24682E-02   -0.24749E-02  1408   0.190E-01    0.105E-02
DAV:   3    -0.116242317723E+03   -0.76827E-04   -0.77937E-04  1608   0.357E-02    0.883E-03
DAV:   4    -0.116242320845E+03   -0.31220E-05   -0.36965E-05  1104   0.989E-03    0.609E-03
DAV:   5    -0.116242321002E+03   -0.15732E-06   -0.28203E-06   960   0.619E-03
  31 F= -.11624232E+03 E0= -.11624232E+03  d E =-.365919E-12
       N       E                     dE             d eps       ncg     rms          rms(c)
DAV:   1    -0.116237473530E+03    0.48473E-02   -0.31104E+00  1424   0.188E+00    0.929E-02
DAV:   2    -0.116242126185E+03   -0.46527E-02   -0.46886E-02  1408   0.289E-01    0.217E-02
DAV:   3    -0.116242269513E+03   -0.14333E-03   -0.14702E-03  1680   0.579E-02    0.204E-02
DAV:   4    -0.116242275209E+03   -0.56963E-05   -0.75311E-05  1376   0.163E-02    0.144E-02
DAV:   5    -0.116242275268E+03   -0.59121E-07   -0.40496E-06  1056   0.798E-03
  32 F= -.11624228E+03 E0= -.11624228E+03  d E =-.275871E-12
       N       E                     dE             d eps       ncg     rms          rms(c)
DAV:   1    -0.116239154562E+03    0.31206E-02   -0.16481E+00  1424   0.149E+00    0.602E-02
DAV:   2    -0.116241665617E+03   -0.25111E-02   -0.25368E-02  1432   0.192E-01    0.147E-02
DAV:   3    -0.116241745034E+03   -0.79418E-04   -0.82025E-04  1672   0.385E-02    0.147E-02
DAV:   4    -0.116241747408E+03   -0.23740E-05   -0.38136E-05  1208   0.115E-02    0.103E-02
DAV:   5    -0.116241747061E+03    0.34696E-06   -0.25599E-06   992   0.745E-03
  33 F= -.11624175E+03 E0= -.11624175E+03  d E =-.261619E-12
       N       E                     dE             d eps       ncg     rms          rms(c)
DAV:   1    -0.116230371902E+03    0.11376E-01   -0.70359E+00  1440   0.289E+00    0.136E-01
DAV:   2    -0.116241419545E+03   -0.11048E-01   -0.11192E-01  1432   0.451E-01    0.338E-02
DAV:   3    -0.116241769239E+03   -0.34969E-03   -0.36665E-03  1776   0.875E-02    0.322E-02
DAV:   4    -0.116241777352E+03   -0.81126E-05   -0.17289E-04  1728   0.281E-02    0.228E-02
DAV:   5    -0.116241774858E+03    0.24938E-05   -0.12252E-05  1232   0.169E-02    0.147E-02
DAV:   6    -0.116241773966E+03    0.89217E-06   -0.15952E-05  1472   0.279E-02    0.728E-03
DAV:   7    -0.116241774381E+03   -0.41510E-06   -0.77372E-06  1368   0.948E-03
  34 F= -.11624177E+03 E0= -.11624177E+03  d E =-.297703E-12
       N       E                     dE             d eps       ncg     rms          rms(c)
DAV:   1    -0.116240151435E+03    0.16225E-02   -0.16521E+00  1456   0.126E+00    0.388E-02
DAV:   2    -0.116242247712E+03   -0.20963E-02   -0.21039E-02  1448   0.187E-01    0.124E-02
DAV:   3    -0.116242310855E+03   -0.63143E-04   -0.65360E-04  1720   0.356E-02    0.897E-03
DAV:   4    -0.116242313260E+03   -0.24046E-05   -0.31188E-05  1296   0.116E-02    0.561E-03
DAV:   5    -0.116242313045E+03    0.21532E-06   -0.21137E-06  1088   0.620E-03
  35 F= -.11624231E+03 E0= -.11624231E+03  d E =-.309594E-12
       N       E                     dE             d eps       ncg     rms          rms(c)
DAV:   1    -0.116237536236E+03    0.47770E-02   -0.31112E+00  1448   0.184E+00    0.941E-02
DAV:   2    -0.116242104252E+03   -0.45680E-02   -0.46192E-02  1520   0.286E-01    0.243E-02
DAV:   3    -0.116242245780E+03   -0.14153E-03   -0.15066E-03  1808   0.661E-02    0.201E-02
DAV:   4    -0.116242250123E+03   -0.43435E-05   -0.76485E-05  1560   0.225E-02    0.149E-02
DAV:   5    -0.116242248687E+03    0.14359E-05   -0.48349E-06  1112   0.108E-02    0.925E-03
DAV:   6    -0.116242247283E+03    0.14045E-05   -0.86231E-06  1384   0.252E-02    0.715E-03
DAV:   7    -0.116242247775E+03   -0.49163E-06   -0.69701E-06  1368   0.841E-03
  36 F= -.11624225E+03 E0= -.11624225E+03  d E =-.404497E-12
       N       E                     dE             d eps       ncg     rms          rms(c)
DAV:   1    -0.116239103665E+03    0.31436E-02   -0.16484E+00  1432   0.132E+00    0.596E-02
DAV:   2    -0.116241575037E+03   -0.24714E-02   -0.24975E-02  1480   0.192E-01    0.141E-02
DAV:   3    -0.116241652887E+03   -0.77850E-04   -0.80978E-04  1744   0.411E-02    0.143E-02
DAV:   4    -0.116241655171E+03   -0.22835E-05   -0.39871E-05  1304   0.115E-02    0.106E-02
DAV:   5    -0.116241654429E+03    0.74191E-06   -0.25500E-06  1048   0.619E-03
  37 F= -.11624165E+03 E0= -.11624165E+03  d E =-.537798E-12
       N       E                     dE             d eps       ncg     rms          rms(c)
DAV:   1    -0.116230921240E+03    0.10734E-01   -0.69941E+00  1528   0.303E+00    0.136E-01
DAV:   2    -0.116241915768E+03   -0.10995E-01   -0.11085E-01  1488   0.480E-01    0.305E-02
DAV:   3    -0.116242270753E+03   -0.35499E-03   -0.36124E-03  1864   0.983E-02    0.301E-02
DAV:   4    -0.116242282485E+03   -0.11732E-04   -0.17868E-04  1720   0.280E-02    0.210E-02
DAV:   5    -0.116242282124E+03    0.36121E-06   -0.10888E-05  1128   0.130E-02    0.133E-02
DAV:   6    -0.116242283495E+03   -0.13712E-05   -0.12431E-05  1336   0.253E-02    0.647E-03
DAV:   7    -0.116242283788E+03   -0.29232E-06   -0.54815E-06  1432   0.850E-03
  38 F= -.11624228E+03 E0= -.11624228E+03  d E =-.304326E-12
       N       E                     dE             d eps       ncg     rms          rms(c)
DAV:   1    -0.116239809234E+03    0.24743E-02   -0.16454E+00  1416   0.108E+00    0.370E-02
DAV:   2    -0.116242458245E+03   -0.26490E-02   -0.26533E-02  1488   0.167E-01    0.115E-02
DAV:   3    -0.116242503739E+03   -0.45493E-04   -0.46710E-04  1560   0.296E-02    0.864E-03
DAV:   4    -0.116242505561E+03   -0.18222E-05   -0.21217E-05  1048   0.778E-03    0.564E-03
DAV:   5    -0.116242505813E+03   -0.25268E-06   -0.17664E-06  1000   0.590E-03
  39 F= -.11624251E+03 E0= -.11624251E+03  d E =-.302369E-12
       N       E                     dE             d eps       ncg     rms          rms(c)
DAV:   1    -0.116237159720E+03    0.53458E-02   -0.31065E+00  1448   0.163E+00    0.884E-02
DAV:   2    -0.116242001778E+03   -0.48421E-02   -0.48669E-02  1480   0.261E-01    0.204E-02
DAV:   3    -0.116242157109E+03   -0.15533E-03   -0.15438E-03  1656   0.519E-02    0.190E-02
DAV:   4    -0.116242163380E+03   -0.62707E-05   -0.75057E-05  1456   0.129E-02    0.143E-02
DAV:   5    -0.116242163899E+03   -0.51867E-06   -0.41948E-06  1000   0.492E-03
  40 F= -.11624216E+03 E0= -.11624216E+03  d E =-.374021E-12
       N       E                     dE             d eps       ncg     rms          rms(c)
DAV:   1    -0.116238979910E+03    0.31835E-02   -0.16466E+00  1408   0.113E+00    0.568E-02
DAV:   2    -0.116241529451E+03   -0.25495E-02   -0.25638E-02  1496   0.168E-01    0.123E-02
DAV:   3    -0.116241612697E+03   -0.83246E-04   -0.81796E-04  1560   0.318E-02    0.132E-02
DAV:   4    -0.116241615696E+03   -0.29986E-05   -0.38797E-05  1120   0.820E-03    0.974E-03
DAV:   5    -0.116241615777E+03   -0.81665E-07   -0.24027E-06   904   0.383E-03
  41 F= -.11624162E+03 E0= -.11624162E+03  d E =-.444584E-12
       N       E                     dE             d eps       ncg     rms          rms(c)
DAV:   1    -0.116230436762E+03    0.11179E-01   -0.70291E+00  1384   0.241E+00    0.126E-01
DAV:   2    -0.116241830075E+03   -0.11393E-01   -0.11491E-01  1600   0.379E-01    0.294E-02
DAV:   3    -0.116242207532E+03   -0.37746E-03   -0.37958E-03  1904   0.748E-02    0.296E-02
DAV:   4    -0.116242219583E+03   -0.12052E-04   -0.18609E-04  1552   0.209E-02    0.218E-02
DAV:   5    -0.116242219278E+03    0.30503E-06   -0.11177E-05  1112   0.107E-02    0.142E-02
DAV:   6    -0.116242221176E+03   -0.18982E-05   -0.11335E-05  1336   0.227E-02    0.554E-03
DAV:   7    -0.116242221338E+03   -0.16170E-06   -0.36289E-06  1200   0.605E-03
  42 F= -.11624222E+03 E0= -.11624222E+03  d E =-.280735E-12
       N       E                     dE             d eps       ncg     rms          rms(c)
DAV:   1    -0.116239848947E+03    0.23722E-02   -0.16466E+00  1408   0.114E+00    0.366E-02
DAV:   2    -0.116242405123E+03   -0.25562E-02   -0.25582E-02  1432   0.185E-01    0.104E-02
DAV:   3    -0.116242487372E+03   -0.82249E-04   -0.82503E-04  1560   0.355E-02    0.894E-03
DAV:   4    -0.116242491132E+03   -0.37597E-05   -0.39852E-05  1032   0.103E-02    0.559E-03
DAV:   5    -0.116242491614E+03   -0.48200E-06   -0.30502E-06  1056   0.679E-03
  43 F= -.11624249E+03 E0= -.11624249E+03  d E =-.292026E-12
       N       E                     dE             d eps       ncg     rms          rms(c)
DAV:   1    -0.116237148274E+03    0.53429E-02   -0.31070E+00  1432   0.177E+00    0.880E-02
DAV:   2    -0.116241993168E+03   -0.48449E-02   -0.48715E-02  1568   0.252E-01    0.199E-02
DAV:   3    -0.116242152210E+03   -0.15904E-03   -0.15889E-03  1736   0.500E-02    0.189E-02
DAV:   4    -0.116242158508E+03   -0.62981E-05   -0.77495E-05  1432   0.148E-02    0.138E-02
DAV:   5    -0.116242159259E+03   -0.75113E-06   -0.47218E-06  1016   0.713E-03
  44 F= -.11624216E+03 E0= -.11624216E+03  d E =-.377539E-12
       N       E                     dE             d eps       ncg     rms          rms(c)
DAV:   1    -0.116238945389E+03    0.32131E-02   -0.16470E+00  1464   0.117E+00    0.566E-02
DAV:   2    -0.116241509890E+03   -0.25645E-02   -0.25808E-02  1496   0.172E-01    0.117E-02
DAV:   3    -0.116241595686E+03   -0.85796E-04   -0.84919E-04  1624   0.323E-02    0.129E-02
DAV:   4    -0.116241598896E+03   -0.32100E-05   -0.40724E-05  1104   0.840E-03    0.970E-03
DAV:   5    -0.116241599022E+03   -0.12580E-06   -0.27551E-06   960   0.486E-03
  45 F= -.11624160E+03 E0= -.11624160E+03  d E =-.423328E-12
       N       E                     dE             d eps       ncg     rms          rms(c)
DAV:   1    -0.116230247706E+03    0.11351E-01   -0.70267E+00  1424   0.244E+00    0.126E-01
DAV:   2    -0.116241666972E+03   -0.11419E-01   -0.11491E-01  1520   0.411E-01    0.305E-02
DAV:   3    -0.116242046804E+03   -0.37983E-03   -0.38114E-03  1864   0.777E-02    0.287E-02
DAV:   4    -0.116242060700E+03   -0.13896E-04   -0.18667E-04  1528   0.204E-02    0.219E-02
DAV:   5    -0.116242060669E+03    0.31148E-07   -0.10831E-05  1088   0.899E-03    0.140E-02
DAV:   6    -0.116242062715E+03   -0.20455E-05   -0.13218E-05  1296   0.216E-02    0.802E-03
DAV:   7    -0.116242062949E+03   -0.23411E-06   -0.53592E-06  1384   0.688E-03
  46 F= -.11624206E+03 E0= -.11624206E+03  d E =-.444952E-12
       N       E                     dE             d eps       ncg     rms          rms(c)
DAV:   1    -0.116239775670E+03    0.22870E-02   -0.16458E+00  1424   0.116E+00    0.386E-02
DAV:   2    -0.116242370774E+03   -0.25951E-02   -0.26020E-02  1432   0.181E-01    0.149E-02
DAV:   3    -0.116242451892E+03   -0.81118E-04   -0.83385E-04  1656   0.379E-02    0.114E-02
DAV:   4    -0.116242454924E+03   -0.30321E-05   -0.41662E-05  1408   0.125E-02    0.606E-03
DAV:   5    -0.116242454841E+03    0.83102E-07   -0.26320E-06  1112   0.852E-03
  47 F= -.11624245E+03 E0= -.11624245E+03  d E =-.377059E-12
       N       E                     dE             d eps       ncg     rms          rms(c)
DAV:   1    -0.116237118945E+03    0.53360E-02   -0.31061E+00  1416   0.168E+00    0.884E-02
DAV:   2    -0.116241950761E+03   -0.48318E-02   -0.48695E-02  1552   0.273E-01    0.246E-02
DAV:   3    -0.116242102373E+03   -0.15161E-03   -0.15918E-03  1744   0.717E-02    0.197E-02
DAV:   4    -0.116242107048E+03   -0.46751E-05   -0.83082E-05  1760   0.252E-02    0.139E-02
DAV:   5    -0.116242105985E+03    0.10636E-05   -0.51697E-06  1176   0.137E-02    0.821E-03
DAV:   6    -0.116242105266E+03    0.71827E-06   -0.68317E-06  1440   0.256E-02
  48 F= -.11624211E+03 E0= -.11624211E+03  d E =-.320933E-12
       N       E                     dE             d eps       ncg     rms          rms(c)
DAV:   1    -0.116238668475E+03    0.34375E-02   -0.16459E+00  1408   0.124E+00    0.597E-02
DAV:   2    -0.116241311192E+03   -0.26427E-02   -0.26684E-02  1464   0.191E-01    0.150E-02
DAV:   3    -0.116241395348E+03   -0.84156E-04   -0.87692E-04  1664   0.418E-02    0.145E-02
DAV:   4    -0.116241397697E+03   -0.23484E-05   -0.42413E-05  1296   0.121E-02    0.109E-02
DAV:   5    -0.116241397037E+03    0.65944E-06   -0.30123E-06  1040   0.698E-03
  49 F= -.11624140E+03 E0= -.11624140E+03  d E =-.340591E-12
       N       E                     dE             d eps       ncg     rms          rms(c)
DAV:   1    -0.116229513493E+03    0.11884E-01   -0.69887E+00  1504   0.337E+00    0.135E-01
DAV:   2    -0.116240904652E+03   -0.11391E-01   -0.11469E-01  1528   0.542E-01    0.359E-02
DAV:   3    -0.116241273705E+03   -0.36905E-03   -0.37900E-03  1848   0.104E-01    0.321E-02
DAV:   4    -0.116241287370E+03   -0.13664E-04   -0.19351E-04  1696   0.314E-02    0.206E-02
DAV:   5    -0.116241287296E+03    0.73251E-07   -0.11355E-05  1192   0.126E-02    0.145E-02
DAV:   6    -0.116241288710E+03   -0.14138E-05   -0.12831E-05  1440   0.320E-02    0.668E-03
DAV:   7    -0.116241289408E+03   -0.69826E-06   -0.74908E-06  1432   0.853E-03
  50 F= -.11624129E+03 E0= -.11624129E+03  d E =-.326599E-12
       N       E                     dE             d eps       ncg     rms          rms(c)
DAV:   1    -0.116239684938E+03    0.16038E-02   -0.15218E+00  1376   0.136E+00    0.415E-02
DAV:   2    -0.116242026111E+03   -0.23412E-02   -0.23428E-02  1416   0.192E-01    0.123E-02
DAV:   3    -0.116242099887E+03   -0.73776E-04   -0.74707E-04  1632   0.336E-02    0.995E-03
DAV:   4    -0.116242103367E+03   -0.34799E-05   -0.35983E-05  1200   0.993E-03    0.603E-03
DAV:   5    -0.116242103913E+03   -0.54581E-06   -0.25288E-06  1104   0.535E-03
  51 F= -.11624210E+03 E0= -.11624210E+03  d E =-.316383E-12
       N       E                     dE             d eps       ncg     rms          rms(c)
DAV:   1    -0.116237276203E+03    0.48272E-02   -0.31720E+00  1368   0.216E+00    0.928E-02
DAV:   2    -0.116242223662E+03   -0.49475E-02   -0.49671E-02  1496   0.304E-01    0.241E-02
DAV:   3    -0.116242378996E+03   -0.15533E-03   -0.15883E-03  1680   0.501E-02    0.202E-02
DAV:   4    -0.116242386662E+03   -0.76669E-05   -0.77599E-05  1432   0.155E-02    0.132E-02
DAV:   5    -0.116242388448E+03   -0.17857E-05   -0.48197E-06  1144   0.755E-03    0.849E-03
DAV:   6    -0.116242391136E+03   -0.26877E-05   -0.48302E-06  1176   0.103E-02    0.206E-03
DAV:   7    -0.116242391287E+03   -0.15149E-06   -0.93737E-07  1120   0.441E-03
  52 F= -.11624239E+03 E0= -.11624239E+03  d E =-.308271E-12
       N       E                     dE             d eps       ncg     rms          rms(c)
DAV:   1    -0.116239457541E+03    0.29336E-02   -0.15215E+00  1368   0.148E+00    0.548E-02
DAV:   2    -0.116241814028E+03   -0.23565E-02   -0.23690E-02  1416   0.213E-01    0.134E-02
DAV:   3    -0.116241889395E+03   -0.75368E-04   -0.76694E-04  1640   0.338E-02    0.125E-02
DAV:   4    -0.116241892564E+03   -0.31687E-05   -0.36251E-05  1176   0.909E-03    0.894E-03
DAV:   5    -0.116241892854E+03   -0.28959E-06   -0.22052E-06  1040   0.459E-03
  53 F= -.11624189E+03 E0= -.11624189E+03  d E =-.315116E-12
       N       E                     dE             d eps       ncg     rms          rms(c)
DAV:   1    -0.116229395018E+03    0.12498E-01   -0.70449E+00  1360   0.319E+00    0.138E-01
DAV:   2    -0.116241094211E+03   -0.11699E-01   -0.11806E-01  1704   0.554E-01    0.459E-02
DAV:   3    -0.116241273908E+03   -0.17970E-03   -0.21654E-03  1840   0.866E-02    0.302E-02
DAV:   4    -0.116241277321E+03   -0.34132E-05   -0.10395E-04  1744   0.256E-02    0.181E-02
DAV:   5    -0.116241277891E+03   -0.57004E-06   -0.95122E-06  1384   0.202E-02
  54 F= -.11624128E+03 E0= -.11624128E+03  d E =-.379996E-12
       N       E                     dE             d eps       ncg     rms          rms(c)
DAV:   1    -0.116238140640E+03    0.31367E-02   -0.24415E+00  1392   0.157E+00    0.273E-02
DAV:   2    -0.116242107039E+03   -0.39664E-02   -0.39700E-02  1504   0.254E-01    0.174E-02
DAV:   3    -0.116242164417E+03   -0.57378E-04   -0.60903E-04  1680   0.422E-02    0.110E-02
DAV:   4    -0.116242166353E+03   -0.19363E-05   -0.27113E-05  1392   0.139E-02    0.539E-03
DAV:   5    -0.116242166573E+03   -0.21948E-06   -0.29162E-06  1160   0.109E-02
  55 F= -.11624217E+03 E0= -.11624217E+03  d E =-.349206E-12
       N       E                     dE             d eps       ncg     rms          rms(c)
DAV:   1    -0.116237802406E+03    0.43639E-02   -0.27222E+00  1424   0.187E+00    0.870E-02
DAV:   2    -0.116242040921E+03   -0.42385E-02   -0.42746E-02  1536   0.308E-01    0.251E-02
DAV:   3    -0.116242163825E+03   -0.12290E-03   -0.13739E-03  1648   0.699E-02    0.186E-02
DAV:   4    -0.116242167116E+03   -0.32913E-05   -0.73183E-05  1760   0.286E-02    0.120E-02
DAV:   5    -0.116242166370E+03    0.74650E-06   -0.56676E-06  1272   0.197E-02
  56 F= -.11624217E+03 E0= -.11624217E+03  d E =-.327212E-12
       N       E                     dE             d eps       ncg     rms          rms(c)
DAV:   1    -0.116237205019E+03    0.49621E-02   -0.24415E+00  1400   0.173E+00    0.704E-02
DAV:   2    -0.116241150812E+03   -0.39458E-02   -0.39728E-02  1520   0.260E-01    0.176E-02
DAV:   3    -0.116241276822E+03   -0.12601E-03   -0.13067E-03  1768   0.501E-02    0.183E-02
DAV:   4    -0.116241281053E+03   -0.42313E-05   -0.62717E-05  1448   0.134E-02    0.131E-02
DAV:   5    -0.116241280340E+03    0.71300E-06   -0.36423E-06  1088   0.640E-03
  57 F= -.11624128E+03 E0= -.11624128E+03  d E =-.386399E-12
       N       E                     dE             d eps       ncg     rms          rms(c)
DAV:   1    -0.116229744304E+03    0.11537E-01   -0.69946E+00  1488   0.333E+00    0.138E-01
DAV:   2    -0.116241185871E+03   -0.11442E-01   -0.11610E-01  1528   0.542E-01    0.414E-02
DAV:   3    -0.116241538714E+03   -0.35284E-03   -0.38791E-03  1880   0.115E-01    0.330E-02
DAV:   4    -0.116241543196E+03   -0.44813E-05   -0.19323E-04  1840   0.366E-02    0.208E-02
DAV:   5    -0.116241540113E+03    0.30828E-05   -0.18520E-05  1368   0.261E-02    0.110E-02
DAV:   6    -0.116241539865E+03    0.24839E-06   -0.12999E-05  1528   0.339E-02    0.573E-03
DAV:   7    -0.116241540449E+03   -0.58472E-06   -0.89785E-06  1504   0.106E-02
  58 F= -.11624154E+03 E0= -.11624154E+03  d E =-.345326E-12
       N       E                     dE             d eps       ncg     rms          rms(c)
DAV:   1    -0.116239556708E+03    0.19832E-02   -0.16476E+00  1376   0.138E+00    0.416E-02
DAV:   2    -0.116242148020E+03   -0.25913E-02   -0.26047E-02  1464   0.201E-01    0.132E-02
DAV:   3    -0.116242231871E+03   -0.83851E-04   -0.86711E-04  1696   0.405E-02    0.104E-02
DAV:   4    -0.116242234560E+03   -0.26885E-05   -0.39973E-05  1104   0.114E-02    0.661E-03
DAV:   5    -0.116242234529E+03    0.30363E-07   -0.32850E-06   984   0.657E-03
  59 F= -.11624223E+03 E0= -.11624223E+03  d E =-.326480E-12
       N       E                     dE             d eps       ncg     rms          rms(c)
DAV:   1    -0.116237256311E+03    0.49782E-02   -0.31093E+00  1376   0.192E+00    0.983E-02
DAV:   2    -0.116242076456E+03   -0.48201E-02   -0.48694E-02  1600   0.289E-01    0.249E-02
DAV:   3    -0.116242228962E+03   -0.15251E-03   -0.16069E-03  1824   0.694E-02    0.217E-02
DAV:   4    -0.116242234743E+03   -0.57805E-05   -0.86490E-05  1432   0.184E-02    0.153E-02
DAV:   5    -0.116242234232E+03    0.51044E-06   -0.49049E-06  1016   0.761E-03
  60 F= -.11624223E+03 E0= -.11624223E+03  d E =-.310826E-12
       N       E                     dE             d eps       ncg     rms          rms(c)
DAV:   1    -0.116238862331E+03    0.33724E-02   -0.16476E+00  1384   0.124E+00    0.629E-02
DAV:   2    -0.116241454800E+03   -0.25925E-02   -0.26199E-02  1504   0.190E-01    0.154E-02
DAV:   3    -0.116241538305E+03   -0.83504E-04   -0.86153E-04  1712   0.430E-02    0.154E-02
DAV:   4    -0.116241540747E+03   -0.24429E-05   -0.40615E-05  1168   0.110E-02    0.108E-02
DAV:   5    -0.116241540317E+03    0.43018E-06   -0.24799E-06   888   0.522E-03
  61 F= -.11624154E+03 E0= -.11624154E+03  d E =-.338587E-12
       N       E                     dE             d eps       ncg     rms          rms(c)
DAV:   1    -0.116230243485E+03    0.11297E-01   -0.70399E+00  1448   0.284E+00    0.150E-01
DAV:   2    -0.116241209865E+03   -0.10966E-01   -0.11115E-01  1488   0.417E-01    0.376E-02
DAV:   3    -0.116241548323E+03   -0.33846E-03   -0.36103E-03  1784   0.923E-02    0.357E-02
DAV:   4    -0.116241553087E+03   -0.47647E-05   -0.15676E-04  1640   0.293E-02    0.228E-02
DAV:   5    -0.116241551002E+03    0.20856E-05   -0.14143E-05  1272   0.150E-02    0.143E-02
DAV:   6    -0.116241550591E+03    0.41082E-06   -0.13644E-05  1528   0.233E-02    0.560E-03
DAV:   7    -0.116241550897E+03   -0.30585E-06   -0.64896E-06  1400   0.954E-03
  62 F= -.11624155E+03 E0= -.11624155E+03  d E =-.346572E-12
       N       E                     dE             d eps       ncg     rms          rms(c)
DAV:   1    -0.116239664336E+03    0.18863E-02   -0.16478E+00  1400   0.131E+00    0.416E-02
DAV:   2    -0.116242155758E+03   -0.24914E-02   -0.25057E-02  1464   0.196E-01    0.118E-02
DAV:   3    -0.116242233838E+03   -0.78081E-04   -0.80355E-04  1736   0.383E-02    0.982E-03
DAV:   4    -0.116242236437E+03   -0.25984E-05   -0.38044E-05  1016   0.101E-02    0.618E-03
DAV:   5    -0.116242236414E+03    0.22625E-07   -0.39272E-06   952   0.648E-03
  63 F= -.11624224E+03 E0= -.11624224E+03  d E =-.327532E-12
       N       E                     dE             d eps       ncg     rms          rms(c)
DAV:   1    -0.116237285659E+03    0.49508E-02   -0.31090E+00  1408   0.196E+00    0.104E-01
DAV:   2    -0.116242090073E+03   -0.48044E-02   -0.49005E-02  1480   0.287E-01    0.264E-02
DAV:   3    -0.116242235093E+03   -0.14502E-03   -0.16078E-03  1792   0.617E-02    0.237E-02
DAV:   4    -0.116242237311E+03   -0.22187E-05   -0.78019E-05  1568   0.205E-02    0.154E-02
DAV:   5    -0.116242236238E+03    0.10737E-05   -0.81427E-06  1088   0.119E-02    0.759E-03
DAV:   6    -0.116242236411E+03   -0.17360E-06   -0.54096E-06  1304   0.122E-02
  64 F= -.11624224E+03 E0= -.11624224E+03  d E =-.320051E-12
       N       E                     dE             d eps       ncg     rms          rms(c)
DAV:   1    -0.116238956210E+03    0.32800E-02   -0.16481E+00  1400   0.131E+00    0.640E-02
DAV:   2    -0.116241470624E+03   -0.25144E-02   -0.25454E-02  1464   0.201E-01    0.153E-02
DAV:   3    -0.116241549188E+03   -0.78565E-04   -0.82551E-04  1704   0.433E-02    0.160E-02
DAV:   4    -0.116241551553E+03   -0.23649E-05   -0.43122E-05  1104   0.108E-02    0.112E-02
DAV:   5    -0.116241550803E+03    0.75037E-06   -0.35034E-06   896   0.761E-03
  65 F= -.11624155E+03 E0= -.11624155E+03  d E =-.344075E-12
       N       E                     dE             d eps       ncg     rms          rms(c)
DAV:   1    -0.116230335687E+03    0.11216E-01   -0.70362E+00  1416   0.274E+00    0.136E-01
DAV:   2    -0.116241559719E+03   -0.11224E-01   -0.11355E-01  1528   0.451E-01    0.330E-02
DAV:   3    -0.116241916781E+03   -0.35706E-03   -0.36746E-03  1776   0.899E-02    0.312E-02
DAV:   4    -0.116241926991E+03   -0.10210E-04   -0.17182E-04  1672   0.260E-02    0.220E-02
DAV:   5    -0.116241925342E+03    0.16486E-05   -0.97266E-06  1120   0.111E-02    0.155E-02
DAV:   6    -0.116241924778E+03    0.56391E-06   -0.11974E-05  1408   0.245E-02    0.652E-03
DAV:   7    -0.116241925215E+03   -0.43735E-06   -0.63347E-06  1320   0.780E-03
  66 F= -.11624193E+03 E0= -.11624193E+03  d E =-.388906E-12
       N       E                     dE             d eps       ncg     rms          rms(c)
DAV:   1    -0.116239694460E+03    0.22303E-02   -0.16478E+00  1392   0.127E+00    0.391E-02
DAV:   2    -0.116242246019E+03   -0.25516E-02   -0.25675E-02  1464   0.197E-01    0.131E-02
DAV:   3    -0.116242326638E+03   -0.80619E-04   -0.83567E-04  1672   0.421E-02    0.997E-03
DAV:   4    -0.116242328990E+03   -0.23526E-05   -0.40391E-05  1176   0.135E-02    0.621E-03
DAV:   5    -0.116242328482E+03    0.50861E-06   -0.34306E-06  1072   0.968E-03
  67 F= -.11624233E+03 E0= -.11624233E+03  d E =-.350248E-12
       N       E                     dE             d eps       ncg     rms          rms(c)
DAV:   1    -0.116237348892E+03    0.49801E-02   -0.31098E+00  1400   0.194E+00    0.944E-02
DAV:   2    -0.116242180626E+03   -0.48317E-02   -0.49269E-02  1584   0.297E-01    0.274E-02
DAV:   3    -0.116242330639E+03   -0.15001E-03   -0.16639E-03  1848   0.711E-02    0.221E-02
DAV:   4    -0.116242332655E+03   -0.20163E-05   -0.82210E-05  1648   0.261E-02    0.166E-02
DAV:   5    -0.116242330063E+03    0.25915E-05   -0.64469E-06  1160   0.134E-02    0.970E-03
DAV:   6    -0.116242328080E+03    0.19838E-05   -0.10832E-05  1376   0.305E-02    0.773E-03
DAV:   7    -0.116242328560E+03   -0.48062E-06   -0.78375E-06  1400   0.924E-03
  68 F= -.11624233E+03 E0= -.11624233E+03  d E =-.336699E-12
       N       E                     dE             d eps       ncg     rms          rms(c)
DAV:   1    -0.116239309025E+03    0.30191E-02   -0.16481E+00  1384   0.126E+00    0.588E-02
DAV:   2    -0.116241844819E+03   -0.25358E-02   -0.25656E-02  1472   0.200E-01    0.143E-02
DAV:   3    -0.116241924360E+03   -0.79541E-04   -0.83240E-04  1696   0.430E-02    0.151E-02
DAV:   4    -0.116241926711E+03   -0.23509E-05   -0.42123E-05  1272   0.124E-02    0.116E-02
DAV:   5    -0.116241925747E+03    0.96438E-06   -0.23147E-06  1008   0.642E-03
  69 F= -.11624193E+03 E0= -.11624193E+03  d E =-.374559E-12
       N       E                     dE             d eps       ncg     rms          rms(c)
DAV:   1    -0.116216503229E+03    0.25423E-01   -0.78726E+00  1680   0.418E+00    0.757E-01
DAV:   2    -0.116236176554E+03   -0.19673E-01   -0.20426E-01  1632   0.902E-01    0.146E-01
DAV:   3    -0.116236593226E+03   -0.41667E-03   -0.57582E-03  1840   0.193E-01    0.130E-01
DAV:   4    -0.116236548189E+03    0.45037E-04   -0.21783E-04  1792   0.625E-02    0.840E-02
DAV:   5    -0.116236514980E+03    0.33209E-04   -0.92773E-05  1624   0.459E-02    0.354E-02
DAV:   6    -0.116236514575E+03    0.40429E-06   -0.41249E-05  1720   0.244E-02    0.409E-02
DAV:   7    -0.116236515247E+03   -0.67139E-06   -0.36078E-05  1464   0.178E-02    0.142E-02
DAV:   8    -0.116236515372E+03   -0.12533E-06   -0.35906E-06  1216   0.522E-03
  70 F= -.11623652E+03 E0= -.11623652E+03  d E =-.435190E-12
       N       E                     dE             d eps       ncg     rms          rms(c)
DAV:   1    -0.116233912595E+03    0.26027E-02   -0.20645E+00  1656   0.170E+00    0.275E-01
DAV:   2    -0.116240898041E+03   -0.69854E-02   -0.71342E-02  1728   0.428E-01    0.852E-02
DAV:   3    -0.116240987316E+03   -0.89274E-04   -0.12637E-03  1880   0.763E-02    0.603E-02
DAV:   4    -0.116240976913E+03    0.10402E-04   -0.59777E-05  1592   0.228E-02    0.275E-02
DAV:   5    -0.116240973302E+03    0.36119E-05   -0.11582E-05  1584   0.159E-02    0.144E-02
DAV:   6    -0.116240973496E+03   -0.19469E-06   -0.75550E-06  1456   0.832E-03
  71 F= -.11624097E+03 E0= -.11624097E+03  d E =-.348031E-12
       N       E                     dE             d eps       ncg     rms          rms(c)
DAV:   1    -0.116228309535E+03    0.12664E-01   -0.38892E+00  1648   0.258E+00    0.667E-01
DAV:   2    -0.116240630828E+03   -0.12321E-01   -0.12914E-01  1696   0.621E-01    0.146E-01
DAV:   3    -0.116240759297E+03   -0.12847E-03   -0.25966E-03  1856   0.145E-01    0.110E-01
DAV:   4    -0.116240724576E+03    0.34721E-04   -0.22332E-04  1648   0.564E-02    0.655E-02
DAV:   5    -0.116240702271E+03    0.22305E-04   -0.66135E-05  1824   0.543E-02    0.333E-02
DAV:   6    -0.116240702865E+03   -0.59404E-06   -0.32047E-05  1768   0.266E-02    0.333E-02
DAV:   7    -0.116240703759E+03   -0.89427E-06   -0.25240E-05  1496   0.159E-02    0.131E-02
DAV:   8    -0.116240703853E+03   -0.93994E-07   -0.21488E-06  1000   0.621E-03
  72 F= -.11624070E+03 E0= -.11624070E+03  d E =-.363009E-12
       N       E                     dE             d eps       ncg     rms          rms(c)
DAV:   1    -0.116228667633E+03    0.12036E-01   -0.20616E+00  1648   0.176E+00    0.429E-01
DAV:   2    -0.116235633398E+03   -0.69658E-02   -0.71449E-02  1712   0.443E-01    0.826E-02
DAV:   3    -0.116235711066E+03   -0.77668E-04   -0.11762E-03  1928   0.948E-02    0.806E-02
DAV:   4    -0.116235703850E+03    0.72161E-05   -0.90525E-05  1600   0.254E-02    0.512E-02
DAV:   5    -0.116235697658E+03    0.61923E-05   -0.28511E-05  1728   0.289E-02    0.210E-02
DAV:   6    -0.116235698113E+03   -0.45559E-06   -0.10187E-05  1712   0.123E-02    0.238E-02
DAV:   7    -0.116235697755E+03    0.35793E-06   -0.70375E-06  1352   0.727E-03
  73 F= -.11623570E+03 E0= -.11623570E+03  d E =-.492720E-12
       N       E                     dE             d eps       ncg     rms          rms(c)
DAV:   1    -0.116206557787E+03    0.29140E-01   -0.88124E+00  1640   0.381E+00    0.936E-01
DAV:   2    -0.116234794078E+03   -0.28236E-01   -0.29467E-01  1704   0.911E-01    0.217E-01
DAV:   3    -0.116235152346E+03   -0.35827E-03   -0.60650E-03  1832   0.186E-01    0.163E-01
DAV:   4    -0.116235078156E+03    0.74190E-04   -0.35297E-04  1832   0.603E-02    0.101E-01
DAV:   5    -0.116235040504E+03    0.37652E-04   -0.12838E-04  1704   0.572E-02    0.507E-02
DAV:   6    -0.116235040356E+03    0.14860E-06   -0.53014E-05  1608   0.315E-02    0.494E-02
DAV:   7    -0.116235041426E+03   -0.10704E-05   -0.51335E-05  1464   0.187E-02    0.182E-02
DAV:   8    -0.116235042179E+03   -0.75270E-06   -0.67948E-06  1264   0.704E-03
  74 F= -.11623504E+03 E0= -.11623504E+03  d E =-.135173E-11
       N       E                     dE             d eps       ncg     rms          rms(c)
DAV:   1    -0.116233428480E+03    0.16129E-02   -0.20678E+00  1624   0.186E+00    0.277E-01
DAV:   2    -0.116240317722E+03   -0.68892E-02   -0.70413E-02  1680   0.432E-01    0.915E-02
DAV:   3    -0.116240408348E+03   -0.90626E-04   -0.12849E-03  1984   0.780E-02    0.611E-02
DAV:   4    -0.116240397751E+03    0.10597E-04   -0.48749E-05  1592   0.196E-02    0.300E-02
DAV:   5    -0.116240393409E+03    0.43414E-05   -0.13025E-05  1600   0.143E-02    0.146E-02
DAV:   6    -0.116240393305E+03    0.10399E-06   -0.49123E-06  1488   0.703E-03
  75 F= -.11624039E+03 E0= -.11624039E+03  d E =-.576928E-12
       N       E                     dE             d eps       ncg     rms          rms(c)
DAV:   1    -0.116228620442E+03    0.11773E-01   -0.38911E+00  1664   0.280E+00    0.685E-01
DAV:   2    -0.116240848259E+03   -0.12228E-01   -0.12872E-01  1680   0.637E-01    0.152E-01
DAV:   3    -0.116240986665E+03   -0.13841E-03   -0.27495E-03  1920   0.127E-01    0.113E-01
DAV:   4    -0.116240941743E+03    0.44922E-04   -0.12992E-04  1768   0.415E-02    0.720E-02
DAV:   5    -0.116240916343E+03    0.25399E-04   -0.99307E-05  1728   0.469E-02    0.403E-02
DAV:   6    -0.116240916595E+03   -0.25220E-06   -0.25479E-05  1656   0.178E-02    0.391E-02
DAV:   7    -0.116240916373E+03    0.22270E-06   -0.19282E-05  1328   0.982E-03    0.122E-02
DAV:   8    -0.116240916588E+03   -0.21519E-06   -0.23704E-06   968   0.651E-03
  76 F= -.11624092E+03 E0= -.11624092E+03  d E =-.251229E-12
       N       E                     dE             d eps       ncg     rms          rms(c)
DAV:   1    -0.116228970402E+03    0.11946E-01   -0.20649E+00  1640   0.185E+00    0.446E-01
DAV:   2    -0.116235737226E+03   -0.67668E-02   -0.69635E-02  1744   0.447E-01    0.843E-02
DAV:   3    -0.116235827208E+03   -0.89981E-04   -0.12675E-03  1856   0.791E-02    0.837E-02
DAV:   4    -0.116235814888E+03    0.12320E-04   -0.49350E-05  1552   0.189E-02    0.559E-02
DAV:   5    -0.116235807101E+03    0.77865E-05   -0.37726E-05  1720   0.214E-02    0.242E-02
DAV:   6    -0.116235807008E+03    0.92834E-07   -0.68789E-06  1488   0.104E-02
  77 F= -.11623581E+03 E0= -.11623581E+03  d E =-.289493E-12
       N       E                     dE             d eps       ncg     rms          rms(c)
DAV:   1    -0.116209077403E+03    0.26730E-01   -0.88068E+00  1632   0.418E+00    0.993E-01
DAV:   2    -0.116237576172E+03   -0.28499E-01   -0.29847E-01  1736   0.959E-01    0.217E-01
DAV:   3    -0.116237884368E+03   -0.30820E-03   -0.62519E-03  1912   0.222E-01    0.168E-01
DAV:   4    -0.116237789072E+03    0.95296E-04   -0.45109E-04  1656   0.705E-02    0.103E-01
DAV:   5    -0.116237723696E+03    0.65375E-04   -0.17752E-04  1872   0.784E-02    0.544E-02
DAV:   6    -0.116237723790E+03   -0.94195E-07   -0.73514E-05  1624   0.322E-02    0.563E-02
DAV:   7    -0.116237724836E+03   -0.10460E-05   -0.57108E-05  1488   0.211E-02    0.199E-02
DAV:   8    -0.116237724918E+03   -0.81109E-07   -0.58813E-06  1256   0.882E-03
  78 F= -.11623772E+03 E0= -.11623772E+03  d E =-.454346E-11
       N       E                     dE             d eps       ncg     rms          rms(c)
DAV:   1    -0.116236361070E+03    0.13638E-02   -0.20852E+00  1624   0.177E+00    0.244E-01
DAV:   2    -0.116241432640E+03   -0.50716E-02   -0.52311E-02  1704   0.397E-01    0.823E-02
DAV:   3    -0.116241525141E+03   -0.92501E-04   -0.13579E-03  1936   0.859E-02    0.567E-02
DAV:   4    -0.116241513026E+03    0.12115E-04   -0.65347E-05  1768   0.289E-02    0.280E-02
DAV:   5    -0.116241506393E+03    0.66332E-05   -0.12525E-05  1472   0.190E-02    0.148E-02
DAV:   6    -0.116241505249E+03    0.11441E-05   -0.71714E-06  1424   0.136E-02    0.118E-02
DAV:   7    -0.116241506067E+03   -0.81842E-06   -0.81976E-06  1392   0.797E-03
  79 F= -.11624151E+03 E0= -.11624151E+03  d E =-.108890E-11
       N       E                     dE             d eps       ncg     rms          rms(c)
DAV:   1    -0.116228194194E+03    0.13311E-01   -0.38906E+00  1640   0.265E+00    0.631E-01
DAV:   2    -0.116240251369E+03   -0.12057E-01   -0.12739E-01  1728   0.648E-01    0.156E-01
DAV:   3    -0.116240413947E+03   -0.16258E-03   -0.32133E-03  1800   0.158E-01    0.106E-01
DAV:   4    -0.116240369350E+03    0.44597E-04   -0.28263E-04  1944   0.824E-02    0.759E-02
DAV:   5    -0.116240337824E+03    0.31526E-04   -0.69706E-05  1648   0.481E-02    0.384E-02
DAV:   6    -0.116240330779E+03    0.70447E-05   -0.43435E-05  1744   0.416E-02    0.377E-02
DAV:   7    -0.116240333517E+03   -0.27383E-05   -0.53104E-05  1440   0.203E-02    0.192E-02
DAV:   8    -0.116240333910E+03   -0.39284E-06   -0.43150E-06  1304   0.542E-03
  80 F= -.11624033E+03 E0= -.11624033E+03  d E =-.263076E-12
       N       E                     dE             d eps       ncg     rms          rms(c)
DAV:   1    -0.116228379431E+03    0.11954E-01   -0.20639E+00  1640   0.178E+00    0.412E-01
DAV:   2    -0.116235159604E+03   -0.67802E-02   -0.69813E-02  1696   0.438E-01    0.856E-02
DAV:   3    -0.116235256523E+03   -0.96919E-04   -0.13653E-03  1880   0.926E-02    0.796E-02
DAV:   4    -0.116235243665E+03    0.12858E-04   -0.85449E-05  1792   0.285E-02    0.565E-02
DAV:   5    -0.116235233333E+03    0.10332E-04   -0.25807E-05  1648   0.251E-02    0.233E-02
DAV:   6    -0.116235232679E+03    0.65400E-06   -0.14366E-05  1560   0.182E-02    0.279E-02
DAV:   7    -0.116235232607E+03    0.72469E-07   -0.17101E-05  1384   0.118E-02    0.105E-02
DAV:   8    -0.116235232807E+03   -0.20034E-06   -0.22526E-06  1048   0.384E-03
  81 F= -.11623523E+03 E0= -.11623523E+03  d E =-.361783E-12
       N       E                     dE             d eps       ncg     rms          rms(c)
DAV:   1    -0.116218600813E+03    0.16632E-01   -0.53299E+00  1440   0.341E+00    0.841E-01
DAV:   2    -0.116238057512E+03   -0.19457E-01   -0.20811E-01  1768   0.103E+00    0.203E-01
DAV:   3    -0.116237870256E+03    0.18726E-03   -0.48395E-03  1752   0.213E-01    0.152E-01
DAV:   4    -0.116237726878E+03    0.14338E-03   -0.72879E-04  1648   0.869E-02    0.750E-02
DAV:   5    -0.116237696935E+03    0.29943E-04   -0.13246E-04  1824   0.542E-02    0.483E-02
DAV:   6    -0.116237697454E+03   -0.51892E-06   -0.64589E-05  1680   0.340E-02    0.402E-02
DAV:   7    -0.116237696536E+03    0.91794E-06   -0.39915E-05  1496   0.190E-02    0.288E-02
DAV:   8    -0.116237696111E+03    0.42482E-06   -0.63477E-06  1464   0.987E-03
  82 F= -.11623770E+03 E0= -.11623770E+03  d E =-.364792E-12
       N       E                     dE             d eps       ncg     rms          rms(c)
DAV:   1    -0.116239508293E+03   -0.18118E-02   -0.42123E-01  1384   0.930E-01    0.188E-01
DAV:   2    -0.116241323774E+03   -0.18155E-02   -0.20620E-02  1576   0.342E-01    0.674E-02
DAV:   3    -0.116241330031E+03   -0.62567E-05   -0.74116E-04  1824   0.655E-02    0.519E-02
DAV:   4    -0.116241318095E+03    0.11936E-04   -0.91053E-05  1568   0.242E-02    0.185E-02
DAV:   5    -0.116241318528E+03   -0.43304E-06   -0.12174E-05  1440   0.102E-02    0.174E-02
DAV:   6    -0.116241318239E+03    0.28918E-06   -0.87930E-07   904   0.344E-03
  83 F= -.11624132E+03 E0= -.11624132E+03  d E =-.329688E-12
       N       E                     dE             d eps       ncg     rms          rms(c)
DAV:   1    -0.116238186237E+03    0.31323E-02   -0.85401E-01  1384   0.137E+00    0.438E-01
DAV:   2    -0.116241552171E+03   -0.33659E-02   -0.40880E-02  1672   0.513E-01    0.142E-01
DAV:   3    -0.116241342038E+03    0.21013E-03   -0.14344E-03  1768   0.121E-01    0.111E-01
DAV:   4    -0.116241255607E+03    0.86431E-04   -0.52451E-04  1696   0.600E-02    0.354E-02
DAV:   5    -0.116241262894E+03   -0.72873E-05   -0.91624E-05  1488   0.275E-02    0.435E-02
DAV:   6    -0.116241262461E+03    0.43340E-06   -0.51470E-06  1384   0.901E-03
  84 F= -.11624126E+03 E0= -.11624126E+03  d E =-.401748E-12
       N       E                     dE             d eps       ncg     rms          rms(c)
DAV:   1    -0.116235977197E+03    0.52857E-02   -0.43859E-01  1368   0.917E-01    0.279E-01
DAV:   2    -0.116237981305E+03   -0.20041E-02   -0.21803E-02  1640   0.342E-01    0.788E-02
DAV:   3    -0.116237940510E+03    0.40795E-04   -0.71358E-04  1704   0.753E-02    0.628E-02
DAV:   4    -0.116237905735E+03    0.34775E-04   -0.18766E-04  1656   0.332E-02    0.238E-02
DAV:   5    -0.116237909202E+03   -0.34661E-05   -0.37499E-05  1424   0.181E-02    0.247E-02
DAV:   6    -0.116237909235E+03   -0.33750E-07   -0.24057E-06  1240   0.519E-03
  85 F= -.11623791E+03 E0= -.11623791E+03  d E =-.650974E-12
       N       E                     dE             d eps       ncg     rms          rms(c)
DAV:   1    -0.116234568228E+03    0.33410E-02   -0.19515E+00  1376   0.199E+00    0.640E-01
DAV:   2    -0.116241144536E+03   -0.65763E-02   -0.75921E-02  1616   0.633E-01    0.220E-01
DAV:   3    -0.116241019806E+03    0.12473E-03   -0.27838E-03  1744   0.146E-01    0.163E-01
DAV:   4    -0.116240812274E+03    0.20753E-03   -0.65148E-04  1640   0.727E-02    0.850E-02
DAV:   5    -0.116240827554E+03   -0.15279E-04   -0.23990E-04  1584   0.361E-02    0.340E-02
DAV:   6    -0.116240824750E+03    0.28039E-05   -0.12134E-05  1680   0.126E-02    0.207E-02
DAV:   7    -0.116240821786E+03    0.29639E-05   -0.15025E-05  1296   0.908E-03    0.629E-03
DAV:   8    -0.116240822216E+03   -0.42974E-06   -0.43826E-06  1168   0.541E-03
  86 F= -.11624082E+03 E0= -.11624082E+03  d E =-.124329E-11
       N       E                     dE             d eps       ncg     rms          rms(c)
DAV:   1    -0.116240319793E+03    0.50199E-03   -0.45698E-01  1376   0.885E-01    0.156E-01
DAV:   2    -0.116241892714E+03   -0.15729E-02   -0.16705E-02  1608   0.255E-01    0.673E-02
DAV:   3    -0.116241930234E+03   -0.37520E-04   -0.65947E-04  1872   0.579E-02    0.508E-02
DAV:   4    -0.116241909155E+03    0.21079E-04   -0.77198E-05  1456   0.207E-02    0.253E-02
DAV:   5    -0.116241911098E+03   -0.19429E-05   -0.25077E-05  1592   0.116E-02    0.982E-03
DAV:   6    -0.116241910160E+03    0.93753E-06   -0.16760E-06   960   0.382E-03
  87 F= -.11624191E+03 E0= -.11624191E+03  d E =-.633104E-12
       N       E                     dE             d eps       ncg     rms          rms(c)
DAV:   1    -0.116239834703E+03    0.20764E-02   -0.89463E-01  1368   0.130E+00    0.386E-01
DAV:   2    -0.116242631641E+03   -0.27969E-02   -0.31700E-02  1584   0.380E-01    0.167E-01
DAV:   3    -0.116242586829E+03    0.44812E-04   -0.10485E-03  1768   0.893E-02    0.122E-01
DAV:   4    -0.116242468298E+03    0.11853E-03   -0.39363E-04  1608   0.635E-02    0.580E-02
DAV:   5    -0.116242481566E+03   -0.13268E-04   -0.13582E-04  1608   0.274E-02    0.196E-02
DAV:   6    -0.116242477633E+03    0.39336E-05   -0.71507E-06  1440   0.789E-03    0.146E-02
DAV:   7    -0.116242475441E+03    0.21917E-05   -0.68401E-06  1200   0.853E-03    0.440E-03
DAV:   8    -0.116242475292E+03    0.14897E-06   -0.21982E-06  1136   0.400E-03
  88 F= -.11624248E+03 E0= -.11624248E+03  d E =-.206487E-12
       N       E                     dE             d eps       ncg     rms          rms(c)
DAV:   1    -0.116240324880E+03    0.21506E-02   -0.46426E-01  1368   0.884E-01    0.243E-01
DAV:   2    -0.116242010273E+03   -0.16854E-02   -0.18208E-02  1544   0.256E-01    0.109E-01
DAV:   3    -0.116242020382E+03   -0.10109E-04   -0.62693E-04  1800   0.607E-02    0.811E-02
DAV:   4    -0.116241974727E+03    0.45655E-04   -0.14129E-04  1504   0.278E-02    0.412E-02
DAV:   5    -0.116241979721E+03   -0.49943E-05   -0.53424E-05  1576   0.148E-02    0.119E-02
DAV:   6    -0.116241978286E+03    0.14359E-05   -0.30638E-06  1192   0.457E-03    0.759E-03
DAV:   7    -0.116241977743E+03    0.54296E-06   -0.19951E-06  1072   0.419E-03
  89 F= -.11624198E+03 E0= -.11624198E+03  d E =-.145117E-12
       N       E                     dE             d eps       ncg     rms          rms(c)
DAV:   1    -0.116234897619E+03    0.70807E-02   -0.20090E+00  1368   0.197E+00    0.581E-01
DAV:   2    -0.116241350038E+03   -0.64524E-02   -0.72796E-02  1616   0.594E-01    0.238E-01
DAV:   3    -0.116241288799E+03    0.61239E-04   -0.26411E-03  1768   0.149E-01    0.184E-01
DAV:   4    -0.116241032998E+03    0.25580E-03   -0.68386E-04  1640   0.911E-02    0.899E-02
DAV:   5    -0.116241055131E+03   -0.22134E-04   -0.34329E-04  1656   0.459E-02    0.268E-02
DAV:   6    -0.116241047927E+03    0.72040E-05   -0.31587E-05  1480   0.160E-02    0.230E-02
DAV:   7    -0.116241046120E+03    0.18074E-05   -0.48205E-06  1240   0.814E-03    0.150E-02
DAV:   8    -0.116241042501E+03    0.36189E-05   -0.19171E-05  1216   0.128E-02    0.725E-03
DAV:   9    -0.116241042694E+03   -0.19286E-06   -0.42129E-06  1208   0.563E-03
  90 F= -.11624104E+03 E0= -.11624104E+03  d E =-.337532E-12
       N       E                     dE             d eps       ncg     rms          rms(c)
DAV:   1    -0.116240444087E+03    0.59841E-03   -0.45486E-01  1360   0.902E-01    0.159E-01
DAV:   2    -0.116242176284E+03   -0.17322E-02   -0.18565E-02  1624   0.282E-01    0.625E-02
DAV:   3    -0.116242211954E+03   -0.35670E-04   -0.74181E-04  1832   0.647E-02    0.481E-02
DAV:   4    -0.116242188167E+03    0.23787E-04   -0.80557E-05  1568   0.328E-02    0.232E-02
DAV:   5    -0.116242190309E+03   -0.21416E-05   -0.37663E-05  1656   0.178E-02    0.114E-02
DAV:   6    -0.116242189658E+03    0.65058E-06   -0.31183E-06  1232   0.533E-03
  91 F= -.11624219E+03 E0= -.11624219E+03  d E =-.312250E-12
       N       E                     dE             d eps       ncg     rms          rms(c)
DAV:   1    -0.116239022125E+03    0.31682E-02   -0.89417E-01  1360   0.132E+00    0.373E-01
DAV:   2    -0.116242042432E+03   -0.30203E-02   -0.34746E-02  1616   0.448E-01    0.151E-01
DAV:   3    -0.116241959678E+03    0.82754E-04   -0.11519E-03  1744   0.106E-01    0.116E-01
DAV:   4    -0.116241824196E+03    0.13548E-03   -0.40187E-04  1680   0.111E-01    0.546E-02
DAV:   5    -0.116241840156E+03   -0.15961E-04   -0.20271E-04  1592   0.379E-02    0.241E-02
DAV:   6    -0.116241837858E+03    0.22980E-05   -0.10649E-05  1480   0.107E-02    0.217E-02
DAV:   7    -0.116241835437E+03    0.24212E-05   -0.23863E-06  1152   0.436E-03    0.152E-02
DAV:   8    -0.116241833586E+03    0.18516E-05   -0.60440E-06  1280   0.786E-03    0.551E-03
DAV:   9    -0.116241833675E+03   -0.89087E-07   -0.10016E-06   904   0.317E-03
  92 F= -.11624183E+03 E0= -.11624183E+03  d E =-.443404E-12
       N       E                     dE             d eps       ncg     rms          rms(c)
DAV:   1    -0.116238584000E+03    0.32496E-02   -0.46256E-01  1360   0.896E-01    0.249E-01
DAV:   2    -0.116240407827E+03   -0.18238E-02   -0.19797E-02  1608   0.287E-01    0.980E-02
DAV:   3    -0.116240405376E+03    0.24510E-05   -0.67076E-04  1680   0.670E-02    0.770E-02
DAV:   4    -0.116240356576E+03    0.48800E-04   -0.13296E-04  1536   0.357E-02    0.398E-02
DAV:   5    -0.116240360487E+03   -0.39111E-05   -0.64725E-05  1584   0.187E-02    0.123E-02
DAV:   6    -0.116240359977E+03    0.51015E-06   -0.32598E-06  1264   0.561E-03
  93 F= -.11624036E+03 E0= -.11624036E+03  d E =-.738966E-12
       N       E                     dE             d eps       ncg     rms          rms(c)
DAV:   1    -0.116233360893E+03    0.69996E-02   -0.19862E+00  1376   0.204E+00    0.628E-01
DAV:   2    -0.116241420336E+03   -0.80594E-02   -0.90295E-02  1584   0.687E-01    0.238E-01
DAV:   3    -0.116241246737E+03    0.17360E-03   -0.30210E-03  1840   0.167E-01    0.190E-01
DAV:   4    -0.116240966402E+03    0.28033E-03   -0.93329E-04  1560   0.907E-02    0.888E-02
DAV:   5    -0.116240997373E+03   -0.30971E-04   -0.35463E-04  1600   0.474E-02    0.344E-02
DAV:   6    -0.116240994402E+03    0.29707E-05   -0.11926E-05  1528   0.125E-02    0.276E-02
DAV:   7    -0.116240989053E+03    0.53492E-05   -0.11192E-05  1224   0.960E-03    0.107E-02
DAV:   8    -0.116240989012E+03    0.40804E-07   -0.56202E-06  1288   0.864E-03
  94 F= -.11624099E+03 E0= -.11624099E+03  d E =-.586076E-12
       N       E                     dE             d eps       ncg     rms          rms(c)
DAV:   1    -0.116240523762E+03    0.46529E-03   -0.45290E-01  1392   0.911E-01    0.178E-01
DAV:   2    -0.116242165245E+03   -0.16415E-02   -0.17700E-02  1672   0.290E-01    0.632E-02
DAV:   3    -0.116242175909E+03   -0.10665E-04   -0.46599E-04  1864   0.547E-02    0.481E-02
DAV:   4    -0.116242156301E+03    0.19608E-04   -0.76251E-05  1584   0.231E-02    0.236E-02
DAV:   5    -0.116242157951E+03   -0.16497E-05   -0.23243E-05  1608   0.121E-02    0.114E-02
DAV:   6    -0.116242157542E+03    0.40868E-06   -0.10079E-06   816   0.371E-03
  95 F= -.11624216E+03 E0= -.11624216E+03  d E =-.411381E-12
       N       E                     dE             d eps       ncg     rms          rms(c)
DAV:   1    -0.116239192885E+03    0.29651E-02   -0.89881E-01  1384   0.133E+00    0.434E-01
DAV:   2    -0.116242032338E+03   -0.28395E-02   -0.32760E-02  1664   0.432E-01    0.154E-01
DAV:   3    -0.116241955611E+03    0.76726E-04   -0.11379E-03  1816   0.101E-01    0.117E-01
DAV:   4    -0.116241843547E+03    0.11206E-03   -0.41316E-04  1752   0.689E-02    0.552E-02
DAV:   5    -0.116241856135E+03   -0.12588E-04   -0.13355E-04  1592   0.284E-02    0.240E-02
DAV:   6    -0.116241854141E+03    0.19939E-05   -0.49065E-06  1416   0.739E-03    0.164E-02
DAV:   7    -0.116241852009E+03    0.21322E-05   -0.11804E-05  1208   0.865E-03    0.266E-03
DAV:   8    -0.116241852237E+03   -0.22794E-06   -0.28963E-06  1104   0.472E-03
  96 F= -.11624185E+03 E0= -.11624185E+03  d E =-.316697E-12
       N       E                     dE             d eps       ncg     rms          rms(c)
DAV:   1    -0.116238647811E+03    0.32042E-02   -0.46334E-01  1376   0.901E-01    0.277E-01
DAV:   2    -0.116240370642E+03   -0.17228E-02   -0.18600E-02  1640   0.286E-01    0.101E-01
DAV:   3    -0.116240372223E+03   -0.15817E-05   -0.65309E-04  1824   0.663E-02    0.792E-02
DAV:   4    -0.116240328535E+03    0.43688E-04   -0.14857E-04  1544   0.319E-02    0.398E-02
DAV:   5    -0.116240333364E+03   -0.48283E-05   -0.52040E-05  1552   0.161E-02    0.120E-02
DAV:   6    -0.116240332924E+03    0.43918E-06   -0.13891E-06  1024   0.408E-03
  97 F= -.11624033E+03 E0= -.11624033E+03  d E =-.373404E-12
       N       E                     dE             d eps       ncg     rms          rms(c)
DAV:   1    -0.116233459416E+03    0.68739E-02   -0.20152E+00  1400   0.198E+00    0.580E-01
DAV:   2    -0.116240410360E+03   -0.69509E-02   -0.77750E-02  1680   0.597E-01    0.251E-01
DAV:   3    -0.116240176197E+03    0.23416E-03   -0.16981E-03  1800   0.110E-01    0.182E-01
DAV:   4    -0.116239936641E+03    0.23956E-03   -0.73699E-04  1560   0.718E-02    0.101E-01
[...]
DAV:   2    -0.116242136945E+03   -0.32766E-02   -0.37890E-02  1600   0.470E-01    0.153E-01
DAV:   3    -0.116242016128E+03    0.12082E-03   -0.12965E-03  1736   0.110E-01    0.118E-01
DAV:   4    -0.116241891411E+03    0.12472E-03   -0.53010E-04  1576   0.714E-02    0.505E-02
DAV:   5    -0.116241904623E+03   -0.13212E-04   -0.13926E-04  1544   0.301E-02    0.289E-02
DAV:   6    -0.116241904517E+03    0.10612E-06   -0.65456E-06  1256   0.846E-03
 100 F= -.11624190E+03 E0= -.11624190E+03  d E =-.513175E-12
       N       E                     dE             d eps       ncg     rms          rms(c)
DAV:   1    -0.116238347284E+03    0.35573E-02   -0.45928E-01  1360   0.902E-01    0.262E-01
DAV:   2    -0.116240231490E+03   -0.18842E-02   -0.20427E-02  1632   0.304E-01    0.960E-02
DAV:   3    -0.116240215926E+03    0.15563E-04   -0.69185E-04  1792   0.688E-02    0.759E-02
DAV:   4    -0.116240167552E+03    0.48374E-04   -0.18724E-04  1560   0.337E-02    0.352E-02
DAV:   5    -0.116240172467E+03   -0.49148E-05   -0.50865E-05  1456   0.176E-02    0.163E-02
DAV:   6    -0.116240172841E+03   -0.37380E-06   -0.28576E-06  1176   0.494E-03
 101 F= -.11624017E+03 E0= -.11624017E+03  d E =-.956315E-12
       N       E                     dE             d eps       ncg     rms          rms(c)
DAV:   1    -0.116232129589E+03    0.80429E-02   -0.19934E+00  1360   0.195E+00    0.527E-01
DAV:   2    -0.116239074827E+03   -0.69452E-02   -0.78525E-02  1640   0.608E-01    0.226E-01
DAV:   3    -0.116238983849E+03    0.90979E-04   -0.27759E-03  1704   0.145E-01    0.177E-01
DAV:   4    -0.116238708076E+03    0.27577E-03   -0.88193E-04  1592   0.844E-02    0.823E-02
DAV:   5    -0.116238735039E+03   -0.26962E-04   -0.31848E-04  1632   0.411E-02    0.258E-02
DAV:   6    -0.116238729130E+03    0.59083E-05   -0.12433E-05  1448   0.109E-02    0.208E-02
DAV:   7    -0.116238724660E+03    0.44699E-05   -0.93537E-06  1272   0.835E-03    0.845E-03
DAV:   8    -0.116238724161E+03    0.49957E-06   -0.29267E-06  1264   0.590E-03
 102 F= -.11623872E+03 E0= -.11623872E+03  d E =-.104869E-11
       N       E                     dE             d eps       ncg     rms          rms(c)
DAV:   1    -0.116239657065E+03   -0.93240E-03   -0.43635E-01  1392   0.905E-01    0.226E-01
DAV:   2    -0.116241415716E+03   -0.17587E-02   -0.19467E-02  1616   0.307E-01    0.597E-02
DAV:   3    -0.116241435712E+03   -0.19996E-04   -0.78161E-04  1840   0.701E-02    0.475E-02
DAV:   4    -0.116241418065E+03    0.17647E-04   -0.85799E-05  1648   0.367E-02    0.228E-02
DAV:   5    -0.116241418377E+03   -0.31104E-06   -0.28189E-05  1664   0.166E-02    0.145E-02
DAV:   6    -0.116241418314E+03    0.62508E-07   -0.28392E-06  1216   0.620E-03
 103 F= -.11624142E+03 E0= -.11624142E+03  d E =-.549989E-12
       N       E                     dE             d eps       ncg     rms          rms(c)
DAV:   1    -0.116239129282E+03    0.22891E-02   -0.87493E-01  1384   0.134E+00    0.544E-01
DAV:   2    -0.116242150965E+03   -0.30217E-02   -0.36340E-02  1656   0.473E-01    0.133E-01
DAV:   3    -0.116241990675E+03    0.16029E-03   -0.13590E-03  1864   0.125E-01    0.105E-01
DAV:   4    -0.116241878102E+03    0.11257E-03   -0.40318E-04  1664   0.987E-02    0.553E-02
DAV:   5    -0.116241887628E+03   -0.95267E-05   -0.16562E-04  1592   0.380E-02    0.351E-02
DAV:   6    -0.116241886598E+03    0.10304E-05   -0.11194E-05  1432   0.132E-02    0.265E-02
DAV:   7    -0.116241884139E+03    0.24586E-05   -0.43745E-06  1304   0.763E-03    0.149E-02
DAV:   8    -0.116241883503E+03    0.63634E-06   -0.58021E-06  1264   0.104E-02
 104 F= -.11624188E+03 E0= -.11624188E+03  d E =-.423469E-12
       N       E                     dE             d eps       ncg     rms          rms(c)
DAV:   1    -0.116237849208E+03    0.40349E-02   -0.44847E-01  1368   0.914E-01    0.321E-01
DAV:   2    -0.116239707710E+03   -0.18585E-02   -0.20256E-02  1640   0.312E-01    0.869E-02
DAV:   3    -0.116239685598E+03    0.22112E-04   -0.70676E-04  1848   0.813E-02    0.714E-02
DAV:   4    -0.116239642004E+03    0.43594E-04   -0.14442E-04  1600   0.400E-02    0.391E-02
DAV:   5    -0.116239644784E+03   -0.27803E-05   -0.53746E-05  1648   0.203E-02    0.172E-02
DAV:   6    -0.116239645007E+03   -0.22257E-06   -0.40056E-06  1296   0.778E-03
 105 F= -.11623965E+03 E0= -.11623965E+03  d E =-.705684E-12
       N       E                     dE             d eps       ncg     rms          rms(c)
DAV:   1    -0.116233144182E+03    0.65006E-02   -0.19546E+00  1384   0.210E+00    0.637E-01
DAV:   2    -0.116241467850E+03   -0.83237E-02   -0.95077E-02  1608   0.739E-01    0.229E-01
DAV:   3    -0.116241220399E+03    0.24745E-03   -0.32822E-03  1760   0.184E-01    0.181E-01
DAV:   4    -0.116240928959E+03    0.29144E-03   -0.94028E-04  1584   0.103E-01    0.833E-02
DAV:   5    -0.116240961389E+03   -0.32430E-04   -0.40545E-04  1600   0.555E-02    0.451E-02
DAV:   6    -0.116240960166E+03    0.12233E-05   -0.16481E-05  1504   0.147E-02    0.395E-02
DAV:   7    -0.116240953731E+03    0.64350E-05   -0.94598E-06  1240   0.943E-03    0.255E-02
DAV:   8    -0.116240952512E+03    0.12189E-05   -0.80663E-06  1288   0.107E-02    0.899E-03
DAV:   9    -0.116240952613E+03   -0.10095E-06   -0.10914E-06   816   0.424E-03
 106 F= -.11624095E+03 E0= -.11624095E+03  d E =-.264913E-12
       N       E                     dE             d eps       ncg     rms          rms(c)
DAV:   1    -0.116240404085E+03    0.54843E-03   -0.45076E-01  1376   0.912E-01    0.160E-01
DAV:   2    -0.116242136870E+03   -0.17328E-02   -0.18537E-02  1664   0.289E-01    0.665E-02
DAV:   3    -0.116242156171E+03   -0.19301E-04   -0.57337E-04  1720   0.569E-02    0.491E-02
DAV:   4    -0.116242132940E+03    0.23231E-04   -0.94504E-05  1528   0.234E-02    0.235E-02
DAV:   5    -0.116242134915E+03   -0.19745E-05   -0.23690E-05  1576   0.117E-02    0.909E-03
DAV:   6    -0.116242134062E+03    0.85246E-06   -0.91967E-07   856   0.331E-03
 107 F= -.11624213E+03 E0= -.11624213E+03  d E =-.278959E-12
       N       E                     dE             d eps       ncg     rms          rms(c)
DAV:   1    -0.116238916530E+03    0.32184E-02   -0.88937E-01  1376   0.134E+00    0.387E-01
DAV:   2    -0.116242102496E+03   -0.31860E-02   -0.36401E-02  1672   0.429E-01    0.163E-01
DAV:   3    -0.116242018126E+03    0.84371E-04   -0.11973E-03  1800   0.104E-01    0.122E-01
DAV:   4    -0.116241887720E+03    0.13041E-03   -0.50104E-04  1640   0.676E-02    0.549E-02
DAV:   5    -0.116241900801E+03   -0.13082E-04   -0.13297E-04  1592   0.297E-02    0.212E-02
DAV:   6    -0.116241899229E+03    0.15723E-05   -0.43284E-06  1328   0.805E-03    0.153E-02
DAV:   7    -0.116241896673E+03    0.25559E-05   -0.13738E-05  1232   0.873E-03    0.606E-03
DAV:   8    -0.116241896820E+03   -0.14701E-06   -0.28441E-06  1120   0.532E-03
 108 F= -.11624190E+03 E0= -.11624190E+03  d E =-.420880E-12
       N       E                     dE             d eps       ncg     rms          rms(c)
DAV:   1    -0.116238689531E+03    0.32071E-02   -0.46352E-01  1360   0.905E-01    0.254E-01
DAV:   2    -0.116240471699E+03   -0.17822E-02   -0.19387E-02  1680   0.290E-01    0.103E-01
DAV:   3    -0.116240468879E+03    0.28207E-05   -0.65571E-04  1648   0.690E-02    0.786E-02
DAV:   4    -0.116240422053E+03    0.46826E-04   -0.15059E-04  1672   0.333E-02    0.393E-02
DAV:   5    -0.116240426371E+03   -0.43183E-05   -0.50365E-05  1520   0.162E-02    0.120E-02
DAV:   6    -0.116240426265E+03    0.10608E-06   -0.13987E-06  1008   0.430E-03
 109 F= -.11624043E+03 E0= -.11624043E+03  d E =-.610500E-12
       N       E                     dE             d eps       ncg     rms          rms(c)
DAV:   1    -0.116232327911E+03    0.80985E-02   -0.19219E+00  1368   0.204E+00    0.817E-01
DAV:   2    -0.116239601909E+03   -0.72740E-02   -0.82475E-02  1608   0.690E-01    0.182E-01
DAV:   3    -0.116239332645E+03    0.26926E-03   -0.27765E-03  1744   0.163E-01    0.140E-01
DAV:   4    -0.116239158621E+03    0.17402E-03   -0.83918E-04  1648   0.725E-02    0.700E-02
DAV:   5    -0.116239175275E+03   -0.16654E-04   -0.18406E-04  1640   0.370E-02    0.494E-02
DAV:   6    -0.116239179112E+03   -0.38376E-05   -0.20958E-05  1408   0.159E-02    0.309E-02
DAV:   7    -0.116239174331E+03    0.47813E-05   -0.19144E-05  1336   0.127E-02    0.109E-02
DAV:   8    -0.116239174981E+03   -0.64999E-06   -0.61657E-06  1440   0.618E-03
 110 F= -.11623917E+03 E0= -.11623917E+03  d E =-.286302E-12
       N       E                     dE             d eps       ncg     rms          rms(c)
DAV:   1    -0.116239882946E+03   -0.70862E-03   -0.43503E-01  1376   0.935E-01    0.188E-01
DAV:   2    -0.116241716361E+03   -0.18334E-02   -0.19857E-02  1600   0.315E-01    0.610E-02
DAV:   3    -0.116241741312E+03   -0.24951E-04   -0.75399E-04  1800   0.672E-02    0.460E-02
DAV:   4    -0.116241726211E+03    0.15102E-04   -0.78031E-05  1568   0.236E-02    0.198E-02
DAV:   5    -0.116241727309E+03   -0.10980E-05   -0.16475E-05  1488   0.115E-02    0.143E-02
DAV:   6    -0.116241727104E+03    0.20459E-06   -0.86013E-07   856   0.348E-03
 111 F= -.11624173E+03 E0= -.11624173E+03  d E =-.291257E-12
       N       E                     dE             d eps       ncg     rms          rms(c)
DAV:   1    -0.116238294893E+03    0.34324E-02   -0.86379E-01  1376   0.137E+00    0.417E-01
DAV:   2    -0.116241720360E+03   -0.34255E-02   -0.38915E-02  1632   0.473E-01    0.137E-01
DAV:   3    -0.116241577557E+03    0.14280E-03   -0.12230E-03  1832   0.111E-01    0.105E-01
DAV:   4    -0.116241478788E+03    0.98769E-04   -0.45689E-04  1640   0.596E-02    0.450E-02
DAV:   5    -0.116241489351E+03   -0.10563E-04   -0.10906E-04  1504   0.282E-02    0.356E-02
DAV:   6    -0.116241489797E+03   -0.44678E-06   -0.64066E-06  1400   0.884E-03
 112 F= -.11624149E+03 E0= -.11624149E+03  d E =-.372666E-12
       N       E                     dE             d eps       ncg     rms          rms(c)
DAV:   1    -0.116237009772E+03    0.44796E-02   -0.44415E-01  1360   0.916E-01    0.271E-01
DAV:   2    -0.116238922547E+03   -0.19128E-02   -0.20474E-02  1600   0.304E-01    0.799E-02
DAV:   3    -0.116238898439E+03    0.24109E-04   -0.63081E-04  1680   0.729E-02    0.626E-02
DAV:   4    -0.116238860261E+03    0.38178E-04   -0.16414E-04  1600   0.322E-02    0.290E-02
DAV:   5    -0.116238864367E+03   -0.41061E-05   -0.41253E-05  1456   0.166E-02    0.196E-02
DAV:   6    -0.116238864802E+03   -0.43422E-06   -0.29096E-06  1184   0.513E-03
 113 F= -.11623886E+03 E0= -.11623886E+03  d E =-.502053E-12
       N       E                     dE             d eps       ncg     rms          rms(c)
DAV:   1    -0.116233236861E+03    0.56275E-02   -0.19165E+00  1376   0.205E+00    0.739E-01
DAV:   2    -0.116240273178E+03   -0.70363E-02   -0.81828E-02  1648   0.734E-01    0.162E-01
DAV:   3    -0.116239999429E+03    0.27375E-03   -0.29589E-03  1728   0.177E-01    0.119E-01
DAV:   4    -0.116239854496E+03    0.14493E-03   -0.85694E-04  1640   0.846E-02    0.540E-02
DAV:   5    -0.116239869374E+03   -0.14877E-04   -0.17118E-04  1544   0.362E-02    0.543E-02
DAV:   6    -0.116239870914E+03   -0.15409E-05   -0.16777E-05  1392   0.159E-02    0.358E-02
DAV:   7    -0.116239868385E+03    0.25293E-05   -0.12113E-05  1360   0.109E-02    0.175E-02
DAV:   8    -0.116239868658E+03   -0.27292E-06   -0.35548E-06  1216   0.578E-03
 114 F= -.11623987E+03 E0= -.11623987E+03  d E =-.231203E-11
       N       E                     dE             d eps       ncg     rms          rms(c)
DAV:   1    -0.116239968127E+03   -0.99742E-04   -0.44372E-01  1392   0.936E-01    0.173E-01
DAV:   2    -0.116241802343E+03   -0.18342E-02   -0.19907E-02  1608   0.314E-01    0.639E-02
DAV:   3    -0.116241816705E+03   -0.14362E-04   -0.61264E-04  1824   0.649E-02    0.510E-02
DAV:   4    -0.116241795363E+03    0.21342E-04   -0.85421E-05  1688   0.291E-02    0.229E-02
DAV:   5    -0.116241796809E+03   -0.14463E-05   -0.28895E-05  1536   0.152E-02    0.110E-02
DAV:   6    -0.116241796081E+03    0.72829E-06   -0.18255E-06   984   0.473E-03
 115 F= -.11624180E+03 E0= -.11624180E+03  d E =-.876391E-12
       N       E                     dE             d eps       ncg     rms          rms(c)
DAV:   1    -0.116239030950E+03    0.27659E-02   -0.87991E-01  1392   0.135E+00    0.386E-01
DAV:   2    -0.116242175726E+03   -0.31448E-02   -0.36693E-02  1632   0.480E-01    0.147E-01
DAV:   3    -0.116242056468E+03    0.11926E-03   -0.12292E-03  1776   0.118E-01    0.118E-01
DAV:   4    -0.116241926329E+03    0.13014E-03   -0.42965E-04  1720   0.102E-01    0.520E-02
DAV:   5    -0.116241941370E+03   -0.15040E-04   -0.18085E-04  1624   0.401E-02    0.283E-02
DAV:   6    -0.116241938815E+03    0.25550E-05   -0.82756E-06  1512   0.116E-02    0.229E-02
DAV:   7    -0.116241937026E+03    0.17882E-05   -0.40836E-06  1368   0.680E-03    0.129E-02
DAV:   8    -0.116241936889E+03    0.13792E-06   -0.12305E-06  1008   0.451E-03
 116 F= -.11624194E+03 E0= -.11624194E+03  d E =-.241685E-12
       N       E                     dE             d eps       ncg     rms          rms(c)
DAV:   1    -0.116238482636E+03    0.34544E-02   -0.45348E-01  1368   0.921E-01    0.251E-01
DAV:   2    -0.116240390461E+03   -0.19078E-02   -0.20755E-02  1712   0.317E-01    0.931E-02
DAV:   3    -0.116240370455E+03    0.20006E-04   -0.61645E-04  1672   0.716E-02    0.766E-02
DAV:   4    -0.116240322553E+03    0.47903E-04   -0.14636E-04  1640   0.426E-02    0.370E-02
DAV:   5    -0.116240327154E+03   -0.46012E-05   -0.60266E-05  1584   0.205E-02    0.150E-02
DAV:   6    -0.116240326795E+03    0.35884E-06   -0.20645E-06  1104   0.557E-03
 117 F= -.11624033E+03 E0= -.11624033E+03  d E =-.202455E-12
       N       E                     dE             d eps       ncg     rms          rms(c)
DAV:   1    -0.116231118402E+03    0.92088E-02   -0.19004E+00  1408   0.207E+00    0.669E-01
DAV:   2    -0.116239774332E+03   -0.86559E-02   -0.96273E-02  1592   0.711E-01    0.198E-01
DAV:   3    -0.116239555300E+03    0.21903E-03   -0.29464E-03  1760   0.155E-01    0.153E-01
DAV:   4    -0.116239336294E+03    0.21901E-03   -0.82255E-04  1560   0.752E-02    0.708E-02
DAV:   5    -0.116239359442E+03   -0.23148E-04   -0.25326E-04  1624   0.410E-02    0.356E-02
DAV:   6    -0.116239360381E+03   -0.93938E-06   -0.14102E-05  1448   0.134E-02    0.238E-02
DAV:   7    -0.116239356968E+03    0.34135E-05   -0.97983E-06  1336   0.927E-03    0.861E-03
DAV:   8    -0.116239357305E+03   -0.33777E-06   -0.45498E-06  1288   0.539E-03
 118 F= -.11623936E+03 E0= -.11623936E+03  d E =-.324007E-12
       N       E                     dE             d eps       ncg     rms          rms(c)
DAV:   1    -0.116240025072E+03   -0.66810E-03   -0.39432E-01  1384   0.850E-01    0.178E-01
DAV:   2    -0.116241732652E+03   -0.17076E-02   -0.18340E-02  1584   0.274E-01    0.572E-02
DAV:   3    -0.116241755509E+03   -0.22857E-04   -0.66507E-04  1632   0.639E-02    0.435E-02
DAV:   4    -0.116241741016E+03    0.14493E-04   -0.62794E-05  1424   0.209E-02    0.194E-02
DAV:   5    -0.116241741453E+03   -0.43608E-06   -0.15629E-05  1496   0.109E-02    0.144E-02
DAV:   6    -0.116241741213E+03    0.23924E-06   -0.20175E-06  1216   0.487E-03
 119 F= -.11624174E+03 E0= -.11624174E+03  d E =-.314769E-12
       N       E                     dE             d eps       ncg     rms          rms(c)
DAV:   1    -0.116238381903E+03    0.33595E-02   -0.85366E-01  1384   0.130E+00    0.388E-01
DAV:   2    -0.116241769875E+03   -0.33880E-02   -0.38043E-02  1632   0.432E-01    0.128E-01
DAV:   3    -0.116241703945E+03    0.65930E-04   -0.13200E-03  1728   0.116E-01    0.944E-02
DAV:   4    -0.116241626069E+03    0.77876E-04   -0.30385E-04  1512   0.588E-02    0.394E-02
DAV:   5    -0.116241634936E+03   -0.88671E-05   -0.10693E-04  1552   0.263E-02    0.307E-02
DAV:   6    -0.116241634737E+03    0.19914E-06   -0.45247E-06  1248   0.876E-03
 120 F= -.11624163E+03 E0= -.11624163E+03  d E =-.369596E-12
       N       E                     dE             d eps       ncg     rms          rms(c)
DAV:   1    -0.116237478850E+03    0.41561E-02   -0.40573E-01  1384   0.851E-01    0.241E-01
DAV:   2    -0.116239174365E+03   -0.16955E-02   -0.18181E-02  1592   0.264E-01    0.806E-02
DAV:   3    -0.116239171836E+03    0.25296E-05   -0.59986E-04  1728   0.683E-02    0.625E-02
DAV:   4    -0.116239142099E+03    0.29737E-04   -0.92087E-05  1424   0.258E-02    0.304E-02
DAV:   5    -0.116239144151E+03   -0.20519E-05   -0.37601E-05  1496   0.134E-02    0.132E-02
DAV:   6    -0.116239144234E+03   -0.83386E-07   -0.16517E-06  1088   0.528E-03
 121 F= -.11623914E+03 E0= -.11623914E+03  d E =-.464584E-12
       N       E                     dE             d eps       ncg     rms          rms(c)
DAV:   1    -0.116232890413E+03    0.62537E-02   -0.18923E+00  1368   0.189E+00    0.660E-01
DAV:   2    -0.116240144155E+03   -0.72537E-02   -0.80145E-02  1640   0.581E-01    0.219E-01
DAV:   3    -0.116240102394E+03    0.41760E-04   -0.25317E-03  1720   0.142E-01    0.161E-01
DAV:   4    -0.116239927863E+03    0.17453E-03   -0.47840E-04  1656   0.607E-02    0.799E-02
DAV:   5    -0.116239944799E+03   -0.16936E-04   -0.22208E-04  1600   0.330E-02    0.268E-02
DAV:   6    -0.116239941343E+03    0.34559E-05   -0.15586E-05  1464   0.106E-02    0.188E-02
DAV:   7    -0.116239939654E+03    0.16891E-05   -0.91915E-06  1232   0.686E-03    0.616E-03
DAV:   8    -0.116239939886E+03   -0.23144E-06   -0.21457E-06  1048   0.349E-03
 122 F= -.11623994E+03 E0= -.11623994E+03  d E =-.571120E-12
       N       E                     dE             d eps       ncg     rms          rms(c)
DAV:   1    -0.116239092766E+03    0.84689E-03   -0.62211E-01  1392   0.101E+00    0.116E-01
DAV:   2    -0.116241787863E+03   -0.26951E-02   -0.28599E-02  1560   0.333E-01    0.484E-02
DAV:   3    -0.116241875257E+03   -0.87394E-04   -0.12022E-03  1920   0.751E-02    0.388E-02
DAV:   4    -0.116241870926E+03    0.43308E-05   -0.45669E-05  1448   0.211E-02    0.199E-02
DAV:   5    -0.116241869366E+03    0.15595E-05   -0.57719E-06  1320   0.119E-02    0.887E-03
DAV:   6    -0.116241868836E+03    0.53081E-06   -0.20890E-06  1088   0.710E-03
 123 F= -.11624187E+03 E0= -.11624187E+03  d E =-.406499E-12
       N       E                     dE             d eps       ncg     rms          rms(c)
DAV:   1    -0.116239412750E+03    0.24566E-02   -0.74220E-01  1432   0.111E+00    0.373E-01
DAV:   2    -0.116242031283E+03   -0.26185E-02   -0.30863E-02  1640   0.414E-01    0.131E-01
DAV:   3    -0.116241946062E+03    0.85220E-04   -0.11961E-03  1832   0.123E-01    0.970E-02
DAV:   4    -0.116241857945E+03    0.88118E-04   -0.34336E-04  1760   0.105E-01    0.394E-02
DAV:   5    -0.116241873438E+03   -0.15493E-04   -0.17547E-04  1536   0.349E-02    0.276E-02
DAV:   6    -0.116241871909E+03    0.15283E-05   -0.66500E-06  1544   0.782E-03    0.252E-02
DAV:   7    -0.116241869217E+03    0.26920E-05   -0.46233E-06  1248   0.919E-03    0.134E-02
DAV:   8    -0.116241868812E+03    0.40503E-06   -0.23781E-06  1216   0.805E-03
 124 F= -.11624187E+03 E0= -.11624187E+03  d E =-.396197E-12
       N       E                     dE             d eps       ncg     rms          rms(c)
DAV:   1    -0.116237170764E+03    0.46985E-02   -0.64078E-01  1384   0.994E-01    0.300E-01
DAV:   2    -0.116239960958E+03   -0.27902E-02   -0.29601E-02  1632   0.336E-01    0.105E-01
DAV:   3    -0.116239982202E+03   -0.21244E-04   -0.10466E-03  1680   0.866E-02    0.828E-02
DAV:   4    -0.116239936228E+03    0.45974E-04   -0.14351E-04  1624   0.383E-02    0.405E-02
DAV:   5    -0.116239940827E+03   -0.45989E-05   -0.62501E-05  1584   0.188E-02    0.144E-02
DAV:   6    -0.116239940798E+03    0.29253E-07   -0.30534E-06  1224   0.498E-03
 125 F= -.11623994E+03 E0= -.11623994E+03  d E =-.560742E-12
