  18  18   0   0
  0.2116172E+02  0.5974615E-09  0.8666352E-09  0.8666352E-09  0.1500000E-16
   1.0000000000000000E-004
  CAR 
 unknown system                          
      9.38611805    -23.31956282  301      1.87743882      1.00000000
    -23.320  0.0000E+00  0.0000E+00
    -23.211  0.0000E+00  0.0000E+00
    -23.102  0.0000E+00  0.0000E+00
    -22.993  0.0000E+00  0.0000E+00
    -22.883  0.0000E+00  0.0000E+00
    -22.774  0.0000E+00  0.0000E+00
    -22.665  0.0000E+00  0.0000E+00
    -22.556  0.0000E+00  0.0000E+00
    -22.447  0.0000E+00  0.0000E+00
    -22.338  0.0000E+00  0.0000E+00
    -22.229  0.0000E+00  0.0000E+00
    -22.120  0.1308E-16  0.1426E-17
    -22.011  0.2059E-07  0.2244E-08
    -21.902  0.4015E-02  0.4378E-03
    -21.793  0.4517E+00  0.4969E-01
    -21.684  0.4122E+00  0.9462E-01
    -21.575  0.2200E-02  0.9486E-01
    -21.466  0.4362E-08  0.9486E-01
    -21.357  0.0000E+00  0.9486E-01
    -21.248  0.0000E+00  0.9486E-01
    -21.139  0.0000E+00  0.9486E-01
    -21.030  0.0000E+00  0.9486E-01
    -20.921  0.0000E+00  0.9486E-01
    -20.812  0.0000E+00  0.9486E-01
    -20.703  0.0000E+00  0.9486E-01
    -20.594  0.0000E+00  0.9486E-01
    -20.485  0.0000E+00  0.9486E-01
    -20.376  0.0000E+00  0.9486E-01
    -20.267  0.0000E+00  0.9486E-01
    -20.158  0.0000E+00  0.9486E-01
    -20.049  0.0000E+00  0.9486E-01
    -19.940  0.0000E+00  0.9486E-01
    -19.831  0.0000E+00  0.9486E-01
    -19.722  0.0000E+00  0.9486E-01
    -19.613  0.0000E+00  0.9486E-01
    -19.504  0.0000E+00  0.9486E-01
    -19.395  0.0000E+00  0.9486E-01
    -19.286  0.0000E+00  0.9486E-01
    -19.177  0.0000E+00  0.9486E-01
    -19.068  0.0000E+00  0.9486E-01
    -18.959  0.0000E+00  0.9486E-01
    -18.850  0.0000E+00  0.9486E-01
    -18.741  0.0000E+00  0.9486E-01
    -18.632  0.0000E+00  0.9486E-01
    -18.523  0.0000E+00  0.9486E-01
    -18.414  0.0000E+00  0.9486E-01
    -18.305  0.0000E+00  0.9486E-01
    -18.196  0.0000E+00  0.9486E-01
    -18.087  0.0000E+00  0.9486E-01
    -17.978  0.0000E+00  0.9486E-01
    -17.869  0.0000E+00  0.9486E-01
    -17.760  0.0000E+00  0.9486E-01
    -17.651  0.0000E+00  0.9486E-01
    -17.542  0.0000E+00  0.9486E-01
    -17.433  0.0000E+00  0.9486E-01
    -17.324  0.0000E+00  0.9486E-01
    -17.215  0.0000E+00  0.9486E-01
    -17.105  0.0000E+00  0.9486E-01
    -16.996  0.0000E+00  0.9486E-01
    -16.887  0.0000E+00  0.9486E-01
    -16.778  0.0000E+00  0.9486E-01
    -16.669  0.0000E+00  0.9486E-01
    -16.560  0.0000E+00  0.9486E-01
    -16.451  0.0000E+00  0.9486E-01
    -16.342  0.0000E+00  0.9486E-01
    -16.233  0.0000E+00  0.9486E-01
    -16.124  0.0000E+00  0.9486E-01
    -16.015  0.0000E+00  0.9486E-01
    -15.906  0.0000E+00  0.9486E-01
    -15.797  0.0000E+00  0.9486E-01
    -15.688  0.0000E+00  0.9486E-01
    -15.579  0.0000E+00  0.9486E-01
    -15.470  0.0000E+00  0.9486E-01
    -15.361  0.0000E+00  0.9486E-01
    -15.252  0.0000E+00  0.9486E-01
    -15.143  0.0000E+00  0.9486E-01
    -15.034  0.0000E+00  0.9486E-01
    -14.925  0.0000E+00  0.9486E-01
    -14.816  0.0000E+00  0.9486E-01
    -14.707  0.0000E+00  0.9486E-01
    -14.598  0.0000E+00  0.9486E-01
    -14.489  0.0000E+00  0.9486E-01
    -14.380  0.0000E+00  0.9486E-01
    -14.271  0.0000E+00  0.9486E-01
    -14.162  0.0000E+00  0.9486E-01
    -14.053  0.0000E+00  0.9486E-01
    -13.944  0.0000E+00  0.9486E-01
    -13.835  0.0000E+00  0.9486E-01
    -13.726  0.0000E+00  0.9486E-01
    -13.617  0.0000E+00  0.9486E-01
    -13.508  0.0000E+00  0.9486E-01
    -13.399  0.0000E+00  0.9486E-01
    -13.290  0.0000E+00  0.9486E-01
    -13.181  0.0000E+00  0.9486E-01
    -13.072  0.0000E+00  0.9486E-01
    -12.963  0.0000E+00  0.9486E-01
    -12.854  0.0000E+00  0.9486E-01
    -12.745  0.0000E+00  0.9486E-01
    -12.636  0.0000E+00  0.9486E-01
    -12.527  0.0000E+00  0.9486E-01
    -12.418  0.0000E+00  0.9486E-01
    -12.309  0.0000E+00  0.9486E-01
    -12.200  0.0000E+00  0.9486E-01
    -12.091  0.0000E+00  0.9486E-01
    -11.982  0.0000E+00  0.9486E-01
    -11.873  0.0000E+00  0.9486E-01
    -11.764  0.0000E+00  0.9486E-01
    -11.655  0.0000E+00  0.9486E-01
    -11.546  0.0000E+00  0.9486E-01
    -11.436  0.0000E+00  0.9486E-01
    -11.327  0.0000E+00  0.9486E-01
    -11.218  0.4755E-16  0.9486E-01
    -11.109  0.1154E-07  0.9486E-01
    -11.000  0.3162E-03  0.9490E-01
    -10.891  0.4163E-02  0.9535E-01
    -10.782  0.1309E-01  0.9678E-01
    -10.673  0.3468E-01  0.1006E+00
    -10.564  0.2386E-01  0.1032E+00
    -10.455  0.2619E-01  0.1060E+00
    -10.346  0.3143E-01  0.1094E+00
    -10.237  0.2782E-01  0.1125E+00
    -10.128  0.4129E-01  0.1170E+00
    -10.019  0.5839E-01  0.1233E+00
     -9.910  0.1481E+00  0.1395E+00
     -9.801  0.1131E+00  0.1518E+00
     -9.692  0.5045E-01  0.1573E+00
     -9.583  0.7147E-02  0.1581E+00
     -9.474  0.6512E-04  0.1581E+00
     -9.365  0.2829E-09  0.1581E+00
     -9.256  0.0000E+00  0.1581E+00
     -9.147  0.0000E+00  0.1581E+00
     -9.038  0.0000E+00  0.1581E+00
     -8.929  0.0000E+00  0.1581E+00
     -8.820  0.0000E+00  0.1581E+00
     -8.711  0.0000E+00  0.1581E+00
     -8.602  0.0000E+00  0.1581E+00
     -8.493  0.0000E+00  0.1581E+00
     -8.384  0.0000E+00  0.1581E+00
     -8.275  0.0000E+00  0.1581E+00
     -8.166  0.0000E+00  0.1581E+00
     -8.057  0.0000E+00  0.1581E+00
     -7.948  0.0000E+00  0.1581E+00
     -7.839  0.0000E+00  0.1581E+00
     -7.730  0.0000E+00  0.1581E+00
     -7.621  0.0000E+00  0.1581E+00
     -7.512  0.0000E+00  0.1581E+00
     -7.403  0.0000E+00  0.1581E+00
     -7.294  0.0000E+00  0.1581E+00
     -7.185  0.0000E+00  0.1581E+00
     -7.076  0.0000E+00  0.1581E+00
     -6.967  0.0000E+00  0.1581E+00
     -6.858  0.0000E+00  0.1581E+00
     -6.749  0.0000E+00  0.1581E+00
     -6.640  0.0000E+00  0.1581E+00
     -6.531  0.0000E+00  0.1581E+00
     -6.422  0.0000E+00  0.1581E+00
     -6.313  0.0000E+00  0.1581E+00
     -6.204  0.0000E+00  0.1581E+00
     -6.095  0.0000E+00  0.1581E+00
     -5.986  0.0000E+00  0.1581E+00
     -5.877  0.0000E+00  0.1581E+00
     -5.768  0.0000E+00  0.1581E+00
     -5.658  0.0000E+00  0.1581E+00
     -5.549  0.0000E+00  0.1581E+00
     -5.440  0.0000E+00  0.1581E+00
     -5.331  0.0000E+00  0.1581E+00
     -5.222  0.0000E+00  0.1581E+00
     -5.113  0.0000E+00  0.1581E+00
     -5.004  0.1873E-13  0.1581E+00
     -4.895  0.4421E-06  0.1581E+00
     -4.786  0.2021E-02  0.1583E+00
     -4.677  0.7524E-01  0.1665E+00
     -4.568  0.2903E+00  0.1982E+00
     -4.459  0.2532E+00  0.2258E+00
     -4.350  0.3093E+00  0.2595E+00
     -4.241  0.4099E+00  0.3042E+00
     -4.132  0.4463E+00  0.3528E+00
     -4.023  0.2759E+00  0.3829E+00
     -3.914  0.1050E+00  0.3944E+00
     -3.805  0.8087E-02  0.3953E+00
     -3.696  0.1354E-05  0.3953E+00
     -3.587  0.3732E-13  0.3953E+00
     -3.478  0.0000E+00  0.3953E+00
     -3.369  0.0000E+00  0.3953E+00
     -3.260  0.0000E+00  0.3953E+00
     -3.151  0.0000E+00  0.3953E+00
     -3.042  0.1545E-14  0.3953E+00
     -2.933  0.1266E-06  0.3953E+00
     -2.824  0.1735E-02  0.3954E+00
     -2.715  0.5698E-01  0.4017E+00
     -2.606  0.4091E-01  0.4061E+00
     -2.497  0.6966E-01  0.4137E+00
     -2.388  0.3977E-01  0.4180E+00
     -2.279  0.1821E-01  0.4200E+00
     -2.170  0.4537E-01  0.4250E+00
     -2.061  0.6499E-01  0.4321E+00
     -1.952  0.3301E-01  0.4357E+00
     -1.843  0.2846E-01  0.4388E+00
     -1.734  0.2085E-01  0.4410E+00
     -1.625  0.2346E-01  0.4436E+00
     -1.516  0.1265E-01  0.4450E+00
     -1.407  0.1822E-01  0.4470E+00
     -1.298  0.3064E-01  0.4503E+00
     -1.189  0.1083E-01  0.4515E+00
     -1.080  0.3169E-01  0.4549E+00
     -0.971  0.7123E-02  0.4557E+00
     -0.862  0.3831E-01  0.4599E+00
     -0.753  0.2600E-01  0.4627E+00
     -0.644  0.2341E-01  0.4653E+00
     -0.535  0.6436E-01  0.4723E+00
     -0.426  0.4223E-01  0.4769E+00
     -0.317  0.4340E-01  0.4816E+00
     -0.208  0.6328E-01  0.4885E+00
     -0.099  0.4093E-01  0.4930E+00
      0.010  0.6654E-01  0.5002E+00
      0.120  0.4824E-01  0.5055E+00
      0.229  0.4503E-01  0.5104E+00
      0.338  0.2588E-01  0.5132E+00
      0.447  0.8267E-01  0.5222E+00
      0.556  0.8275E-01  0.5313E+00
      0.665  0.8728E-01  0.5408E+00
      0.774  0.3906E-01  0.5450E+00
      0.883  0.6644E-01  0.5523E+00
      0.992  0.5007E-01  0.5577E+00
      1.101  0.5125E-01  0.5633E+00
      1.210  0.5631E-01  0.5695E+00
      1.319  0.8126E-01  0.5783E+00
      1.428  0.2748E-01  0.5813E+00
      1.537  0.2819E-01  0.5844E+00
      1.646  0.4066E-02  0.5848E+00
      1.755  0.1275E-02  0.5850E+00
      1.864  0.5663E-06  0.5850E+00
      1.973  0.3447E-13  0.5850E+00
      2.082  0.0000E+00  0.5850E+00
      2.191  0.0000E+00  0.5850E+00
      2.300  0.0000E+00  0.5850E+00
      2.409  0.0000E+00  0.5850E+00
      2.518  0.0000E+00  0.5850E+00
      2.627  0.0000E+00  0.5850E+00
      2.736  0.0000E+00  0.5850E+00
      2.845  0.0000E+00  0.5850E+00
      2.954  0.0000E+00  0.5850E+00
      3.063  0.0000E+00  0.5850E+00
      3.172  0.0000E+00  0.5850E+00
      3.281  0.0000E+00  0.5850E+00
      3.390  0.6030E-15  0.5850E+00
      3.499  0.5367E-07  0.5850E+00
      3.608  0.5729E-03  0.5850E+00
      3.717  0.3840E-02  0.5855E+00
      3.826  0.1187E-03  0.5855E+00
      3.935  0.1149E-08  0.5855E+00
      4.044  0.1006E-17  0.5855E+00
      4.153  0.0000E+00  0.5855E+00
      4.262  0.0000E+00  0.5855E+00
      4.371  0.0000E+00  0.5855E+00
      4.480  0.8145E-11  0.5855E+00
      4.589  0.1558E-04  0.5855E+00
      4.698  0.6151E-02  0.5861E+00
      4.807  0.1638E-01  0.5879E+00
      4.916  0.3419E-01  0.5917E+00
      5.025  0.2860E-01  0.5948E+00
      5.134  0.2768E-01  0.5978E+00
      5.243  0.2144E-01  0.6001E+00
      5.352  0.4579E-01  0.6051E+00
      5.461  0.1898E-01  0.6072E+00
      5.570  0.4486E-01  0.6121E+00
      5.679  0.4113E-01  0.6166E+00
      5.788  0.4360E-01  0.6213E+00
      5.898  0.3708E-01  0.6254E+00
      6.007  0.4847E-01  0.6306E+00
      6.116  0.3703E-01  0.6347E+00
      6.225  0.3178E-01  0.6381E+00
      6.334  0.5227E-01  0.6438E+00
      6.443  0.6518E-01  0.6510E+00
      6.552  0.3204E-01  0.6544E+00
      6.661  0.4118E-01  0.6589E+00
      6.770  0.4814E-01  0.6642E+00
      6.879  0.4505E-01  0.6691E+00
      6.988  0.1543E-01  0.6708E+00
      7.097  0.2375E-01  0.6734E+00
      7.206  0.5372E-01  0.6792E+00
      7.315  0.3882E-01  0.6835E+00
      7.424  0.5704E-01  0.6897E+00
      7.533  0.2427E-01  0.6923E+00
      7.642  0.1597E-01  0.6941E+00
      7.751  0.1040E-02  0.6942E+00
      7.860  0.6195E-02  0.6948E+00
      7.969  0.7261E-02  0.6956E+00
      8.078  0.1159E-03  0.6957E+00
      8.187  0.1024E-08  0.6957E+00
      8.296  0.1006E-17  0.6957E+00
      8.405  0.0000E+00  0.6957E+00
      8.514  0.0000E+00  0.6957E+00
      8.623  0.0000E+00  0.6957E+00
      8.732  0.0000E+00  0.6957E+00
      8.841  0.0000E+00  0.6957E+00
      8.950  0.0000E+00  0.6957E+00
      9.059  0.0000E+00  0.6957E+00
      9.168  0.0000E+00  0.6957E+00
      9.277  0.0000E+00  0.6957E+00
      9.386  0.0000E+00  0.6957E+00
