  18  18   0   0
  0.2116172E+02  0.5974615E-09  0.8666352E-09  0.8666352E-09  0.1500000E-16
   1.0000000000000000E-004
  CAR 
 unknown system                          
     10.75928306    -23.38501143  301      1.89599328      1.00000000
    -23.385  0.0000E+00  0.0000E+00
    -23.271  0.0000E+00  0.0000E+00
    -23.157  0.0000E+00  0.0000E+00
    -23.044  0.0000E+00  0.0000E+00
    -22.930  0.0000E+00  0.0000E+00
    -22.816  0.0000E+00  0.0000E+00
    -22.702  0.0000E+00  0.0000E+00
    -22.588  0.0000E+00  0.0000E+00
    -22.474  0.0000E+00  0.0000E+00
    -22.361  0.0000E+00  0.0000E+00
    -22.247  0.0000E+00  0.0000E+00
    -22.133  0.0000E+00  0.0000E+00
    -22.019  0.5853E-08  0.6662E-09
    -21.905  0.3046E-02  0.3467E-03
    -21.792  0.4467E+00  0.5119E-01
    -21.678  0.3825E+00  0.9472E-01
    -21.564  0.1232E-02  0.9486E-01
    -21.450  0.6557E-09  0.9486E-01
    -21.336  0.0000E+00  0.9486E-01
    -21.223  0.0000E+00  0.9486E-01
    -21.109  0.0000E+00  0.9486E-01
    -20.995  0.0000E+00  0.9486E-01
    -20.881  0.0000E+00  0.9486E-01
    -20.767  0.0000E+00  0.9486E-01
    -20.653  0.0000E+00  0.9486E-01
    -20.540  0.0000E+00  0.9486E-01
    -20.426  0.0000E+00  0.9486E-01
    -20.312  0.0000E+00  0.9486E-01
    -20.198  0.0000E+00  0.9486E-01
    -20.084  0.0000E+00  0.9486E-01
    -19.971  0.0000E+00  0.9486E-01
    -19.857  0.0000E+00  0.9486E-01
    -19.743  0.0000E+00  0.9486E-01
    -19.629  0.0000E+00  0.9486E-01
    -19.515  0.0000E+00  0.9486E-01
    -19.402  0.0000E+00  0.9486E-01
    -19.288  0.0000E+00  0.9486E-01
    -19.174  0.0000E+00  0.9486E-01
    -19.060  0.0000E+00  0.9486E-01
    -18.946  0.0000E+00  0.9486E-01
    -18.832  0.0000E+00  0.9486E-01
    -18.719  0.0000E+00  0.9486E-01
    -18.605  0.0000E+00  0.9486E-01
    -18.491  0.0000E+00  0.9486E-01
    -18.377  0.0000E+00  0.9486E-01
    -18.263  0.0000E+00  0.9486E-01
    -18.150  0.0000E+00  0.9486E-01
    -18.036  0.0000E+00  0.9486E-01
    -17.922  0.0000E+00  0.9486E-01
    -17.808  0.0000E+00  0.9486E-01
    -17.694  0.0000E+00  0.9486E-01
    -17.580  0.0000E+00  0.9486E-01
    -17.467  0.0000E+00  0.9486E-01
    -17.353  0.0000E+00  0.9486E-01
    -17.239  0.0000E+00  0.9486E-01
    -17.125  0.0000E+00  0.9486E-01
    -17.011  0.0000E+00  0.9486E-01
    -16.898  0.0000E+00  0.9486E-01
    -16.784  0.0000E+00  0.9486E-01
    -16.670  0.0000E+00  0.9486E-01
    -16.556  0.0000E+00  0.9486E-01
    -16.442  0.0000E+00  0.9486E-01
    -16.329  0.0000E+00  0.9486E-01
    -16.215  0.0000E+00  0.9486E-01
    -16.101  0.0000E+00  0.9486E-01
    -15.987  0.0000E+00  0.9486E-01
    -15.873  0.0000E+00  0.9486E-01
    -15.759  0.0000E+00  0.9486E-01
    -15.646  0.0000E+00  0.9486E-01
    -15.532  0.0000E+00  0.9486E-01
    -15.418  0.0000E+00  0.9486E-01
    -15.304  0.0000E+00  0.9486E-01
    -15.190  0.0000E+00  0.9486E-01
    -15.077  0.0000E+00  0.9486E-01
    -14.963  0.0000E+00  0.9486E-01
    -14.849  0.0000E+00  0.9486E-01
    -14.735  0.0000E+00  0.9486E-01
    -14.621  0.0000E+00  0.9486E-01
    -14.507  0.0000E+00  0.9486E-01
    -14.394  0.0000E+00  0.9486E-01
    -14.280  0.0000E+00  0.9486E-01
    -14.166  0.0000E+00  0.9486E-01
    -14.052  0.0000E+00  0.9486E-01
    -13.938  0.0000E+00  0.9486E-01
    -13.825  0.0000E+00  0.9486E-01
    -13.711  0.0000E+00  0.9486E-01
    -13.597  0.0000E+00  0.9486E-01
    -13.483  0.0000E+00  0.9486E-01
    -13.369  0.0000E+00  0.9486E-01
    -13.256  0.0000E+00  0.9486E-01
    -13.142  0.0000E+00  0.9486E-01
    -13.028  0.0000E+00  0.9486E-01
    -12.914  0.0000E+00  0.9486E-01
    -12.800  0.0000E+00  0.9486E-01
    -12.686  0.0000E+00  0.9486E-01
    -12.573  0.0000E+00  0.9486E-01
    -12.459  0.0000E+00  0.9486E-01
    -12.345  0.0000E+00  0.9486E-01
    -12.231  0.0000E+00  0.9486E-01
    -12.117  0.0000E+00  0.9486E-01
    -12.004  0.0000E+00  0.9486E-01
    -11.890  0.0000E+00  0.9486E-01
    -11.776  0.0000E+00  0.9486E-01
    -11.662  0.0000E+00  0.9486E-01
    -11.548  0.0000E+00  0.9486E-01
    -11.435  0.0000E+00  0.9486E-01
    -11.321  0.0000E+00  0.9486E-01
    -11.207  0.5528E-15  0.9486E-01
    -11.093  0.9075E-07  0.9486E-01
    -10.979  0.8245E-03  0.9496E-01
    -10.865  0.4402E-02  0.9546E-01
    -10.752  0.1911E-01  0.9763E-01
    -10.638  0.3415E-01  0.1015E+00
    -10.524  0.2133E-01  0.1039E+00
    -10.410  0.3202E-01  0.1076E+00
    -10.296  0.2839E-01  0.1108E+00
    -10.183  0.3517E-01  0.1148E+00
    -10.069  0.3689E-01  0.1190E+00
     -9.955  0.1170E+00  0.1323E+00
     -9.841  0.1366E+00  0.1479E+00
     -9.727  0.7633E-01  0.1566E+00
     -9.613  0.1301E-01  0.1581E+00
     -9.500  0.4287E-03  0.1581E+00
     -9.386  0.1086E-07  0.1581E+00
     -9.272  0.1542E-16  0.1581E+00
     -9.158  0.0000E+00  0.1581E+00
     -9.044  0.0000E+00  0.1581E+00
     -8.931  0.0000E+00  0.1581E+00
     -8.817  0.0000E+00  0.1581E+00
     -8.703  0.0000E+00  0.1581E+00
     -8.589  0.0000E+00  0.1581E+00
     -8.475  0.0000E+00  0.1581E+00
     -8.362  0.0000E+00  0.1581E+00
     -8.248  0.0000E+00  0.1581E+00
     -8.134  0.0000E+00  0.1581E+00
     -8.020  0.0000E+00  0.1581E+00
     -7.906  0.0000E+00  0.1581E+00
     -7.792  0.0000E+00  0.1581E+00
     -7.679  0.0000E+00  0.1581E+00
     -7.565  0.0000E+00  0.1581E+00
     -7.451  0.0000E+00  0.1581E+00
     -7.337  0.0000E+00  0.1581E+00
     -7.223  0.0000E+00  0.1581E+00
     -7.110  0.0000E+00  0.1581E+00
     -6.996  0.0000E+00  0.1581E+00
     -6.882  0.0000E+00  0.1581E+00
     -6.768  0.0000E+00  0.1581E+00
     -6.654  0.0000E+00  0.1581E+00
     -6.540  0.0000E+00  0.1581E+00
     -6.427  0.0000E+00  0.1581E+00
     -6.313  0.0000E+00  0.1581E+00
     -6.199  0.0000E+00  0.1581E+00
     -6.085  0.0000E+00  0.1581E+00
     -5.971  0.0000E+00  0.1581E+00
     -5.858  0.0000E+00  0.1581E+00
     -5.744  0.0000E+00  0.1581E+00
     -5.630  0.0000E+00  0.1581E+00
     -5.516  0.0000E+00  0.1581E+00
     -5.402  0.0000E+00  0.1581E+00
     -5.289  0.0000E+00  0.1581E+00
     -5.175  0.0000E+00  0.1581E+00
     -5.061  0.0000E+00  0.1581E+00
     -4.947  0.4216E-09  0.1581E+00
     -4.833  0.1302E-03  0.1581E+00
     -4.719  0.2405E-01  0.1609E+00
     -4.606  0.2181E+00  0.1857E+00
     -4.492  0.2842E+00  0.2180E+00
     -4.378  0.2811E+00  0.2500E+00
     -4.264  0.3725E+00  0.2924E+00
     -4.150  0.4675E+00  0.3456E+00
     -4.037  0.3078E+00  0.3807E+00
     -3.923  0.1172E+00  0.3940E+00
     -3.809  0.1111E-01  0.3953E+00
     -3.695  0.1995E-05  0.3953E+00
     -3.581  0.2861E-13  0.3953E+00
     -3.468  0.0000E+00  0.3953E+00
     -3.354  0.0000E+00  0.3953E+00
     -3.240  0.0000E+00  0.3953E+00
     -3.126  0.0000E+00  0.3953E+00
     -3.012  0.5410E-12  0.3953E+00
     -2.898  0.5946E-05  0.3953E+00
     -2.785  0.1009E-01  0.3964E+00
     -2.671  0.6770E-01  0.4041E+00
     -2.557  0.5205E-01  0.4100E+00
     -2.443  0.4927E-01  0.4156E+00
     -2.329  0.3074E-01  0.4191E+00
     -2.216  0.2766E-01  0.4223E+00
     -2.102  0.6131E-01  0.4293E+00
     -1.988  0.4849E-01  0.4348E+00
     -1.874  0.2743E-01  0.4379E+00
     -1.760  0.2359E-01  0.4406E+00
     -1.646  0.2230E-01  0.4431E+00
     -1.533  0.1323E-01  0.4446E+00
     -1.419  0.1787E-01  0.4467E+00
     -1.305  0.3098E-01  0.4502E+00
     -1.191  0.1081E-01  0.4514E+00
     -1.077  0.3121E-01  0.4550E+00
     -0.964  0.7241E-02  0.4558E+00
     -0.850  0.4006E-01  0.4604E+00
     -0.736  0.2246E-01  0.4629E+00
     -0.622  0.3053E-01  0.4664E+00
     -0.508  0.6527E-01  0.4738E+00
     -0.395  0.3362E-01  0.4777E+00
     -0.281  0.5611E-01  0.4840E+00
     -0.167  0.4975E-01  0.4897E+00
     -0.053  0.5987E-01  0.4965E+00
      0.061  0.5188E-01  0.5024E+00
      0.175  0.5036E-01  0.5081E+00
      0.288  0.3126E-01  0.5117E+00
      0.402  0.5701E-01  0.5182E+00
      0.516  0.8391E-01  0.5277E+00
      0.630  0.9162E-01  0.5382E+00
      0.744  0.4866E-01  0.5437E+00
      0.857  0.5804E-01  0.5503E+00
      0.971  0.6067E-01  0.5572E+00
      1.085  0.4471E-01  0.5623E+00
      1.199  0.5498E-01  0.5686E+00
      1.313  0.8306E-01  0.5780E+00
      1.427  0.2863E-01  0.5813E+00
      1.540  0.2755E-01  0.5844E+00
      1.654  0.4056E-02  0.5849E+00
      1.768  0.8995E-03  0.5850E+00
      1.882  0.1184E-06  0.5850E+00
      1.996  0.8757E-15  0.5850E+00
      2.109  0.0000E+00  0.5850E+00
      2.223  0.0000E+00  0.5850E+00
      2.337  0.0000E+00  0.5850E+00
      2.451  0.0000E+00  0.5850E+00
      2.565  0.0000E+00  0.5850E+00
      2.678  0.0000E+00  0.5850E+00
      2.792  0.0000E+00  0.5850E+00
      2.906  0.0000E+00  0.5850E+00
      3.020  0.0000E+00  0.5850E+00
      3.134  0.0000E+00  0.5850E+00
      3.248  0.0000E+00  0.5850E+00
      3.361  0.9639E-18  0.5850E+00
      3.475  0.2042E-08  0.5850E+00
      3.589  0.1999E-03  0.5850E+00
      3.703  0.3870E-02  0.5854E+00
      3.817  0.2710E-03  0.5855E+00
      3.930  0.4333E-08  0.5855E+00
      4.044  0.3374E-17  0.5855E+00
      4.158  0.0000E+00  0.5855E+00
      4.272  0.0000E+00  0.5855E+00
      4.386  0.0000E+00  0.5855E+00
      4.499  0.1945E-09  0.5855E+00
      4.613  0.1093E-03  0.5855E+00
      4.727  0.9754E-02  0.5866E+00
      4.841  0.2001E-01  0.5889E+00
      4.955  0.3383E-01  0.5927E+00
      5.069  0.3445E-01  0.5966E+00
      5.182  0.1214E-01  0.5980E+00
      5.296  0.4719E-01  0.6034E+00
      5.410  0.2625E-01  0.6064E+00
      5.524  0.2669E-01  0.6094E+00
      5.638  0.4930E-01  0.6150E+00
      5.751  0.4174E-01  0.6198E+00
      5.865  0.3844E-01  0.6242E+00
      5.979  0.4498E-01  0.6293E+00
      6.093  0.4120E-01  0.6340E+00
      6.207  0.3082E-01  0.6375E+00
      6.321  0.4776E-01  0.6429E+00
      6.434  0.6743E-01  0.6506E+00
      6.548  0.3234E-01  0.6543E+00
      6.662  0.4136E-01  0.6590E+00
      6.776  0.4838E-01  0.6645E+00
      6.890  0.4400E-01  0.6695E+00
      7.003  0.1369E-01  0.6710E+00
      7.117  0.2485E-01  0.6739E+00
      7.231  0.5861E-01  0.6805E+00
      7.345  0.3658E-01  0.6847E+00
      7.459  0.5547E-01  0.6910E+00
      7.572  0.4059E-01  0.6956E+00
      7.686  0.4299E-01  0.7005E+00
      7.800  0.3149E-01  0.7041E+00
      7.914  0.2838E-01  0.7073E+00
      8.028  0.2492E-01  0.7102E+00
      8.142  0.4760E-01  0.7156E+00
      8.255  0.3248E-01  0.7193E+00
      8.369  0.6564E-01  0.7268E+00
      8.483  0.3029E-01  0.7302E+00
      8.597  0.1560E-01  0.7320E+00
      8.711  0.3824E-01  0.7363E+00
      8.824  0.5757E-01  0.7429E+00
      8.938  0.5199E-01  0.7488E+00
      9.052  0.6033E-01  0.7557E+00
      9.166  0.2054E-01  0.7580E+00
      9.280  0.7496E-02  0.7589E+00
      9.394  0.1758E-03  0.7589E+00
      9.507  0.5997E-09  0.7589E+00
      9.621  0.0000E+00  0.7589E+00
      9.735  0.0000E+00  0.7589E+00
      9.849  0.0000E+00  0.7589E+00
      9.963  0.0000E+00  0.7589E+00
     10.076  0.0000E+00  0.7589E+00
     10.190  0.0000E+00  0.7589E+00
     10.304  0.0000E+00  0.7589E+00
     10.418  0.0000E+00  0.7589E+00
     10.532  0.0000E+00  0.7589E+00
     10.645  0.0000E+00  0.7589E+00
     10.759  0.0000E+00  0.7589E+00
