       N       E                     dE             d eps       ncg     rms          rms(c)
DAV:   1     0.997721682366E+03    0.99772E+03   -0.62797E+04  1536   0.150E+03
DAV:   2     0.253458635481E+02   -0.97238E+03   -0.95305E+03  1664   0.354E+02
DAV:   3    -0.625098991239E+02   -0.87856E+02   -0.87509E+02  2016   0.112E+02
DAV:   4    -0.642609493447E+02   -0.17511E+01   -0.17504E+01  1824   0.170E+01
DAV:   5    -0.643063792003E+02   -0.45430E-01   -0.45426E-01  2016   0.254E+00    0.182E+01
DAV:   6    -0.600008806859E+02    0.43055E+01   -0.10211E+01  2368   0.435E+01    0.150E+01
DAV:   7    -0.599391901206E+02    0.61691E-01   -0.57524E+00  1984   0.759E+00    0.735E+00
DAV:   8    -0.599218694604E+02    0.17321E-01   -0.16139E-01  2144   0.240E+00    0.195E+00
DAV:   9    -0.599243050957E+02   -0.24356E-02   -0.33011E-02  2048   0.218E+00    0.445E-01
DAV:  10    -0.599251665041E+02   -0.86141E-03   -0.50746E-03  1920   0.712E-01    0.272E-01
DAV:  11    -0.599264114678E+02   -0.12450E-02   -0.25735E-03  1952   0.217E-01    0.199E-01
DAV:  12    -0.599264616815E+02   -0.50214E-04   -0.42078E-04  1952   0.234E-01    0.380E-02
DAV:  13    -0.599264649736E+02   -0.32921E-05   -0.36314E-05  2112   0.431E-02    0.345E-02
DAV:  14    -0.599264756443E+02   -0.10671E-04   -0.30407E-05  1888   0.259E-02    0.182E-02
DAV:  15    -0.599264753846E+02    0.25965E-06   -0.20397E-06  1760   0.137E-02
   1 F= -.59926475E+02 E0= -.59926475E+02  d E =-.164475E-15
 Found    10 degrees of freedom:
 Adding 6 more for cell shape distortion
       N       E                     dE             d eps       ncg     rms          rms(c)
DAV:   1    -0.613481647380E+02   -0.14217E+01   -0.34484E+01  2240   0.397E+01    0.915E+00
DAV:   2    -0.601565314584E+02    0.11916E+01   -0.52109E+00  2464   0.197E+01    0.416E+00
DAV:   3    -0.599107203992E+02    0.24581E+00   -0.38271E-01  2496   0.279E+00    0.201E+00
DAV:   4    -0.598446933683E+02    0.66027E-01   -0.67641E-02  2528   0.163E+00    0.742E-01
DAV:   5    -0.598406322830E+02    0.40611E-02   -0.22465E-02  2496   0.947E-01    0.233E-01
DAV:   6    -0.598408122191E+02   -0.17994E-03   -0.37355E-03  2464   0.594E-01    0.100E-01
DAV:   7    -0.598408446433E+02   -0.32424E-04   -0.52511E-04  2464   0.275E-01    0.538E-02
DAV:   8    -0.598408704080E+02   -0.25765E-04   -0.13756E-04  2400   0.586E-02    0.125E-02
DAV:   9    -0.598408721204E+02   -0.17124E-05   -0.21758E-05  2496   0.376E-02    0.787E-03
DAV:  10    -0.598408726761E+02   -0.55568E-06   -0.33071E-06  2432   0.132E-02
   2 F= -.59840873E+02 E0= -.59840873E+02  d E =-.185666E-15
       N       E                     dE             d eps       ncg     rms          rms(c)
DAV:   1    -0.602723842662E+02   -0.43151E+00   -0.10453E+01  2272   0.194E+01    0.462E+00
DAV:   2    -0.599783690944E+02    0.29402E+00   -0.14236E+00  2432   0.117E+01    0.207E+00
DAV:   3    -0.599205383075E+02    0.57831E-01   -0.10441E-01  2496   0.175E+00    0.975E-01
DAV:   4    -0.599062814454E+02    0.14257E-01   -0.19819E-02  2560   0.728E-01    0.468E-01
DAV:   5    -0.599048113108E+02    0.14701E-02   -0.47690E-03  2592   0.401E-01    0.126E-01
DAV:   6    -0.599048826656E+02   -0.71355E-04   -0.14923E-03  2464   0.243E-01    0.544E-02
DAV:   7    -0.599048784808E+02    0.41847E-05   -0.12404E-04  2528   0.159E-01    0.248E-02
DAV:   8    -0.599048793759E+02   -0.89506E-06   -0.26009E-05  2496   0.567E-02    0.830E-03
DAV:   9    -0.599048793570E+02    0.18950E-07   -0.59333E-06  2464   0.158E-02
   3 F= -.59904879E+02 E0= -.59904879E+02  d E =-.153010E-10
       N       E                     dE             d eps       ncg     rms          rms(c)
DAV:   1    -0.614605313827E+02   -0.15557E+01   -0.32744E+01  2272   0.370E+01    0.954E+00
DAV:   2    -0.602070587598E+02    0.12535E+01   -0.57096E+00  2432   0.261E+01    0.429E+00
DAV:   3    -0.599670658583E+02    0.23999E+00   -0.45565E-01  2432   0.403E+00    0.202E+00
DAV:   4    -0.599082815981E+02    0.58784E-01   -0.92070E-02  2592   0.153E+00    0.112E+00
DAV:   5    -0.599008366229E+02    0.74450E-02   -0.19351E-02  2752   0.917E-01    0.310E-01
DAV:   6    -0.599008342302E+02    0.23927E-05   -0.78870E-03  2432   0.551E-01    0.112E-01
DAV:   7    -0.599008133110E+02    0.20919E-04   -0.65916E-04  2528   0.298E-01    0.545E-02
DAV:   8    -0.599008220561E+02   -0.87451E-05   -0.13714E-04  2464   0.138E-01    0.167E-02
DAV:   9    -0.599008225288E+02   -0.47271E-06   -0.27290E-05  2560   0.383E-02    0.518E-03
DAV:  10    -0.599008224869E+02    0.41926E-07   -0.39643E-06  2368   0.171E-02
   4 F= -.59900822E+02 E0= -.59900822E+02  d E =-.322564E-17
       N       E                     dE             d eps       ncg     rms          rms(c)
DAV:   1    -0.602193082821E+02   -0.31849E+00   -0.11626E+01  2336   0.204E+01    0.487E+00
DAV:   2    -0.599045273543E+02    0.31478E+00   -0.15979E+00  2496   0.128E+01    0.220E+00
DAV:   3    -0.598411436827E+02    0.63384E-01   -0.10883E-01  2496   0.193E+00    0.104E+00
DAV:   4    -0.598246807756E+02    0.16463E-01   -0.23684E-02  2560   0.789E-01    0.510E-01
DAV:   5    -0.598230629938E+02    0.16178E-02   -0.52375E-03  2656   0.453E-01    0.154E-01
DAV:   6    -0.598231093331E+02   -0.46339E-04   -0.18392E-03  2464   0.287E-01    0.573E-02
DAV:   7    -0.598231046234E+02    0.47097E-05   -0.15722E-04  2496   0.179E-01    0.289E-02
DAV:   8    -0.598231053565E+02   -0.73311E-06   -0.33397E-05  2464   0.586E-02    0.974E-03
DAV:   9    -0.598231052450E+02    0.11149E-06   -0.79067E-06  2464   0.176E-02
   5 F= -.59823105E+02 E0= -.59823105E+02  d E =-.415147E-18
       N       E                     dE             d eps       ncg     rms          rms(c)
DAV:   1    -0.646044531519E+02   -0.47813E+01   -0.97462E+01  2400   0.789E+01    0.164E+01
DAV:   2    -0.606266570405E+02    0.39778E+01   -0.15505E+01  2272   0.339E+01    0.704E+00
DAV:   3    -0.600078875015E+02    0.61877E+00   -0.12666E+00  2336   0.478E+00    0.349E+00
DAV:   4    -0.598426378155E+02    0.16525E+00   -0.12997E-01  2560   0.250E+00    0.132E+00
DAV:   5    -0.598218127041E+02    0.20825E-01   -0.26393E-02  2432   0.197E+00    0.368E-01
DAV:   6    -0.598222817739E+02   -0.46907E-03   -0.12707E-02  2528   0.859E-01    0.157E-01
DAV:   7    -0.598224214813E+02   -0.13971E-03   -0.15257E-03  2400   0.260E-01    0.101E-01
DAV:   8    -0.598224759759E+02   -0.54495E-04   -0.27826E-04  2464   0.173E-01    0.329E-02
DAV:   9    -0.598224626289E+02    0.13347E-04   -0.63206E-05  2400   0.130E-01    0.734E-03
DAV:  10    -0.598224651618E+02   -0.25329E-05   -0.17374E-05  2848   0.182E-02    0.528E-03
DAV:  11    -0.598224653077E+02   -0.14590E-06   -0.14478E-06  1984   0.153E-02
   6 F= -.59822465E+02 E0= -.59822465E+02  d E =-.155296E-17
       N       E                     dE             d eps       ncg     rms          rms(c)
DAV:   1    -0.602512402557E+02   -0.42878E+00   -0.10187E+01  2400   0.193E+01    0.461E+00
DAV:   2    -0.599715583582E+02    0.27968E+00   -0.13743E+00  2464   0.115E+01    0.210E+00
DAV:   3    -0.599146072328E+02    0.56951E-01   -0.10223E-01  2464   0.200E+00    0.982E-01
DAV:   4    -0.599007436214E+02    0.13864E-01   -0.19941E-02  2528   0.960E-01    0.478E-01
DAV:   5    -0.598992056295E+02    0.15380E-02   -0.42562E-03  2464   0.447E-01    0.151E-01
DAV:   6    -0.598992305189E+02   -0.24889E-04   -0.14527E-03  2496   0.280E-01    0.562E-02
DAV:   7    -0.598992311986E+02   -0.67969E-06   -0.14420E-04  2464   0.145E-01    0.356E-02
DAV:   8    -0.598992312790E+02   -0.80390E-07   -0.34856E-05  2464   0.579E-02    0.860E-03
DAV:   9    -0.598992315976E+02   -0.31868E-06   -0.91953E-06  2464   0.252E-02
   7 F= -.59899232E+02 E0= -.59899232E+02  d E =-.705137E-12
       N       E                     dE             d eps       ncg     rms          rms(c)
DAV:   1    -0.613973535565E+02   -0.14981E+01   -0.31752E+01  2400   0.369E+01    0.954E+00
DAV:   2    -0.602026681921E+02    0.11947E+01   -0.54950E+00  2432   0.257E+01    0.437E+00
DAV:   3    -0.599646892104E+02    0.23798E+00   -0.44096E-01  2400   0.436E+00    0.203E+00
DAV:   4    -0.599072414982E+02    0.57448E-01   -0.94496E-02  2528   0.194E+00    0.114E+00
DAV:   5    -0.598996844577E+02    0.75570E-02   -0.17100E-02  2688   0.113E+00    0.386E-01
DAV:   6    -0.598992698212E+02    0.41464E-03   -0.72705E-03  2496   0.695E-01    0.111E-01
DAV:   7    -0.598993046801E+02   -0.34859E-04   -0.94004E-04  2496   0.320E-01    0.758E-02
DAV:   8    -0.598993082437E+02   -0.35636E-05   -0.16083E-04  2528   0.114E-01    0.168E-02
DAV:   9    -0.598993101178E+02   -0.18741E-05   -0.32373E-05  2496   0.523E-02    0.609E-03
DAV:  10    -0.598993102519E+02   -0.13409E-06   -0.48199E-06  2432   0.206E-02
   8 F= -.59899310E+02 E0= -.59899310E+02  d E =-.913125E-16
       N       E                     dE             d eps       ncg     rms          rms(c)
DAV:   1    -0.601924930415E+02   -0.29318E+00   -0.11407E+01  2432   0.204E+01    0.487E+00
DAV:   2    -0.598920346832E+02    0.30046E+00   -0.15458E+00  2432   0.126E+01    0.224E+00
DAV:   3    -0.598291699922E+02    0.62865E-01   -0.10696E-01  2464   0.214E+00    0.105E+00
DAV:   4    -0.598128713550E+02    0.16299E-01   -0.23830E-02  2496   0.100E+00    0.519E-01
DAV:   5    -0.598111859173E+02    0.16854E-02   -0.46893E-03  2560   0.498E-01    0.181E-01
DAV:   6    -0.598111660905E+02    0.19827E-04   -0.17783E-03  2496   0.316E-01    0.606E-02
DAV:   7    -0.598111670847E+02   -0.99424E-06   -0.18422E-04  2464   0.171E-01    0.377E-02
DAV:   8    -0.598111671488E+02   -0.64048E-07   -0.40996E-05  2496   0.601E-02    0.100E-02
DAV:   9    -0.598111673287E+02   -0.17988E-06   -0.10734E-05  2400   0.247E-02    0.376E-03
DAV:  10    -0.598111671902E+02    0.13852E-06   -0.96174E-07  1728   0.774E-03
   9 F= -.59811167E+02 E0= -.59811167E+02  d E =-.105581E-14
       N       E                     dE             d eps       ncg     rms          rms(c)
DAV:   1    -0.646527633346E+02   -0.48416E+01   -0.93225E+01  1856   0.805E+01    0.162E+01
DAV:   2    -0.606865247744E+02    0.39662E+01   -0.15616E+01  1888   0.351E+01    0.721E+00
DAV:   3    -0.600524727701E+02    0.63405E+00   -0.12322E+00  1920   0.498E+00    0.357E+00
DAV:   4    -0.598525494552E+02    0.19992E+00   -0.15726E-01  1952   0.272E+00    0.127E+00
DAV:   5    -0.598310838383E+02    0.21466E-01   -0.35367E-02  2016   0.243E+00    0.388E-01
DAV:   6    -0.598315897985E+02   -0.50596E-03   -0.16719E-02  2016   0.102E+00    0.142E-01
DAV:   7    -0.598317071352E+02   -0.11734E-03   -0.22542E-03  2016   0.233E-01    0.973E-02
DAV:   8    -0.598317236448E+02   -0.16510E-04   -0.27648E-04  1856   0.107E-01    0.187E-02
DAV:   9    -0.598317203875E+02    0.32573E-05   -0.66227E-05  1984   0.721E-02    0.717E-03
DAV:  10    -0.598317244474E+02   -0.40599E-05   -0.12519E-05  1888   0.231E-02    0.362E-03
DAV:  11    -0.598317259488E+02   -0.15013E-05   -0.42732E-06  1920   0.170E-02    0.199E-03
DAV:  12    -0.598317264488E+02   -0.49998E-06   -0.73338E-07  1184   0.106E-02
  10 F= -.59831726E+02 E0= -.59831726E+02  d E =-.118139E-16
       N       E                     dE             d eps       ncg     rms          rms(c)
DAV:   1    -0.602628788146E+02   -0.43115E+00   -0.78757E+00  1824   0.189E+01    0.456E+00
DAV:   2    -0.599732030485E+02    0.28968E+00   -0.14000E+00  2016   0.123E+01    0.213E+00
DAV:   3    -0.599209825176E+02    0.52221E-01   -0.94240E-02  1920   0.162E+00    0.100E+00
DAV:   4    -0.599050326338E+02    0.15950E-01   -0.16725E-02  2080   0.695E-01    0.443E-01
DAV:   5    -0.599037620839E+02    0.12705E-02   -0.38947E-03  2016   0.630E-01    0.818E-02
DAV:   6    -0.599038489561E+02   -0.86872E-04   -0.16937E-03  2048   0.328E-01    0.407E-02
DAV:   7    -0.599038408543E+02    0.81018E-05   -0.17916E-04  1856   0.111E-01    0.255E-02
DAV:   8    -0.599038402697E+02    0.58466E-06   -0.26011E-05  2016   0.509E-02    0.135E-02
DAV:   9    -0.599038412514E+02   -0.98169E-06   -0.46091E-06  1888   0.156E-02
  11 F= -.59903841E+02 E0= -.59903841E+02  d E =-.478497E-11
       N       E                     dE             d eps       ncg     rms          rms(c)
DAV:   1    -0.614062262758E+02   -0.15024E+01   -0.32657E+01  1792   0.382E+01    0.944E+00
DAV:   2    -0.601798766834E+02    0.12263E+01   -0.61075E+00  2048   0.283E+01    0.439E+00
DAV:   3    -0.599700635896E+02    0.20981E+00   -0.46528E-01  1856   0.399E+00    0.206E+00
DAV:   4    -0.599037728652E+02    0.66291E-01   -0.82892E-02  2080   0.157E+00    0.984E-01
DAV:   5    -0.598976310059E+02    0.61419E-02   -0.16936E-02  2080   0.145E+00    0.195E-01
DAV:   6    -0.598979424410E+02   -0.31144E-03   -0.73272E-03  2016   0.689E-01    0.826E-02
DAV:   7    -0.598979011539E+02    0.41287E-04   -0.84643E-04  1856   0.224E-01    0.535E-02
DAV:   8    -0.598978991588E+02    0.19950E-05   -0.13669E-04  2272   0.109E-01    0.335E-02
DAV:   9    -0.598979021037E+02   -0.29449E-05   -0.18829E-05  1760   0.402E-02    0.578E-03
DAV:  10    -0.598979025563E+02   -0.45258E-06   -0.29396E-06  1952   0.122E-02
  12 F= -.59897903E+02 E0= -.59897903E+02  d E =-.920737E-18
       N       E                     dE             d eps       ncg     rms          rms(c)
DAV:   1    -0.602092142628E+02   -0.31131E+00   -0.86153E+00  1792   0.202E+01    0.480E+00
DAV:   2    -0.598897223587E+02    0.31949E+00   -0.15712E+00  2016   0.136E+01    0.225E+00
DAV:   3    -0.598335572335E+02    0.56165E-01   -0.10663E-01  1888   0.180E+00    0.106E+00
DAV:   4    -0.598156681689E+02    0.17889E-01   -0.20465E-02  2080   0.768E-01    0.463E-01
DAV:   5    -0.598143647719E+02    0.13034E-02   -0.45479E-03  2080   0.752E-01    0.981E-02
DAV:   6    -0.598144469293E+02   -0.82157E-04   -0.19160E-03  1984   0.365E-01    0.414E-02
DAV:   7    -0.598144347222E+02    0.12207E-04   -0.23361E-04  1856   0.123E-01    0.270E-02
DAV:   8    -0.598144338958E+02    0.82641E-06   -0.38237E-05  2240   0.556E-02    0.171E-02
DAV:   9    -0.598144346954E+02   -0.79962E-06   -0.49252E-06  1856   0.208E-02
  13 F= -.59814435E+02 E0= -.59814435E+02  d E =-.386778E-14
       N       E                     dE             d eps       ncg     rms          rms(c)
DAV:   1    -0.617381079800E+02   -0.19237E+01   -0.46604E+01  2240   0.454E+01    0.103E+01
DAV:   2    -0.603186432663E+02    0.14195E+01   -0.69583E+00  2464   0.232E+01    0.503E+00
DAV:   3    -0.600104762148E+02    0.30817E+00   -0.50116E-01  2464   0.350E+00    0.253E+00
DAV:   4    -0.599073692436E+02    0.10311E+00   -0.10060E-01  2560   0.236E+00    0.708E-01
DAV:   5    -0.599050470790E+02    0.23222E-02   -0.26761E-02  2368   0.147E+00    0.278E-01
DAV:   6    -0.599053219104E+02   -0.27483E-03   -0.62783E-03  2560   0.598E-01    0.883E-02
DAV:   7    -0.599053556978E+02   -0.33787E-04   -0.89845E-04  2336   0.259E-01    0.555E-02
DAV:   8    -0.599053679337E+02   -0.12236E-04   -0.12613E-04  2560   0.112E-01    0.223E-02
DAV:   9    -0.599053715247E+02   -0.35909E-05   -0.27415E-05  2400   0.622E-02    0.711E-03
DAV:  10    -0.599053720296E+02   -0.50496E-06   -0.56091E-06  2464   0.201E-02
  14 F= -.59905372E+02 E0= -.59905372E+02  d E =-.428944E-20
       N       E                     dE             d eps       ncg     rms          rms(c)
DAV:   1    -0.599912867513E+02   -0.85915E-01   -0.40163E+00  2144   0.770E+00    0.205E+00
DAV:   2    -0.599498047502E+02    0.41482E-01   -0.15594E-01  2528   0.377E+00    0.120E+00
DAV:   3    -0.599236269900E+02    0.26178E-01   -0.32711E-02  2464   0.254E+00    0.420E-01
DAV:   4    -0.599217484178E+02    0.18786E-02   -0.11694E-02  2720   0.120E+00    0.126E-01
DAV:   5    -0.599218719249E+02   -0.12351E-03   -0.24029E-03  2432   0.192E-01    0.916E-02
DAV:   6    -0.599218494409E+02    0.22484E-04   -0.21417E-04  2560   0.114E-01    0.329E-02
DAV:   7    -0.599218492314E+02    0.20955E-06   -0.74190E-05  2336   0.162E-01    0.204E-02
DAV:   8    -0.599218515056E+02   -0.22742E-05   -0.15507E-05  2848   0.179E-02    0.121E-02
DAV:   9    -0.599218508572E+02    0.64840E-06   -0.54509E-06  2304   0.458E-02
  15 F= -.59921851E+02 E0= -.59921851E+02  d E =-.106715E-12
       N       E                     dE             d eps       ncg     rms          rms(c)
DAV:   1    -0.602047708447E+02   -0.28292E+00   -0.11040E+01  2016   0.129E+01    0.411E+00
DAV:   2    -0.600317588408E+02    0.17301E+00   -0.54094E-01  2560   0.704E+00    0.241E+00
DAV:   3    -0.599263724929E+02    0.10539E+00   -0.12273E-01  2368   0.476E+00    0.862E-01
DAV:   4    -0.599181911074E+02    0.81814E-02   -0.46413E-02  2848   0.234E+00    0.242E-01
DAV:   5    -0.599187148789E+02   -0.52377E-03   -0.98269E-03  2368   0.399E-01    0.174E-01
DAV:   6    -0.599186219158E+02    0.92963E-04   -0.79790E-04  2528   0.201E-01    0.620E-02
DAV:   7    -0.599186279873E+02   -0.60715E-05   -0.26267E-04  2400   0.286E-01    0.423E-02
DAV:   8    -0.599186360687E+02   -0.80814E-05   -0.53438E-05  2656   0.314E-02    0.226E-02
DAV:   9    -0.599186340368E+02    0.20319E-05   -0.18172E-05  2368   0.840E-02    0.857E-03
DAV:  10    -0.599186345948E+02   -0.55805E-06   -0.34693E-06  2528   0.879E-03
  16 F= -.59918635E+02 E0= -.59918635E+02  d E =-.202017E-15
       N       E                     dE             d eps       ncg     rms          rms(c)
DAV:   1    -0.599671724553E+02   -0.48538E-01   -0.42996E+00  2144   0.762E+00    0.207E+00
DAV:   2    -0.599265220405E+02    0.40650E-01   -0.16062E-01  2496   0.374E+00    0.121E+00
DAV:   3    -0.599004170641E+02    0.26105E-01   -0.29723E-02  2400   0.247E+00    0.451E-01
DAV:   4    -0.598980177427E+02    0.23993E-02   -0.11750E-02  2752   0.115E+00    0.119E-01
DAV:   5    -0.598981521335E+02   -0.13439E-03   -0.24045E-03  2432   0.201E-01    0.876E-02
DAV:   6    -0.598981290306E+02    0.23103E-04   -0.18468E-04  2528   0.567E-02    0.289E-02
DAV:   7    -0.598981325087E+02   -0.34781E-05   -0.55685E-05  2336   0.114E-01    0.203E-02
DAV:   8    -0.598981337857E+02   -0.12770E-05   -0.82347E-06  2496   0.119E-02    0.948E-03
DAV:   9    -0.598981335248E+02    0.26090E-06   -0.60032E-07  1568   0.205E-02
  17 F= -.59898134E+02 E0= -.59898134E+02  d E =-.931415E-15
       N       E                     dE             d eps       ncg     rms          rms(c)
DAV:   1    -0.605128827447E+02   -0.61475E+00   -0.24636E+01  2496   0.190E+01    0.604E+00
DAV:   2    -0.601384949735E+02    0.37439E+00   -0.12631E+00  3072   0.974E+00    0.343E+00
DAV:   3    -0.599110583533E+02    0.22744E+00   -0.26145E-01  2880   0.623E+00    0.130E+00
DAV:   4    -0.598902459035E+02    0.20812E-01   -0.99935E-02  3136   0.306E+00    0.327E-01
DAV:   5    -0.598915265401E+02   -0.12806E-02   -0.22694E-02  2912   0.700E-01    0.237E-01
DAV:   6    -0.598914004855E+02    0.12605E-03   -0.15974E-03  3072   0.269E-01    0.899E-02
DAV:   7    -0.598914251679E+02   -0.24682E-04   -0.35409E-04  2944   0.252E-01    0.466E-02
DAV:   8    -0.598914380441E+02   -0.12876E-04   -0.72714E-05  3104   0.742E-02    0.217E-02
DAV:   9    -0.598914392372E+02   -0.11931E-05   -0.12520E-05  2944   0.378E-02    0.959E-03
DAV:  10    -0.598914400323E+02   -0.79505E-06   -0.52414E-06  3040   0.112E-02
  18 F= -.59891440E+02 E0= -.59891440E+02  d E =-.314013E-17
       N       E                     dE             d eps       ncg     rms          rms(c)
DAV:   1    -0.599963662069E+02   -0.10493E+00   -0.63914E+00  2592   0.915E+00    0.215E+00
DAV:   2    -0.599500022366E+02    0.46364E-01   -0.22867E-01  3040   0.376E+00    0.121E+00
DAV:   3    -0.599192267134E+02    0.30776E-01   -0.42696E-02  2944   0.231E+00    0.418E-01
DAV:   4    -0.599175724699E+02    0.16542E-02   -0.14059E-02  3136   0.114E+00    0.115E-01
DAV:   5    -0.599177389983E+02   -0.16653E-03   -0.29080E-03  2880   0.277E-01    0.905E-02
DAV:   6    -0.599177173479E+02    0.21650E-04   -0.30441E-04  3104   0.145E-01    0.286E-02
DAV:   7    -0.599177226084E+02   -0.52605E-05   -0.56483E-05  3136   0.916E-02    0.176E-02
DAV:   8    -0.599177240530E+02   -0.14446E-05   -0.97380E-06  3040   0.261E-02    0.107E-02
DAV:   9    -0.599177241134E+02   -0.60370E-07   -0.22734E-06  2656   0.129E-02
  19 F= -.59917724E+02 E0= -.59917724E+02  d E =-.111487E-15
       N       E                     dE             d eps       ncg     rms          rms(c)
DAV:   1    -0.602599445378E+02   -0.34222E+00   -0.11030E+01  2624   0.122E+01    0.435E+00
DAV:   2    -0.600511425801E+02    0.20880E+00   -0.61955E-01  3040   0.668E+00    0.243E+00
DAV:   3    -0.599266749255E+02    0.12447E+00   -0.13922E-01  2944   0.399E+00    0.900E-01
DAV:   4    -0.599172711013E+02    0.94038E-02   -0.52211E-02  3104   0.197E+00    0.217E-01
DAV:   5    -0.599178699348E+02   -0.59883E-03   -0.10877E-02  2880   0.573E-01    0.164E-01
DAV:   6    -0.599178184980E+02    0.51437E-04   -0.10695E-03  3072   0.268E-01    0.564E-02
DAV:   7    -0.599178355486E+02   -0.17051E-04   -0.18956E-04  3072   0.187E-01    0.321E-02
DAV:   8    -0.599178414861E+02   -0.59375E-05   -0.41940E-05  3040   0.633E-02    0.188E-02
DAV:   9    -0.599178417803E+02   -0.29429E-06   -0.94871E-06  2976   0.185E-02
  20 F= -.59917842E+02 E0= -.59917842E+02  d E =-.358578E-14
       N       E                     dE             d eps       ncg     rms          rms(c)
DAV:   1    -0.599673061519E+02   -0.49465E-01   -0.69650E+00  2496   0.894E+00    0.223E+00
DAV:   2    -0.599251518843E+02    0.42154E-01   -0.24896E-01  3072   0.384E+00    0.123E+00
DAV:   3    -0.598954608438E+02    0.29691E-01   -0.33540E-02  2944   0.207E+00    0.520E-01
DAV:   4    -0.598916361276E+02    0.38247E-02   -0.14101E-02  3232   0.101E+00    0.107E-01
DAV:   5    -0.598918302596E+02   -0.19413E-03   -0.31703E-03  2912   0.335E-01    0.826E-02
DAV:   6    -0.598918248773E+02    0.53823E-05   -0.29156E-04  3072   0.132E-01    0.326E-02
DAV:   7    -0.598918298608E+02   -0.49835E-05   -0.49742E-05  2880   0.101E-01    0.151E-02
DAV:   8    -0.598918312636E+02   -0.14028E-05   -0.12784E-05  3040   0.452E-02    0.854E-03
DAV:   9    -0.598918315695E+02   -0.30594E-06   -0.34809E-06  2848   0.741E-03
  21 F= -.59891832E+02 E0= -.59891832E+02  d E =-.368755E-14
       N       E                     dE             d eps       ncg     rms          rms(c)
DAV:   1    -0.605772730004E+02   -0.68544E+00   -0.21691E+01  2400   0.171E+01    0.584E+00
DAV:   2    -0.601588055484E+02    0.41847E+00   -0.10114E+00  3008   0.670E+00    0.342E+00
DAV:   3    -0.598994828809E+02    0.25932E+00   -0.25085E-01  2976   0.389E+00    0.907E-01
DAV:   4    -0.598948013521E+02    0.46815E-02   -0.87396E-02  3008   0.188E+00    0.351E-01
DAV:   5    -0.598956127426E+02   -0.81139E-03   -0.13681E-02  2944   0.700E-01    0.233E-01
DAV:   6    -0.598954572753E+02    0.15547E-03   -0.18729E-03  3072   0.626E-01    0.785E-02
DAV:   7    -0.598954890193E+02   -0.31744E-04   -0.47370E-04  3392   0.270E-01    0.481E-02
DAV:   8    -0.598955035865E+02   -0.14567E-04   -0.89414E-05  3744   0.564E-02    0.213E-02
DAV:   9    -0.598955045990E+02   -0.10125E-05   -0.24402E-05  2944   0.587E-02    0.822E-03
DAV:  10    -0.598955053674E+02   -0.76835E-06   -0.37500E-06  3008   0.206E-02
  22 F= -.59895505E+02 E0= -.59895505E+02  d E =-.321772E-16
       N       E                     dE             d eps       ncg     rms          rms(c)
DAV:   1    -0.599941491019E+02   -0.98645E-01   -0.83327E+00  2528   0.103E+01    0.205E+00
DAV:   2    -0.599503323883E+02    0.43817E-01   -0.23761E-01  2944   0.309E+00    0.121E+00
DAV:   3    -0.599186199907E+02    0.31712E-01   -0.42272E-02  3008   0.199E+00    0.298E-01
DAV:   4    -0.599185956063E+02    0.24384E-04   -0.13071E-02  2912   0.101E+00    0.137E-01
DAV:   5    -0.599187387336E+02   -0.14313E-03   -0.22461E-03  3008   0.254E-01    0.100E-01
DAV:   6    -0.599187094143E+02    0.29319E-04   -0.32914E-04  2912   0.227E-01    0.277E-02
DAV:   7    -0.599187136070E+02   -0.41926E-05   -0.73597E-05  3072   0.111E-01    0.190E-02
DAV:   8    -0.599187154366E+02   -0.18297E-05   -0.15572E-05  2912   0.161E-02    0.110E-02
DAV:   9    -0.599187154951E+02   -0.58439E-07   -0.26317E-06  2592   0.157E-02
  23 F= -.59918715E+02 E0= -.59918715E+02  d E =-.591278E-15
       N       E                     dE             d eps       ncg     rms          rms(c)
DAV:   1    -0.602647427569E+02   -0.34603E+00   -0.95466E+00  2624   0.112E+01    0.414E+00
DAV:   2    -0.600505863836E+02    0.21416E+00   -0.47337E-01  2944   0.505E+00    0.242E+00
DAV:   3    -0.599210069376E+02    0.12958E+00   -0.13186E-01  2912   0.322E+00    0.680E-01
DAV:   4    -0.599182414578E+02    0.27655E-02   -0.44886E-02  3040   0.158E+00    0.240E-01
DAV:   5    -0.599187214663E+02   -0.48001E-03   -0.79345E-03  2848   0.527E-01    0.163E-01
DAV:   6    -0.599186451617E+02    0.76305E-04   -0.10932E-03  3040   0.427E-01    0.518E-02
DAV:   7    -0.599186601756E+02   -0.15014E-04   -0.24128E-04  3008   0.229E-01    0.343E-02
DAV:   8    -0.599186696976E+02   -0.95220E-05   -0.66570E-05  3008   0.312E-02    0.162E-02
DAV:   9    -0.599186690838E+02    0.61384E-06   -0.71657E-06  2848   0.251E-02
  24 F= -.59918669E+02 E0= -.59918669E+02  d E =-.832329E-16
       N       E                     dE             d eps       ncg     rms          rms(c)
DAV:   1    -0.599666399229E+02   -0.47970E-01   -0.92866E+00  2400   0.100E+01    0.212E+00
DAV:   2    -0.599284789512E+02    0.38161E-01   -0.26055E-01  3040   0.318E+00    0.123E+00
DAV:   3    -0.598979792180E+02    0.30500E-01   -0.28352E-02  2784   0.165E+00    0.461E-01
DAV:   4    -0.598951592610E+02    0.28200E-02   -0.12669E-02  3104   0.870E-01    0.112E-01
DAV:   5    -0.598953559077E+02   -0.19665E-03   -0.28272E-03  2848   0.329E-01    0.846E-02
DAV:   6    -0.598953492773E+02    0.66303E-05   -0.27202E-04  3072   0.161E-01    0.319E-02
DAV:   7    -0.598953530431E+02   -0.37657E-05   -0.48400E-05  2880   0.102E-01    0.158E-02
DAV:   8    -0.598953555283E+02   -0.24852E-05   -0.15382E-05  3008   0.289E-02    0.558E-03
DAV:   9    -0.598953556595E+02   -0.13124E-06   -0.29415E-06  2816   0.122E-02
  25 F= -.59895356E+02 E0= -.59895356E+02  d E =-.200851E-17
       N       E                     dE             d eps       ncg     rms          rms(c)
DAV:   1    -0.602588871706E+02   -0.36353E+00   -0.15793E+01  2080   0.144E+01    0.373E+00
DAV:   2    -0.600849623749E+02    0.17392E+00   -0.60915E-01  2464   0.481E+00    0.230E+00
DAV:   3    -0.599222995349E+02    0.16266E+00   -0.14730E-01  2752   0.296E+00    0.119E-01
DAV:   4    -0.599267999909E+02   -0.45005E-02   -0.55934E-02  2400   0.993E-01    0.808E-02
DAV:   5    -0.599266158390E+02    0.18415E-03   -0.99256E-04  2624   0.172E-01    0.343E-02
DAV:   6    -0.599265586285E+02    0.57210E-04   -0.34629E-04  2464   0.117E-01    0.192E-02
DAV:   7    -0.599265586118E+02    0.16742E-07   -0.53307E-05  2496   0.545E-02    0.920E-03
DAV:   8    -0.599265584748E+02    0.13696E-06   -0.87993E-06  2528   0.217E-02
  26 F= -.59926558E+02 E0= -.59926558E+02  d E =-.152794E-14
       N       E                     dE             d eps       ncg     rms          rms(c)
DAV:   1    -0.599249950462E+02    0.15636E-02   -0.15288E+00  2016   0.172E+00    0.264E-02
DAV:   2    -0.599265686300E+02   -0.15736E-02   -0.15689E-02  2528   0.211E-01    0.809E-03
DAV:   3    -0.599266082621E+02   -0.39632E-04   -0.39235E-04  2368   0.359E-02    0.505E-03
DAV:   4    -0.599266107234E+02   -0.24613E-05   -0.15699E-05  2240   0.126E-02    0.380E-03
DAV:   5    -0.599266117024E+02   -0.97905E-06   -0.10708E-06  2112   0.745E-03
  27 F= -.59926612E+02 E0= -.59926612E+02  d E =-.143734E-14
       N       E                     dE             d eps       ncg     rms          rms(c)
DAV:   1    -0.599231217712E+02    0.34890E-02   -0.31787E+00  1920   0.269E+00    0.623E-02
DAV:   2    -0.599260778979E+02   -0.29561E-02   -0.29523E-02  2496   0.352E-01    0.168E-02
DAV:   3    -0.599261510374E+02   -0.73140E-04   -0.73265E-04  2208   0.512E-02    0.122E-02
DAV:   4    -0.599261547114E+02   -0.36740E-05   -0.30540E-05  2560   0.172E-02    0.879E-03
DAV:   5    -0.599261557605E+02   -0.10491E-05   -0.23241E-06  2432   0.118E-02    0.410E-03
DAV:   6    -0.599261563066E+02   -0.54612E-06   -0.53846E-07  1888   0.811E-03
  28 F= -.59926156E+02 E0= -.59926156E+02  d E =-.139727E-14
       N       E                     dE             d eps       ncg     rms          rms(c)
DAV:   1    -0.599240810802E+02    0.20747E-02   -0.15299E+00  1920   0.179E+00    0.363E-02
DAV:   2    -0.599256060957E+02   -0.15250E-02   -0.15272E-02  2528   0.219E-01    0.926E-03
DAV:   3    -0.599256436838E+02   -0.37588E-04   -0.37524E-04  2304   0.330E-02    0.780E-03
DAV:   4    -0.599256450659E+02   -0.13821E-05   -0.14696E-05  2240   0.103E-02    0.548E-03
DAV:   5    -0.599256453386E+02   -0.27270E-06   -0.10224E-06  1952   0.785E-03
  29 F= -.59925645E+02 E0= -.59925645E+02  d E =-.148623E-14
       N       E                     dE             d eps       ncg     rms          rms(c)
DAV:   1    -0.599189347754E+02    0.67103E-02   -0.70569E+00  1920   0.399E+00    0.913E-02
DAV:   2    -0.599257498462E+02   -0.68151E-02   -0.68350E-02  2464   0.544E-01    0.250E-02
DAV:   3    -0.599259186584E+02   -0.16881E-03   -0.17249E-03  2240   0.779E-02    0.185E-02
DAV:   4    -0.599259254006E+02   -0.67422E-05   -0.72902E-05  2560   0.247E-02    0.130E-02
DAV:   5    -0.599259268551E+02   -0.14545E-05   -0.58142E-06  2592   0.190E-02    0.597E-03
DAV:   6    -0.599259274172E+02   -0.56214E-06   -0.13401E-06  2176   0.112E-02
  30 F= -.59925927E+02 E0= -.59925927E+02  d E =-.128641E-14
       N       E                     dE             d eps       ncg     rms          rms(c)
DAV:   1    -0.599247244617E+02    0.12024E-02   -0.15288E+00  1920   0.175E+00    0.252E-02
DAV:   2    -0.599262253092E+02   -0.15008E-02   -0.14936E-02  2496   0.224E-01    0.730E-03
DAV:   3    -0.599262628784E+02   -0.37569E-04   -0.37426E-04  2336   0.380E-02    0.466E-03
DAV:   4    -0.599262645470E+02   -0.16686E-05   -0.15157E-05  2208   0.106E-02    0.320E-03
DAV:   5    -0.599262647785E+02   -0.23149E-06   -0.91448E-07  2048   0.677E-03
  31 F= -.59926265E+02 E0= -.59926265E+02  d E =-.135581E-14
       N       E                     dE             d eps       ncg     rms          rms(c)
DAV:   1    -0.599234603534E+02    0.28042E-02   -0.31766E+00  1920   0.273E+00    0.613E-02
DAV:   2    -0.599264690252E+02   -0.30087E-02   -0.29970E-02  2464   0.368E-01    0.146E-02
DAV:   3    -0.599265443560E+02   -0.75331E-04   -0.73392E-04  2272   0.548E-02    0.118E-02
DAV:   4    -0.599265474124E+02   -0.30564E-05   -0.29458E-05  2560   0.167E-02    0.811E-03
DAV:   5    -0.599265482378E+02   -0.82540E-06   -0.20864E-06  2368   0.129E-02
  32 F= -.59926548E+02 E0= -.59926548E+02  d E =-.150046E-14
       N       E                     dE             d eps       ncg     rms          rms(c)
DAV:   1    -0.599249648157E+02    0.15826E-02   -0.15285E+00  1920   0.179E+00    0.363E-02
DAV:   2    -0.599264770739E+02   -0.15123E-02   -0.15118E-02  2496   0.227E-01    0.818E-03
DAV:   3    -0.599265087020E+02   -0.31628E-04   -0.30831E-04  2272   0.359E-02    0.756E-03
DAV:   4    -0.599265097403E+02   -0.10383E-05   -0.11931E-05  2272   0.968E-03    0.508E-03
DAV:   5    -0.599265099792E+02   -0.23888E-06   -0.84441E-07  1984   0.755E-03
  33 F= -.59926510E+02 E0= -.59926510E+02  d E =-.159695E-14
       N       E                     dE             d eps       ncg     rms          rms(c)
DAV:   1    -0.599188486549E+02    0.76611E-02   -0.70470E+00  2304   0.411E+00    0.860E-02
DAV:   2    -0.599259693528E+02   -0.71207E-02   -0.71404E-02  3040   0.538E-01    0.259E-02
DAV:   3    -0.599261412041E+02   -0.17185E-03   -0.17408E-03  2784   0.947E-02    0.177E-02
DAV:   4    -0.599261478612E+02   -0.66570E-05   -0.72391E-05  3040   0.273E-02    0.121E-02
DAV:   5    -0.599261493251E+02   -0.14639E-05   -0.51915E-06  2976   0.216E-02    0.509E-03
DAV:   6    -0.599261498860E+02   -0.56089E-06   -0.13737E-06  2464   0.769E-03
  34 F= -.59926150E+02 E0= -.59926150E+02  d E =-.152680E-14
       N       E                     dE             d eps       ncg     rms          rms(c)
DAV:   1    -0.599242763308E+02    0.18730E-02   -0.19666E+00  2304   0.204E+00    0.239E-02
DAV:   2    -0.599263510133E+02   -0.20747E-02   -0.20634E-02  2976   0.254E-01    0.944E-03
DAV:   3    -0.599264014055E+02   -0.50392E-04   -0.50697E-04  2752   0.429E-02    0.473E-03
DAV:   4    -0.599264034640E+02   -0.20585E-05   -0.20339E-05  2624   0.126E-02    0.339E-03
DAV:   5    -0.599264036839E+02   -0.21993E-06   -0.13024E-06  2336   0.621E-03
  35 F= -.59926404E+02 E0= -.59926404E+02  d E =-.147435E-14
       N       E                     dE             d eps       ncg     rms          rms(c)
DAV:   1    -0.599233948662E+02    0.30086E-02   -0.29579E+00  2304   0.288E+00    0.613E-02
DAV:   2    -0.599263055540E+02   -0.29107E-02   -0.28884E-02  3040   0.329E-01    0.198E-02
DAV:   3    -0.599263729711E+02   -0.67417E-04   -0.67273E-04  2752   0.598E-02    0.124E-02
DAV:   4    -0.599263755739E+02   -0.26029E-05   -0.28117E-05  3040   0.168E-02    0.885E-03
DAV:   5    -0.599263762654E+02   -0.69145E-06   -0.22493E-06  2720   0.118E-02
  36 F= -.59926376E+02 E0= -.59926376E+02  d E =-.133914E-14
       N       E                     dE             d eps       ncg     rms          rms(c)
DAV:   1    -0.599239899703E+02    0.23856E-02   -0.19670E+00  2304   0.217E+00    0.398E-02
DAV:   2    -0.599260465012E+02   -0.20565E-02   -0.20566E-02  3040   0.246E-01    0.116E-02
DAV:   3    -0.599260961486E+02   -0.49647E-04   -0.49383E-04  2688   0.481E-02    0.928E-03
DAV:   4    -0.599260976403E+02   -0.14917E-05   -0.19185E-05  2688   0.107E-02    0.662E-03
DAV:   5    -0.599260977619E+02   -0.12160E-06   -0.13850E-06  2528   0.860E-03
  37 F= -.59926098E+02 E0= -.59926098E+02  d E =-.127399E-14
       N       E                     dE             d eps       ncg     rms          rms(c)
DAV:   1    -0.599203771418E+02    0.57205E-02   -0.80350E+00  2304   0.836E+00    0.251E-01
DAV:   2    -0.599255976401E+02   -0.52205E-02   -0.53684E-02  3264   0.678E-01    0.109E-01
DAV:   3    -0.599256680997E+02   -0.70460E-04   -0.11083E-03  2816   0.155E-01    0.474E-02
DAV:   4    -0.599256690943E+02   -0.99461E-06   -0.10738E-04  3104   0.132E-01    0.258E-02
DAV:   5    -0.599256692860E+02   -0.19170E-06   -0.22653E-05  3328   0.500E-02    0.112E-02
DAV:   6    -0.599256698913E+02   -0.60535E-06   -0.68815E-06  3072   0.197E-02
  38 F= -.59925670E+02 E0= -.59925670E+02  d E =-.819670E-15
       N       E                     dE             d eps       ncg     rms          rms(c)
DAV:   1    -0.599260433046E+02   -0.37402E-03   -0.23871E+00  2304   0.407E+00    0.987E-02
DAV:   2    -0.599265727652E+02   -0.52946E-03   -0.56081E-03  3072   0.270E-01    0.600E-02
DAV:   3    -0.599265786675E+02   -0.59023E-05   -0.22419E-04  2848   0.116E-01    0.287E-02
DAV:   4    -0.599265792592E+02   -0.59166E-06   -0.40419E-05  3104   0.978E-02    0.121E-02
DAV:   5    -0.599265796380E+02   -0.37878E-06   -0.10131E-05  3040   0.213E-02    0.983E-03
DAV:   6    -0.599265795300E+02    0.10794E-06   -0.28674E-06  2912   0.805E-03
  39 F= -.59926580E+02 E0= -.59926580E+02  d E =-.107593E-14
       N       E                     dE             d eps       ncg     rms          rms(c)
DAV:   1    -0.599247577382E+02    0.18219E-02   -0.39051E+00  2304   0.555E+00    0.225E-01
DAV:   2    -0.599253223094E+02   -0.56457E-03   -0.72303E-03  3072   0.375E-01    0.109E-01
DAV:   3    -0.599253317590E+02   -0.94496E-05   -0.59646E-04  2912   0.174E-01    0.453E-02
DAV:   4    -0.599253321470E+02   -0.38805E-06   -0.11342E-04  3040   0.163E-01    0.217E-02
DAV:   5    -0.599253333324E+02   -0.11854E-05   -0.27776E-05  3168   0.396E-02    0.140E-02
DAV:   6    -0.599253336839E+02   -0.35156E-06   -0.62438E-06  3072   0.195E-02
  40 F= -.59925334E+02 E0= -.59925334E+02  d E =-.187661E-14
       N       E                     dE             d eps       ncg     rms          rms(c)
DAV:   1    -0.599227289107E+02    0.26044E-02   -0.23851E+00  2304   0.407E+00    0.128E-01
DAV:   2    -0.599232061905E+02   -0.47728E-03   -0.52781E-03  3072   0.243E-01    0.526E-02
DAV:   3    -0.599232138808E+02   -0.76903E-05   -0.18181E-04  2848   0.824E-02    0.249E-02
DAV:   4    -0.599232129740E+02    0.90688E-06   -0.26646E-05  3072   0.777E-02    0.122E-02
DAV:   5    -0.599232131250E+02   -0.15099E-06   -0.85520E-06  3200   0.262E-02
  41 F= -.59923213E+02 E0= -.59923213E+02  d E =-.258390E-14
       N       E                     dE             d eps       ncg     rms          rms(c)
DAV:   1    -0.599222320244E+02    0.98095E-03   -0.91199E+00  2304   0.855E+00    0.297E-01
DAV:   2    -0.599238186552E+02   -0.15866E-02   -0.18635E-02  3072   0.531E-01    0.137E-01
DAV:   3    -0.599238278907E+02   -0.92355E-05   -0.10917E-03  2944   0.246E-01    0.638E-02
DAV:   4    -0.599238254483E+02    0.24424E-05   -0.20347E-04  3072   0.207E-01    0.293E-02
DAV:   5    -0.599238263369E+02   -0.88861E-06   -0.50261E-05  2944   0.422E-02    0.174E-02
DAV:   6    -0.599238264700E+02   -0.13302E-06   -0.12272E-05  3072   0.247E-02    0.533E-03
DAV:   7    -0.599238266394E+02   -0.16950E-06   -0.19370E-06  2528   0.153E-02
  42 F= -.59923827E+02 E0= -.59923827E+02  d E =-.161189E-14
       N       E                     dE             d eps       ncg     rms          rms(c)
DAV:   1    -0.599252024877E+02   -0.13760E-02   -0.28385E+00  2304   0.433E+00    0.106E-01
DAV:   2    -0.599258297634E+02   -0.62728E-03   -0.65672E-03  3072   0.237E-01    0.624E-02
DAV:   3    -0.599258293039E+02    0.45946E-06   -0.16831E-04  3392   0.679E-02    0.213E-02
DAV:   4    -0.599258298081E+02   -0.50422E-06   -0.26740E-05  2976   0.490E-02    0.143E-02
DAV:   5    -0.599258296310E+02    0.17713E-06   -0.27376E-06  2688   0.144E-02
  43 F= -.59925830E+02 E0= -.59925830E+02  d E =-.147964E-14
       N       E                     dE             d eps       ncg     rms          rms(c)
DAV:   1    -0.599252508324E+02    0.57898E-03   -0.36832E+00  2368   0.522E+00    0.249E-01
DAV:   2    -0.599258596591E+02   -0.60883E-03   -0.75443E-03  3040   0.281E-01    0.116E-01
DAV:   3    -0.599258342296E+02    0.25429E-04   -0.34272E-04  3072   0.919E-02    0.364E-02
DAV:   4    -0.599258302331E+02    0.39965E-05   -0.58875E-05  3040   0.750E-02    0.191E-02
DAV:   5    -0.599258294495E+02    0.78355E-06   -0.89981E-06  2880   0.342E-02
  44 F= -.59925829E+02 E0= -.59925829E+02  d E =-.143076E-14
       N       E                     dE             d eps       ncg     rms          rms(c)
DAV:   1    -0.599232284123E+02    0.26018E-02   -0.28369E+00  2304   0.433E+00    0.144E-01
DAV:   2    -0.599238281633E+02   -0.59975E-03   -0.64403E-03  3072   0.235E-01    0.560E-02
DAV:   3    -0.599238302638E+02   -0.21004E-05   -0.16056E-04  3104   0.629E-02    0.231E-02
DAV:   4    -0.599238275076E+02    0.27562E-05   -0.16717E-05  3072   0.511E-02    0.121E-02
DAV:   5    -0.599238266075E+02    0.90007E-06   -0.54503E-06  2944   0.307E-02
  45 F= -.59923827E+02 E0= -.59923827E+02  d E =-.159964E-14
       N       E                     dE             d eps       ncg     rms          rms(c)
DAV:   1    -0.599210087347E+02    0.28188E-02   -0.90620E+00  2304   0.870E+00    0.398E-01
DAV:   2    -0.599231406906E+02   -0.21320E-02   -0.24857E-02  3072   0.590E-01    0.172E-01
DAV:   3    -0.599231220014E+02    0.18689E-04   -0.11022E-03  3232   0.220E-01    0.634E-02
DAV:   4    -0.599231124366E+02    0.95647E-05   -0.18457E-04  3040   0.162E-01    0.359E-02
DAV:   5    -0.599231102038E+02    0.22328E-05   -0.54940E-05  3008   0.634E-02    0.151E-02
DAV:   6    -0.599231097480E+02    0.45579E-06   -0.12920E-05  3072   0.292E-02    0.495E-03
DAV:   7    -0.599231101971E+02   -0.44907E-06   -0.39639E-06  2720   0.142E-02
  46 F= -.59923110E+02 E0= -.59923110E+02  d E =-.319014E-15
       N       E                     dE             d eps       ncg     rms          rms(c)
DAV:   1    -0.599249316374E+02   -0.18219E-02   -0.29617E+00  2304   0.431E+00    0.106E-01
DAV:   2    -0.599256127147E+02   -0.68108E-03   -0.70926E-03  3072   0.272E-01    0.672E-02
DAV:   3    -0.599256156379E+02   -0.29232E-05   -0.22251E-04  3264   0.658E-02    0.237E-02
DAV:   4    -0.599256179165E+02   -0.22785E-05   -0.37389E-05  3008   0.557E-02    0.134E-02
DAV:   5    -0.599256182145E+02   -0.29806E-06   -0.10260E-05  2944   0.225E-02    0.104E-02
DAV:   6    -0.599256179505E+02    0.26405E-06   -0.18667E-06  2144   0.183E-02
  47 F= -.59925618E+02 E0= -.59925618E+02  d E =-.665541E-15
       N       E                     dE             d eps       ncg     rms          rms(c)
DAV:   1    -0.599250428904E+02    0.57532E-03   -0.36197E+00  2496   0.500E+00    0.255E-01
DAV:   2    -0.599256228655E+02   -0.57998E-03   -0.72361E-03  3104   0.338E-01    0.120E-01
DAV:   3    -0.599256072212E+02    0.15644E-04   -0.41517E-04  3328   0.137E-01    0.403E-02
DAV:   4    -0.599256121281E+02   -0.49068E-05   -0.11179E-04  3104   0.621E-02    0.174E-02
DAV:   5    -0.599256133301E+02   -0.12020E-05   -0.21369E-05  2656   0.356E-02    0.116E-02
DAV:   6    -0.599256131622E+02    0.16790E-06   -0.33124E-06  3072   0.353E-02
  48 F= -.59925613E+02 E0= -.59925613E+02  d E =-.301512E-14
       N       E                     dE             d eps       ncg     rms          rms(c)
DAV:   1    -0.599224719069E+02    0.31414E-02   -0.29594E+00  2304   0.430E+00    0.151E-01
DAV:   2    -0.599230984382E+02   -0.62653E-03   -0.67531E-03  3072   0.252E-01    0.580E-02
DAV:   3    -0.599231031825E+02   -0.47443E-05   -0.17824E-04  3136   0.702E-02    0.259E-02
DAV:   4    -0.599231024139E+02    0.76859E-06   -0.28280E-05  3072   0.456E-02    0.117E-02
DAV:   5    -0.599231024506E+02   -0.36714E-07   -0.73006E-06  2816   0.317E-02
  49 F= -.59923102E+02 E0= -.59923102E+02  d E =-.670892E-14
       N       E                     dE             d eps       ncg     rms          rms(c)
DAV:   1    -0.599217421452E+02    0.13603E-02   -0.91130E+00  1920   0.849E+00    0.342E-01
DAV:   2    -0.599235445776E+02   -0.18024E-02   -0.19453E-02  2560   0.452E-01    0.171E-01
DAV:   3    -0.599234564256E+02    0.88152E-04   -0.55060E-04  2656   0.139E-01    0.590E-02
DAV:   4    -0.599233994144E+02    0.57011E-04   -0.10981E-04  2784   0.899E-02    0.154E-02
DAV:   5    -0.599233764003E+02    0.23014E-04   -0.45599E-05  2880   0.506E-02    0.840E-03
DAV:   6    -0.599233628829E+02    0.13517E-04   -0.15129E-05  3296   0.323E-02    0.308E-03
DAV:   7    -0.599233481975E+02    0.14685E-04   -0.74123E-06  2336   0.368E-02    0.187E-03
DAV:   8    -0.599233369010E+02    0.11296E-04   -0.87212E-06  2592   0.390E-02    0.152E-03
DAV:   9    -0.599233329785E+02    0.39225E-05   -0.86348E-06  2688   0.190E-02    0.105E-03
DAV:  10    -0.599233310752E+02    0.19033E-05   -0.24837E-06  2368   0.953E-03    0.613E-04
DAV:  11    -0.599233302501E+02    0.82507E-06   -0.90361E-07  1504   0.558E-03
  50 F= -.59923330E+02 E0= -.59923330E+02  d E =-.166185E-14
       N       E                     dE             d eps       ncg     rms          rms(c)
DAV:   1    -0.599251385614E+02   -0.18075E-02   -0.22693E+00  1920   0.379E+00    0.116E-01
DAV:   2    -0.599256468977E+02   -0.50834E-03   -0.53192E-03  2560   0.204E-01    0.659E-02
DAV:   3    -0.599256462930E+02    0.60474E-06   -0.14417E-04  2656   0.597E-02    0.202E-02
DAV:   4    -0.599256466708E+02   -0.37781E-06   -0.22108E-05  2560   0.437E-02    0.112E-02
DAV:   5    -0.599256464184E+02    0.25234E-06   -0.22563E-06  2112   0.143E-02
  51 F= -.59925646E+02 E0= -.59925646E+02  d E =-.147448E-14
       N       E                     dE             d eps       ncg     rms          rms(c)
DAV:   1    -0.599249485048E+02    0.69817E-03   -0.39640E+00  1984   0.533E+00    0.266E-01
DAV:   2    -0.599256682622E+02   -0.71976E-03   -0.84272E-03  2528   0.285E-01    0.124E-01
DAV:   3    -0.599256515619E+02    0.16700E-04   -0.33714E-04  2560   0.856E-02    0.396E-02
DAV:   4    -0.599256467695E+02    0.47924E-05   -0.47310E-05  2560   0.687E-02    0.166E-02
DAV:   5    -0.599256458825E+02    0.88707E-06   -0.86351E-06  2368   0.388E-02
  52 F= -.59925646E+02 E0= -.59925646E+02  d E =-.138612E-14
       N       E                     dE             d eps       ncg     rms          rms(c)
DAV:   1    -0.599228399786E+02    0.28068E-02   -0.22681E+00  1920   0.379E+00    0.147E-01
DAV:   2    -0.599233303265E+02   -0.49035E-03   -0.52689E-03  2560   0.203E-01    0.600E-02
DAV:   3    -0.599233320641E+02   -0.17375E-05   -0.13926E-04  2432   0.567E-02    0.242E-02
DAV:   4    -0.599233295297E+02    0.25344E-05   -0.15007E-05  2560   0.505E-02    0.110E-02
DAV:   5    -0.599233289494E+02    0.58033E-06   -0.45646E-06  2400   0.270E-02
  53 F= -.59923329E+02 E0= -.59923329E+02  d E =-.159533E-14
       N       E                     dE             d eps       ncg     rms          rms(c)
DAV:   1    -0.599195086095E+02    0.38209E-02   -0.55320E+00  2304   0.655E+00    0.485E-01
DAV:   2    -0.599233821152E+02   -0.38735E-02   -0.45265E-02  3072   0.932E-01    0.179E-01
DAV:   3    -0.599232589508E+02    0.12316E-03   -0.16384E-03  2752   0.197E-01    0.110E-01
DAV:   4    -0.599232024618E+02    0.56489E-04   -0.28995E-04  3104   0.173E-01    0.405E-02
DAV:   5    -0.599232053481E+02   -0.28863E-05   -0.83017E-05  2656   0.641E-02    0.230E-02
DAV:   6    -0.599232053443E+02    0.38617E-08   -0.12467E-05  3072   0.204E-02    0.140E-02
DAV:   7    -0.599232049146E+02    0.42965E-06   -0.31890E-06  2592   0.160E-02
  54 F= -.59923205E+02 E0= -.59923205E+02  d E =-.240820E-14
       N       E                     dE             d eps       ncg     rms          rms(c)
DAV:   1    -0.599243640351E+02   -0.11587E-02   -0.52924E-01  2304   0.132E+00    0.126E-01
DAV:   2    -0.599256404758E+02   -0.12764E-02   -0.14501E-02  3072   0.431E-01    0.545E-02
DAV:   3    -0.599256447963E+02   -0.43205E-05   -0.42767E-04  3008   0.688E-02    0.300E-02
DAV:   4    -0.599256413450E+02    0.34513E-05   -0.31519E-05  3168   0.497E-02    0.912E-03
DAV:   5    -0.599256418147E+02   -0.46970E-06   -0.96431E-06  2688   0.173E-02
  55 F= -.59925642E+02 E0= -.59925642E+02  d E =-.170047E-14
       N       E                     dE             d eps       ncg     rms          rms(c)
DAV:   1    -0.599245582994E+02    0.10830E-02   -0.84501E-01  2304   0.175E+00    0.309E-01
DAV:   2    -0.599258450785E+02   -0.12868E-02   -0.18417E-02  3072   0.652E-01    0.113E-01
DAV:   3    -0.599257349796E+02    0.11010E-03   -0.71843E-04  2912   0.118E-01    0.669E-02
DAV:   4    -0.599257157627E+02    0.19217E-04   -0.22261E-04  3168   0.876E-02    0.236E-02
DAV:   5    -0.599257164435E+02   -0.68085E-06   -0.39805E-05  2560   0.862E-02    0.162E-02
DAV:   6    -0.599257165710E+02   -0.12748E-06   -0.78126E-06  3072   0.161E-02
  56 F= -.59925717E+02 E0= -.59925717E+02  d E =-.150148E-14
       N       E                     dE             d eps       ncg     rms          rms(c)
DAV:   1    -0.599221575447E+02    0.35589E-02   -0.54699E-01  2304   0.131E+00    0.189E-01
DAV:   2    -0.599233901165E+02   -0.12326E-02   -0.13626E-02  3072   0.437E-01    0.637E-02
DAV:   3    -0.599233750290E+02    0.15087E-04   -0.33451E-04  2784   0.663E-02    0.422E-02
DAV:   4    -0.599233640853E+02    0.10944E-04   -0.75716E-05  3104   0.431E-02    0.134E-02
DAV:   5    -0.599233654786E+02   -0.13933E-05   -0.19623E-05  2592   0.292E-02    0.937E-03
DAV:   6    -0.599233652965E+02    0.18212E-06   -0.15750E-06  2624   0.151E-02
  57 F= -.59923365E+02 E0= -.59923365E+02  d E =-.241629E-14
       N       E                     dE             d eps       ncg     rms          rms(c)
DAV:   1    -0.599216368225E+02    0.17287E-02   -0.19851E+00  2304   0.263E+00    0.376E-01
DAV:   2    -0.599248900281E+02   -0.32532E-02   -0.41261E-02  3072   0.897E-01    0.135E-01
DAV:   3    -0.599247569021E+02    0.13313E-03   -0.12794E-03  2912   0.142E-01    0.927E-02
DAV:   4    -0.599247017618E+02    0.55140E-04   -0.32356E-04  3072   0.102E-01    0.389E-02
DAV:   5    -0.599247022236E+02   -0.46179E-06   -0.65342E-05  2784   0.124E-01    0.156E-02
DAV:   6    -0.599247027006E+02   -0.47707E-06   -0.14380E-05  3008   0.280E-02    0.113E-02
DAV:   7    -0.599247024375E+02    0.26311E-06   -0.30143E-06  2976   0.200E-02
  58 F= -.59924702E+02 E0= -.59924702E+02  d E =-.409900E-14
       N       E                     dE             d eps       ncg     rms          rms(c)
DAV:   1    -0.599250684074E+02   -0.36571E-03   -0.53199E-01  2304   0.129E+00    0.102E-01
DAV:   2    -0.599261453418E+02   -0.10769E-02   -0.12054E-02  3072   0.391E-01    0.466E-02
DAV:   3    -0.599261481004E+02   -0.27586E-05   -0.29008E-04  2912   0.643E-02    0.262E-02
DAV:   4    -0.599261451975E+02    0.29029E-05   -0.19342E-05  3200   0.505E-02    0.695E-03
DAV:   5    -0.599261453466E+02   -0.14909E-06   -0.37105E-06  2624   0.206E-02
  59 F= -.59926145E+02 E0= -.59926145E+02  d E =-.234932E-14
       N       E                     dE             d eps       ncg     rms          rms(c)
DAV:   1    -0.599248078891E+02    0.13373E-02   -0.84387E-01  2304   0.171E+00    0.253E-01
DAV:   2    -0.599260251885E+02   -0.12173E-02   -0.16129E-02  3072   0.576E-01    0.103E-01
DAV:   3    -0.599259487301E+02    0.76458E-04   -0.47774E-04  2848   0.913E-02    0.642E-02
DAV:   4    -0.599259263611E+02    0.22369E-04   -0.16015E-04  3072   0.570E-02    0.192E-02
DAV:   5    -0.599259272422E+02   -0.88104E-06   -0.27666E-05  2720   0.619E-02    0.117E-02
DAV:   6    -0.599259272778E+02   -0.35619E-07   -0.34527E-06  3072   0.102E-02
  60 F= -.59925927E+02 E0= -.59925927E+02  d E =-.875841E-15
       N       E                     dE             d eps       ncg     rms          rms(c)
DAV:   1    -0.599233685618E+02    0.25587E-02   -0.54545E-01  2304   0.127E+00    0.155E-01
DAV:   2    -0.599244543118E+02   -0.10857E-02   -0.11754E-02  3072   0.388E-01    0.599E-02
DAV:   3    -0.599244439328E+02    0.10379E-04   -0.23831E-04  2752   0.565E-02    0.400E-02
DAV:   4    -0.599244347068E+02    0.92260E-05   -0.69183E-05  3360   0.347E-02    0.125E-02
DAV:   5    -0.599244352053E+02   -0.49854E-06   -0.11453E-05  2624   0.298E-02    0.630E-03
DAV:   6    -0.599244350853E+02    0.12001E-06   -0.11856E-06  2240   0.854E-03
  61 F= -.59924435E+02 E0= -.59924435E+02  d E =-.595331E-15
       N       E                     dE             d eps       ncg     rms          rms(c)
DAV:   1    -0.599191336039E+02    0.53016E-02   -0.19800E+00  2304   0.265E+00    0.595E-01
DAV:   2    -0.599225436121E+02   -0.34100E-02   -0.44036E-02  3072   0.907E-01    0.145E-01
DAV:   3    -0.599224019533E+02    0.14166E-03   -0.14196E-03  2816   0.173E-01    0.961E-02
DAV:   4    -0.599223532913E+02    0.48662E-04   -0.24957E-04  3072   0.109E-01    0.330E-02
DAV:   5    -0.599223541565E+02   -0.86516E-06   -0.55671E-05  2752   0.777E-02    0.237E-02
DAV:   6    -0.599223544268E+02   -0.27037E-06   -0.97559E-06  3104   0.261E-02
  62 F= -.59922354E+02 E0= -.59922354E+02  d E =-.861001E-14
       N       E                     dE             d eps       ncg     rms          rms(c)
DAV:   1    -0.599238897705E+02   -0.15356E-02   -0.53318E-01  2304   0.129E+00    0.140E-01
DAV:   2    -0.599251928609E+02   -0.13031E-02   -0.14508E-02  3072   0.400E-01    0.615E-02
DAV:   3    -0.599251932715E+02   -0.41060E-06   -0.36523E-04  3072   0.795E-02    0.309E-02
DAV:   4    -0.599251884593E+02    0.48122E-05   -0.24911E-05  3232   0.633E-02    0.112E-02
DAV:   5    -0.599251881362E+02    0.32307E-06   -0.49439E-06  2816   0.207E-02
  63 F= -.59925188E+02 E0= -.59925188E+02  d E =-.347512E-14
       N       E                     dE             d eps       ncg     rms          rms(c)
DAV:   1    -0.599249165346E+02    0.27192E-03   -0.84398E-01  2304   0.172E+00    0.344E-01
DAV:   2    -0.599264199506E+02   -0.15034E-02   -0.19723E-02  3008   0.570E-01    0.118E-01
DAV:   3    -0.599263171568E+02    0.10279E-03   -0.63184E-04  2848   0.112E-01    0.697E-02
DAV:   4    -0.599262891081E+02    0.28049E-04   -0.14441E-04  3072   0.956E-02    0.197E-02
DAV:   5    -0.599262896921E+02   -0.58397E-06   -0.27763E-05  2720   0.453E-02    0.202E-02
DAV:   6    -0.599262892264E+02    0.46566E-06   -0.35615E-06  3072   0.137E-02
  64 F= -.59926289E+02 E0= -.59926289E+02  d E =-.626127E-15
       N       E                     dE             d eps       ncg     rms          rms(c)
DAV:   1    -0.599232722660E+02    0.30174E-02   -0.55026E-01  2304   0.129E+00    0.208E-01
DAV:   2    -0.599245575144E+02   -0.12852E-02   -0.14019E-02  3040   0.407E-01    0.635E-02
DAV:   3    -0.599245402884E+02    0.17226E-04   -0.30175E-04  2752   0.702E-02    0.424E-02
DAV:   4    -0.599245270504E+02    0.13238E-04   -0.64289E-05  3072   0.565E-02    0.130E-02
DAV:   5    -0.599245275844E+02   -0.53402E-06   -0.13033E-05  2624   0.291E-02    0.114E-02
DAV:   6    -0.599245272871E+02    0.29728E-06   -0.13768E-06  2304   0.572E-03
  65 F= -.59924527E+02 E0= -.59924527E+02  d E =-.327861E-15
