       N       E                     dE             d eps       ncg     rms          rms(c)
DAV:   1     0.134852231005E+04    0.13485E+04   -0.58097E+04  1416   0.163E+03
DAV:   2     0.167971146993E+03   -0.11806E+04   -0.11410E+04  1408   0.447E+02
DAV:   3    -0.482448933942E+02   -0.21622E+03   -0.21099E+03  1592   0.178E+02
DAV:   4    -0.637713252536E+02   -0.15526E+02   -0.15402E+02  1584   0.464E+01
DAV:   5    -0.642888197120E+02   -0.51749E+00   -0.51582E+00  1704   0.912E+00    0.185E+01
DAV:   6    -0.598123072961E+02    0.44765E+01   -0.92923E+00  2104   0.474E+01    0.151E+01
DAV:   7    -0.600119789855E+02   -0.19967E+00   -0.11049E+01  1576   0.910E+00    0.710E+00
DAV:   8    -0.599197830700E+02    0.92196E-01   -0.72417E-01  1776   0.562E+00    0.250E+00
DAV:   9    -0.599229025528E+02   -0.31195E-02   -0.12251E-01  1752   0.361E+00    0.485E-01
DAV:  10    -0.599248945653E+02   -0.19920E-02   -0.19389E-02  1624   0.124E+00    0.433E-01
DAV:  11    -0.599252788068E+02   -0.38424E-03   -0.17458E-03  1664   0.298E-01    0.373E-01
DAV:  12    -0.599260117866E+02   -0.73298E-03   -0.80653E-04  1712   0.370E-01    0.151E-01
DAV:  13    -0.599264851400E+02   -0.47335E-03   -0.15854E-03  1520   0.289E-01    0.939E-02
DAV:  14    -0.599264771208E+02    0.80192E-05   -0.11724E-04  1640   0.780E-02    0.571E-02
DAV:  15    -0.599264774005E+02   -0.27968E-06   -0.21588E-05  1672   0.240E-02    0.367E-02
DAV:  16    -0.599264756023E+02    0.17982E-05   -0.34042E-05  1560   0.656E-02    0.152E-02
DAV:  17    -0.599264757953E+02   -0.19306E-06   -0.51767E-06  1512   0.140E-02
   1 F= -.59926476E+02 E0= -.59926476E+02  d E =-.312276E-13
 Found    10 degrees of freedom:
 Adding 6 more for cell shape distortion
       N       E                     dE             d eps       ncg     rms          rms(c)
DAV:   1    -0.613169925621E+02   -0.13905E+01   -0.35055E+01  2128   0.433E+01    0.930E+00
DAV:   2    -0.601544727809E+02    0.11625E+01   -0.58568E+00  2152   0.225E+01    0.422E+00
DAV:   3    -0.599145539969E+02    0.23992E+00   -0.43165E-01  2128   0.459E+00    0.215E+00
DAV:   4    -0.598453588457E+02    0.69195E-01   -0.92875E-02  2216   0.361E+00    0.828E-01
DAV:   5    -0.598399781291E+02    0.53807E-02   -0.34712E-02  2184   0.209E+00    0.319E-01
DAV:   6    -0.598406687478E+02   -0.69062E-03   -0.13292E-02  2000   0.107E+00    0.173E-01
DAV:   7    -0.598408069844E+02   -0.13824E-03   -0.25076E-03  2000   0.660E-01    0.759E-02
DAV:   8    -0.598408522012E+02   -0.45217E-04   -0.49193E-04  1992   0.255E-01    0.334E-02
DAV:   9    -0.598408693724E+02   -0.17171E-04   -0.16719E-04  1952   0.102E-01    0.146E-02
DAV:  10    -0.598408718211E+02   -0.24487E-05   -0.21603E-05  1848   0.406E-02    0.957E-03
DAV:  11    -0.598408730793E+02   -0.12582E-05   -0.68836E-06  1728   0.440E-02    0.409E-03
DAV:  12    -0.598408727080E+02    0.37122E-06   -0.15347E-06  1152   0.202E-02
   2 F= -.59840873E+02 E0= -.59840873E+02  d E =-.137909E-10
       N       E                     dE             d eps       ncg     rms          rms(c)
DAV:   1    -0.602636994997E+02   -0.42283E+00   -0.10591E+01  2128   0.211E+01    0.467E+00
DAV:   2    -0.599775648676E+02    0.28613E+00   -0.15674E+00  2128   0.132E+01    0.209E+00
DAV:   3    -0.599208822073E+02    0.56683E-01   -0.11893E-01  2128   0.247E+00    0.102E+00
DAV:   4    -0.599062538367E+02    0.14628E-01   -0.24069E-02  2200   0.162E+00    0.489E-01
DAV:   5    -0.599047541047E+02    0.14997E-02   -0.78477E-03  2144   0.995E-01    0.196E-01
DAV:   6    -0.599048133581E+02   -0.59253E-04   -0.30937E-03  2216   0.677E-01    0.718E-02
DAV:   7    -0.599048675900E+02   -0.54232E-04   -0.84347E-04  1976   0.326E-01    0.420E-02
DAV:   8    -0.599048778208E+02   -0.10231E-04   -0.16521E-04  2056   0.105E-01    0.164E-02
DAV:   9    -0.599048789231E+02   -0.11023E-05   -0.29225E-05  1912   0.721E-02    0.451E-03
DAV:  10    -0.599048794367E+02   -0.51362E-06   -0.68118E-06  1704   0.254E-02
   3 F= -.59904879E+02 E0= -.59904879E+02  d E =-.874003E-12
       N       E                     dE             d eps       ncg     rms          rms(c)
DAV:   1    -0.614242434245E+02   -0.15194E+01   -0.33288E+01  2136   0.404E+01    0.964E+00
DAV:   2    -0.602028616271E+02    0.12214E+01   -0.62540E+00  2088   0.291E+01    0.433E+00
DAV:   3    -0.599678755392E+02    0.23499E+00   -0.50648E-01  2112   0.510E+00    0.210E+00
DAV:   4    -0.599080647949E+02    0.59811E-01   -0.10450E-01  2168   0.295E+00    0.116E+00
DAV:   5    -0.599008485137E+02    0.72163E-02   -0.29435E-02  2160   0.218E+00    0.474E-01
DAV:   6    -0.599004511901E+02    0.39732E-03   -0.12844E-02  2200   0.152E+00    0.125E-01
DAV:   7    -0.599007699502E+02   -0.31876E-03   -0.45309E-03  1960   0.690E-01    0.880E-02
DAV:   8    -0.599008163280E+02   -0.46378E-04   -0.77952E-04  2144   0.226E-01    0.412E-02
DAV:   9    -0.599008199597E+02   -0.36317E-05   -0.11804E-04  1960   0.179E-01    0.997E-03
DAV:  10    -0.599008220242E+02   -0.20645E-05   -0.31144E-05  1992   0.678E-02    0.694E-03
DAV:  11    -0.599008226302E+02   -0.60600E-06   -0.97940E-06  1744   0.144E-02
   4 F= -.59900823E+02 E0= -.59900823E+02  d E =-.222180E-13
       N       E                     dE             d eps       ncg     rms          rms(c)
DAV:   1    -0.602092620982E+02   -0.30844E+00   -0.11818E+01  2120   0.223E+01    0.494E+00
DAV:   2    -0.599036558186E+02    0.30561E+00   -0.17871E+00  2136   0.145E+01    0.223E+00
DAV:   3    -0.598418101159E+02    0.61846E-01   -0.12279E-01  2128   0.270E+00    0.110E+00
DAV:   4    -0.598247263159E+02    0.17084E-01   -0.28389E-02  2240   0.165E+00    0.538E-01
DAV:   5    -0.598230130277E+02    0.17133E-02   -0.84891E-03  2144   0.109E+00    0.223E-01
DAV:   6    -0.598230256422E+02   -0.12615E-04   -0.35540E-03  2184   0.760E-01    0.796E-02
DAV:   7    -0.598230905318E+02   -0.64890E-04   -0.10485E-03  1960   0.378E-01    0.457E-02
DAV:   8    -0.598231038113E+02   -0.13279E-04   -0.20319E-04  2032   0.107E-01    0.191E-02
DAV:   9    -0.598231048429E+02   -0.10316E-05   -0.32657E-05  1888   0.799E-02    0.545E-03
DAV:  10    -0.598231052807E+02   -0.43779E-06   -0.71851E-06  1752   0.343E-02
   5 F= -.59823105E+02 E0= -.59823105E+02  d E =-.594318E-14
       N       E                     dE             d eps       ncg     rms          rms(c)
DAV:   1    -0.645612660718E+02   -0.47382E+01   -0.10022E+02  2208   0.861E+01    0.165E+01
DAV:   2    -0.606191786502E+02    0.39421E+01   -0.16561E+01  2104   0.374E+01    0.707E+00
DAV:   3    -0.600091572443E+02    0.61002E+00   -0.14001E+00  2000   0.583E+00    0.363E+00
DAV:   4    -0.598456120627E+02    0.16355E+00   -0.17064E-01  2096   0.452E+00    0.145E+00
DAV:   5    -0.598208226428E+02    0.24789E-01   -0.43732E-02  2192   0.344E+00    0.454E-01
DAV:   6    -0.598219191155E+02   -0.10965E-02   -0.29507E-02  1968   0.135E+00    0.229E-01
DAV:   7    -0.598224092047E+02   -0.49009E-03   -0.53321E-03  1936   0.576E-01    0.156E-01
DAV:   8    -0.598225096621E+02   -0.10046E-03   -0.12039E-03  2216   0.741E-01    0.760E-02
DAV:   9    -0.598224475404E+02    0.62122E-04   -0.39021E-04  2176   0.474E-01    0.269E-02
DAV:  10    -0.598224625764E+02   -0.15036E-04   -0.14752E-04  2120   0.538E-02    0.263E-02
DAV:  11    -0.598224676906E+02   -0.51143E-05   -0.38712E-05  2072   0.129E-01    0.144E-02
DAV:  12    -0.598224682626E+02   -0.57200E-06   -0.73929E-06  2072   0.492E-02
   6 F= -.59822468E+02 E0= -.59822468E+02  d E =-.503955E-19
       N       E                     dE             d eps       ncg     rms          rms(c)
DAV:   1    -0.602430891215E+02   -0.42062E+00   -0.10385E+01  2112   0.211E+01    0.468E+00
DAV:   2    -0.599701631086E+02    0.27293E+00   -0.15204E+00  2168   0.131E+01    0.213E+00
DAV:   3    -0.599148015888E+02    0.55362E-01   -0.12985E-01  2144   0.343E+00    0.105E+00
DAV:   4    -0.599008443107E+02    0.13957E-01   -0.28690E-02  2200   0.218E+00    0.509E-01
DAV:   5    -0.598991688859E+02    0.16754E-02   -0.82595E-03  2192   0.867E-01    0.217E-01
DAV:   6    -0.598991998087E+02   -0.30923E-04   -0.34335E-03  2160   0.603E-01    0.860E-02
DAV:   7    -0.598992177374E+02   -0.17929E-04   -0.72600E-04  1960   0.416E-01    0.427E-02
DAV:   8    -0.598992295044E+02   -0.11767E-04   -0.16874E-04  2016   0.940E-02    0.175E-02
DAV:   9    -0.598992318298E+02   -0.23253E-05   -0.32472E-05  1856   0.441E-02    0.694E-03
DAV:  10    -0.598992315583E+02    0.27145E-06   -0.28210E-06  1504   0.262E-02
   7 F= -.59899232E+02 E0= -.59899232E+02  d E =-.158239E-10
       N       E                     dE             d eps       ncg     rms          rms(c)
DAV:   1    -0.613616849199E+02   -0.14625E+01   -0.32430E+01  2104   0.403E+01    0.966E+00
DAV:   2    -0.601969175994E+02    0.11648E+01   -0.60591E+00  2112   0.289E+01    0.442E+00
DAV:   3    -0.599646736249E+02    0.23224E+00   -0.53597E-01  2144   0.679E+00    0.216E+00
DAV:   4    -0.599076831733E+02    0.56990E-01   -0.12295E-01  2240   0.388E+00    0.118E+00
DAV:   5    -0.598996357282E+02    0.80474E-02   -0.30285E-02  2232   0.194E+00    0.526E-01
DAV:   6    -0.598990146988E+02    0.62103E-03   -0.15000E-02  2256   0.151E+00    0.156E-01
DAV:   7    -0.598992354150E+02   -0.22072E-03   -0.43618E-03  1952   0.832E-01    0.928E-02
DAV:   8    -0.598993039347E+02   -0.68520E-04   -0.94436E-04  2088   0.205E-01    0.413E-02
DAV:   9    -0.598993087635E+02   -0.48288E-05   -0.11713E-04  1904   0.153E-01    0.115E-02
DAV:  10    -0.598993099299E+02   -0.11663E-05   -0.24660E-05  2000   0.651E-02    0.809E-03
DAV:  11    -0.598993103303E+02   -0.40040E-06   -0.75102E-06  1752   0.122E-02
   8 F= -.59899310E+02 E0= -.59899310E+02  d E =-.109156E-16
       N       E                     dE             d eps       ncg     rms          rms(c)
DAV:   1    -0.601817392495E+02   -0.28243E+00   -0.11601E+01  2104   0.223E+01    0.496E+00
DAV:   2    -0.598908026431E+02    0.29094E+00   -0.17448E+00  2144   0.145E+01    0.227E+00
DAV:   3    -0.598297793604E+02    0.61023E-01   -0.13479E-01  2160   0.368E+00    0.113E+00
DAV:   4    -0.598131378285E+02    0.16642E-01   -0.33236E-02  2288   0.223E+00    0.563E-01
DAV:   5    -0.598111583789E+02    0.19794E-02   -0.87076E-03  2160   0.967E-01    0.245E-01
DAV:   6    -0.598111190671E+02    0.39312E-04   -0.40255E-03  2144   0.686E-01    0.925E-02
DAV:   7    -0.598111499596E+02   -0.30892E-04   -0.97147E-04  1960   0.465E-01    0.477E-02
DAV:   8    -0.598111651899E+02   -0.15230E-04   -0.21417E-04  1984   0.104E-01    0.208E-02
DAV:   9    -0.598111675033E+02   -0.23135E-05   -0.37682E-05  1824   0.545E-02    0.802E-03
DAV:  10    -0.598111672861E+02    0.21725E-06   -0.47812E-06  1624   0.355E-02
   9 F= -.59811167E+02 E0= -.59811167E+02  d E =-.497371E-11
       N       E                     dE             d eps       ncg     rms          rms(c)
DAV:   1    -0.646067836977E+02   -0.47956E+01   -0.95931E+01  1776   0.878E+01    0.162E+01
DAV:   2    -0.606690296204E+02    0.39378E+01   -0.16596E+01  1680   0.388E+01    0.725E+00
DAV:   3    -0.600513393196E+02    0.61769E+00   -0.13911E+00  1720   0.770E+00    0.369E+00
DAV:   4    -0.598552449035E+02    0.19609E+00   -0.22459E-01  1744   0.668E+00    0.142E+00
DAV:   5    -0.598301166723E+02    0.25128E-01   -0.65657E-02  1712   0.378E+00    0.540E-01
DAV:   6    -0.598314543460E+02   -0.13377E-02   -0.44759E-02  1608   0.119E+00    0.246E-01
DAV:   7    -0.598317310250E+02   -0.27668E-03   -0.39181E-03  1576   0.461E-01    0.138E-01
DAV:   8    -0.598317076842E+02    0.23341E-04   -0.68918E-04  1896   0.510E-01    0.213E-02
DAV:   9    -0.598317186012E+02   -0.10917E-04   -0.26662E-04  2256   0.189E-01    0.152E-02
DAV:  10    -0.598317225106E+02   -0.39093E-05   -0.36438E-05  1640   0.381E-02    0.114E-02
DAV:  11    -0.598317253631E+02   -0.28525E-05   -0.83171E-06  1480   0.247E-02    0.250E-03
DAV:  12    -0.598317265622E+02   -0.11991E-05   -0.15668E-06   992   0.155E-02    0.124E-03
DAV:  13    -0.598317266928E+02   -0.13066E-06   -0.11454E-06   872   0.682E-03
  10 F= -.59831727E+02 E0= -.59831727E+02  d E =-.105018E-15
       N       E                     dE             d eps       ncg     rms          rms(c)
DAV:   1    -0.602548738505E+02   -0.42315E+00   -0.80271E+00  1696   0.206E+01    0.459E+00
DAV:   2    -0.599719811407E+02    0.28289E+00   -0.15457E+00  1712   0.137E+01    0.214E+00
DAV:   3    -0.599214701385E+02    0.50511E-01   -0.96718E-02  1648   0.171E+00    0.102E+00
DAV:   4    -0.599047415167E+02    0.16729E-01   -0.17665E-02  1640   0.866E-01    0.429E-01
DAV:   5    -0.599037097096E+02    0.10318E-02   -0.54850E-03  1776   0.115E+00    0.139E-01
DAV:   6    -0.599038116803E+02   -0.10197E-03   -0.25736E-03  1744   0.611E-01    0.416E-02
DAV:   7    -0.599038443065E+02   -0.32626E-04   -0.68068E-04  1544   0.188E-01    0.416E-02
DAV:   8    -0.599038394802E+02    0.48263E-05   -0.78535E-05  1776   0.680E-02    0.216E-02
DAV:   9    -0.599038416969E+02   -0.22167E-05   -0.12211E-05  1616   0.314E-02    0.631E-03
DAV:  10    -0.599038416356E+02    0.61304E-07   -0.14096E-06   904   0.108E-02
  11 F= -.59903842E+02 E0= -.59903842E+02  d E =-.188035E-14
       N       E                     dE             d eps       ncg     rms          rms(c)
DAV:   1    -0.613696415044E+02   -0.14658E+01   -0.33293E+01  1696   0.417E+01    0.951E+00
DAV:   2    -0.601716264579E+02    0.11980E+01   -0.66539E+00  1712   0.312E+01    0.439E+00
DAV:   3    -0.599719885616E+02    0.19964E+00   -0.49063E-01  1680   0.415E+00    0.210E+00
DAV:   4    -0.599021924701E+02    0.69796E-01   -0.83829E-02  1688   0.201E+00    0.944E-01
DAV:   5    -0.598975262088E+02    0.46663E-02   -0.22913E-02  1768   0.248E+00    0.357E-01
DAV:   6    -0.598978015896E+02   -0.27538E-03   -0.10980E-02  1784   0.118E+00    0.873E-02
DAV:   7    -0.598979140035E+02   -0.11241E-03   -0.31877E-03  1640   0.450E-01    0.798E-02
DAV:   8    -0.598978945502E+02    0.19453E-04   -0.40811E-04  1824   0.176E-01    0.472E-02
DAV:   9    -0.598979036472E+02   -0.90970E-05   -0.68824E-05  1592   0.829E-02    0.148E-02
DAV:  10    -0.598979028411E+02    0.80611E-06   -0.90368E-06  1400   0.333E-02
  12 F= -.59897903E+02 E0= -.59897903E+02  d E =-.202258E-13
       N       E                     dE             d eps       ncg     rms          rms(c)
DAV:   1    -0.601999182006E+02   -0.30201E+00   -0.87883E+00  1704   0.221E+01    0.484E+00
DAV:   2    -0.598882074171E+02    0.31171E+00   -0.17331E+00  1704   0.150E+01    0.226E+00
DAV:   3    -0.598340839794E+02    0.54123E-01   -0.11016E-01  1632   0.190E+00    0.109E+00
DAV:   4    -0.598153522048E+02    0.18732E-01   -0.21218E-02  1656   0.102E+00    0.450E-01
DAV:   5    -0.598143066546E+02    0.10456E-02   -0.61290E-03  1776   0.128E+00    0.172E-01
DAV:   6    -0.598144067789E+02   -0.10012E-03   -0.29323E-03  1736   0.621E-01    0.435E-02
DAV:   7    -0.598144381955E+02   -0.31417E-04   -0.82316E-04  1592   0.227E-01    0.425E-02
DAV:   8    -0.598144327146E+02    0.54809E-05   -0.10451E-04  1776   0.820E-02    0.247E-02
DAV:   9    -0.598144354357E+02   -0.27211E-05   -0.16809E-05  1608   0.383E-02    0.775E-03
DAV:  10    -0.598144351347E+02    0.30094E-06   -0.18850E-06  1008   0.149E-02
  13 F= -.59814435E+02 E0= -.59814435E+02  d E =-.735182E-16
       N       E                     dE             d eps       ncg     rms          rms(c)
DAV:   1    -0.616897850426E+02   -0.18753E+01   -0.47357E+01  2112   0.496E+01    0.105E+01
DAV:   2    -0.603103037086E+02    0.13795E+01   -0.79896E+00  2160   0.268E+01    0.515E+00
DAV:   3    -0.600170299755E+02    0.29327E+00   -0.59111E-01  2176   0.684E+00    0.273E+00
DAV:   4    -0.599077621761E+02    0.10927E+00   -0.14415E-01  2192   0.562E+00    0.874E-01
DAV:   5    -0.599042958518E+02    0.34663E-02   -0.49753E-02  2040   0.247E+00    0.400E-01
DAV:   6    -0.599051909629E+02   -0.89511E-03   -0.19140E-02  2216   0.938E-01    0.171E-01
DAV:   7    -0.599053360658E+02   -0.14510E-03   -0.33451E-03  2040   0.755E-01    0.788E-02
DAV:   8    -0.599053509279E+02   -0.14862E-04   -0.53565E-04  1968   0.343E-01    0.452E-02
DAV:   9    -0.599053705528E+02   -0.19625E-04   -0.16213E-04  2064   0.820E-02    0.129E-02
DAV:  10    -0.599053719867E+02   -0.14339E-05   -0.53520E-05  1864   0.772E-02    0.898E-03
DAV:  11    -0.599053723983E+02   -0.41160E-06   -0.59148E-06  1696   0.432E-02
  14 F= -.59905372E+02 E0= -.59905372E+02  d E =-.273327E-17
       N       E                     dE             d eps       ncg     rms          rms(c)
DAV:   1    -0.599898770965E+02   -0.84505E-01   -0.40414E+00  1816   0.840E+00    0.206E+00
DAV:   2    -0.599495682351E+02    0.40309E-01   -0.16864E-01  2128   0.449E+00    0.122E+00
DAV:   3    -0.599239590029E+02    0.25609E-01   -0.38473E-02  2160   0.323E+00    0.480E-01
DAV:   4    -0.599216229101E+02    0.23361E-02   -0.16387E-02  2320   0.139E+00    0.124E-01
DAV:   5    -0.599218792082E+02   -0.25630E-03   -0.43484E-03  2008   0.356E-01    0.105E-01
DAV:   6    -0.599218581374E+02    0.21071E-04   -0.42374E-04  2272   0.140E-01    0.529E-02
DAV:   7    -0.599218469807E+02    0.11157E-04   -0.12244E-04  2144   0.241E-01    0.244E-02
DAV:   8    -0.599218520157E+02   -0.50350E-05   -0.43431E-05  2336   0.522E-02    0.159E-02
DAV:   9    -0.599218508633E+02    0.11524E-05   -0.15083E-05  1888   0.664E-02    0.812E-03
DAV:  10    -0.599218509792E+02   -0.11593E-06   -0.18655E-06  1168   0.730E-03
  15 F= -.59921851E+02 E0= -.59921851E+02  d E =-.207104E-15
       N       E                     dE             d eps       ncg     rms          rms(c)
DAV:   1    -0.602001213317E+02   -0.27827E+00   -0.11110E+01  1776   0.141E+01    0.413E+00
DAV:   2    -0.600306407673E+02    0.16948E+00   -0.57946E-01  2184   0.832E+00    0.243E+00
DAV:   3    -0.599273863008E+02    0.10325E+00   -0.14287E-01  2168   0.598E+00    0.969E-01
DAV:   4    -0.599175669844E+02    0.98193E-02   -0.63750E-02  2296   0.267E+00    0.238E-01
DAV:   5    -0.599187395574E+02   -0.11726E-02   -0.18468E-02  1984   0.738E-01    0.197E-01
DAV:   6    -0.599186432100E+02    0.96347E-04   -0.15305E-03  2224   0.213E-01    0.922E-02
DAV:   7    -0.599186215207E+02    0.21689E-04   -0.37237E-04  2224   0.389E-01    0.490E-02
DAV:   8    -0.599186366528E+02   -0.15132E-04   -0.13041E-04  2280   0.889E-02    0.282E-02
DAV:   9    -0.599186337966E+02    0.28562E-05   -0.50753E-05  2056   0.129E-01    0.148E-02
DAV:  10    -0.599186345261E+02   -0.72950E-06   -0.60727E-06  1880   0.148E-02
  16 F= -.59918635E+02 E0= -.59918635E+02  d E =-.727136E-12
       N       E                     dE             d eps       ncg     rms          rms(c)
DAV:   1    -0.599657178604E+02   -0.47084E-01   -0.43360E+00  1816   0.832E+00    0.208E+00
DAV:   2    -0.599263248249E+02    0.39393E-01   -0.17418E-01  2152   0.447E+00    0.122E+00
DAV:   3    -0.599007857964E+02    0.25539E-01   -0.34304E-02  2176   0.312E+00    0.507E-01
DAV:   4    -0.598978820251E+02    0.29038E-02   -0.16025E-02  2312   0.131E+00    0.115E-01
DAV:   5    -0.598981586957E+02   -0.27667E-03   -0.43855E-03  1984   0.357E-01    0.994E-02
DAV:   6    -0.598981335286E+02    0.25167E-04   -0.34696E-04  2192   0.818E-02    0.457E-02
DAV:   7    -0.598981308220E+02    0.27066E-05   -0.69038E-05  2184   0.154E-01    0.230E-02
DAV:   8    -0.598981338687E+02   -0.30468E-05   -0.26117E-05  2280   0.435E-02    0.127E-02
DAV:   9    -0.598981334826E+02    0.38620E-06   -0.11721E-05  1800   0.606E-02    0.707E-03
DAV:  10    -0.598981335838E+02   -0.10125E-06   -0.10502E-06  1096   0.101E-02
  17 F= -.59898134E+02 E0= -.59898134E+02  d E =-.406947E-13
       N       E                     dE             d eps       ncg     rms          rms(c)
DAV:   1    -0.604997518060E+02   -0.60162E+00   -0.24728E+01  2136   0.207E+01    0.608E+00
DAV:   2    -0.601358724899E+02    0.36388E+00   -0.13707E+00  2568   0.116E+01    0.346E+00
DAV:   3    -0.599137407087E+02    0.22213E+00   -0.30392E-01  2680   0.786E+00    0.144E+00
DAV:   4    -0.598890169156E+02    0.24724E-01   -0.13293E-01  2864   0.347E+00    0.354E-01
DAV:   5    -0.598915987635E+02   -0.25818E-02   -0.39351E-02  2376   0.112E+00    0.280E-01
DAV:   6    -0.598913884763E+02    0.21029E-03   -0.28820E-03  2640   0.487E-01    0.112E-01
DAV:   7    -0.598914128979E+02   -0.24422E-04   -0.51031E-04  2720   0.321E-01    0.596E-02
DAV:   8    -0.598914340346E+02   -0.21137E-04   -0.18139E-04  2488   0.106E-01    0.293E-02
DAV:   9    -0.598914387587E+02   -0.47241E-05   -0.52532E-05  2328   0.953E-02    0.134E-02
DAV:  10    -0.598914397510E+02   -0.99226E-06   -0.10072E-05  2392   0.540E-02    0.475E-03
DAV:  11    -0.598914399262E+02   -0.17524E-06   -0.39922E-06  1848   0.330E-02
  18 F= -.59891440E+02 E0= -.59891440E+02  d E =-.605677E-13
       N       E                     dE             d eps       ncg     rms          rms(c)
DAV:   1    -0.599938287246E+02   -0.10239E+00   -0.63815E+00  2192   0.998E+00    0.216E+00
DAV:   2    -0.599497467206E+02    0.44082E-01   -0.24904E-01  2472   0.450E+00    0.123E+00
DAV:   3    -0.599196398462E+02    0.30107E-01   -0.48016E-02  2640   0.296E+00    0.478E-01
DAV:   4    -0.599173651024E+02    0.22747E-02   -0.18072E-02  2696   0.134E+00    0.119E-01
DAV:   5    -0.599177578903E+02   -0.39279E-03   -0.56363E-03  2376   0.460E-01    0.111E-01
DAV:   6    -0.599177132012E+02    0.44689E-04   -0.59251E-04  2672   0.342E-01    0.342E-02
DAV:   7    -0.599177204545E+02   -0.72533E-05   -0.12445E-04  2856   0.172E-01    0.214E-02
DAV:   8    -0.599177241473E+02   -0.36928E-05   -0.33712E-05  2288   0.374E-02    0.109E-02
DAV:   9    -0.599177240470E+02    0.10025E-06   -0.39635E-06  1928   0.196E-02
  19 F= -.59917724E+02 E0= -.59917724E+02  d E =-.917668E-13
       N       E                     dE             d eps       ncg     rms          rms(c)
DAV:   1    -0.602536135485E+02   -0.33589E+00   -0.11051E+01  2288   0.133E+01    0.438E+00
DAV:   2    -0.600504334603E+02    0.20318E+00   -0.66528E-01  2504   0.789E+00    0.245E+00
DAV:   3    -0.599279867022E+02    0.12245E+00   -0.15187E-01  2640   0.494E+00    0.992E-01
DAV:   4    -0.599166456714E+02    0.11341E-01   -0.64891E-02  2720   0.223E+00    0.231E-01
DAV:   5    -0.599178972901E+02   -0.12516E-02   -0.19132E-02  2368   0.914E-01    0.199E-01
DAV:   6    -0.599178126571E+02    0.84633E-04   -0.25445E-03  2696   0.731E-01    0.695E-02
DAV:   7    -0.599178221283E+02   -0.94713E-05   -0.47420E-04  2616   0.420E-01    0.381E-02
DAV:   8    -0.599178428585E+02   -0.20730E-04   -0.19080E-04  2344   0.793E-02    0.190E-02
DAV:   9    -0.599178416858E+02    0.11727E-05   -0.18749E-05  2344   0.314E-02    0.131E-02
DAV:  10    -0.599178418417E+02   -0.15588E-06   -0.39325E-06  2184   0.332E-02
  20 F= -.59917842E+02 E0= -.59917842E+02  d E =-.898613E-13
       N       E                     dE             d eps       ncg     rms          rms(c)
DAV:   1    -0.599650540242E+02   -0.47212E-01   -0.69913E+00  2160   0.975E+00    0.225E+00
DAV:   2    -0.599248525698E+02    0.40201E-01   -0.26894E-01  2520   0.459E+00    0.124E+00
DAV:   3    -0.598959982148E+02    0.28854E-01   -0.38518E-02  2688   0.268E+00    0.569E-01
DAV:   4    -0.598914552722E+02    0.45429E-02   -0.17194E-02  2792   0.118E+00    0.118E-01
DAV:   5    -0.598918306266E+02   -0.37535E-03   -0.55224E-03  2352   0.499E-01    0.991E-02
DAV:   6    -0.598918230387E+02    0.75879E-05   -0.65465E-04  2688   0.325E-01    0.406E-02
DAV:   7    -0.598918270841E+02   -0.40454E-05   -0.11932E-04  2600   0.220E-01    0.198E-02
DAV:   8    -0.598918307924E+02   -0.37083E-05   -0.47109E-05  2320   0.835E-02    0.941E-03
DAV:   9    -0.598918314562E+02   -0.66384E-06   -0.11756E-05  2120   0.256E-02    0.635E-03
DAV:  10    -0.598918315649E+02   -0.10869E-06   -0.13605E-06  1360   0.136E-02
  21 F= -.59891832E+02 E0= -.59891832E+02  d E =-.595595E-13
       N       E                     dE             d eps       ncg     rms          rms(c)
DAV:   1    -0.605678127697E+02   -0.67598E+00   -0.21824E+01  2160   0.186E+01    0.587E+00
DAV:   2    -0.601581645909E+02    0.40965E+00   -0.10831E+00  2448   0.796E+00    0.343E+00
DAV:   3    -0.599007415316E+02    0.25742E+00   -0.24987E-01  2720   0.476E+00    0.105E+00
DAV:   4    -0.598933257093E+02    0.74158E-02   -0.10914E-01  2488   0.278E+00    0.385E-01
DAV:   5    -0.598956320536E+02   -0.23063E-02   -0.31540E-02  2448   0.147E+00    0.314E-01
DAV:   6    -0.598954234680E+02    0.20859E-03   -0.59626E-03  2776   0.124E+00    0.114E-01
DAV:   7    -0.598954710541E+02   -0.47586E-04   -0.12368E-03  2784   0.437E-01    0.764E-02
DAV:   8    -0.598954838365E+02   -0.12782E-04   -0.21674E-04  2656   0.187E-01    0.338E-02
DAV:   9    -0.598955039201E+02   -0.20084E-04   -0.19908E-04  2288   0.126E-01    0.160E-02
DAV:  10    -0.598955048950E+02   -0.97490E-06   -0.17436E-05  2176   0.578E-02    0.708E-03
DAV:  11    -0.598955052776E+02   -0.38260E-06   -0.46436E-06  1864   0.296E-02
  22 F= -.59895505E+02 E0= -.59895505E+02  d E =-.428887E-13
       N       E                     dE             d eps       ncg     rms          rms(c)
DAV:   1    -0.599917772617E+02   -0.96272E-01   -0.83636E+00  2176   0.113E+01    0.205E+00
DAV:   2    -0.599500814900E+02    0.41696E-01   -0.25551E-01  2472   0.367E+00    0.122E+00
DAV:   3    -0.599186906617E+02    0.31391E-01   -0.44177E-02  2608   0.250E+00    0.361E-01
DAV:   4    -0.599183450814E+02    0.34558E-03   -0.17403E-02  2536   0.137E+00    0.146E-01
DAV:   5    -0.599187562352E+02   -0.41115E-03   -0.52807E-03  2424   0.520E-01    0.132E-01
DAV:   6    -0.599187102206E+02    0.46015E-04   -0.99662E-04  2720   0.536E-01    0.419E-02
DAV:   7    -0.599187095441E+02    0.67655E-06   -0.18795E-04  2824   0.243E-01    0.243E-02
DAV:   8    -0.599187132200E+02   -0.36759E-05   -0.48600E-05  2896   0.816E-02    0.133E-02
DAV:   9    -0.599187152881E+02   -0.20682E-05   -0.27550E-05  2224   0.695E-02    0.507E-03
DAV:  10    -0.599187155456E+02   -0.25749E-06   -0.25289E-06  1656   0.129E-02
  23 F= -.59918716E+02 E0= -.59918716E+02  d E =-.836770E-13
       N       E                     dE             d eps       ncg     rms          rms(c)
DAV:   1    -0.602600294058E+02   -0.34131E+00   -0.96129E+00  2288   0.122E+01    0.416E+00
DAV:   2    -0.600504250884E+02    0.20960E+00   -0.50428E-01  2472   0.592E+00    0.243E+00
DAV:   3    -0.599217326540E+02    0.12869E+00   -0.13093E-01  2672   0.385E+00    0.780E-01
DAV:   4    -0.599175340271E+02    0.41986E-02   -0.56145E-02  2568   0.206E+00    0.259E-01
DAV:   5    -0.599187473535E+02   -0.12133E-02   -0.16695E-02  2424   0.103E+00    0.218E-01
DAV:   6    -0.599186473140E+02    0.10004E-03   -0.36103E-03  2872   0.101E+00    0.743E-02
DAV:   7    -0.599186435516E+02    0.37625E-05   -0.67923E-04  2632   0.469E-01    0.525E-02
DAV:   8    -0.599186611806E+02   -0.17629E-04   -0.20468E-04  2920   0.142E-01    0.253E-02
DAV:   9    -0.599186682340E+02   -0.70534E-05   -0.10776E-04  2304   0.133E-01    0.108E-02
DAV:  10    -0.599186691497E+02   -0.91573E-06   -0.11108E-05  2200   0.452E-02    0.390E-03
DAV:  11    -0.599186694218E+02   -0.27213E-06   -0.35270E-06  1816   0.246E-02
  24 F= -.59918669E+02 E0= -.59918669E+02  d E =-.845040E-13
       N       E                     dE             d eps       ncg     rms          rms(c)
DAV:   1    -0.599646085730E+02   -0.45939E-01   -0.93477E+00  2176   0.109E+01    0.214E+00
DAV:   2    -0.599281565028E+02    0.36452E-01   -0.27724E-01  2480   0.374E+00    0.123E+00
DAV:   3    -0.598984458100E+02    0.29711E-01   -0.29471E-02  2696   0.204E+00    0.512E-01
DAV:   4    -0.598949036569E+02    0.35422E-02   -0.15473E-02  2664   0.115E+00    0.119E-01
DAV:   5    -0.598953421763E+02   -0.43852E-03   -0.56561E-03  2400   0.622E-01    0.110E-01
DAV:   6    -0.598953458338E+02   -0.36575E-05   -0.92790E-04  2696   0.410E-01    0.466E-02
DAV:   7    -0.598953485287E+02   -0.26949E-05   -0.16000E-04  2592   0.243E-01    0.225E-02
DAV:   8    -0.598953549296E+02   -0.64009E-05   -0.65084E-05  2232   0.619E-02    0.915E-03
DAV:   9    -0.598953556477E+02   -0.71810E-06   -0.11170E-05  2184   0.293E-02    0.512E-03
DAV:  10    -0.598953557108E+02   -0.63121E-07   -0.16387E-06  1544   0.239E-02
  25 F= -.59895356E+02 E0= -.59895356E+02  d E =-.436700E-13
       N       E                     dE             d eps       ncg     rms          rms(c)
DAV:   1    -0.602529038539E+02   -0.35755E+00   -0.15876E+01  1840   0.158E+01    0.373E+00
DAV:   2    -0.600843303098E+02    0.16857E+00   -0.65948E-01  2024   0.571E+00    0.230E+00
DAV:   3    -0.599206854056E+02    0.16364E+00   -0.13702E-01  2376   0.321E+00    0.136E-01
DAV:   4    -0.599267741426E+02   -0.60887E-02   -0.74647E-02  1944   0.139E+00    0.875E-02
DAV:   5    -0.599266198614E+02    0.15428E-03   -0.14607E-03  2456   0.258E-01    0.419E-02
DAV:   6    -0.599265619008E+02    0.57961E-04   -0.56454E-04  2088   0.207E-01    0.262E-02
DAV:   7    -0.599265580735E+02    0.38273E-05   -0.11357E-04  2264   0.113E-01    0.147E-02
DAV:   8    -0.599265578575E+02    0.21600E-06   -0.31756E-05  2032   0.343E-02    0.843E-03
DAV:   9    -0.599265593734E+02   -0.15159E-05   -0.36099E-06  1720   0.195E-02    0.290E-03
DAV:  10    -0.599265603607E+02   -0.98735E-06   -0.19811E-06  1256   0.123E-02
  26 F= -.59926560E+02 E0= -.59926560E+02  d E =-.554239E-13
       N       E                     dE             d eps       ncg     rms          rms(c)
DAV:   1    -0.599243079418E+02    0.22514E-02   -0.15251E+00  1872   0.187E+00    0.334E-02
DAV:   2    -0.599265409341E+02   -0.22330E-02   -0.22323E-02  1856   0.280E-01    0.890E-03
DAV:   3    -0.599266081854E+02   -0.67251E-04   -0.67130E-04  2160   0.560E-02    0.695E-03
DAV:   4    -0.599266115015E+02   -0.33161E-05   -0.31776E-05  1352   0.216E-02    0.477E-03
DAV:   5    -0.599266123173E+02   -0.81579E-06   -0.26108E-06  1416   0.136E-02
  27 F= -.59926612E+02 E0= -.59926612E+02  d E =-.757847E-13
       N       E                     dE             d eps       ncg     rms          rms(c)
DAV:   1    -0.599213688510E+02    0.52427E-02   -0.31689E+00  1880   0.293E+00    0.820E-02
DAV:   2    -0.599260092949E+02   -0.46404E-02   -0.46629E-02  1848   0.481E-01    0.194E-02
DAV:   3    -0.599261500524E+02   -0.14076E-03   -0.14174E-03  2136   0.791E-02    0.180E-02
DAV:   4    -0.599261550734E+02   -0.50210E-05   -0.67309E-05  1840   0.304E-02    0.127E-02
DAV:   5    -0.599261554923E+02   -0.41893E-06   -0.46507E-06  1512   0.218E-02
  28 F= -.59926155E+02 E0= -.59926155E+02  d E =-.159365E-12
       N       E                     dE             d eps       ncg     rms          rms(c)
DAV:   1    -0.599233313448E+02    0.28237E-02   -0.15254E+00  1824   0.189E+00    0.484E-02
DAV:   2    -0.599255744927E+02   -0.22431E-02   -0.22538E-02  1856   0.286E-01    0.111E-02
DAV:   3    -0.599256426050E+02   -0.68112E-04   -0.67947E-04  1904   0.451E-02    0.112E-02
DAV:   4    -0.599256450827E+02   -0.24777E-05   -0.31872E-05  1408   0.153E-02    0.795E-03
DAV:   5    -0.599256452238E+02   -0.14109E-06   -0.22763E-06  1392   0.126E-02
  29 F= -.59925645E+02 E0= -.59925645E+02  d E =-.235829E-12
       N       E                     dE             d eps       ncg     rms          rms(c)
DAV:   1    -0.599153422650E+02    0.10303E-01   -0.70385E+00  1880   0.440E+00    0.114E-01
DAV:   2    -0.599256159585E+02   -0.10274E-01   -0.10335E-01  1936   0.731E-01    0.290E-02
DAV:   3    -0.599259177811E+02   -0.30182E-03   -0.30796E-03  2120   0.126E-01    0.260E-02
DAV:   4    -0.599259265868E+02   -0.88056E-05   -0.14779E-04  2224   0.461E-02    0.179E-02
DAV:   5    -0.599259264095E+02    0.17725E-06   -0.11151E-05  1968   0.314E-02    0.885E-03
DAV:   6    -0.599259272589E+02   -0.84937E-06   -0.44918E-06  1688   0.236E-02
  30 F= -.59925927E+02 E0= -.59925927E+02  d E =-.872392E-13
       N       E                     dE             d eps       ncg     rms          rms(c)
DAV:   1    -0.599239041482E+02    0.20223E-02   -0.15240E+00  1816   0.194E+00    0.327E-02
DAV:   2    -0.599261891901E+02   -0.22850E-02   -0.22848E-02  1888   0.304E-01    0.843E-03
DAV:   3    -0.599262611836E+02   -0.71993E-04   -0.72227E-04  2128   0.610E-02    0.702E-03
DAV:   4    -0.599262644418E+02   -0.32582E-05   -0.35596E-05  1336   0.209E-02    0.497E-03
DAV:   5    -0.599262646996E+02   -0.25784E-06   -0.27571E-06  1392   0.143E-02
  31 F= -.59926265E+02 E0= -.59926265E+02  d E =-.975440E-13
       N       E                     dE             d eps       ncg     rms          rms(c)
DAV:   1    -0.599215909969E+02    0.46734E-02   -0.31662E+00  1816   0.295E+00    0.833E-02
DAV:   2    -0.599264252895E+02   -0.48343E-02   -0.48714E-02  1880   0.509E-01    0.222E-02
DAV:   3    -0.599265436259E+02   -0.11834E-03   -0.12452E-03  2176   0.882E-02    0.178E-02
DAV:   4    -0.599265476058E+02   -0.39799E-05   -0.60346E-05  1800   0.305E-02    0.126E-02
DAV:   5    -0.599265479984E+02   -0.39263E-06   -0.49911E-06  1488   0.280E-02
  32 F= -.59926548E+02 E0= -.59926548E+02  d E =-.115290E-12
       N       E                     dE             d eps       ncg     rms          rms(c)
DAV:   1    -0.599241181956E+02    0.24294E-02   -0.15242E+00  1808   0.195E+00    0.500E-02
DAV:   2    -0.599264328361E+02   -0.23146E-02   -0.23290E-02  1904   0.312E-01    0.115E-02
DAV:   3    -0.599265072501E+02   -0.74414E-04   -0.74669E-04  2104   0.582E-02    0.117E-02
DAV:   4    -0.599265099398E+02   -0.26897E-05   -0.36173E-05  1408   0.209E-02    0.909E-03
DAV:   5    -0.599265098160E+02    0.12374E-06   -0.26934E-06  1384   0.186E-02
  33 F= -.59926510E+02 E0= -.59926510E+02  d E =-.123707E-12
       N       E                     dE             d eps       ncg     rms          rms(c)
DAV:   1    -0.599146418657E+02    0.11868E-01   -0.70208E+00  2192   0.465E+00    0.123E-01
DAV:   2    -0.599257976032E+02   -0.11156E-01   -0.11328E-01  2256   0.751E-01    0.378E-02
DAV:   3    -0.599261431874E+02   -0.34558E-03   -0.37533E-03  2688   0.166E-01    0.304E-02
DAV:   4    -0.599261507862E+02   -0.75988E-05   -0.17551E-04  2704   0.500E-02    0.213E-02
DAV:   5    -0.599261488239E+02    0.19624E-05   -0.18754E-05  2376   0.462E-02    0.879E-03
DAV:   6    -0.599261495487E+02   -0.72481E-06   -0.59922E-06  1880   0.262E-02
  34 F= -.59926150E+02 E0= -.59926150E+02  d E =-.101680E-12
       N       E                     dE             d eps       ncg     rms          rms(c)
DAV:   1    -0.599234158696E+02    0.27330E-02   -0.19616E+00  2288   0.225E+00    0.310E-02
DAV:   2    -0.599263093552E+02   -0.28935E-02   -0.28904E-02  2328   0.322E-01    0.972E-03
DAV:   3    -0.599263997902E+02   -0.90435E-04   -0.90992E-04  2424   0.621E-02    0.755E-03
DAV:   4    -0.599264034918E+02   -0.37016E-05   -0.42601E-05  1760   0.184E-02    0.515E-03
DAV:   5    -0.599264036089E+02   -0.11708E-06   -0.33461E-06  1664   0.186E-02
  35 F= -.59926404E+02 E0= -.59926404E+02  d E =-.104703E-12
       N       E                     dE             d eps       ncg     rms          rms(c)
DAV:   1    -0.599218215843E+02    0.45819E-02   -0.29486E+00  2296   0.300E+00    0.861E-02
DAV:   2    -0.599262399497E+02   -0.44184E-02   -0.44531E-02  2320   0.445E-01    0.258E-02
DAV:   3    -0.599263729766E+02   -0.13303E-03   -0.14175E-03  2720   0.112E-01    0.202E-02
DAV:   4    -0.599263763232E+02   -0.33467E-05   -0.64205E-05  2488   0.270E-02    0.144E-02
DAV:   5    -0.599263760037E+02    0.31949E-06   -0.59939E-06  1672   0.291E-02
  36 F= -.59926376E+02 E0= -.59926376E+02  d E =-.106144E-12
       N       E                     dE             d eps       ncg     rms          rms(c)
DAV:   1    -0.599230610461E+02    0.33153E-02   -0.19616E+00  2296   0.220E+00    0.587E-02
DAV:   2    -0.599260046972E+02   -0.29437E-02   -0.29683E-02  2344   0.332E-01    0.164E-02
DAV:   3    -0.599260953657E+02   -0.90668E-04   -0.93300E-04  2560   0.864E-02    0.144E-02
DAV:   4    -0.599260981535E+02   -0.27879E-05   -0.42521E-05  1920   0.208E-02    0.110E-02
DAV:   5    -0.599260976341E+02    0.51941E-06   -0.41440E-06  1600   0.228E-02
  37 F= -.59926098E+02 E0= -.59926098E+02  d E =-.104422E-12
       N       E                     dE             d eps       ncg     rms          rms(c)
DAV:   1    -0.599186958006E+02    0.74024E-02   -0.80341E+00  2152   0.891E+00    0.318E-01
DAV:   2    -0.599254996457E+02   -0.68038E-02   -0.69563E-02  2440   0.872E-01    0.116E-01
DAV:   3    -0.599256595530E+02   -0.15991E-03   -0.23005E-03  2784   0.403E-01    0.622E-02
DAV:   4    -0.599256683960E+02   -0.88430E-05   -0.28092E-04  2592   0.166E-01    0.448E-02
DAV:   5    -0.599256676387E+02    0.75732E-06   -0.70466E-05  2696   0.105E-01    0.173E-02
DAV:   6    -0.599256691655E+02   -0.15268E-05   -0.33697E-05  2456   0.520E-02    0.126E-02
DAV:   7    -0.599256699867E+02   -0.82117E-06   -0.11383E-05  2456   0.309E-02    0.917E-03
DAV:   8    -0.599256701462E+02   -0.15957E-06   -0.21425E-06  1696   0.125E-02
  38 F= -.59925670E+02 E0= -.59925670E+02  d E =-.109037E-12
       N       E                     dE             d eps       ncg     rms          rms(c)
DAV:   1    -0.599256489178E+02    0.21069E-04   -0.23885E+00  2128   0.444E+00    0.101E-01
DAV:   2    -0.599265550420E+02   -0.90612E-03   -0.93633E-03  2384   0.422E-01    0.718E-02
DAV:   3    -0.599265784950E+02   -0.23453E-04   -0.47603E-04  2640   0.217E-01    0.431E-02
DAV:   4    -0.599265770952E+02    0.13999E-05   -0.63551E-05  2536   0.150E-01    0.152E-02
DAV:   5    -0.599265794710E+02   -0.23759E-05   -0.32153E-05  2416   0.325E-02    0.793E-03
DAV:   6    -0.599265793850E+02    0.86073E-07   -0.22554E-06  1704   0.172E-02
  39 F= -.59926579E+02 E0= -.59926579E+02  d E =-.106635E-12
       N       E                     dE             d eps       ncg     rms          rms(c)
DAV:   1    -0.599241951357E+02    0.23843E-02   -0.39079E+00  2176   0.605E+00    0.268E-01
DAV:   2    -0.599252878561E+02   -0.10927E-02   -0.12421E-02  2464   0.559E-01    0.119E-01
DAV:   3    -0.599253414069E+02   -0.53551E-04   -0.12898E-03  2656   0.354E-01    0.595E-02
DAV:   4    -0.599253302677E+02    0.11139E-04   -0.17715E-04  2592   0.265E-01    0.345E-02
DAV:   5    -0.599253335894E+02   -0.33217E-05   -0.80758E-05  2344   0.402E-02    0.187E-02
DAV:   6    -0.599253335184E+02    0.71088E-07   -0.84854E-06  2336   0.188E-02
  40 F= -.59925334E+02 E0= -.59925334E+02  d E =-.104231E-12
       N       E                     dE             d eps       ncg     rms          rms(c)
DAV:   1    -0.599223705291E+02    0.29631E-02   -0.23865E+00  2160   0.444E+00    0.191E-01
DAV:   2    -0.599232016591E+02   -0.83113E-03   -0.88679E-03  2384   0.353E-01    0.537E-02
DAV:   3    -0.599232160243E+02   -0.14365E-04   -0.30575E-04  2584   0.133E-01    0.390E-02
DAV:   4    -0.599232137578E+02    0.22665E-05   -0.44770E-05  2488   0.108E-01    0.257E-02
DAV:   5    -0.599232128948E+02    0.86304E-06   -0.18912E-05  2536   0.428E-02    0.974E-03
DAV:   6    -0.599232132481E+02   -0.35333E-06   -0.89914E-06  2344   0.266E-02
  41 F= -.59923213E+02 E0= -.59923213E+02  d E =-.107048E-12
       N       E                     dE             d eps       ncg     rms          rms(c)
DAV:   1    -0.599207611847E+02    0.24517E-02   -0.91245E+00  2144   0.933E+00    0.359E-01
DAV:   2    -0.599238088157E+02   -0.30476E-02   -0.32731E-02  2416   0.758E-01    0.157E-01
DAV:   3    -0.599238309399E+02   -0.22124E-04   -0.15978E-03  2760   0.394E-01    0.767E-02
DAV:   4    -0.599238289979E+02    0.19421E-05   -0.38400E-04  2624   0.268E-01    0.545E-02
DAV:   5    -0.599238250873E+02    0.39106E-05   -0.10162E-04  2552   0.124E-01    0.257E-02
DAV:   6    -0.599238247815E+02    0.30576E-06   -0.53599E-05  2424   0.635E-02    0.110E-02
DAV:   7    -0.599238265445E+02   -0.17629E-05   -0.19196E-05  2528   0.363E-02    0.923E-03
DAV:   8    -0.599238266875E+02   -0.14305E-06   -0.22008E-06  1664   0.147E-02
  42 F= -.59923827E+02 E0= -.59923827E+02  d E =-.115585E-12
       N       E                     dE             d eps       ncg     rms          rms(c)
DAV:   1    -0.599246980362E+02   -0.87149E-03   -0.28396E+00  2136   0.472E+00    0.119E-01
DAV:   2    -0.599258205126E+02   -0.11225E-02   -0.11487E-02  2424   0.370E-01    0.655E-02
DAV:   3    -0.599258282286E+02   -0.77160E-05   -0.29852E-04  2848   0.165E-01    0.308E-02
DAV:   4    -0.599258296930E+02   -0.14645E-05   -0.72445E-05  2656   0.110E-01    0.195E-02
DAV:   5    -0.599258294653E+02    0.22771E-06   -0.14670E-05  2296   0.420E-02    0.130E-02
DAV:   6    -0.599258292252E+02    0.24014E-06   -0.74141E-06  2288   0.262E-02
  43 F= -.59925829E+02 E0= -.59925829E+02  d E =-.107995E-12
       N       E                     dE             d eps       ncg     rms          rms(c)
DAV:   1    -0.599246029251E+02    0.12265E-02   -0.36851E+00  2184   0.569E+00    0.326E-01
DAV:   2    -0.599258437251E+02   -0.12408E-02   -0.13748E-02  2464   0.455E-01    0.116E-01
DAV:   3    -0.599258449495E+02   -0.12245E-05   -0.73944E-04  2768   0.295E-01    0.600E-02
DAV:   4    -0.599258352361E+02    0.97134E-05   -0.13803E-04  2712   0.176E-01    0.428E-02
DAV:   5    -0.599258297443E+02    0.54918E-05   -0.59344E-05  2568   0.659E-02    0.164E-02
DAV:   6    -0.599258286525E+02    0.10918E-05   -0.21458E-05  2472   0.565E-02    0.123E-02
DAV:   7    -0.599258290963E+02   -0.44382E-06   -0.73395E-06  2416   0.220E-02
  44 F= -.59925829E+02 E0= -.59925829E+02  d E =-.107106E-12
       N       E                     dE             d eps       ncg     rms          rms(c)
DAV:   1    -0.599227417278E+02    0.30869E-02   -0.28381E+00  2160   0.472E+00    0.217E-01
DAV:   2    -0.599238186610E+02   -0.10769E-02   -0.11249E-02  2424   0.381E-01    0.584E-02
DAV:   3    -0.599238316734E+02   -0.13012E-04   -0.37766E-04  2624   0.216E-01    0.412E-02
DAV:   4    -0.599238289192E+02    0.27542E-05   -0.68692E-05  2560   0.125E-01    0.288E-02
DAV:   5    -0.599238270742E+02    0.18450E-05   -0.27660E-05  2448   0.356E-02    0.101E-02
DAV:   6    -0.599238266589E+02    0.41524E-06   -0.84217E-06  2344   0.300E-02
  45 F= -.59923827E+02 E0= -.59923827E+02  d E =-.115479E-12
       N       E                     dE             d eps       ncg     rms          rms(c)
DAV:   1    -0.599195753006E+02    0.42518E-02   -0.90671E+00  2128   0.949E+00    0.516E-01
DAV:   2    -0.599230783049E+02   -0.35030E-02   -0.38453E-02  2456   0.911E-01    0.178E-01
DAV:   3    -0.599231450639E+02   -0.66759E-04   -0.26704E-03  2672   0.599E-01    0.988E-02
DAV:   4    -0.599231160296E+02    0.29034E-04   -0.41964E-04  2616   0.377E-01    0.659E-02
DAV:   5    -0.599231092300E+02    0.67997E-05   -0.19352E-04  2456   0.843E-02    0.251E-02
DAV:   6    -0.599231105037E+02   -0.12738E-05   -0.69454E-05  2432   0.611E-02    0.201E-02
DAV:   7    -0.599231099817E+02    0.52201E-06   -0.94824E-06  2728   0.483E-02
  46 F= -.59923110E+02 E0= -.59923110E+02  d E =-.114497E-12
       N       E                     dE             d eps       ncg     rms          rms(c)
DAV:   1    -0.599244059000E+02   -0.12954E-02   -0.29625E+00  2112   0.470E+00    0.107E-01
DAV:   2    -0.599255975956E+02   -0.11917E-02   -0.12176E-02  2400   0.417E-01    0.730E-02
DAV:   3    -0.599256161157E+02   -0.18520E-04   -0.42798E-04  2640   0.186E-01    0.420E-02
DAV:   4    -0.599256156286E+02    0.48710E-06   -0.74590E-05  2656   0.161E-01    0.130E-02
DAV:   5    -0.599256179663E+02   -0.23378E-05   -0.32480E-05  2360   0.370E-02    0.112E-02
DAV:   6    -0.599256178933E+02    0.73042E-07   -0.55881E-06  1872   0.197E-02
  47 F= -.59925618E+02 E0= -.59925618E+02  d E =-.107547E-12
       N       E                     dE             d eps       ncg     rms          rms(c)
DAV:   1    -0.599244658978E+02    0.11521E-02   -0.36213E+00  2312   0.546E+00    0.311E-01
DAV:   2    -0.599255963925E+02   -0.11305E-02   -0.12724E-02  2520   0.496E-01    0.126E-01
DAV:   3    -0.599256146468E+02   -0.18254E-04   -0.88601E-04  2688   0.276E-01    0.558E-02
DAV:   4    -0.599256096717E+02    0.49751E-05   -0.17887E-04  2600   0.229E-01    0.354E-02
DAV:   5    -0.599256114442E+02   -0.17725E-05   -0.75004E-05  2552   0.717E-02    0.166E-02
DAV:   6    -0.599256125581E+02   -0.11139E-05   -0.26047E-05  2344   0.443E-02    0.783E-03
DAV:   7    -0.599256130477E+02   -0.48959E-06   -0.84249E-06  1952   0.340E-02
  48 F= -.59925613E+02 E0= -.59925613E+02  d E =-.106795E-12
       N       E                     dE             d eps       ncg     rms          rms(c)
DAV:   1    -0.599219778593E+02    0.36347E-02   -0.29608E+00  2112   0.469E+00    0.217E-01
DAV:   2    -0.599230878431E+02   -0.11100E-02   -0.11678E-02  2440   0.399E-01    0.616E-02
DAV:   3    -0.599231026534E+02   -0.14810E-04   -0.38386E-04  2552   0.216E-01    0.427E-02
DAV:   4    -0.599231022112E+02    0.44218E-06   -0.82184E-05  2496   0.132E-01    0.284E-02
DAV:   5    -0.599231013416E+02    0.86960E-06   -0.27583E-05  2560   0.549E-02    0.960E-03
DAV:   6    -0.599231026808E+02   -0.13392E-05   -0.18670E-05  2352   0.243E-02    0.980E-03
DAV:   7    -0.599231026441E+02    0.36758E-07   -0.15322E-06  1424   0.160E-02
  49 F= -.59923103E+02 E0= -.59923103E+02  d E =-.115443E-12
       N       E                     dE             d eps       ncg     rms          rms(c)
DAV:   1    -0.599201857010E+02    0.29170E-02   -0.91182E+00  1776   0.925E+00    0.416E-01
DAV:   2    -0.599235095553E+02   -0.33239E-02   -0.34751E-02  2056   0.768E-01    0.177E-01
DAV:   3    -0.599234782114E+02    0.31344E-04   -0.14729E-03  2328   0.527E-01    0.940E-02
DAV:   4    -0.599234277220E+02    0.50489E-04   -0.33374E-04  2224   0.301E-01    0.529E-02
DAV:   5    -0.599233847093E+02    0.43013E-04   -0.15211E-04  2240   0.939E-02    0.129E-02
DAV:   6    -0.599233684665E+02    0.16243E-04   -0.64925E-05  2184   0.476E-02    0.130E-02
DAV:   7    -0.599233648857E+02    0.35808E-05   -0.24552E-05  2024   0.354E-02    0.614E-03
DAV:   8    -0.599233561665E+02    0.87192E-05   -0.26195E-06  1728   0.290E-02    0.331E-03
DAV:   9    -0.599233400973E+02    0.16069E-04   -0.79615E-06  1864   0.504E-02    0.208E-03
DAV:  10    -0.599233357526E+02    0.43447E-05   -0.85603E-06  2064   0.221E-02    0.261E-03
DAV:  11    -0.599233333993E+02    0.23533E-05   -0.18578E-06  1232   0.113E-02    0.110E-03
DAV:  12    -0.599233302905E+02    0.31088E-05   -0.61115E-07  1288   0.140E-02    0.579E-04
DAV:  13    -0.599233298695E+02    0.42101E-06   -0.21595E-06  1272   0.706E-03
  50 F= -.59923330E+02 E0= -.59923330E+02  d E =-.115135E-12
       N       E                     dE             d eps       ncg     rms          rms(c)
DAV:   1    -0.599247102041E+02   -0.13799E-02   -0.22696E+00  1800   0.414E+00    0.141E-01
DAV:   2    -0.599256401647E+02   -0.92996E-03   -0.95060E-03  2032   0.317E-01    0.652E-02
DAV:   3    -0.599256456634E+02   -0.54987E-05   -0.23513E-04  2432   0.131E-01    0.281E-02
DAV:   4    -0.599256467267E+02   -0.10633E-05   -0.57181E-05  2176   0.950E-02    0.178E-02
DAV:   5    -0.599256462504E+02    0.47633E-06   -0.11276E-05  1936   0.426E-02    0.105E-02
DAV:   6    -0.599256460547E+02    0.19571E-06   -0.59386E-06  1896   0.191E-02
  51 F= -.59925646E+02 E0= -.59925646E+02  d E =-.107463E-12
       N       E                     dE             d eps       ncg     rms          rms(c)
DAV:   1    -0.599242365341E+02    0.14097E-02   -0.39659E+00  1824   0.581E+00    0.351E-01
DAV:   2    -0.599256547834E+02   -0.14182E-02   -0.15343E-02  2072   0.467E-01    0.121E-01
DAV:   3    -0.599256597208E+02   -0.49374E-05   -0.69423E-04  2352   0.284E-01    0.622E-02
DAV:   4    -0.599256498014E+02    0.99194E-05   -0.14039E-04  2184   0.182E-01    0.411E-02
DAV:   5    -0.599256454185E+02    0.43829E-05   -0.61895E-05  2136   0.690E-02    0.144E-02
DAV:   6    -0.599256454312E+02   -0.12642E-07   -0.19565E-05  2040   0.455E-02    0.105E-02
DAV:   7    -0.599256457742E+02   -0.34302E-06   -0.64464E-06  1880   0.230E-02
  52 F= -.59925646E+02 E0= -.59925646E+02  d E =-.106889E-12
       N       E                     dE             d eps       ncg     rms          rms(c)
DAV:   1    -0.599224334843E+02    0.32119E-02   -0.22683E+00  1800   0.414E+00    0.214E-01
DAV:   2    -0.599233232850E+02   -0.88980E-03   -0.93039E-03  2048   0.328E-01    0.601E-02
DAV:   3    -0.599233335277E+02   -0.10243E-04   -0.29480E-04  2184   0.176E-01    0.392E-02
DAV:   4    -0.599233305639E+02    0.29637E-05   -0.57119E-05  2104   0.117E-01    0.264E-02
DAV:   5    -0.599233289629E+02    0.16010E-05   -0.23565E-05  2120   0.383E-02    0.895E-03
DAV:   6    -0.599233289593E+02    0.36052E-08   -0.70685E-06  1880   0.239E-02
  53 F= -.59923329E+02 E0= -.59923329E+02  d E =-.114470E-12
       N       E                     dE             d eps       ncg     rms          rms(c)
DAV:   1    -0.599160065551E+02    0.73224E-02   -0.55013E+00  2144   0.714E+00    0.634E-01
DAV:   2    -0.599235009149E+02   -0.74944E-02   -0.82520E-02  2456   0.125E+00    0.207E-01
DAV:   3    -0.599233367265E+02    0.16419E-03   -0.35808E-03  2480   0.502E-01    0.166E-01
DAV:   4    -0.599232253114E+02    0.11142E-03   -0.69198E-04  2672   0.401E-01    0.952E-02
DAV:   5    -0.599231981896E+02    0.27122E-04   -0.35189E-04  2832   0.180E-01    0.309E-02
DAV:   6    -0.599232070521E+02   -0.88625E-05   -0.10661E-04  2496   0.507E-02    0.260E-02
DAV:   7    -0.599232053839E+02    0.16682E-05   -0.12901E-05  2680   0.537E-02    0.169E-02
DAV:   8    -0.599232049200E+02    0.46396E-06   -0.48846E-06  2224   0.193E-02
  54 F= -.59923205E+02 E0= -.59923205E+02  d E =-.643035E-12
       N       E                     dE             d eps       ncg     rms          rms(c)
DAV:   1    -0.599231665248E+02    0.38859E-04   -0.51247E-01  2136   0.144E+00    0.152E-01
DAV:   2    -0.599255896875E+02   -0.24232E-02   -0.25807E-02  2448   0.607E-01    0.626E-02
DAV:   3    -0.599256494989E+02   -0.59811E-04   -0.10832E-03  2840   0.177E-01    0.493E-02
DAV:   4    -0.599256413471E+02    0.81518E-05   -0.72497E-05  2696   0.145E-01    0.225E-02
DAV:   5    -0.599256415403E+02   -0.19319E-06   -0.29791E-05  2576   0.472E-02    0.951E-03
DAV:   6    -0.599256416474E+02   -0.10705E-06   -0.53444E-06  2008   0.158E-02
  55 F= -.59925642E+02 E0= -.59925642E+02  d E =-.247810E-12
       N       E                     dE             d eps       ncg     rms          rms(c)
DAV:   1    -0.599224346125E+02    0.32069E-02   -0.81924E-01  2128   0.191E+00    0.413E-01
DAV:   2    -0.599259139444E+02   -0.34793E-02   -0.39721E-02  2568   0.953E-01    0.143E-01
DAV:   3    -0.599257962470E+02    0.11770E-03   -0.15552E-03  2608   0.249E-01    0.115E-01
DAV:   4    -0.599257090307E+02    0.87216E-04   -0.39232E-04  2872   0.263E-01    0.504E-02
DAV:   5    -0.599257164015E+02   -0.73708E-05   -0.15096E-04  2656   0.121E-01    0.240E-02
DAV:   6    -0.599257172586E+02   -0.85710E-06   -0.21677E-05  2320   0.242E-02    0.171E-02
DAV:   7    -0.599257163864E+02    0.87222E-06   -0.76555E-06  2432   0.352E-02
  56 F= -.59925716E+02 E0= -.59925716E+02  d E =-.544029E-13
       N       E                     dE             d eps       ncg     rms          rms(c)
DAV:   1    -0.599207340667E+02    0.49832E-02   -0.52908E-01  2136   0.143E+00    0.284E-01
DAV:   2    -0.599234174336E+02   -0.26834E-02   -0.28567E-02  2512   0.625E-01    0.959E-02
DAV:   3    -0.599234069072E+02    0.10526E-04   -0.92023E-04  2512   0.162E-01    0.819E-02
DAV:   4    -0.599233654206E+02    0.41487E-04   -0.14201E-04  2664   0.156E-01    0.438E-02
DAV:   5    -0.599233649095E+02    0.51114E-06   -0.73967E-05  2560   0.704E-02    0.110E-02
DAV:   6    -0.599233653328E+02   -0.42331E-06   -0.86064E-06  2272   0.204E-02
  57 F= -.59923365E+02 E0= -.59923365E+02  d E =-.351765E-13
       N       E                     dE             d eps       ncg     rms          rms(c)
DAV:   1    -0.599170246429E+02    0.63403E-02   -0.19230E+00  2152   0.287E+00    0.576E-01
DAV:   2    -0.599249504086E+02   -0.79258E-02   -0.88431E-02  2440   0.125E+00    0.206E-01
DAV:   3    -0.599248785560E+02    0.71853E-04   -0.34728E-03  2632   0.324E-01    0.165E-01
DAV:   4    -0.599247010421E+02    0.17751E-03   -0.57873E-04  2728   0.342E-01    0.941E-02
DAV:   5    -0.599247036232E+02   -0.25811E-05   -0.30467E-04  2616   0.127E-01    0.244E-02
DAV:   6    -0.599247028856E+02    0.73756E-06   -0.30610E-05  2480   0.358E-02    0.173E-02
DAV:   7    -0.599247024676E+02    0.41807E-06   -0.10270E-05  2536   0.389E-02    0.707E-03
DAV:   8    -0.599247024291E+02    0.38461E-07   -0.19508E-06  1368   0.295E-02
  58 F= -.59924702E+02 E0= -.59924702E+02  d E =-.123315E-12
       N       E                     dE             d eps       ncg     rms          rms(c)
DAV:   1    -0.599237712914E+02    0.93118E-03   -0.51514E-01  2136   0.141E+00    0.144E-01
DAV:   2    -0.599261043127E+02   -0.23330E-02   -0.24478E-02  2456   0.552E-01    0.609E-02
DAV:   3    -0.599261537277E+02   -0.49415E-04   -0.84959E-04  2728   0.166E-01    0.492E-02
DAV:   4    -0.599261455771E+02    0.81505E-05   -0.66790E-05  2640   0.118E-01    0.239E-02
DAV:   5    -0.599261452061E+02    0.37100E-06   -0.30026E-05  2544   0.495E-02    0.589E-03
DAV:   6    -0.599261453064E+02   -0.10031E-06   -0.55528E-06  2312   0.173E-02
  59 F= -.59926145E+02 E0= -.59926145E+02  d E =-.109918E-12
       N       E                     dE             d eps       ncg     rms          rms(c)
DAV:   1    -0.599225992112E+02    0.35460E-02   -0.81536E-01  2136   0.186E+00    0.392E-01
DAV:   2    -0.599261097111E+02   -0.35105E-02   -0.39038E-02  2632   0.844E-01    0.156E-01
DAV:   3    -0.599260129573E+02    0.96754E-04   -0.12030E-03  2512   0.226E-01    0.121E-01
DAV:   4    -0.599259203723E+02    0.92585E-04   -0.40177E-04  2808   0.220E-01    0.583E-02
DAV:   5    -0.599259273855E+02   -0.70132E-05   -0.14002E-04  2648   0.126E-01    0.162E-02
DAV:   6    -0.599259273553E+02    0.30239E-07   -0.15768E-05  2384   0.330E-02    0.119E-02
DAV:   7    -0.599259272880E+02    0.67330E-07   -0.11523E-05  2456   0.372E-02    0.593E-03
DAV:   8    -0.599259273548E+02   -0.66844E-07   -0.19274E-06  1496   0.166E-02
  60 F= -.59925927E+02 E0= -.59925927E+02  d E =-.107987E-12
       N       E                     dE             d eps       ncg     rms          rms(c)
DAV:   1    -0.599219414103E+02    0.39859E-02   -0.52771E-01  2128   0.139E+00    0.271E-01
DAV:   2    -0.599244908654E+02   -0.25495E-02   -0.27082E-02  2536   0.558E-01    0.106E-01
DAV:   3    -0.599244767383E+02    0.14127E-04   -0.73734E-04  2496   0.147E-01    0.845E-02
DAV:   4    -0.599244349147E+02    0.41824E-04   -0.13797E-04  2648   0.130E-01    0.487E-02
DAV:   5    -0.599244346410E+02    0.27365E-06   -0.63950E-05  2608   0.696E-02    0.117E-02
DAV:   6    -0.599244350720E+02   -0.43101E-06   -0.65602E-06  2248   0.213E-02
  61 F= -.59924435E+02 E0= -.59924435E+02  d E =-.119391E-12
       N       E                     dE             d eps       ncg     rms          rms(c)
DAV:   1    -0.599143100898E+02    0.10125E-01   -0.19100E+00  2128   0.290E+00    0.741E-01
DAV:   2    -0.599226547158E+02   -0.83446E-02   -0.92495E-02  2496   0.125E+00    0.201E-01
DAV:   3    -0.599225024267E+02    0.15229E-03   -0.33054E-03  2552   0.375E-01    0.157E-01
DAV:   4    -0.599223473229E+02    0.15510E-03   -0.74343E-04  2696   0.351E-01    0.808E-02
DAV:   5    -0.599223529283E+02   -0.56054E-05   -0.26192E-04  2848   0.179E-01    0.293E-02
DAV:   6    -0.599223550555E+02   -0.21272E-05   -0.39800E-05  2464   0.411E-02    0.227E-02
DAV:   7    -0.599223540867E+02    0.96885E-06   -0.18081E-05  2552   0.443E-02    0.106E-02
DAV:   8    -0.599223542164E+02   -0.12974E-06   -0.31517E-06  1760   0.217E-02
  62 F= -.59922354E+02 E0= -.59922354E+02  d E =-.925891E-12
       N       E                     dE             d eps       ncg     rms          rms(c)
DAV:   1    -0.599226409799E+02   -0.28689E-03   -0.51673E-01  2152   0.141E+00    0.177E-01
DAV:   2    -0.599251517857E+02   -0.25108E-02   -0.26464E-02  2392   0.544E-01    0.658E-02
DAV:   3    -0.599251972857E+02   -0.45500E-04   -0.90750E-04  2824   0.166E-01    0.483E-02
DAV:   4    -0.599251886724E+02    0.86133E-05   -0.76185E-05  2720   0.136E-01    0.207E-02
DAV:   5    -0.599251882833E+02    0.38902E-06   -0.24293E-05  2592   0.597E-02    0.106E-02
DAV:   6    -0.599251880005E+02    0.28281E-06   -0.49738E-06  1888   0.173E-02
  63 F= -.59925188E+02 E0= -.59925188E+02  d E =-.308812E-12
       N       E                     dE             d eps       ncg     rms          rms(c)
DAV:   1    -0.599228362136E+02    0.23521E-02   -0.81668E-01  2144   0.188E+00    0.432E-01
DAV:   2    -0.599264965892E+02   -0.36604E-02   -0.41275E-02  2496   0.789E-01    0.152E-01
DAV:   3    -0.599263713458E+02    0.12524E-03   -0.13035E-03  2568   0.235E-01    0.115E-01
DAV:   4    -0.599262843634E+02    0.86982E-04   -0.42416E-04  2704   0.254E-01    0.490E-02
DAV:   5    -0.599262910956E+02   -0.67322E-05   -0.14824E-04  2688   0.139E-01    0.291E-02
DAV:   6    -0.599262901815E+02    0.91405E-06   -0.17828E-05  2472   0.330E-02    0.205E-02
DAV:   7    -0.599262892023E+02    0.97923E-06   -0.14917E-05  2464   0.388E-02    0.873E-03
DAV:   8    -0.599262892988E+02   -0.96466E-07   -0.21620E-06  1608   0.159E-02
  64 F= -.59926289E+02 E0= -.59926289E+02  d E =-.385766E-13
       N       E                     dE             d eps       ncg     rms          rms(c)
DAV:   1    -0.599219466533E+02    0.43425E-02   -0.53013E-01  2160   0.141E+00    0.294E-01
DAV:   2    -0.599245847300E+02   -0.26381E-02   -0.28156E-02  2464   0.550E-01    0.969E-02
DAV:   3    -0.599245692772E+02    0.15453E-04   -0.80365E-04  2472   0.151E-01    0.779E-02
DAV:   4    -0.599245263308E+02    0.42946E-04   -0.16174E-04  2520   0.148E-01    0.398E-02
DAV:   5    -0.599245280314E+02   -0.17006E-05   -0.66604E-05  2672   0.781E-02    0.143E-02
DAV:   6    -0.599245276946E+02    0.33676E-06   -0.61408E-06  2192   0.210E-02
  65 F= -.59924528E+02 E0= -.59924528E+02  d E =-.159641E-13
