  48  48   0   0
  0.2018999E+02  0.3924251E-09  0.1315693E-08  0.1877007E-08  0.1500000E-16
   1.0000000000000000E-004
  CAR 
 unknown system                          
     10.06476480    -22.99732159  301      1.92322602      1.00000000
    -22.997  0.0000E+00  0.0000E+00
    -22.887  0.0000E+00  0.0000E+00
    -22.777  0.0000E+00  0.0000E+00
    -22.667  0.0000E+00  0.0000E+00
    -22.556  0.0000E+00  0.0000E+00
    -22.446  0.0000E+00  0.0000E+00
    -22.336  0.0000E+00  0.0000E+00
    -22.226  0.0000E+00  0.0000E+00
    -22.116  0.0000E+00  0.0000E+00
    -22.005  0.0000E+00  0.0000E+00
    -21.895  0.0000E+00  0.0000E+00
    -21.785  0.1972E-17  0.2173E-18
    -21.675  0.5616E-08  0.6189E-09
    -21.565  0.1711E-02  0.1886E-03
    -21.454  0.2209E+00  0.2453E-01
    -21.344  0.1325E+00  0.3913E-01
    -21.234  0.1763E-03  0.3915E-01
    -21.124  0.3858E-02  0.3958E-01
    -21.014  0.2377E+00  0.6577E-01
    -20.903  0.3443E+00  0.1037E+00
    -20.793  0.1334E+00  0.1184E+00
    -20.683  0.2361E+00  0.1444E+00
    -20.573  0.1101E+00  0.1566E+00
    -20.463  0.3391E-03  0.1566E+00
    -20.352  0.3218E-09  0.1566E+00
    -20.242  0.0000E+00  0.1566E+00
    -20.132  0.0000E+00  0.1566E+00
    -20.022  0.0000E+00  0.1566E+00
    -19.912  0.0000E+00  0.1566E+00
    -19.801  0.0000E+00  0.1566E+00
    -19.691  0.0000E+00  0.1566E+00
    -19.581  0.0000E+00  0.1566E+00
    -19.471  0.0000E+00  0.1566E+00
    -19.360  0.0000E+00  0.1566E+00
    -19.250  0.0000E+00  0.1566E+00
    -19.140  0.0000E+00  0.1566E+00
    -19.030  0.0000E+00  0.1566E+00
    -18.920  0.0000E+00  0.1566E+00
    -18.809  0.0000E+00  0.1566E+00
    -18.699  0.0000E+00  0.1566E+00
    -18.589  0.0000E+00  0.1566E+00
    -18.479  0.0000E+00  0.1566E+00
    -18.369  0.0000E+00  0.1566E+00
    -18.258  0.0000E+00  0.1566E+00
    -18.148  0.0000E+00  0.1566E+00
    -18.038  0.0000E+00  0.1566E+00
    -17.928  0.0000E+00  0.1566E+00
    -17.818  0.0000E+00  0.1566E+00
    -17.707  0.0000E+00  0.1566E+00
    -17.597  0.0000E+00  0.1566E+00
    -17.487  0.0000E+00  0.1566E+00
    -17.377  0.0000E+00  0.1566E+00
    -17.267  0.0000E+00  0.1566E+00
    -17.156  0.0000E+00  0.1566E+00
    -17.046  0.0000E+00  0.1566E+00
    -16.936  0.0000E+00  0.1566E+00
    -16.826  0.0000E+00  0.1566E+00
    -16.716  0.0000E+00  0.1566E+00
    -16.605  0.0000E+00  0.1566E+00
    -16.495  0.0000E+00  0.1566E+00
    -16.385  0.0000E+00  0.1566E+00
    -16.275  0.0000E+00  0.1566E+00
    -16.164  0.0000E+00  0.1566E+00
    -16.054  0.0000E+00  0.1566E+00
    -15.944  0.0000E+00  0.1566E+00
    -15.834  0.0000E+00  0.1566E+00
    -15.724  0.0000E+00  0.1566E+00
    -15.613  0.0000E+00  0.1566E+00
    -15.503  0.0000E+00  0.1566E+00
    -15.393  0.0000E+00  0.1566E+00
    -15.283  0.0000E+00  0.1566E+00
    -15.173  0.0000E+00  0.1566E+00
    -15.062  0.0000E+00  0.1566E+00
    -14.952  0.0000E+00  0.1566E+00
    -14.842  0.0000E+00  0.1566E+00
    -14.732  0.0000E+00  0.1566E+00
    -14.622  0.0000E+00  0.1566E+00
    -14.511  0.0000E+00  0.1566E+00
    -14.401  0.0000E+00  0.1566E+00
    -14.291  0.0000E+00  0.1566E+00
    -14.181  0.0000E+00  0.1566E+00
    -14.071  0.0000E+00  0.1566E+00
    -13.960  0.0000E+00  0.1566E+00
    -13.850  0.0000E+00  0.1566E+00
    -13.740  0.0000E+00  0.1566E+00
    -13.630  0.0000E+00  0.1566E+00
    -13.520  0.0000E+00  0.1566E+00
    -13.409  0.0000E+00  0.1566E+00
    -13.299  0.0000E+00  0.1566E+00
    -13.189  0.0000E+00  0.1566E+00
    -13.079  0.0000E+00  0.1566E+00
    -12.968  0.0000E+00  0.1566E+00
    -12.858  0.0000E+00  0.1566E+00
    -12.748  0.0000E+00  0.1566E+00
    -12.638  0.0000E+00  0.1566E+00
    -12.528  0.0000E+00  0.1566E+00
    -12.417  0.0000E+00  0.1566E+00
    -12.307  0.0000E+00  0.1566E+00
    -12.197  0.0000E+00  0.1566E+00
    -12.087  0.0000E+00  0.1566E+00
    -11.977  0.0000E+00  0.1566E+00
    -11.866  0.0000E+00  0.1566E+00
    -11.756  0.0000E+00  0.1566E+00
    -11.646  0.0000E+00  0.1566E+00
    -11.536  0.0000E+00  0.1566E+00
    -11.426  0.0000E+00  0.1566E+00
    -11.315  0.0000E+00  0.1566E+00
    -11.205  0.0000E+00  0.1566E+00
    -11.095  0.0000E+00  0.1566E+00
    -10.985  0.0000E+00  0.1566E+00
    -10.875  0.2958E-16  0.1566E+00
    -10.764  0.1123E-07  0.1566E+00
    -10.654  0.3920E-03  0.1567E+00
    -10.544  0.7772E-02  0.1575E+00
    -10.434  0.2182E-01  0.1599E+00
    -10.324  0.3319E-01  0.1636E+00
    -10.213  0.2087E-01  0.1659E+00
    -10.103  0.5587E-01  0.1720E+00
     -9.993  0.4958E-01  0.1775E+00
     -9.883  0.3671E-01  0.1815E+00
     -9.772  0.3067E-01  0.1849E+00
     -9.662  0.4617E-01  0.1900E+00
     -9.552  0.8292E-01  0.1991E+00
     -9.442  0.7689E-01  0.2076E+00
     -9.332  0.4798E-01  0.2129E+00
     -9.221  0.5097E-01  0.2185E+00
     -9.111  0.2642E-01  0.2214E+00
     -9.001  0.3880E-02  0.2219E+00
     -8.891  0.7461E-06  0.2219E+00
     -8.781  0.1884E-13  0.2219E+00
     -8.670  0.0000E+00  0.2219E+00
     -8.560  0.0000E+00  0.2219E+00
     -8.450  0.0000E+00  0.2219E+00
     -8.340  0.0000E+00  0.2219E+00
     -8.230  0.0000E+00  0.2219E+00
     -8.119  0.0000E+00  0.2219E+00
     -8.009  0.0000E+00  0.2219E+00
     -7.899  0.0000E+00  0.2219E+00
     -7.789  0.0000E+00  0.2219E+00
     -7.679  0.0000E+00  0.2219E+00
     -7.568  0.0000E+00  0.2219E+00
     -7.458  0.0000E+00  0.2219E+00
     -7.348  0.0000E+00  0.2219E+00
     -7.238  0.0000E+00  0.2219E+00
     -7.128  0.0000E+00  0.2219E+00
     -7.017  0.0000E+00  0.2219E+00
     -6.907  0.0000E+00  0.2219E+00
     -6.797  0.0000E+00  0.2219E+00
     -6.687  0.0000E+00  0.2219E+00
     -6.576  0.0000E+00  0.2219E+00
     -6.466  0.0000E+00  0.2219E+00
     -6.356  0.0000E+00  0.2219E+00
     -6.246  0.0000E+00  0.2219E+00
     -6.136  0.0000E+00  0.2219E+00
     -6.025  0.0000E+00  0.2219E+00
     -5.915  0.0000E+00  0.2219E+00
     -5.805  0.0000E+00  0.2219E+00
     -5.695  0.0000E+00  0.2219E+00
     -5.585  0.0000E+00  0.2219E+00
     -5.474  0.0000E+00  0.2219E+00
     -5.364  0.0000E+00  0.2219E+00
     -5.254  0.0000E+00  0.2219E+00
     -5.144  0.0000E+00  0.2219E+00
     -5.034  0.0000E+00  0.2219E+00
     -4.923  0.0000E+00  0.2219E+00
     -4.813  0.0000E+00  0.2219E+00
     -4.703  0.6998E-11  0.2219E+00
     -4.593  0.3288E-04  0.2219E+00
     -4.483  0.3887E-01  0.2261E+00
     -4.372  0.3112E+00  0.2604E+00
     -4.262  0.3638E+00  0.3005E+00
     -4.152  0.3399E+00  0.3380E+00
     -4.042  0.4150E+00  0.3837E+00
     -3.932  0.2603E+00  0.4124E+00
     -3.821  0.4705E-01  0.4176E+00
     -3.711  0.7866E-04  0.4176E+00
     -3.601  0.3469E-10  0.4176E+00
     -3.491  0.0000E+00  0.4176E+00
     -3.380  0.0000E+00  0.4176E+00
     -3.270  0.0000E+00  0.4176E+00
     -3.160  0.1254E-09  0.4176E+00
     -3.050  0.7818E-04  0.4176E+00
     -2.940  0.1227E-01  0.4190E+00
     -2.829  0.3409E-01  0.4227E+00
     -2.719  0.2884E-01  0.4259E+00
     -2.609  0.3955E-01  0.4303E+00
     -2.499  0.3321E-01  0.4339E+00
     -2.389  0.3173E-01  0.4374E+00
     -2.278  0.1230E-01  0.4388E+00
     -2.168  0.4941E-01  0.4442E+00
     -2.058  0.1348E-01  0.4457E+00
     -1.948  0.1168E-01  0.4470E+00
     -1.838  0.1503E-01  0.4487E+00
     -1.727  0.5423E-02  0.4493E+00
     -1.617  0.2559E-01  0.4521E+00
     -1.507  0.2807E-01  0.4552E+00
     -1.397  0.1158E-01  0.4564E+00
     -1.287  0.2911E-02  0.4568E+00
     -1.176  0.9255E-02  0.4578E+00
     -1.066  0.3920E-01  0.4621E+00
     -0.956  0.3485E-01  0.4660E+00
     -0.846  0.5492E-01  0.4720E+00
     -0.736  0.5650E-01  0.4782E+00
     -0.625  0.7346E-01  0.4863E+00
     -0.515  0.4040E-01  0.4908E+00
     -0.405  0.4798E-01  0.4961E+00
     -0.295  0.3306E-01  0.4997E+00
     -0.184  0.1755E-01  0.5016E+00
     -0.074  0.4793E-01  0.5069E+00
      0.036  0.6297E-01  0.5139E+00
      0.146  0.4749E-01  0.5191E+00
      0.256  0.6396E-01  0.5261E+00
      0.367  0.6504E-01  0.5333E+00
      0.477  0.8162E-01  0.5423E+00
      0.587  0.8649E-01  0.5518E+00
      0.697  0.8900E-01  0.5617E+00
      0.807  0.9744E-01  0.5724E+00
      0.918  0.9079E-01  0.5824E+00
      1.028  0.6142E-01  0.5892E+00
      1.138  0.5228E-01  0.5949E+00
      1.248  0.5613E-01  0.6011E+00
      1.358  0.2854E-01  0.6043E+00
      1.469  0.2183E-01  0.6067E+00
      1.579  0.2157E-01  0.6090E+00
      1.689  0.3229E-01  0.6126E+00
      1.799  0.7066E-02  0.6134E+00
      1.909  0.1168E-04  0.6134E+00
      2.020  0.4876E-11  0.6134E+00
      2.130  0.0000E+00  0.6134E+00
      2.240  0.0000E+00  0.6134E+00
      2.350  0.0000E+00  0.6134E+00
      2.460  0.0000E+00  0.6134E+00
      2.571  0.0000E+00  0.6134E+00
      2.681  0.0000E+00  0.6134E+00
      2.791  0.0000E+00  0.6134E+00
      2.901  0.0000E+00  0.6134E+00
      3.012  0.0000E+00  0.6134E+00
      3.122  0.0000E+00  0.6134E+00
      3.232  0.0000E+00  0.6134E+00
      3.342  0.9860E-18  0.6134E+00
      3.452  0.1256E-08  0.6134E+00
      3.563  0.1548E-03  0.6134E+00
      3.673  0.5057E-02  0.6140E+00
      3.783  0.7087E-03  0.6140E+00
      3.893  0.5205E-07  0.6140E+00
      4.003  0.3721E-15  0.6140E+00
      4.114  0.0000E+00  0.6140E+00
      4.224  0.0000E+00  0.6140E+00
      4.334  0.0000E+00  0.6140E+00
      4.444  0.2635E-11  0.6140E+00
      4.554  0.7717E-05  0.6140E+00
      4.665  0.3500E-02  0.6144E+00
      4.775  0.1566E-01  0.6161E+00
      4.885  0.2592E-01  0.6190E+00
      4.995  0.3087E-02  0.6193E+00
      5.105  0.1891E-01  0.6214E+00
      5.216  0.2094E-01  0.6237E+00
      5.326  0.2797E-01  0.6268E+00
      5.436  0.1073E-01  0.6280E+00
      5.546  0.2809E-01  0.6311E+00
      5.656  0.3049E-01  0.6345E+00
      5.767  0.3455E-01  0.6383E+00
      5.877  0.4155E-01  0.6428E+00
      5.987  0.2894E-01  0.6460E+00
      6.097  0.4776E-01  0.6513E+00
      6.208  0.3406E-01  0.6550E+00
      6.318  0.4641E-01  0.6602E+00
      6.428  0.2923E-01  0.6634E+00
      6.538  0.4553E-01  0.6684E+00
      6.648  0.3991E-01  0.6728E+00
      6.759  0.1524E-01  0.6745E+00
      6.869  0.1926E-01  0.6766E+00
      6.979  0.4847E-01  0.6819E+00
      7.089  0.6313E-01  0.6889E+00
      7.199  0.4167E-01  0.6935E+00
      7.310  0.5248E-01  0.6993E+00
      7.420  0.4831E-01  0.7046E+00
      7.530  0.3636E-01  0.7086E+00
      7.640  0.3832E-01  0.7128E+00
      7.750  0.4826E-01  0.7181E+00
      7.861  0.4733E-01  0.7234E+00
      7.971  0.4142E-01  0.7279E+00
      8.081  0.3416E-01  0.7317E+00
      8.191  0.4756E-01  0.7369E+00
      8.301  0.4266E-01  0.7416E+00
      8.412  0.5719E-01  0.7479E+00
      8.522  0.6185E-01  0.7548E+00
      8.632  0.1955E-01  0.7569E+00
      8.742  0.2364E-03  0.7569E+00
      8.852  0.1195E-08  0.7569E+00
      8.963  0.0000E+00  0.7569E+00
      9.073  0.0000E+00  0.7569E+00
      9.183  0.0000E+00  0.7569E+00
      9.293  0.0000E+00  0.7569E+00
      9.404  0.0000E+00  0.7569E+00
      9.514  0.0000E+00  0.7569E+00
      9.624  0.0000E+00  0.7569E+00
      9.734  0.0000E+00  0.7569E+00
      9.844  0.0000E+00  0.7569E+00
      9.955  0.0000E+00  0.7569E+00
     10.065  0.0000E+00  0.7569E+00
