       N       E                     dE             d eps       ncg     rms          rms(c)
DAV:   1     0.377493108946E+04    0.37749E+04   -0.14429E+05  1416   0.159E+03
DAV:   2     0.514345350314E+03   -0.32606E+04   -0.31418E+04  1392   0.445E+02
DAV:   3    -0.114348021925E+03   -0.62869E+03   -0.60393E+03  1552   0.190E+02
DAV:   4    -0.172004244238E+03   -0.57656E+02   -0.56891E+02  1608   0.528E+01
DAV:   5    -0.174383940540E+03   -0.23797E+01   -0.23675E+01  1632   0.116E+01    0.247E+01
DAV:   6    -0.162599598768E+03    0.11784E+02   -0.20724E+01  1992   0.445E+01    0.201E+01
DAV:   7    -0.162878219573E+03   -0.27862E+00   -0.27296E+01  1576   0.920E+00    0.109E+01
DAV:   8    -0.162729585152E+03    0.14863E+00   -0.17439E+00  1712   0.569E+00    0.347E+00
DAV:   9    -0.162738696257E+03   -0.91111E-02   -0.29984E-01  1808   0.374E+00    0.992E-01
DAV:  10    -0.162737182755E+03    0.15135E-02   -0.66120E-02  1744   0.157E+00    0.672E-01
DAV:  11    -0.162740323767E+03   -0.31410E-02   -0.19358E-02  1776   0.510E-01    0.391E-01
DAV:  12    -0.162741341050E+03   -0.10173E-02   -0.58834E-03  1600   0.330E-01    0.197E-01
DAV:  13    -0.162741826176E+03   -0.48513E-03   -0.19011E-03  1744   0.399E-01    0.702E-02
DAV:  14    -0.162741938778E+03   -0.11260E-03   -0.72683E-04  1656   0.105E-01    0.374E-02
DAV:  15    -0.162741950688E+03   -0.11910E-04   -0.88840E-05  1536   0.624E-02    0.244E-02
DAV:  16    -0.162741958525E+03   -0.78368E-05   -0.44285E-05  1464   0.382E-02    0.108E-02
DAV:  17    -0.162741960804E+03   -0.22783E-05   -0.18303E-05  1440   0.193E-02    0.731E-03
DAV:  18    -0.162741960774E+03    0.29657E-07   -0.56835E-06  1464   0.213E-02
   1 F= -.16274196E+03 E0= -.16274196E+03  d E =-.667398E-12
 Found    36 degrees of freedom:
 Adding 6 more for cell shape distortion
       N       E                     dE             d eps       ncg     rms          rms(c)
DAV:   1    -0.165912933839E+03   -0.31710E+01   -0.88874E+01  1752   0.405E+01    0.143E+01
DAV:   2    -0.163281694094E+03    0.26312E+01   -0.12893E+01  1736   0.189E+01    0.651E+00
DAV:   3    -0.162698633470E+03    0.58306E+00   -0.85321E-01  1568   0.309E+00    0.338E+00
DAV:   4    -0.162500494230E+03    0.19814E+00   -0.20265E-01  1712   0.258E+00    0.121E+00
DAV:   5    -0.162492148831E+03    0.83454E-02   -0.74084E-02  1656   0.163E+00    0.551E-01
DAV:   6    -0.162492883129E+03   -0.73430E-03   -0.25463E-02  1624   0.838E-01    0.247E-01
DAV:   7    -0.162493184828E+03   -0.30170E-03   -0.52054E-03  1544   0.430E-01    0.120E-01
DAV:   8    -0.162493244146E+03   -0.59318E-04   -0.88129E-04  1600   0.197E-01    0.384E-02
DAV:   9    -0.162493266897E+03   -0.22751E-04   -0.26351E-04  1512   0.820E-02    0.275E-02
DAV:  10    -0.162493271285E+03   -0.43889E-05   -0.65113E-05  1496   0.430E-02    0.158E-02
DAV:  11    -0.162493273147E+03   -0.18617E-05   -0.11895E-05  1464   0.180E-02    0.685E-03
DAV:  12    -0.162493273711E+03   -0.56424E-06   -0.41934E-06  1136   0.111E-02
   2 F= -.16249327E+03 E0= -.16249327E+03  d E =-.200974E-18
       N       E                     dE             d eps       ncg     rms          rms(c)
DAV:   1    -0.163523347880E+03   -0.10301E+01   -0.21288E+01  1744   0.187E+01    0.721E+00
DAV:   2    -0.162869078254E+03    0.65427E+00   -0.33091E+00  1720   0.111E+01    0.322E+00
DAV:   3    -0.162726417214E+03    0.14266E+00   -0.23240E-01  1648   0.194E+00    0.162E+00
DAV:   4    -0.162684959751E+03    0.41457E-01   -0.52741E-02  1704   0.119E+00    0.762E-01
DAV:   5    -0.162681728271E+03    0.32315E-02   -0.17677E-02  1712   0.934E-01    0.314E-01
DAV:   6    -0.162681676425E+03    0.51846E-04   -0.66462E-03  1704   0.537E-01    0.101E-01
DAV:   7    -0.162681814380E+03   -0.13795E-03   -0.19760E-03  1552   0.228E-01    0.635E-02
DAV:   8    -0.162681825500E+03   -0.11120E-04   -0.26196E-04  1496   0.854E-02    0.274E-02
DAV:   9    -0.162681826754E+03   -0.12540E-05   -0.47982E-05  1480   0.556E-02    0.876E-03
DAV:  10    -0.162681828828E+03   -0.20739E-05   -0.17232E-05  1320   0.198E-02    0.709E-03
DAV:  11    -0.162681828737E+03    0.90586E-07   -0.27667E-06  1000   0.862E-03
   3 F= -.16268183E+03 E0= -.16268183E+03  d E =-.129663E-15
       N       E                     dE             d eps       ncg     rms          rms(c)
DAV:   1    -0.166142976271E+03   -0.34611E+01   -0.87567E+01  1736   0.378E+01    0.149E+01
DAV:   2    -0.163417509272E+03    0.27255E+01   -0.14003E+01  1696   0.252E+01    0.670E+00
DAV:   3    -0.162843626062E+03    0.57388E+00   -0.12059E+00  1680   0.444E+00    0.331E+00
DAV:   4    -0.162680995811E+03    0.16263E+00   -0.23662E-01  1712   0.223E+00    0.182E+00
DAV:   5    -0.162661954949E+03    0.19041E-01   -0.63034E-02  1704   0.200E+00    0.727E-01
DAV:   6    -0.162660160745E+03    0.17942E-02   -0.28739E-02  1712   0.118E+00    0.182E-01
DAV:   7    -0.162660977890E+03   -0.81714E-03   -0.10891E-02  1592   0.509E-01    0.136E-01
DAV:   8    -0.162661029197E+03   -0.51307E-04   -0.11832E-03  1648   0.165E-01    0.669E-02
DAV:   9    -0.162661035046E+03   -0.58489E-05   -0.19939E-04  1568   0.136E-01    0.204E-02
DAV:  10    -0.162661040674E+03   -0.56277E-05   -0.62889E-05  1432   0.420E-02    0.138E-02
DAV:  11    -0.162661040488E+03    0.18610E-06   -0.11544E-05  1336   0.181E-02    0.798E-03
DAV:  12    -0.162661039344E+03    0.11441E-05   -0.33691E-06  1048   0.973E-03    0.304E-03
DAV:  13    -0.162661039474E+03   -0.12993E-06   -0.21712E-06  1000   0.575E-03
   4 F= -.16266104E+03 E0= -.16266104E+03  d E =-.182764E-17
       N       E                     dE             d eps       ncg     rms          rms(c)
DAV:   1    -0.163323770160E+03   -0.66273E+00   -0.23007E+01  1752   0.200E+01    0.758E+00
DAV:   2    -0.162623488780E+03    0.70028E+00   -0.36337E+00  1696   0.120E+01    0.343E+00
DAV:   3    -0.162468710549E+03    0.15478E+00   -0.26222E-01  1648   0.205E+00    0.170E+00
DAV:   4    -0.162423524571E+03    0.45186E-01   -0.58751E-02  1696   0.119E+00    0.848E-01
DAV:   5    -0.162419541446E+03    0.39831E-02   -0.18223E-02  1712   0.990E-01    0.349E-01
DAV:   6    -0.162419339076E+03    0.20237E-03   -0.77594E-03  1696   0.622E-01    0.108E-01
DAV:   7    -0.162419505899E+03   -0.16682E-03   -0.24322E-03  1552   0.260E-01    0.683E-02
DAV:   8    -0.162419521325E+03   -0.15426E-04   -0.33606E-04  1568   0.850E-02    0.262E-02
DAV:   9    -0.162419523389E+03   -0.20636E-05   -0.59901E-05  1448   0.661E-02    0.961E-03
DAV:  10    -0.162419525560E+03   -0.21713E-05   -0.18132E-05  1360   0.186E-02    0.776E-03
DAV:  11    -0.162419525320E+03    0.24012E-06   -0.27855E-06   992   0.639E-03
   5 F= -.16241953E+03 E0= -.16241953E+03  d E =-.224156E-10
       N       E                     dE             d eps       ncg     rms          rms(c)
DAV:   1    -0.173687535064E+03   -0.11268E+02   -0.24159E+02  1808   0.806E+01    0.251E+01
DAV:   2    -0.164524090894E+03    0.91634E+01   -0.35259E+01  1720   0.321E+01    0.107E+01
DAV:   3    -0.163006967192E+03    0.15171E+01   -0.29046E+00  1600   0.495E+00    0.559E+00
DAV:   4    -0.162528628650E+03    0.47834E+00   -0.37718E-01  1632   0.254E+00    0.191E+00
DAV:   5    -0.162490229107E+03    0.38400E-01   -0.93605E-02  1912   0.275E+00    0.805E-01
DAV:   6    -0.162489534259E+03    0.69485E-03   -0.44421E-02  1632   0.138E+00    0.353E-01
DAV:   7    -0.162491086646E+03   -0.15524E-02   -0.19185E-02  1520   0.571E-01    0.220E-01
DAV:   8    -0.162491142954E+03   -0.56308E-04   -0.12824E-03  1808   0.151E-01    0.901E-02
DAV:   9    -0.162491135596E+03    0.73580E-05   -0.25949E-04  1720   0.133E-01    0.390E-02
DAV:  10    -0.162491141301E+03   -0.57050E-05   -0.11885E-04  1712   0.579E-02    0.247E-02
DAV:  11    -0.162491142021E+03   -0.72028E-06   -0.15941E-05  1400   0.151E-02    0.171E-02
DAV:  12    -0.162491142064E+03   -0.42761E-07   -0.45797E-06  1136   0.212E-02
   6 F= -.16249114E+03 E0= -.16249114E+03  d E =-.750733E-11
       N       E                     dE             d eps       ncg     rms          rms(c)
DAV:   1    -0.163542740188E+03   -0.10516E+01   -0.21666E+01  1736   0.189E+01    0.725E+00
DAV:   2    -0.162872902266E+03    0.66984E+00   -0.34279E+00  1696   0.114E+01    0.324E+00
DAV:   3    -0.162724860284E+03    0.14804E+00   -0.24780E-01  1648   0.199E+00    0.163E+00
DAV:   4    -0.162681528433E+03    0.43332E-01   -0.59055E-02  1712   0.132E+00    0.791E-01
DAV:   5    -0.162678266203E+03    0.32622E-02   -0.21110E-02  1680   0.881E-01    0.336E-01
DAV:   6    -0.162678169051E+03    0.97152E-04   -0.78188E-03  1672   0.619E-01    0.120E-01
DAV:   7    -0.162678299596E+03   -0.13055E-03   -0.21496E-03  1560   0.263E-01    0.654E-02
DAV:   8    -0.162678321769E+03   -0.22172E-04   -0.35933E-04  1608   0.771E-02    0.277E-02
DAV:   9    -0.162678323577E+03   -0.18078E-05   -0.56293E-05  1520   0.601E-02    0.998E-03
DAV:  10    -0.162678324686E+03   -0.11094E-05   -0.16170E-05  1432   0.260E-02    0.733E-03
DAV:  11    -0.162678324559E+03    0.12720E-06   -0.24963E-06  1016   0.759E-03
   7 F= -.16267832E+03 E0= -.16267832E+03  d E =-.307272E-16
       N       E                     dE             d eps       ncg     rms          rms(c)
DAV:   1    -0.166237637923E+03   -0.35593E+01   -0.89205E+01  1744   0.382E+01    0.151E+01
DAV:   2    -0.163456792991E+03    0.27808E+01   -0.14528E+01  1656   0.259E+01    0.672E+00
DAV:   3    -0.162860772426E+03    0.59602E+00   -0.12419E+00  1680   0.453E+00    0.337E+00
DAV:   4    -0.162687133911E+03    0.17364E+00   -0.26156E-01  1736   0.251E+00    0.185E+00
DAV:   5    -0.162668253204E+03    0.18881E-01   -0.76429E-02  1744   0.180E+00    0.766E-01
DAV:   6    -0.162666050506E+03    0.22027E-02   -0.32102E-02  1696   0.142E+00    0.237E-01
DAV:   7    -0.162666800157E+03   -0.74965E-03   -0.11291E-02  1536   0.586E-01    0.141E-01
DAV:   8    -0.162666930771E+03   -0.13061E-03   -0.19030E-03  1624   0.170E-01    0.752E-02
DAV:   9    -0.162666933258E+03   -0.24875E-05   -0.26425E-04  1576   0.158E-01    0.230E-02
DAV:  10    -0.162666938020E+03   -0.47613E-05   -0.85875E-05  1696   0.645E-02    0.146E-02
DAV:  11    -0.162666937298E+03    0.72150E-06   -0.65901E-06  1584   0.235E-02
   8 F= -.16266694E+03 E0= -.16266694E+03  d E =-.655671E-17
       N       E                     dE             d eps       ncg     rms          rms(c)
DAV:   1    -0.163360985097E+03   -0.69405E+00   -0.23455E+01  1752   0.202E+01    0.765E+00
DAV:   2    -0.162648706280E+03    0.71228E+00   -0.37928E+00  1664   0.124E+01    0.345E+00
DAV:   3    -0.162487114007E+03    0.16159E+00   -0.27175E-01  1664   0.222E+00    0.174E+00
DAV:   4    -0.162439202397E+03    0.47912E-01   -0.68435E-02  1736   0.143E+00    0.871E-01
DAV:   5    -0.162435073448E+03    0.41289E-02   -0.22888E-02  1672   0.102E+00    0.384E-01
DAV:   6    -0.162434785128E+03    0.28832E-03   -0.94290E-03  1720   0.724E-01    0.139E-01
DAV:   7    -0.162434966291E+03   -0.18116E-03   -0.29596E-03  1544   0.315E-01    0.733E-02
DAV:   8    -0.162435003618E+03   -0.37327E-04   -0.53460E-04  1616   0.933E-02    0.380E-02
DAV:   9    -0.162435004373E+03   -0.75499E-06   -0.82244E-05  1544   0.846E-02    0.123E-02
DAV:  10    -0.162435006028E+03   -0.16545E-05   -0.24389E-05  1576   0.318E-02    0.842E-03
DAV:  11    -0.162435005671E+03    0.35687E-06   -0.21559E-06  1032   0.101E-02
   9 F= -.16243501E+03 E0= -.16243501E+03  d E =-.287618E-13
       N       E                     dE             d eps       ncg     rms          rms(c)
DAV:   1    -0.173860800978E+03   -0.11426E+02   -0.24262E+02  1832   0.806E+01    0.250E+01
DAV:   2    -0.164609964536E+03    0.92508E+01   -0.35678E+01  1704   0.321E+01    0.108E+01
DAV:   3    -0.163062735174E+03    0.15472E+01   -0.29062E+00  1600   0.501E+00    0.563E+00
DAV:   4    -0.162563024505E+03    0.49971E+00   -0.39348E-01  1632   0.286E+00    0.192E+00
DAV:   5    -0.162525319258E+03    0.37705E-01   -0.99756E-02  1824   0.269E+00    0.834E-01
DAV:   6    -0.162525018794E+03    0.30046E-03   -0.46907E-02  1608   0.124E+00    0.347E-01
DAV:   7    -0.162526504146E+03   -0.14854E-02   -0.17342E-02  1528   0.523E-01    0.212E-01
DAV:   8    -0.162526553783E+03   -0.49636E-04   -0.10714E-03  1800   0.185E-01    0.927E-02
DAV:   9    -0.162526559110E+03   -0.53271E-05   -0.26639E-04  1704   0.146E-01    0.368E-02
DAV:  10    -0.162526562376E+03   -0.32658E-05   -0.10994E-04  1720   0.573E-02    0.267E-02
DAV:  11    -0.162526564494E+03   -0.21186E-05   -0.21912E-05  1544   0.165E-02    0.195E-02
DAV:  12    -0.162526565375E+03   -0.88121E-06   -0.34513E-06  1304   0.158E-02
  10 F= -.16252657E+03 E0= -.16252657E+03  d E =-.427029E-13
       N       E                     dE             d eps       ncg     rms          rms(c)
DAV:   1    -0.163520574469E+03   -0.99401E+00   -0.20971E+01  1744   0.189E+01    0.715E+00
DAV:   2    -0.162869086561E+03    0.65149E+00   -0.33269E+00  1712   0.112E+01    0.322E+00
DAV:   3    -0.162732826309E+03    0.13626E+00   -0.22625E-01  1648   0.190E+00    0.161E+00
DAV:   4    -0.162692176709E+03    0.40650E-01   -0.50371E-02  1688   0.115E+00    0.746E-01
DAV:   5    -0.162689366761E+03    0.28099E-02   -0.17726E-02  1712   0.101E+00    0.315E-01
DAV:   6    -0.162689366376E+03    0.38504E-06   -0.71546E-03  1680   0.584E-01    0.102E-01
DAV:   7    -0.162689535220E+03   -0.16884E-03   -0.22790E-03  1544   0.241E-01    0.639E-02
DAV:   8    -0.162689549111E+03   -0.13891E-04   -0.26737E-04  1544   0.785E-02    0.358E-02
DAV:   9    -0.162689550645E+03   -0.15339E-05   -0.51079E-05  1448   0.664E-02    0.102E-02
DAV:  10    -0.162689552663E+03   -0.20178E-05   -0.15755E-05  1520   0.199E-02    0.607E-03
DAV:  11    -0.162689552561E+03    0.10136E-06   -0.24460E-06   992   0.760E-03
  11 F= -.16268955E+03 E0= -.16268955E+03  d E =-.723917E-14
       N       E                     dE             d eps       ncg     rms          rms(c)
DAV:   1    -0.166121635146E+03   -0.34321E+01   -0.86438E+01  1760   0.381E+01    0.148E+01
DAV:   2    -0.163402237740E+03    0.27194E+01   -0.14157E+01  1672   0.256E+01    0.668E+00
DAV:   3    -0.162853254402E+03    0.54898E+00   -0.11579E+00  1680   0.439E+00    0.331E+00
DAV:   4    -0.162687699029E+03    0.16556E+00   -0.22932E-01  1720   0.218E+00    0.172E+00
DAV:   5    -0.162671865446E+03    0.15834E-01   -0.63831E-02  1712   0.204E+00    0.708E-01
DAV:   6    -0.162670583020E+03    0.12824E-02   -0.28073E-02  1696   0.119E+00    0.191E-01
DAV:   7    -0.162671397206E+03   -0.81419E-03   -0.10772E-02  1536   0.528E-01    0.133E-01
DAV:   8    -0.162671467728E+03   -0.70521E-04   -0.12317E-03  1656   0.169E-01    0.851E-02
DAV:   9    -0.162671472325E+03   -0.45969E-05   -0.21465E-04  1480   0.136E-01    0.243E-02
DAV:  10    -0.162671479534E+03   -0.72097E-05   -0.64560E-05  1624   0.365E-02    0.121E-02
DAV:  11    -0.162671479572E+03   -0.37639E-07   -0.88038E-06  1400   0.195E-02
  12 F= -.16267148E+03 E0= -.16267148E+03  d E =-.725106E-19
       N       E                     dE             d eps       ncg     rms          rms(c)
DAV:   1    -0.163361433696E+03   -0.68995E+00   -0.22746E+01  1760   0.201E+01    0.753E+00
DAV:   2    -0.162661401149E+03    0.70003E+00   -0.36877E+00  1696   0.123E+01    0.342E+00
DAV:   3    -0.162512682655E+03    0.14872E+00   -0.24940E-01  1656   0.197E+00    0.170E+00
DAV:   4    -0.162466791295E+03    0.45891E-01   -0.56788E-02  1688   0.108E+00    0.813E-01
DAV:   5    -0.162463541556E+03    0.32497E-02   -0.18601E-02  1680   0.103E+00    0.341E-01
DAV:   6    -0.162463388586E+03    0.15297E-03   -0.76757E-03  1688   0.679E-01    0.112E-01
DAV:   7    -0.162463576415E+03   -0.18783E-03   -0.25480E-03  1536   0.255E-01    0.698E-02
DAV:   8    -0.162463594848E+03   -0.18433E-04   -0.31661E-04  1560   0.740E-02    0.438E-02
DAV:   9    -0.162463594158E+03    0.68963E-06   -0.57824E-05  1496   0.820E-02    0.109E-02
DAV:  10    -0.162463596463E+03   -0.23046E-05   -0.19411E-05  1672   0.238E-02    0.700E-03
DAV:  11    -0.162463596218E+03    0.24477E-06   -0.22371E-06   992   0.810E-03
  13 F= -.16246360E+03 E0= -.16246360E+03  d E =-.558887E-15
       N       E                     dE             d eps       ncg     rms          rms(c)
DAV:   1    -0.166784373741E+03   -0.43208E+01   -0.12273E+02  1736   0.454E+01    0.161E+01
DAV:   2    -0.163731630456E+03    0.30527E+01   -0.16737E+01  1736   0.216E+01    0.778E+00
DAV:   3    -0.162956978622E+03    0.77465E+00   -0.10068E+00  1600   0.353E+00    0.408E+00
DAV:   4    -0.162672728793E+03    0.28425E+00   -0.28990E-01  1664   0.279E+00    0.131E+00
DAV:   5    -0.162668267841E+03    0.44610E-02   -0.11405E-01  1672   0.200E+00    0.626E-01
DAV:   6    -0.162669854963E+03   -0.15871E-02   -0.37346E-02  1600   0.124E+00    0.318E-01
DAV:   7    -0.162670243791E+03   -0.38883E-03   -0.78084E-03  1592   0.597E-01    0.138E-01
DAV:   8    -0.162670413601E+03   -0.16981E-03   -0.18942E-03  1576   0.185E-01    0.679E-02
DAV:   9    -0.162670439521E+03   -0.25919E-04   -0.32189E-04  1600   0.114E-01    0.400E-02
DAV:  10    -0.162670446002E+03   -0.64819E-05   -0.80928E-05  1576   0.581E-02    0.156E-02
DAV:  11    -0.162670448231E+03   -0.22283E-05   -0.22299E-05  1528   0.140E-02    0.137E-02
DAV:  12    -0.162670449392E+03   -0.11609E-05   -0.40454E-06  1288   0.622E-03    0.641E-03
DAV:  13    -0.162670449125E+03    0.26687E-06   -0.93859E-07   816   0.124E-02
  14 F= -.16267045E+03 E0= -.16267045E+03  d E =-.552075E-12
       N       E                     dE             d eps       ncg     rms          rms(c)
DAV:   1    -0.162882925622E+03   -0.21248E+00   -0.75540E+00  1456   0.681E+00    0.307E+00
DAV:   2    -0.162787718699E+03    0.95207E-01   -0.24443E-01  1624   0.221E+00    0.185E+00
DAV:   3    -0.162723688275E+03    0.64030E-01   -0.40252E-02  1952   0.986E-01    0.386E-01
DAV:   4    -0.162724232124E+03   -0.54385E-03   -0.23777E-02  1600   0.406E-01    0.150E-01
DAV:   5    -0.162724255768E+03   -0.23643E-04   -0.12828E-03  1600   0.123E-01    0.977E-02
DAV:   6    -0.162724234615E+03    0.21153E-04   -0.18211E-04  1888   0.541E-02    0.142E-02
DAV:   7    -0.162724237715E+03   -0.31002E-05   -0.44996E-05  1536   0.320E-02    0.255E-02
DAV:   8    -0.162724238493E+03   -0.77793E-06   -0.54006E-06  1360   0.981E-03
  15 F= -.16272424E+03 E0= -.16272424E+03  d E =-.917727E-12
       N       E                     dE             d eps       ncg     rms          rms(c)
DAV:   1    -0.163358408269E+03   -0.63417E+00   -0.30203E+01  1448   0.136E+01    0.614E+00
DAV:   2    -0.162978345614E+03    0.38006E+00   -0.98962E-01  1624   0.426E+00    0.369E+00
DAV:   3    -0.162723061314E+03    0.25528E+00   -0.16091E-01  1848   0.187E+00    0.796E-01
DAV:   4    -0.162724154364E+03   -0.10930E-02   -0.91050E-02  1600   0.828E-01    0.297E-01
DAV:   5    -0.162724337052E+03   -0.18269E-03   -0.57147E-03  1600   0.270E-01    0.211E-01
DAV:   6    -0.162724214975E+03    0.12208E-03   -0.77241E-04  1976   0.122E-01    0.354E-02
DAV:   7    -0.162724235216E+03   -0.20241E-04   -0.21180E-04  1600   0.797E-02    0.494E-02
DAV:   8    -0.162724238902E+03   -0.36854E-05   -0.31961E-05  1424   0.238E-02    0.323E-02
DAV:   9    -0.162724238197E+03    0.70433E-06   -0.93913E-06  1576   0.136E-02
  16 F= -.16272424E+03 E0= -.16272424E+03  d E =-.543564E-12
       N       E                     dE             d eps       ncg     rms          rms(c)
DAV:   1    -0.162829086910E+03   -0.10485E+00   -0.75510E+00  1448   0.677E+00    0.307E+00
DAV:   2    -0.162733957625E+03    0.95129E-01   -0.24493E-01  1624   0.222E+00    0.185E+00
DAV:   3    -0.162669902314E+03    0.64055E-01   -0.40456E-02  1904   0.989E-01    0.385E-01
DAV:   4    -0.162670437293E+03   -0.53498E-03   -0.23598E-02  1592   0.411E-01    0.150E-01
DAV:   5    -0.162670468713E+03   -0.31420E-04   -0.13349E-03  1624   0.129E-01    0.101E-01
DAV:   6    -0.162670443053E+03    0.25660E-04   -0.18658E-04  1936   0.691E-02    0.157E-02
DAV:   7    -0.162670448855E+03   -0.58024E-05   -0.69209E-05  1560   0.427E-02    0.261E-02
DAV:   8    -0.162670449303E+03   -0.44764E-06   -0.57098E-06  1344   0.148E-02
  17 F= -.16267045E+03 E0= -.16267045E+03  d E =-.647972E-12
       N       E                     dE             d eps       ncg     rms          rms(c)
DAV:   1    -0.163965075284E+03   -0.12946E+01   -0.61270E+01  1424   0.195E+01    0.878E+00
DAV:   2    -0.163211911650E+03    0.75316E+00   -0.23568E+00  1640   0.643E+00    0.518E+00
DAV:   3    -0.162693938393E+03    0.51797E+00   -0.29356E-01  1904   0.269E+00    0.185E+00
DAV:   4    -0.162643215669E+03    0.50723E-01   -0.20596E-01  1608   0.150E+00    0.500E-01
DAV:   5    -0.162646293626E+03   -0.30780E-02   -0.50591E-02  1600   0.942E-01    0.417E-01
DAV:   6    -0.162645728264E+03    0.56536E-03   -0.61047E-03  1848   0.570E-01    0.196E-01
DAV:   7    -0.162645591608E+03    0.13666E-03   -0.14740E-03  1776   0.200E-01    0.898E-02
DAV:   8    -0.162645587929E+03    0.36796E-05   -0.47274E-04  1576   0.774E-02    0.789E-02
DAV:   9    -0.162645577114E+03    0.10815E-04   -0.12833E-04  1752   0.787E-02    0.471E-02
DAV:  10    -0.162645574926E+03    0.21878E-05   -0.43997E-05  1632   0.387E-02    0.175E-02
DAV:  11    -0.162645575529E+03   -0.60270E-06   -0.14442E-05  1544   0.118E-02    0.146E-02
DAV:  12    -0.162645575403E+03    0.12633E-06   -0.43334E-06  1160   0.105E-02
  18 F= -.16264558E+03 E0= -.16264558E+03  d E =-.127145E-11
       N       E                     dE             d eps       ncg     rms          rms(c)
DAV:   1    -0.162894171677E+03   -0.24860E+00   -0.78106E+00  1440   0.703E+00    0.324E+00
DAV:   2    -0.162787316905E+03    0.10685E+00   -0.28562E-01  1640   0.232E+00    0.187E+00
DAV:   3    -0.162723859046E+03    0.63458E-01   -0.44537E-02  1784   0.877E-01    0.759E-01
DAV:   4    -0.162717479308E+03    0.63797E-02   -0.29588E-02  1648   0.523E-01    0.217E-01
DAV:   5    -0.162717943943E+03   -0.46463E-03   -0.72645E-03  1608   0.412E-01    0.199E-01
DAV:   6    -0.162717905595E+03    0.38348E-04   -0.11031E-03  1864   0.222E-01    0.100E-01
DAV:   7    -0.162717911974E+03   -0.63790E-05   -0.20149E-04  1712   0.763E-02    0.402E-02
DAV:   8    -0.162717914685E+03   -0.27113E-05   -0.71900E-05  1528   0.431E-02    0.201E-02
DAV:   9    -0.162717915800E+03   -0.11149E-05   -0.19539E-05  1512   0.204E-02    0.163E-02
DAV:  10    -0.162717916335E+03   -0.53550E-06   -0.68794E-06  1496   0.106E-02
  19 F= -.16271792E+03 E0= -.16271792E+03  d E =-.201640E-11
       N       E                     dE             d eps       ncg     rms          rms(c)
DAV:   1    -0.163421904581E+03   -0.70399E+00   -0.31227E+01  1440   0.141E+01    0.653E+00
DAV:   2    -0.162995811886E+03    0.42609E+00   -0.11608E+00  1640   0.448E+00    0.375E+00
DAV:   3    -0.162745653061E+03    0.25016E+00   -0.17202E-01  1768   0.173E+00    0.157E+00
DAV:   4    -0.162715767501E+03    0.29886E-01   -0.11417E-01  1664   0.114E+00    0.431E-01
DAV:   5    -0.162717963681E+03   -0.21962E-02   -0.33159E-02  1624   0.903E-01    0.379E-01
DAV:   6    -0.162717848809E+03    0.11487E-03   -0.51493E-03  1872   0.484E-01    0.191E-01
DAV:   7    -0.162717893948E+03   -0.45139E-04   -0.10621E-03  1752   0.174E-01    0.794E-02
DAV:   8    -0.162717910134E+03   -0.16186E-04   -0.27928E-04  1560   0.770E-02    0.541E-02
DAV:   9    -0.162717914097E+03   -0.39639E-05   -0.77348E-05  1696   0.552E-02    0.320E-02
DAV:  10    -0.162717916238E+03   -0.21406E-05   -0.29923E-05  1592   0.238E-02    0.172E-02
DAV:  11    -0.162717916393E+03   -0.15521E-06   -0.52146E-06  1304   0.113E-02
  20 F= -.16271792E+03 E0= -.16271792E+03  d E =-.198954E-11
       N       E                     dE             d eps       ncg     rms          rms(c)
DAV:   1    -0.162821673525E+03   -0.10376E+00   -0.78079E+00  1448   0.704E+00    0.326E+00
DAV:   2    -0.162715068260E+03    0.10661E+00   -0.28862E-01  1640   0.232E+00    0.187E+00
DAV:   3    -0.162652365252E+03    0.62703E-01   -0.42990E-02  1824   0.846E-01    0.782E-01
DAV:   4    -0.162645091605E+03    0.72736E-02   -0.29289E-02  1728   0.528E-01    0.205E-01
DAV:   5    -0.162645594309E+03   -0.50270E-03   -0.77270E-03  1576   0.426E-01    0.185E-01
DAV:   6    -0.162645556123E+03    0.38186E-04   -0.12253E-03  1848   0.233E-01    0.834E-02
DAV:   7    -0.162645570240E+03   -0.14117E-04   -0.22824E-04  1712   0.782E-02    0.388E-02
DAV:   8    -0.162645574484E+03   -0.42445E-05   -0.58190E-05  1432   0.327E-02    0.251E-02
DAV:   9    -0.162645575185E+03   -0.70051E-06   -0.17794E-05  1640   0.301E-02    0.133E-02
DAV:  10    -0.162645575606E+03   -0.42069E-06   -0.64370E-06  1576   0.150E-02
  21 F= -.16264558E+03 E0= -.16264558E+03  d E =-.141697E-11
       N       E                     dE             d eps       ncg     rms          rms(c)
DAV:   1    -0.164106417308E+03   -0.14608E+01   -0.63932E+01  1448   0.200E+01    0.876E+00
DAV:   2    -0.163276634969E+03    0.82978E+00   -0.25686E+00  1648   0.634E+00    0.519E+00
DAV:   3    -0.162679637066E+03    0.59700E+00   -0.38699E-01  1824   0.252E+00    0.161E+00
DAV:   4    -0.162639943775E+03    0.39693E-01   -0.25944E-01  1680   0.139E+00    0.419E-01
DAV:   5    -0.162640118285E+03   -0.17451E-03   -0.36902E-02  1600   0.781E-01    0.348E-01
DAV:   6    -0.162638627327E+03    0.14910E-02   -0.56708E-03  1904   0.536E-01    0.171E-01
DAV:   7    -0.162637416482E+03    0.12108E-02   -0.20016E-03  1760   0.226E-01    0.453E-02
DAV:   8    -0.162637045512E+03    0.37097E-03   -0.83021E-04  1848   0.106E-01    0.652E-02
DAV:   9    -0.162636783501E+03    0.26201E-03   -0.25192E-04  1776   0.667E-02    0.240E-02
DAV:  10    -0.162636604633E+03    0.17887E-03   -0.12801E-04  1904   0.576E-02    0.923E-03
DAV:  11    -0.162636473716E+03    0.13092E-03   -0.95502E-05  2104   0.648E-02    0.110E-02
DAV:  12    -0.162636408812E+03    0.64904E-04   -0.10415E-04  2000   0.627E-02    0.808E-03
DAV:  13    -0.162636402251E+03    0.65606E-05   -0.14774E-04  1600   0.373E-02    0.379E-03
DAV:  14    -0.162636399675E+03    0.25765E-05   -0.40049E-05  1608   0.173E-02    0.223E-03
DAV:  15    -0.162636391203E+03    0.84721E-05   -0.54486E-06  1504   0.335E-02    0.184E-03
DAV:  16    -0.162636388505E+03    0.26974E-05   -0.76319E-06  1488   0.220E-02    0.135E-03
DAV:  17    -0.162636388619E+03   -0.11399E-06   -0.94169E-06  1456   0.839E-03
  22 F= -.16263639E+03 E0= -.16263639E+03  d E =-.317000E-12
       N       E                     dE             d eps       ncg     rms          rms(c)
DAV:   1    -0.162908280606E+03   -0.27189E+00   -0.81828E+00  1432   0.705E+00    0.327E+00
DAV:   2    -0.162792049111E+03    0.11623E+00   -0.33821E-01  1632   0.247E+00    0.188E+00
DAV:   3    -0.162720421972E+03    0.71627E-01   -0.54073E-02  1808   0.896E-01    0.706E-01
DAV:   4    -0.162715411971E+03    0.50100E-02   -0.35276E-02  1736   0.479E-01    0.159E-01
DAV:   5    -0.162715644363E+03   -0.23239E-03   -0.58733E-03  1568   0.258E-01    0.117E-01
DAV:   6    -0.162715658727E+03   -0.14364E-04   -0.32636E-04  1808   0.823E-02    0.407E-02
DAV:   7    -0.162715660746E+03   -0.20189E-05   -0.33685E-05  1592   0.517E-02    0.208E-02
DAV:   8    -0.162715662690E+03   -0.19441E-05   -0.15230E-05  1392   0.132E-02    0.796E-03
DAV:   9    -0.162715661687E+03    0.10031E-05   -0.30989E-06  1216   0.701E-03    0.421E-03
DAV:  10    -0.162715661805E+03   -0.11835E-06   -0.12190E-06   816   0.469E-03
  23 F= -.16271566E+03 E0= -.16271566E+03  d E =-.152858E-11
       N       E                     dE             d eps       ncg     rms          rms(c)
DAV:   1    -0.163485449076E+03   -0.76979E+00   -0.32716E+01  1440   0.140E+01    0.654E+00
DAV:   2    -0.163021547717E+03    0.46390E+00   -0.13691E+00  1632   0.474E+00    0.376E+00
DAV:   3    -0.162737033434E+03    0.28451E+00   -0.21379E-01  1736   0.171E+00    0.144E+00
DAV:   4    -0.162714571725E+03    0.22462E-01   -0.13424E-01  1696   0.966E-01    0.315E-01
DAV:   5    -0.162715755263E+03   -0.11835E-02   -0.23007E-02  1560   0.544E-01    0.276E-01
DAV:   6    -0.162715650291E+03    0.10497E-03   -0.17079E-03  1944   0.262E-01    0.103E-01
DAV:   7    -0.162715645068E+03    0.52228E-05   -0.33156E-04  1816   0.160E-01    0.440E-02
DAV:   8    -0.162715665582E+03   -0.20514E-04   -0.13962E-04  1456   0.311E-02    0.329E-02
DAV:   9    -0.162715661253E+03    0.43293E-05   -0.22106E-05  1632   0.360E-02    0.144E-02
DAV:  10    -0.162715661535E+03   -0.28194E-06   -0.75408E-06  1384   0.128E-02
  24 F= -.16271566E+03 E0= -.16271566E+03  d E =-.152564E-11
       N       E                     dE             d eps       ncg     rms          rms(c)
DAV:   1    -0.162828974041E+03   -0.11331E+00   -0.81793E+00  1440   0.701E+00    0.327E+00
DAV:   2    -0.162712860408E+03    0.11611E+00   -0.33978E-01  1632   0.248E+00    0.188E+00
DAV:   3    -0.162641295314E+03    0.71565E-01   -0.53847E-02  1840   0.891E-01    0.708E-01
DAV:   4    -0.162636127345E+03    0.51680E-02   -0.34438E-02  1720   0.476E-01    0.158E-01
DAV:   5    -0.162636383569E+03   -0.25622E-03   -0.58600E-03  1568   0.266E-01    0.125E-01
DAV:   6    -0.162636381712E+03    0.18567E-05   -0.38685E-04  1896   0.126E-01    0.428E-02
DAV:   7    -0.162636384967E+03   -0.32546E-05   -0.55754E-05  1832   0.537E-02    0.234E-02
DAV:   8    -0.162636388101E+03   -0.31339E-05   -0.13522E-05  1592   0.161E-02    0.106E-02
DAV:   9    -0.162636387051E+03    0.10498E-05   -0.61645E-06  1328   0.172E-02    0.403E-03
DAV:  10    -0.162636387140E+03   -0.89167E-07   -0.11195E-06   816   0.308E-03
  25 F= -.16263639E+03 E0= -.16263639E+03  d E =-.310604E-12
       N       E                     dE             d eps       ncg     rms          rms(c)
DAV:   1    -0.163500470425E+03   -0.86408E+00   -0.36119E+01  1440   0.145E+01    0.654E+00
DAV:   2    -0.163045450773E+03    0.45502E+00   -0.14470E+00  1632   0.483E+00    0.376E+00
DAV:   3    -0.162761206319E+03    0.28424E+00   -0.21853E-01  1736   0.173E+00    0.143E+00
DAV:   4    -0.162739252655E+03    0.21954E-01   -0.13522E-01  1712   0.973E-01    0.317E-01
DAV:   5    -0.162740394924E+03   -0.11423E-02   -0.22631E-02  1568   0.565E-01    0.276E-01
DAV:   6    -0.162740327231E+03    0.67693E-04   -0.23007E-03  1920   0.345E-01    0.114E-01
DAV:   7    -0.162740314544E+03    0.12687E-04   -0.36137E-04  1808   0.161E-01    0.441E-02
DAV:   8    -0.162740333815E+03   -0.19271E-04   -0.13931E-04  1696   0.529E-02    0.330E-02
DAV:   9    -0.162740333108E+03    0.70654E-06   -0.48399E-05  1464   0.395E-02    0.143E-02
DAV:  10    -0.162740333233E+03   -0.12486E-06   -0.73775E-06  1376   0.685E-03
  26 F= -.16274033E+03 E0= -.16274033E+03  d E =-.229908E-11
       N       E                     dE             d eps       ncg     rms          rms(c)
DAV:   1    -0.162740313858E+03    0.19251E-04   -0.86851E-01  1536   0.726E-01    0.423E-02
DAV:   2    -0.162741517218E+03   -0.12034E-02   -0.12158E-02  1440   0.997E-02    0.120E-02
DAV:   3    -0.162741552068E+03   -0.34850E-04   -0.35857E-04  1496   0.169E-02    0.105E-02
DAV:   4    -0.162741552934E+03   -0.86571E-06   -0.12760E-05   976   0.761E-03    0.645E-03
DAV:   5    -0.162741553096E+03   -0.16216E-06   -0.16968E-06   912   0.590E-03
  27 F= -.16274155E+03 E0= -.16274155E+03  d E =-.228161E-11
       N       E                     dE             d eps       ncg     rms          rms(c)
DAV:   1    -0.162736531515E+03    0.50214E-02   -0.34933E+00  1448   0.129E+00    0.849E-02
DAV:   2    -0.162741410208E+03   -0.48787E-02   -0.49321E-02  1440   0.169E-01    0.232E-02
DAV:   3    -0.162741548349E+03   -0.13814E-03   -0.14153E-03  1608   0.250E-02    0.204E-02
DAV:   4    -0.162741552088E+03   -0.37389E-05   -0.50123E-05  1248   0.909E-03    0.125E-02
DAV:   5    -0.162741552846E+03   -0.75802E-06   -0.44613E-06  1072   0.896E-03
  28 F= -.16274155E+03 E0= -.16274155E+03  d E =-.228192E-11
       N       E                     dE             d eps       ncg     rms          rms(c)
DAV:   1    -0.162739138858E+03    0.24132E-02   -0.86909E-01  1448   0.623E-01    0.428E-02
DAV:   2    -0.162740299126E+03   -0.11603E-02   -0.11720E-02  1432   0.843E-02    0.112E-02
DAV:   3    -0.162740331849E+03   -0.32722E-04   -0.33185E-04  1400   0.144E-02    0.958E-03
DAV:   4    -0.162740332846E+03   -0.99750E-06   -0.11910E-05   976   0.622E-03    0.584E-03
DAV:   5    -0.162740333097E+03   -0.25114E-06   -0.13974E-06   904   0.599E-03
  29 F= -.16274033E+03 E0= -.16274033E+03  d E =-.229086E-11
       N       E                     dE             d eps       ncg     rms          rms(c)
DAV:   1    -0.162728220098E+03    0.12113E-01   -0.70346E+00  1544   0.206E+00    0.147E-01
DAV:   2    -0.162738900036E+03   -0.10680E-01   -0.10778E-01  1496   0.309E-01    0.423E-02
DAV:   3    -0.162739182722E+03   -0.28269E-03   -0.32427E-03  1848   0.845E-02    0.352E-02
DAV:   4    -0.162739188559E+03   -0.58365E-05   -0.18318E-04  1688   0.294E-02    0.212E-02
DAV:   5    -0.162739182627E+03    0.59318E-05   -0.19931E-05  1632   0.297E-02    0.102E-02
DAV:   6    -0.162739178840E+03    0.37874E-05   -0.11911E-05  1512   0.185E-02    0.784E-03
DAV:   7    -0.162739179683E+03   -0.84325E-06   -0.14770E-05  1672   0.108E-02    0.660E-03
DAV:   8    -0.162739179572E+03    0.11039E-06   -0.68275E-07   840   0.629E-03
  30 F= -.16273918E+03 E0= -.16273918E+03  d E =-.689191E-20
       N       E                     dE             d eps       ncg     rms          rms(c)
DAV:   1    -0.162739743797E+03   -0.56411E-03   -0.86981E-01  1568   0.599E-01    0.649E-02
DAV:   2    -0.162740949992E+03   -0.12062E-02   -0.12203E-02  1528   0.978E-02    0.167E-02
DAV:   3    -0.162740982001E+03   -0.32009E-04   -0.36722E-04  1768   0.325E-02    0.139E-02
DAV:   4    -0.162740982911E+03   -0.91011E-06   -0.22017E-05  1464   0.118E-02    0.819E-03
DAV:   5    -0.162740982457E+03    0.45472E-06   -0.19743E-06  1112   0.105E-02
  31 F= -.16274098E+03 E0= -.16274098E+03  d E =-.685938E-11
       N       E                     dE             d eps       ncg     rms          rms(c)
DAV:   1    -0.162736867832E+03    0.41151E-02   -0.34969E+00  1600   0.126E+00    0.136E-01
DAV:   2    -0.162741983531E+03   -0.51157E-02   -0.51680E-02  1552   0.202E-01    0.329E-02
DAV:   3    -0.162742123721E+03   -0.14019E-03   -0.15889E-03  1824   0.620E-02    0.286E-02
DAV:   4    -0.162742128394E+03   -0.46727E-05   -0.10137E-04  1616   0.253E-02    0.177E-02
DAV:   5    -0.162742126441E+03    0.19526E-05   -0.72847E-06  1376   0.225E-02    0.117E-02
DAV:   6    -0.162742124036E+03    0.24049E-05   -0.93375E-06  1664   0.326E-02    0.621E-03
DAV:   7    -0.162742124397E+03   -0.36092E-06   -0.71084E-06  1560   0.876E-03
  32 F= -.16274212E+03 E0= -.16274212E+03  d E =-.143178E-11
       N       E                     dE             d eps       ncg     rms          rms(c)
DAV:   1    -0.162740175224E+03    0.19488E-02   -0.86966E-01  1600   0.622E-01    0.681E-02
DAV:   2    -0.162741419394E+03   -0.12442E-02   -0.12543E-02  1544   0.107E-01    0.163E-02
DAV:   3    -0.162741452322E+03   -0.32928E-04   -0.37841E-04  1744   0.290E-02    0.142E-02
DAV:   4    -0.162741453238E+03   -0.91557E-06   -0.24275E-05  1528   0.124E-02    0.859E-03
DAV:   5    -0.162741452718E+03    0.51954E-06   -0.22380E-06  1184   0.111E-02
  33 F= -.16274145E+03 E0= -.16274145E+03  d E =-.112761E-11
       N       E                     dE             d eps       ncg     rms          rms(c)
DAV:   1    -0.162729003845E+03    0.12449E-01   -0.70369E+00  1496   0.162E+00    0.177E-01
DAV:   2    -0.162740016218E+03   -0.11012E-01   -0.11113E-01  1520   0.264E-01    0.431E-02
DAV:   3    -0.162740342546E+03   -0.32633E-03   -0.35238E-03  1712   0.713E-02    0.396E-02
DAV:   4    -0.162740352553E+03   -0.10007E-04   -0.19215E-04  1752   0.299E-02    0.238E-02
DAV:   5    -0.162740350103E+03    0.24494E-05   -0.14494E-05  1504   0.228E-02    0.154E-02
DAV:   6    -0.162740348570E+03    0.15331E-05   -0.11707E-05  1592   0.232E-02    0.621E-03
DAV:   7    -0.162740349136E+03   -0.56539E-06   -0.78441E-06  1600   0.903E-03
  34 F= -.16274035E+03 E0= -.16274035E+03  d E =-.429431E-11
       N       E                     dE             d eps       ncg     rms          rms(c)
DAV:   1    -0.162740244659E+03    0.10391E-03   -0.86765E-01  1584   0.609E-01    0.545E-02
DAV:   2    -0.162741469538E+03   -0.12249E-02   -0.12425E-02  1512   0.106E-01    0.158E-02
DAV:   3    -0.162741505173E+03   -0.35634E-04   -0.38707E-04  1768   0.304E-02    0.116E-02
DAV:   4    -0.162741506581E+03   -0.14081E-05   -0.22513E-05  1440   0.123E-02    0.785E-03
DAV:   5    -0.162741506445E+03    0.13582E-06   -0.21489E-06  1168   0.862E-03
  35 F= -.16274151E+03 E0= -.16274151E+03  d E =-.319668E-11
       N       E                     dE             d eps       ncg     rms          rms(c)
DAV:   1    -0.162736500154E+03    0.50064E-02   -0.34887E+00  1592   0.123E+00    0.114E-01
DAV:   2    -0.162741585023E+03   -0.50849E-02   -0.51530E-02  1544   0.208E-01    0.327E-02
DAV:   3    -0.162741732827E+03   -0.14780E-03   -0.16009E-03  1816   0.673E-02    0.236E-02
DAV:   4    -0.162741739078E+03   -0.62501E-05   -0.94718E-05  1624   0.249E-02    0.165E-02
DAV:   5    -0.162741738628E+03    0.44911E-06   -0.82791E-06  1336   0.182E-02
  36 F= -.16274174E+03 E0= -.16274174E+03  d E =-.194607E-11
       N       E                     dE             d eps       ncg     rms          rms(c)
DAV:   1    -0.162739560724E+03    0.21784E-02   -0.86774E-01  1640   0.588E-01    0.591E-02
DAV:   2    -0.162740817118E+03   -0.12564E-02   -0.12704E-02  1544   0.102E-01    0.169E-02
DAV:   3    -0.162740854149E+03   -0.37031E-04   -0.39781E-04  1760   0.318E-02    0.119E-02
DAV:   4    -0.162740855869E+03   -0.17202E-05   -0.24051E-05  1448   0.119E-02    0.865E-03
DAV:   5    -0.162740855791E+03    0.78151E-07   -0.21080E-06  1144   0.885E-03
  37 F= -.16274086E+03 E0= -.16274086E+03  d E =-.185027E-11
       N       E                     dE             d eps       ncg     rms          rms(c)
DAV:   1    -0.162730469198E+03    0.10387E-01   -0.69718E+00  1728   0.207E+00    0.150E-01
DAV:   2    -0.162741176152E+03   -0.10707E-01   -0.10862E-01  1488   0.349E-01    0.404E-02
DAV:   3    -0.162741460454E+03   -0.28430E-03   -0.30717E-03  1816   0.867E-02    0.349E-02
DAV:   4    -0.162741471131E+03   -0.10677E-04   -0.16526E-04  1712   0.304E-02    0.238E-02
DAV:   5    -0.162741470001E+03    0.11301E-05   -0.12290E-05  1408   0.200E-02    0.158E-02
DAV:   6    -0.162741469838E+03    0.16329E-06   -0.89197E-06  1480   0.206E-02
  38 F= -.16274147E+03 E0= -.16274147E+03  d E =-.228738E-11
       N       E                     dE             d eps       ncg     rms          rms(c)
DAV:   1    -0.162740547822E+03    0.92218E-03   -0.86728E-01  1424   0.591E-01    0.396E-02
DAV:   2    -0.162741800874E+03   -0.12531E-02   -0.12645E-02  1448   0.884E-02    0.956E-03
DAV:   3    -0.162741839335E+03   -0.38461E-04   -0.38651E-04  1360   0.153E-02    0.979E-03
DAV:   4    -0.162741840889E+03   -0.15533E-05   -0.18806E-05   928   0.568E-03    0.726E-03
DAV:   5    -0.162741840923E+03   -0.34241E-07   -0.12757E-06   896   0.518E-03
  39 F= -.16274184E+03 E0= -.16274184E+03  d E =-.229628E-11
       N       E                     dE             d eps       ncg     rms          rms(c)
DAV:   1    -0.162736557805E+03    0.52831E-02   -0.34885E+00  1400   0.121E+00    0.813E-02
DAV:   2    -0.162741673611E+03   -0.51158E-02   -0.51736E-02  1456   0.171E-01    0.189E-02
DAV:   3    -0.162741833854E+03   -0.16024E-03   -0.16186E-03  1488   0.284E-02    0.192E-02
DAV:   4    -0.162741840344E+03   -0.64908E-05   -0.78282E-05  1136   0.902E-03    0.145E-02
DAV:   5    -0.162741840495E+03   -0.15106E-06   -0.49293E-06  1040   0.897E-03
  40 F= -.16274184E+03 E0= -.16274184E+03  d E =-.230700E-11
       N       E                     dE             d eps       ncg     rms          rms(c)
DAV:   1    -0.162740220091E+03    0.16203E-02   -0.86812E-01  1408   0.586E-01    0.404E-02
DAV:   2    -0.162741431324E+03   -0.12112E-02   -0.12220E-02  1432   0.814E-02    0.828E-03
DAV:   3    -0.162741468551E+03   -0.37228E-04   -0.36563E-04  1344   0.149E-02    0.852E-03
DAV:   4    -0.162741470184E+03   -0.16329E-05   -0.17174E-05   928   0.534E-03    0.629E-03
DAV:   5    -0.162741470450E+03   -0.26610E-06   -0.12845E-06   888   0.486E-03
  41 F= -.16274147E+03 E0= -.16274147E+03  d E =-.227735E-11
       N       E                     dE             d eps       ncg     rms          rms(c)
DAV:   1    -0.162730207241E+03    0.11263E-01   -0.70264E+00  1448   0.187E+00    0.123E-01
DAV:   2    -0.162741357382E+03   -0.11150E-01   -0.11293E-01  1544   0.300E-01    0.343E-02
DAV:   3    -0.162741713549E+03   -0.35617E-03   -0.38907E-03  1816   0.763E-02    0.304E-02
DAV:   4    -0.162741723366E+03   -0.98171E-05   -0.21780E-04  1592   0.270E-02    0.209E-02
DAV:   5    -0.162741717183E+03    0.61829E-05   -0.12936E-05  1336   0.295E-02    0.128E-02
DAV:   6    -0.162741710592E+03    0.65910E-05   -0.20009E-05  1720   0.532E-02    0.918E-03
DAV:   7    -0.162741711928E+03   -0.13360E-05   -0.19916E-05  1512   0.135E-02    0.583E-03
DAV:   8    -0.162741711758E+03    0.16944E-06   -0.84824E-07  1008   0.597E-03
  42 F= -.16274171E+03 E0= -.16274171E+03  d E =-.309340E-11
       N       E                     dE             d eps       ncg     rms          rms(c)
DAV:   1    -0.162740745920E+03    0.96601E-03   -0.86839E-01  1464   0.563E-01    0.502E-02
DAV:   2    -0.162742009035E+03   -0.12631E-02   -0.12788E-02  1664   0.103E-01    0.140E-02
DAV:   3    -0.162742046366E+03   -0.37330E-04   -0.40940E-04  1752   0.292E-02    0.113E-02
DAV:   4    -0.162742047390E+03   -0.10244E-05   -0.26386E-05  1528   0.108E-02    0.773E-03
DAV:   5    -0.162742046689E+03    0.70097E-06   -0.13613E-06  1016   0.106E-02
  43 F= -.16274205E+03 E0= -.16274205E+03  d E =-.264404E-11
       N       E                     dE             d eps       ncg     rms          rms(c)
DAV:   1    -0.162735896008E+03    0.61514E-02   -0.34904E+00  1472   0.116E+00    0.109E-01
DAV:   2    -0.162741282564E+03   -0.53866E-02   -0.54730E-02  1672   0.209E-01    0.332E-02
DAV:   3    -0.162741452434E+03   -0.16987E-03   -0.18830E-03  1824   0.682E-02    0.240E-02
DAV:   4    -0.162741457333E+03   -0.48987E-05   -0.12906E-04  1552   0.265E-02    0.179E-02
DAV:   5    -0.162741453778E+03    0.35547E-05   -0.70554E-06  1344   0.222E-02    0.123E-02
DAV:   6    -0.162741448828E+03    0.49501E-05   -0.16151E-05  1896   0.752E-02    0.102E-02
DAV:   7    -0.162741450122E+03   -0.12934E-05   -0.17501E-05  1512   0.129E-02    0.699E-03
DAV:   8    -0.162741449872E+03    0.24986E-06   -0.63489E-07   936   0.593E-03
  44 F= -.16274145E+03 E0= -.16274145E+03  d E =-.244291E-11
       N       E                     dE             d eps       ncg     rms          rms(c)
DAV:   1    -0.162739181150E+03    0.22690E-02   -0.86851E-01  1480   0.574E-01    0.541E-02
DAV:   2    -0.162740482550E+03   -0.13014E-02   -0.13179E-02  1600   0.102E-01    0.144E-02
DAV:   3    -0.162740510616E+03   -0.28066E-04   -0.32614E-04  1760   0.300E-02    0.114E-02
DAV:   4    -0.162740511338E+03   -0.72154E-06   -0.25150E-05  1544   0.115E-02    0.778E-03
DAV:   5    -0.162740510411E+03    0.92644E-06   -0.12002E-06  1112   0.121E-02
  45 F= -.16274051E+03 E0= -.16274051E+03  d E =-.276249E-11
       N       E                     dE             d eps       ncg     rms          rms(c)
DAV:   1    -0.162730006303E+03    0.10505E-01   -0.70218E+00  1480   0.164E+00    0.155E-01
DAV:   2    -0.162741522749E+03   -0.11516E-01   -0.11764E-01  1800   0.321E-01    0.476E-02
DAV:   3    -0.162741790003E+03   -0.26725E-03   -0.32191E-03  1904   0.106E-01    0.362E-02
DAV:   4    -0.162741789565E+03    0.43857E-06   -0.20817E-04  1608   0.412E-02    0.230E-02
DAV:   5    -0.162741778851E+03    0.10713E-04   -0.18598E-05  1768   0.388E-02    0.128E-02
DAV:   6    -0.162741770898E+03    0.79532E-05   -0.17706E-05  1792   0.676E-02    0.938E-03
DAV:   7    -0.162741773879E+03   -0.29810E-05   -0.40137E-05  1520   0.177E-02    0.867E-03
DAV:   8    -0.162741773978E+03   -0.99339E-07   -0.41927E-06  1448   0.585E-03
  46 F= -.16274177E+03 E0= -.16274177E+03  d E =-.744922E-11
       N       E                     dE             d eps       ncg     rms          rms(c)
DAV:   1    -0.162740752371E+03    0.10215E-02   -0.86787E-01  1440   0.545E-01    0.477E-02
DAV:   2    -0.162741975488E+03   -0.12231E-02   -0.12385E-02  1680   0.964E-02    0.137E-02
DAV:   3    -0.162742010713E+03   -0.35225E-04   -0.37827E-04  1728   0.264E-02    0.121E-02
DAV:   4    -0.162742012038E+03   -0.13243E-05   -0.22842E-05  1496   0.878E-03    0.888E-03
DAV:   5    -0.162742011595E+03    0.44272E-06   -0.10702E-06   952   0.748E-03
  47 F= -.16274201E+03 E0= -.16274201E+03  d E =-.422961E-11
       N       E                     dE             d eps       ncg     rms          rms(c)
DAV:   1    -0.162735994888E+03    0.60171E-02   -0.34866E+00  1504   0.112E+00    0.104E-01
DAV:   2    -0.162741384149E+03   -0.53893E-02   -0.54780E-02  1600   0.206E-01    0.298E-02
DAV:   3    -0.162741557019E+03   -0.17287E-03   -0.18683E-03  1792   0.621E-02    0.237E-02
DAV:   4    -0.162741563824E+03   -0.68049E-05   -0.11808E-04  1560   0.229E-02    0.185E-02
DAV:   5    -0.162741561906E+03    0.19186E-05   -0.69681E-06  1272   0.153E-02    0.138E-02
DAV:   6    -0.162741559244E+03    0.26615E-05   -0.93811E-06  1672   0.456E-02    0.672E-03
DAV:   7    -0.162741559427E+03   -0.18270E-06   -0.68565E-06  1568   0.119E-02
  48 F= -.16274156E+03 E0= -.16274156E+03  d E =-.215855E-11
       N       E                     dE             d eps       ncg     rms          rms(c)
DAV:   1    -0.162739441190E+03    0.21181E-02   -0.86720E-01  1432   0.531E-01    0.517E-02
DAV:   2    -0.162740731876E+03   -0.12907E-02   -0.13114E-02  1744   0.102E-01    0.133E-02
DAV:   3    -0.162740773168E+03   -0.41292E-04   -0.44122E-04  1880   0.293E-02    0.111E-02
DAV:   4    -0.162740774699E+03   -0.15309E-05   -0.28004E-05  1496   0.986E-03    0.875E-03
DAV:   5    -0.162740774299E+03    0.39976E-06   -0.15525E-06   944   0.643E-03
  49 F= -.16274077E+03 E0= -.16274077E+03  d E =-.234398E-11
       N       E                     dE             d eps       ncg     rms          rms(c)
DAV:   1    -0.162730390240E+03    0.10384E-01   -0.69756E+00  1576   0.204E+00    0.132E-01
DAV:   2    -0.162740917739E+03   -0.10527E-01   -0.10681E-01  1656   0.339E-01    0.352E-02
DAV:   3    -0.162741249391E+03   -0.33165E-03   -0.34595E-03  1840   0.739E-02    0.331E-02
DAV:   4    -0.162741259673E+03   -0.10282E-04   -0.18800E-04  1680   0.246E-02    0.243E-02
DAV:   5    -0.162741257674E+03    0.19986E-05   -0.11995E-05  1352   0.150E-02    0.188E-02
DAV:   6    -0.162741254857E+03    0.28173E-05   -0.11259E-05  1616   0.447E-02    0.683E-03
DAV:   7    -0.162741255281E+03   -0.42392E-06   -0.83254E-06  1560   0.157E-02
  50 F= -.16274126E+03 E0= -.16274126E+03  d E =-.226286E-11
       N       E                     dE             d eps       ncg     rms          rms(c)
DAV:   1    -0.162740545888E+03    0.70897E-03   -0.86870E-01  1448   0.642E-01    0.396E-02
DAV:   2    -0.162741748734E+03   -0.12028E-02   -0.12147E-02  1424   0.919E-02    0.102E-02
DAV:   3    -0.162741783548E+03   -0.34814E-04   -0.35221E-04  1528   0.165E-02    0.103E-02
DAV:   4    -0.162741784492E+03   -0.94321E-06   -0.12558E-05   952   0.676E-03    0.719E-03
DAV:   5    -0.162741784549E+03   -0.57305E-07   -0.13469E-06   896   0.504E-03
  51 F= -.16274178E+03 E0= -.16274178E+03  d E =-.227454E-11
       N       E                     dE             d eps       ncg     rms          rms(c)
DAV:   1    -0.162736653460E+03    0.51310E-02   -0.34929E+00  1424   0.142E+00    0.825E-02
DAV:   2    -0.162741679553E+03   -0.50261E-02   -0.50826E-02  1440   0.188E-01    0.215E-02
DAV:   3    -0.162741779900E+03   -0.10035E-03   -0.10312E-03  1560   0.251E-02    0.184E-02
DAV:   4    -0.162741783806E+03   -0.39059E-05   -0.49557E-05  1344   0.912E-03    0.112E-02
DAV:   5    -0.162741784406E+03   -0.59974E-06   -0.37929E-06   976   0.890E-03
  52 F= -.16274178E+03 E0= -.16274178E+03  d E =-.228176E-11
       N       E                     dE             d eps       ncg     rms          rms(c)
DAV:   1    -0.162740029167E+03    0.17546E-02   -0.86898E-01  1416   0.694E-01    0.408E-02
DAV:   2    -0.162741219135E+03   -0.11900E-02   -0.12004E-02  1432   0.899E-02    0.920E-03
DAV:   3    -0.162741253465E+03   -0.34330E-04   -0.34150E-04  1416   0.160E-02    0.886E-03
DAV:   4    -0.162741254950E+03   -0.14849E-05   -0.15878E-05   928   0.593E-03    0.637E-03
DAV:   5    -0.162741255162E+03   -0.21149E-06   -0.13806E-06   864   0.537E-03
  53 F= -.16274126E+03 E0= -.16274126E+03  d E =-.229428E-11
       N       E                     dE             d eps       ncg     rms          rms(c)
DAV:   1    -0.162729479611E+03    0.11775E-01   -0.70324E+00  1488   0.209E+00    0.110E-01
DAV:   2    -0.162740221591E+03   -0.10742E-01   -0.10866E-01  1464   0.279E-01    0.316E-02
DAV:   3    -0.162740546198E+03   -0.32461E-03   -0.34912E-03  1832   0.767E-02    0.255E-02
DAV:   4    -0.162740557796E+03   -0.11598E-04   -0.19958E-04  1584   0.217E-02    0.184E-02
DAV:   5    -0.162740552669E+03    0.51272E-05   -0.14811E-05  1448   0.211E-02    0.810E-03
DAV:   6    -0.162740550322E+03    0.23477E-05   -0.98968E-06  1608   0.213E-02    0.614E-03
DAV:   7    -0.162740550717E+03   -0.39594E-06   -0.94990E-06  1704   0.137E-02
  54 F= -.16274055E+03 E0= -.16274055E+03  d E =-.355728E-11
       N       E                     dE             d eps       ncg     rms          rms(c)
DAV:   1    -0.162740424302E+03    0.12602E-03   -0.87111E-01  1472   0.554E-01    0.473E-02
DAV:   2    -0.162741414755E+03   -0.99045E-03   -0.10071E-02  1472   0.805E-02    0.127E-02
DAV:   3    -0.162741445521E+03   -0.30766E-04   -0.33392E-04  1792   0.300E-02    0.103E-02
DAV:   4    -0.162741445791E+03   -0.27054E-06   -0.11062E-05  1432   0.783E-03    0.689E-03
DAV:   5    -0.162741445392E+03    0.39945E-06   -0.68757E-07  1024   0.836E-03
  55 F= -.16274145E+03 E0= -.16274145E+03  d E =-.292487E-11
       N       E                     dE             d eps       ncg     rms          rms(c)
DAV:   1    -0.162736788689E+03    0.46571E-02   -0.34918E+00  1496   0.115E+00    0.101E-01
DAV:   2    -0.162741921552E+03   -0.51329E-02   -0.52159E-02  1496   0.203E-01    0.266E-02
DAV:   3    -0.162742081320E+03   -0.15977E-03   -0.17075E-03  1808   0.649E-02    0.211E-02
DAV:   4    -0.162742087682E+03   -0.63612E-05   -0.10332E-04  1552   0.205E-02    0.164E-02
DAV:   5    -0.162742086006E+03    0.16761E-05   -0.61251E-06  1336   0.161E-02    0.106E-02
DAV:   6    -0.162742083948E+03    0.20579E-05   -0.78307E-06  1680   0.420E-02    0.728E-03
DAV:   7    -0.162742084531E+03   -0.58311E-06   -0.81032E-06  1488   0.930E-03
  56 F= -.16274208E+03 E0= -.16274208E+03  d E =-.214188E-11
       N       E                     dE             d eps       ncg     rms          rms(c)
DAV:   1    -0.162740554585E+03    0.15294E-02   -0.86894E-01  1496   0.574E-01    0.509E-02
DAV:   2    -0.162741757270E+03   -0.12027E-02   -0.12183E-02  1472   0.911E-02    0.123E-02
DAV:   3    -0.162741793380E+03   -0.36111E-04   -0.38669E-04  1752   0.305E-02    0.102E-02
DAV:   4    -0.162741794846E+03   -0.14658E-05   -0.23362E-05  1472   0.942E-03    0.773E-03
DAV:   5    -0.162741794470E+03    0.37601E-06   -0.12311E-06   984   0.751E-03
  57 F= -.16274179E+03 E0= -.16274179E+03  d E =-.207661E-11
       N       E                     dE             d eps       ncg     rms          rms(c)
DAV:   1    -0.162730538740E+03    0.11256E-01   -0.70418E+00  1472   0.168E+00    0.163E-01
DAV:   2    -0.162741155408E+03   -0.10617E-01   -0.10845E-01  1616   0.323E-01    0.446E-02
DAV:   3    -0.162741477363E+03   -0.32196E-03   -0.36480E-03  1856   0.945E-02    0.371E-02
DAV:   4    -0.162741486919E+03   -0.95552E-05   -0.24402E-04  1640   0.354E-02    0.270E-02
DAV:   5    -0.162741480515E+03    0.64034E-05   -0.15530E-05  1616   0.247E-02    0.195E-02
DAV:   6    -0.162741468977E+03    0.11538E-04   -0.16870E-05  1848   0.666E-02    0.870E-03
DAV:   7    -0.162741469233E+03   -0.25590E-06   -0.21522E-05  1680   0.198E-02    0.106E-02
DAV:   8    -0.162741469842E+03   -0.60884E-06   -0.11898E-05  1608   0.161E-02    0.605E-03
DAV:   9    -0.162741469686E+03    0.15592E-06   -0.66877E-07   896   0.423E-03
  58 F= -.16274147E+03 E0= -.16274147E+03  d E =-.406656E-11
       N       E                     dE             d eps       ncg     rms          rms(c)
DAV:   1    -0.162740947784E+03    0.52206E-03   -0.87038E-01  1480   0.602E-01    0.533E-02
DAV:   2    -0.162742020824E+03   -0.10730E-02   -0.10891E-02  1648   0.104E-01    0.155E-02
DAV:   3    -0.162742050496E+03   -0.29672E-04   -0.34795E-04  1824   0.315E-02    0.117E-02
DAV:   4    -0.162742051569E+03   -0.10735E-05   -0.26488E-05  1576   0.116E-02    0.721E-03
DAV:   5    -0.162742050936E+03    0.63312E-06   -0.12348E-06  1016   0.908E-03
  59 F= -.16274205E+03 E0= -.16274205E+03  d E =-.293566E-11
       N       E                     dE             d eps       ncg     rms          rms(c)
DAV:   1    -0.162736036231E+03    0.60153E-02   -0.34942E+00  1504   0.127E+00    0.118E-01
DAV:   2    -0.162741119290E+03   -0.50831E-02   -0.51692E-02  1672   0.225E-01    0.320E-02
DAV:   3    -0.162741265218E+03   -0.14593E-03   -0.16928E-03  1904   0.765E-02    0.251E-02
DAV:   4    -0.162741271211E+03   -0.59932E-05   -0.13535E-04  1616   0.300E-02    0.180E-02
DAV:   5    -0.162741268601E+03    0.26098E-05   -0.85622E-06  1488   0.171E-02    0.131E-02
DAV:   6    -0.162741263546E+03    0.50553E-05   -0.97484E-06  1720   0.484E-02    0.651E-03
DAV:   7    -0.162741263715E+03   -0.16948E-06   -0.97708E-06  1680   0.142E-02
  60 F= -.16274126E+03 E0= -.16274126E+03  d E =-.283338E-11
       N       E                     dE             d eps       ncg     rms          rms(c)
DAV:   1    -0.162738734359E+03    0.25292E-02   -0.86911E-01  1448   0.657E-01    0.591E-02
DAV:   2    -0.162739949101E+03   -0.12147E-02   -0.12337E-02  1696   0.119E-01    0.151E-02
DAV:   3    -0.162739983553E+03   -0.34452E-04   -0.40117E-04  1896   0.339E-02    0.121E-02
DAV:   4    -0.162739984893E+03   -0.13400E-05   -0.31864E-05  1560   0.125E-02    0.856E-03
DAV:   5    -0.162739984299E+03    0.59365E-06   -0.17339E-06  1032   0.825E-03
  61 F= -.16273998E+03 E0= -.16273998E+03  d E =-.420783E-11
       N       E                     dE             d eps       ncg     rms          rms(c)
DAV:   1    -0.162730111904E+03    0.98730E-02   -0.69815E+00  1688   0.195E+00    0.145E-01
DAV:   2    -0.162740641575E+03   -0.10530E-01   -0.10670E-01  1664   0.326E-01    0.391E-02
DAV:   3    -0.162740960754E+03   -0.31918E-03   -0.34134E-03  1824   0.769E-02    0.349E-02
DAV:   4    -0.162740970398E+03   -0.96439E-05   -0.19733E-04  1672   0.285E-02    0.231E-02
DAV:   5    -0.162740967846E+03    0.25521E-05   -0.13810E-05  1504   0.194E-02    0.170E-02
DAV:   6    -0.162740963880E+03    0.39665E-05   -0.83190E-06  1624   0.435E-02    0.615E-03
DAV:   7    -0.162740963726E+03    0.15392E-06   -0.79474E-06  1624   0.187E-02
  62 F= -.16274096E+03 E0= -.16274096E+03  d E =-.229162E-11
       N       E                     dE             d eps       ncg     rms          rms(c)
DAV:   1    -0.162740451696E+03    0.51218E-03   -0.86863E-01  1480   0.610E-01    0.397E-02
DAV:   2    -0.162741673420E+03   -0.12217E-02   -0.12311E-02  1448   0.929E-02    0.108E-02
DAV:   3    -0.162741709292E+03   -0.35872E-04   -0.36279E-04  1528   0.144E-02    0.105E-02
DAV:   4    -0.162741710143E+03   -0.85077E-06   -0.12373E-05   984   0.648E-03    0.692E-03
DAV:   5    -0.162741710257E+03   -0.11399E-06   -0.13845E-06   896   0.422E-03
  63 F= -.16274171E+03 E0= -.16274171E+03  d E =-.228227E-11
       N       E                     dE             d eps       ncg     rms          rms(c)
DAV:   1    -0.162736509701E+03    0.52004E-02   -0.34926E+00  1424   0.133E+00    0.822E-02
DAV:   2    -0.162741594584E+03   -0.50849E-02   -0.51289E-02  1456   0.188E-01    0.213E-02
DAV:   3    -0.162741704666E+03   -0.11008E-03   -0.11139E-03  1616   0.242E-02    0.185E-02
DAV:   4    -0.162741709111E+03   -0.44446E-05   -0.53087E-05  1312   0.891E-03    0.112E-02
DAV:   5    -0.162741710067E+03   -0.95625E-06   -0.40351E-06  1032   0.833E-03
  64 F= -.16274171E+03 E0= -.16274171E+03  d E =-.228304E-11
       N       E                     dE             d eps       ncg     rms          rms(c)
DAV:   1    -0.162739726271E+03    0.19828E-02   -0.86898E-01  1424   0.665E-01    0.416E-02
DAV:   2    -0.162740927330E+03   -0.12011E-02   -0.12106E-02  1448   0.874E-02    0.969E-03
DAV:   3    -0.162740962589E+03   -0.35259E-04   -0.35139E-04  1480   0.153E-02    0.942E-03
DAV:   4    -0.162740963607E+03   -0.10181E-05   -0.11986E-05   944   0.561E-03    0.652E-03
DAV:   5    -0.162740963883E+03   -0.27628E-06   -0.14362E-06   888   0.523E-03
  65 F= -.16274096E+03 E0= -.16274096E+03  d E =-.229489E-11
       N       E                     dE             d eps       ncg     rms          rms(c)
DAV:   1    -0.162727692921E+03    0.13271E-01   -0.70207E+00  1488   0.236E+00    0.132E-01
DAV:   2    -0.162739444321E+03   -0.11751E-01   -0.12040E-01  1584   0.303E-01    0.496E-02
DAV:   3    -0.162739747532E+03   -0.30321E-03   -0.38902E-03  1928   0.764E-02    0.357E-02
DAV:   4    -0.162739746068E+03    0.14647E-05   -0.20983E-04  1824   0.251E-02    0.234E-02
DAV:   5    -0.162739734993E+03    0.11074E-04   -0.30086E-05  1632   0.305E-02    0.950E-03
DAV:   6    -0.162739733108E+03    0.18858E-05   -0.19321E-05  1696   0.145E-02    0.779E-03
DAV:   7    -0.162739733285E+03   -0.17764E-06   -0.63428E-06  1552   0.848E-03
  66 F= -.16273973E+03 E0= -.16273973E+03  d E =-.136098E-11
       N       E                     dE             d eps       ncg     rms          rms(c)
DAV:   1    -0.162739814200E+03   -0.81092E-04   -0.86807E-01  1480   0.574E-01    0.521E-02
DAV:   2    -0.162741056370E+03   -0.12422E-02   -0.12547E-02  1520   0.102E-01    0.129E-02
DAV:   3    -0.162741094020E+03   -0.37650E-04   -0.39907E-04  1776   0.254E-02    0.114E-02
DAV:   4    -0.162741095332E+03   -0.13124E-05   -0.21523E-05  1368   0.911E-03    0.815E-03
DAV:   5    -0.162741095037E+03    0.29485E-06   -0.16265E-06   976   0.918E-03
  67 F= -.16274110E+03 E0= -.16274110E+03  d E =-.171564E-11
       N       E                     dE             d eps       ncg     rms          rms(c)
DAV:   1    -0.162736888859E+03    0.42065E-02   -0.34900E+00  1488   0.118E+00    0.111E-01
DAV:   2    -0.162742159533E+03   -0.52707E-02   -0.53206E-02  1544   0.222E-01    0.260E-02
DAV:   3    -0.162742322756E+03   -0.16322E-03   -0.17298E-03  1816   0.571E-02    0.235E-02
DAV:   4    -0.162742328855E+03   -0.60998E-05   -0.10027E-04  1600   0.206E-02    0.173E-02
DAV:   5    -0.162742327461E+03    0.13946E-05   -0.63521E-06  1336   0.188E-02    0.115E-02
DAV:   6    -0.162742326402E+03    0.10590E-05   -0.96782E-06  1456   0.280E-02    0.740E-03
DAV:   7    -0.162742326799E+03   -0.39700E-06   -0.60569E-06  1504   0.731E-03
  68 F= -.16274233E+03 E0= -.16274233E+03  d E =-.385861E-11
       N       E                     dE             d eps       ncg     rms          rms(c)
DAV:   1    -0.162740895056E+03    0.14313E-02   -0.86830E-01  1480   0.595E-01    0.546E-02
DAV:   2    -0.162742148725E+03   -0.12537E-02   -0.12608E-02  1552   0.104E-01    0.129E-02
DAV:   3    -0.162742186755E+03   -0.38030E-04   -0.40286E-04  1752   0.265E-02    0.113E-02
DAV:   4    -0.162742188181E+03   -0.14262E-05   -0.22910E-05  1440   0.960E-03    0.811E-03
DAV:   5    -0.162742187897E+03    0.28418E-06   -0.16497E-06  1000   0.970E-03
  69 F= -.16274219E+03 E0= -.16274219E+03  d E =-.744832E-11
       N       E                     dE             d eps       ncg     rms          rms(c)
DAV:   1    -0.162730544949E+03    0.11643E-01   -0.70331E+00  1592   0.167E+00    0.143E-01
DAV:   2    -0.162740810420E+03   -0.10265E-01   -0.10398E-01  1536   0.292E-01    0.402E-02
DAV:   3    -0.162741120918E+03   -0.31050E-03   -0.33396E-03  1840   0.916E-02    0.319E-02
DAV:   4    -0.162741130766E+03   -0.98480E-05   -0.19921E-04  1616   0.311E-02    0.228E-02
DAV:   5    -0.162741127496E+03    0.32693E-05   -0.14084E-05  1568   0.219E-02    0.158E-02
DAV:   6    -0.162741123007E+03    0.44895E-05   -0.11505E-05  1688   0.394E-02    0.673E-03
DAV:   7    -0.162741123383E+03   -0.37652E-06   -0.12116E-05  1632   0.148E-02    0.638E-03
DAV:   8    -0.162741123802E+03   -0.41902E-06   -0.59795E-06  1312   0.859E-03
  70 F= -.16274112E+03 E0= -.16274112E+03  d E =-.491934E-20
       N       E                     dE             d eps       ncg     rms          rms(c)
DAV:   1    -0.162740650945E+03    0.47244E-03   -0.86891E-01  1552   0.587E-01    0.494E-02
DAV:   2    -0.162741837520E+03   -0.11866E-02   -0.11984E-02  1560   0.104E-01    0.159E-02
DAV:   3    -0.162741869020E+03   -0.31500E-04   -0.35543E-04  1824   0.308E-02    0.115E-02
DAV:   4    -0.162741869994E+03   -0.97394E-06   -0.22790E-05  1552   0.121E-02    0.750E-03
DAV:   5    -0.162741869591E+03    0.40328E-06   -0.19038E-06  1160   0.101E-02
  71 F= -.16274187E+03 E0= -.16274187E+03  d E =-.669853E-11
       N       E                     dE             d eps       ncg     rms          rms(c)
DAV:   1    -0.162736190195E+03    0.56798E-02   -0.34928E+00  1568   0.120E+00    0.105E-01
DAV:   2    -0.162741217410E+03   -0.50272E-02   -0.50819E-02  1600   0.217E-01    0.330E-02
DAV:   3    -0.162741355471E+03   -0.13806E-03   -0.15522E-03  1896   0.701E-02    0.234E-02
DAV:   4    -0.162741359942E+03   -0.44715E-05   -0.10570E-04  1624   0.278E-02    0.160E-02
DAV:   5    -0.162741358002E+03    0.19405E-05   -0.78557E-06  1432   0.190E-02    0.111E-02
DAV:   6    -0.162741355530E+03    0.24720E-05   -0.90991E-06  1712   0.385E-02    0.561E-03
DAV:   7    -0.162741356076E+03   -0.54597E-06   -0.94513E-06  1520   0.118E-02
  72 F= -.16274136E+03 E0= -.16274136E+03  d E =-.197284E-11
       N       E                     dE             d eps       ncg     rms          rms(c)
DAV:   1    -0.162738855158E+03    0.25004E-02   -0.86905E-01  1560   0.582E-01    0.546E-02
DAV:   2    -0.162740040651E+03   -0.11855E-02   -0.11979E-02  1552   0.105E-01    0.145E-02
DAV:   3    -0.162740072969E+03   -0.32318E-04   -0.36631E-04  1832   0.336E-02    0.114E-02
DAV:   4    -0.162740073797E+03   -0.82765E-06   -0.22643E-05  1576   0.127E-02    0.782E-03
DAV:   5    -0.162740073362E+03    0.43481E-06   -0.21655E-06  1192   0.959E-03
  73 F= -.16274007E+03 E0= -.16274007E+03  d E =-.219853E-11
       N       E                     dE             d eps       ncg     rms          rms(c)
DAV:   1    -0.162733317518E+03    0.67563E-02   -0.80204E+00  1440   0.371E+00    0.306E-01
DAV:   2    -0.162740189855E+03   -0.68723E-02   -0.69165E-02  1560   0.396E-01    0.102E-01
DAV:   3    -0.162740355570E+03   -0.16571E-03   -0.20708E-03  1784   0.151E-01    0.619E-02
DAV:   4    -0.162740361459E+03   -0.58891E-05   -0.21883E-04  1784   0.999E-02    0.326E-02
DAV:   5    -0.162740361630E+03   -0.17125E-06   -0.47332E-05  1688   0.470E-02    0.101E-02
DAV:   6    -0.162740363764E+03   -0.21333E-05   -0.29725E-05  1584   0.194E-02    0.994E-03
DAV:   7    -0.162740364116E+03   -0.35236E-06   -0.60567E-06  1232   0.110E-02
  74 F= -.16274036E+03 E0= -.16274036E+03  d E =-.229081E-11
       N       E                     dE             d eps       ncg     rms          rms(c)
DAV:   1    -0.162741223312E+03   -0.85955E-03   -0.11274E+00  1336   0.160E+00    0.130E-01
DAV:   2    -0.162741600403E+03   -0.37709E-03   -0.36917E-03  1432   0.111E-01    0.453E-02
DAV:   3    -0.162741603094E+03   -0.26910E-05   -0.54181E-05  1520   0.305E-02    0.247E-02
DAV:   4    -0.162741604042E+03   -0.94723E-06   -0.20158E-05  1600   0.396E-02    0.842E-03
DAV:   5    -0.162741603945E+03    0.96588E-07   -0.38062E-06  1104   0.187E-02
  75 F= -.16274160E+03 E0= -.16274160E+03  d E =-.228418E-11
       N       E                     dE             d eps       ncg     rms          rms(c)
DAV:   1    -0.162740028600E+03    0.15754E-02   -0.45317E+00  1336   0.329E+00    0.262E-01
DAV:   2    -0.162741578492E+03   -0.15499E-02   -0.15188E-02  1504   0.240E-01    0.946E-02
DAV:   3    -0.162741597350E+03   -0.18858E-04   -0.41464E-04  1608   0.148E-01    0.531E-02
DAV:   4    -0.162741598713E+03   -0.13633E-05   -0.10089E-04  1544   0.912E-02    0.234E-02
DAV:   5    -0.162741603630E+03   -0.49171E-05   -0.43993E-05  1408   0.186E-02    0.329E-03
DAV:   6    -0.162741603872E+03   -0.24177E-06   -0.33648E-06  1104   0.834E-03
  76 F= -.16274160E+03 E0= -.16274160E+03  d E =-.227896E-11
       N       E                     dE             d eps       ncg     rms          rms(c)
DAV:   1    -0.162739980252E+03    0.16234E-02   -0.11275E+00  1336   0.164E+00    0.130E-01
DAV:   2    -0.162740357725E+03   -0.37747E-03   -0.36825E-03  1432   0.116E-01    0.465E-02
DAV:   3    -0.162740362154E+03   -0.44296E-05   -0.78126E-05  1552   0.550E-02    0.255E-02
DAV:   4    -0.162740362877E+03   -0.72272E-06   -0.23945E-05  1528   0.475E-02    0.108E-02
DAV:   5    -0.162740363748E+03   -0.87095E-06   -0.86481E-06  1320   0.133E-02
  77 F= -.16274036E+03 E0= -.16274036E+03  d E =-.230098E-11
       N       E                     dE             d eps       ncg     rms          rms(c)
DAV:   1    -0.162736488803E+03    0.38741E-02   -0.91189E+00  1336   0.475E+00    0.369E-01
DAV:   2    -0.162739548878E+03   -0.30601E-02   -0.33063E-02  1544   0.388E-01    0.163E-01
DAV:   3    -0.162739555559E+03   -0.66810E-05   -0.16492E-03  1952   0.262E-01    0.861E-02
DAV:   4    -0.162739545166E+03    0.10394E-04   -0.47272E-04  1856   0.145E-01    0.523E-02
DAV:   5    -0.162739538031E+03    0.71345E-05   -0.13594E-04  1640   0.574E-02    0.213E-02
DAV:   6    -0.162739539056E+03   -0.10252E-05   -0.81805E-05  1552   0.309E-02    0.117E-02
DAV:   7    -0.162739540648E+03   -0.15913E-05   -0.25026E-05  1680   0.213E-02    0.978E-03
DAV:   8    -0.162739540997E+03   -0.34965E-06   -0.43014E-06  1088   0.577E-03
  78 F= -.16273954E+03 E0= -.16273954E+03  d E =-.256390E-11
       N       E                     dE             d eps       ncg     rms          rms(c)
DAV:   1    -0.162741249022E+03   -0.17084E-02   -0.11279E+00  1328   0.152E+00    0.158E-01
DAV:   2    -0.162741575459E+03   -0.32644E-03   -0.39350E-03  1552   0.128E-01    0.610E-02
DAV:   3    -0.162741575435E+03    0.24265E-07   -0.29657E-04  1792   0.705E-02    0.321E-02
DAV:   4    -0.162741571175E+03    0.42605E-05   -0.58475E-05  1728   0.566E-02    0.229E-02
DAV:   5    -0.162741568775E+03    0.23994E-05   -0.19656E-05  1472   0.192E-02    0.114E-02
DAV:   6    -0.162741566539E+03    0.22362E-05   -0.62686E-06  1464   0.213E-02    0.651E-03
DAV:   7    -0.162741567343E+03   -0.80442E-06   -0.10099E-05  1456   0.943E-03    0.615E-03
DAV:   8    -0.162741567393E+03   -0.49717E-07   -0.45805E-07   824   0.186E-03
  79 F= -.16274157E+03 E0= -.16274157E+03  d E =-.235057E-11
       N       E                     dE             d eps       ncg     rms          rms(c)
DAV:   1    -0.162739598417E+03    0.19689E-02   -0.45325E+00  1336   0.314E+00    0.314E-01
DAV:   2    -0.162740866817E+03   -0.12684E-02   -0.15638E-02  1632   0.322E-01    0.133E-01
DAV:   3    -0.162740915978E+03   -0.49161E-04   -0.19830E-03  1912   0.230E-01    0.689E-02
DAV:   4    -0.162740891373E+03    0.24605E-04   -0.30435E-04  1848   0.153E-01    0.485E-02
DAV:   5    -0.162740883987E+03    0.73866E-05   -0.12117E-04  1584   0.333E-02    0.255E-02
DAV:   6    -0.162740872362E+03    0.11625E-04   -0.23993E-05  1752   0.382E-02    0.154E-02
DAV:   7    -0.162740874730E+03   -0.23686E-05   -0.35682E-05  1656   0.178E-02    0.137E-02
DAV:   8    -0.162740875305E+03   -0.57491E-06   -0.58621E-06  1256   0.709E-03
  80 F= -.16274088E+03 E0= -.16274088E+03  d E =-.300128E-11
       N       E                     dE             d eps       ncg     rms          rms(c)
DAV:   1    -0.162738121803E+03    0.27529E-02   -0.11280E+00  1336   0.157E+00    0.152E-01
DAV:   2    -0.162738413099E+03   -0.29130E-03   -0.36474E-03  1592   0.158E-01    0.639E-02
DAV:   3    -0.162738428128E+03   -0.15029E-04   -0.48877E-04  1872   0.872E-02    0.328E-02
DAV:   4    -0.162738420933E+03    0.71947E-05   -0.66810E-05  1800   0.768E-02    0.213E-02
DAV:   5    -0.162738418535E+03    0.23984E-05   -0.25735E-05  1592   0.156E-02    0.109E-02
DAV:   6    -0.162738416057E+03    0.24780E-05   -0.52402E-06  1456   0.137E-02    0.657E-03
DAV:   7    -0.162738416584E+03   -0.52775E-06   -0.82852E-06  1504   0.114E-02
  81 F= -.16273842E+03 E0= -.16273842E+03  d E =-.441882E-11
       N       E                     dE             d eps       ncg     rms          rms(c)
DAV:   1    -0.162737293300E+03    0.11228E-02   -0.91226E+00  1384   0.425E+00    0.443E-01
DAV:   2    -0.162739749144E+03   -0.24558E-02   -0.32496E-02  1632   0.371E-01    0.161E-01
DAV:   3    -0.162739651734E+03    0.97411E-04   -0.20922E-03  2120   0.181E-01    0.962E-02
DAV:   4    -0.162739638421E+03    0.13313E-04   -0.73542E-04  1608   0.648E-02    0.597E-02
DAV:   5    -0.162739593147E+03    0.45274E-04   -0.51458E-05  2056   0.778E-02    0.280E-02
DAV:   6    -0.162739570489E+03    0.22658E-04   -0.49458E-05  1968   0.654E-02    0.236E-02
DAV:   7    -0.162739574823E+03   -0.43344E-05   -0.66573E-05  1664   0.387E-02    0.172E-02
DAV:   8    -0.162739575753E+03   -0.92961E-06   -0.87943E-06  1536   0.743E-03
  82 F= -.16273958E+03 E0= -.16273958E+03  d E =-.215604E-11
       N       E                     dE             d eps       ncg     rms          rms(c)
DAV:   1    -0.162741158844E+03   -0.15840E-02   -0.11280E+00  1344   0.145E+00    0.151E-01
DAV:   2    -0.162741436220E+03   -0.27738E-03   -0.37305E-03  1608   0.140E-01    0.620E-02
DAV:   3    -0.162741441717E+03   -0.54969E-05   -0.46482E-04  1872   0.716E-02    0.360E-02
DAV:   4    -0.162741434431E+03    0.72854E-05   -0.66562E-05  1720   0.707E-02    0.239E-02
DAV:   5    -0.162741430579E+03    0.38522E-05   -0.21054E-05  1512   0.137E-02    0.122E-02
DAV:   6    -0.162741426921E+03    0.36586E-05   -0.54074E-06  1472   0.135E-02    0.786E-03
DAV:   7    -0.162741427237E+03   -0.31674E-06   -0.57958E-06  1528   0.813E-03
  83 F= -.16274143E+03 E0= -.16274143E+03  d E =-.186677E-11
       N       E                     dE             d eps       ncg     rms          rms(c)
DAV:   1    -0.162740009409E+03    0.14175E-02   -0.45327E+00  1400   0.298E+00    0.312E-01
DAV:   2    -0.162741145946E+03   -0.11365E-02   -0.15193E-02  1672   0.328E-01    0.134E-01
DAV:   3    -0.162741204685E+03   -0.58739E-04   -0.23953E-03  1904   0.215E-01    0.773E-02
DAV:   4    -0.162741172170E+03    0.32515E-04   -0.33237E-04  1824   0.166E-01    0.530E-02
DAV:   5    -0.162741160384E+03    0.11787E-04   -0.11367E-04  1688   0.310E-02    0.292E-02
DAV:   6    -0.162741143141E+03    0.17243E-04   -0.34413E-05  1640   0.388E-02    0.200E-02
DAV:   7    -0.162741143827E+03   -0.68605E-06   -0.24373E-05  1672   0.242E-02    0.166E-02
DAV:   8    -0.162741145022E+03   -0.11949E-05   -0.12983E-05  1384   0.945E-03    0.125E-02
DAV:   9    -0.162741144952E+03    0.70388E-07   -0.12935E-07   816   0.520E-03
  84 F= -.16274114E+03 E0= -.16274114E+03  d E =-.556502E-11
       N       E                     dE             d eps       ncg     rms          rms(c)
DAV:   1    -0.162738566178E+03    0.25788E-02   -0.11280E+00  1360   0.151E+00    0.153E-01
DAV:   2    -0.162738852533E+03   -0.28635E-03   -0.37857E-03  1632   0.138E-01    0.622E-02
DAV:   3    -0.162738857546E+03   -0.50133E-05   -0.44518E-04  1824   0.686E-02    0.357E-02
DAV:   4    -0.162738850550E+03    0.69962E-05   -0.66900E-05  1728   0.694E-02    0.245E-02
DAV:   5    -0.162738847213E+03    0.33363E-05   -0.22928E-05  1472   0.128E-02    0.129E-02
DAV:   6    -0.162738843151E+03    0.40627E-05   -0.63926E-06  1464   0.180E-02    0.888E-03
DAV:   7    -0.162738843421E+03   -0.27044E-06   -0.58279E-06  1552   0.840E-03
  85 F= -.16273884E+03 E0= -.16273884E+03  d E =-.215340E-10
       N       E                     dE             d eps       ncg     rms          rms(c)
DAV:   1    -0.162737167320E+03    0.16758E-02   -0.90592E+00  1424   0.482E+00    0.427E-01
DAV:   2    -0.162740295956E+03   -0.31286E-02   -0.34697E-02  1616   0.434E-01    0.156E-01
DAV:   3    -0.162740310784E+03   -0.14829E-04   -0.19080E-03  1848   0.228E-01    0.910E-02
DAV:   4    -0.162740288623E+03    0.22161E-04   -0.38469E-04  1808   0.145E-01    0.593E-02
DAV:   5    -0.162740267808E+03    0.20815E-04   -0.10539E-04  1592   0.755E-02    0.259E-02
DAV:   6    -0.162740262222E+03    0.55855E-05   -0.72943E-05  1624   0.469E-02    0.174E-02
DAV:   7    -0.162740268307E+03   -0.60846E-05   -0.73228E-05  1616   0.365E-02    0.170E-02
DAV:   8    -0.162740268899E+03   -0.59181E-06   -0.60536E-06  1256   0.762E-03
  86 F= -.16274027E+03 E0= -.16274027E+03  d E =-.233284E-11
       N       E                     dE             d eps       ncg     rms          rms(c)
DAV:   1    -0.162741149022E+03   -0.88071E-03   -0.11272E+00  1344   0.167E+00    0.126E-01
DAV:   2    -0.162741514498E+03   -0.36548E-03   -0.35998E-03  1504   0.125E-01    0.453E-02
DAV:   3    -0.162741517640E+03   -0.31423E-05   -0.67978E-05  1536   0.493E-02    0.253E-02
DAV:   4    -0.162741518606E+03   -0.96588E-06   -0.26682E-05  1512   0.472E-02    0.105E-02
DAV:   5    -0.162741518917E+03   -0.31145E-06   -0.70725E-06  1232   0.189E-02
  87 F= -.16274152E+03 E0= -.16274152E+03  d E =-.227871E-11
       N       E                     dE             d eps       ncg     rms          rms(c)
DAV:   1    -0.162739985001E+03    0.15336E-02   -0.45313E+00  1376   0.342E+00    0.252E-01
DAV:   2    -0.162741486437E+03   -0.15014E-02   -0.14782E-02  1536   0.260E-01    0.959E-02
DAV:   3    -0.162741513146E+03   -0.26709E-04   -0.60363E-04  1624   0.196E-01    0.541E-02
DAV:   4    -0.162741512621E+03    0.52423E-06   -0.11016E-04  1520   0.991E-02    0.250E-02
DAV:   5    -0.162741518915E+03   -0.62936E-05   -0.57256E-05  1640   0.189E-02    0.612E-03
DAV:   6    -0.162741519099E+03   -0.18437E-06   -0.70709E-06  1120   0.229E-02
  88 F= -.16274152E+03 E0= -.16274152E+03  d E =-.226464E-11
       N       E                     dE             d eps       ncg     rms          rms(c)
DAV:   1    -0.162739894289E+03    0.16246E-02   -0.11271E+00  1344   0.171E+00    0.126E-01
DAV:   2    -0.162740260458E+03   -0.36617E-03   -0.35815E-03  1504   0.123E-01    0.464E-02
DAV:   3    -0.162740266521E+03   -0.60633E-05   -0.10335E-04  1584   0.696E-02    0.257E-02
DAV:   4    -0.162740266736E+03   -0.21468E-06   -0.25275E-05  1544   0.520E-02    0.116E-02
DAV:   5    -0.162740267957E+03   -0.12217E-05   -0.11169E-05  1304   0.978E-03    0.173E-03
DAV:   6    -0.162740267954E+03    0.33833E-08   -0.42726E-07   832   0.543E-03
  89 F= -.16274027E+03 E0= -.16274027E+03  d E =-.222863E-11
       N       E                     dE             d eps       ncg     rms          rms(c)
DAV:   1    -0.162735708566E+03    0.45594E-02   -0.91198E+00  1392   0.489E+00    0.391E-01
DAV:   2    -0.162738601154E+03   -0.28926E-02   -0.31722E-02  1584   0.416E-01    0.160E-01
DAV:   3    -0.162738639113E+03   -0.37959E-04   -0.23043E-03  1992   0.312E-01    0.979E-02
DAV:   4    -0.162738609690E+03    0.29423E-04   -0.38501E-04  1848   0.172E-01    0.609E-02
DAV:   5    -0.162738598634E+03    0.11056E-04   -0.15990E-04  1696   0.409E-02    0.245E-02
DAV:   6    -0.162738593213E+03    0.54205E-05   -0.49822E-05  1632   0.275E-02    0.133E-02
DAV:   7    -0.162738594047E+03   -0.83393E-06   -0.17757E-05  1672   0.168E-02    0.109E-02
DAV:   8    -0.162738594231E+03   -0.18395E-06   -0.33056E-06  1080   0.683E-03
  90 F= -.16273859E+03 E0= -.16273859E+03  d E =-.330410E-19
       N       E                     dE             d eps       ncg     rms          rms(c)
DAV:   1    -0.162740847053E+03   -0.22530E-02   -0.11281E+00  1360   0.159E+00    0.157E-01
DAV:   2    -0.162741146472E+03   -0.29942E-03   -0.36821E-03  1592   0.135E-01    0.622E-02
DAV:   3    -0.162741143347E+03    0.31251E-05   -0.28006E-04  1816   0.879E-02    0.307E-02
DAV:   4    -0.162741139093E+03    0.42545E-05   -0.68796E-05  1808   0.634E-02    0.226E-02
DAV:   5    -0.162741137052E+03    0.20408E-05   -0.20153E-05  1504   0.213E-02    0.124E-02
DAV:   6    -0.162741134675E+03    0.23769E-05   -0.75005E-06  1536   0.181E-02    0.529E-03
DAV:   7    -0.162741135276E+03   -0.60133E-06   -0.85758E-06  1472   0.966E-03
  91 F= -.16274114E+03 E0= -.16274114E+03  d E =-.964246E-11
       N       E                     dE             d eps       ncg     rms          rms(c)
DAV:   1    -0.162739600749E+03    0.15339E-02   -0.45338E+00  1384   0.327E+00    0.345E-01
DAV:   2    -0.162740861858E+03   -0.12611E-02   -0.15617E-02  1632   0.298E-01    0.142E-01
DAV:   3    -0.162740851705E+03    0.10153E-04   -0.14431E-03  1952   0.253E-01    0.658E-02
DAV:   4    -0.162740831518E+03    0.20187E-04   -0.33027E-04  1840   0.148E-01    0.498E-02
DAV:   5    -0.162740824232E+03    0.72869E-05   -0.11364E-04  1664   0.427E-02    0.292E-02
DAV:   6    -0.162740810596E+03    0.13636E-04   -0.34164E-05  1592   0.531E-02    0.139E-02
DAV:   7    -0.162740813058E+03   -0.24623E-05   -0.40668E-05  1688   0.208E-02    0.130E-02
DAV:   8    -0.162740813436E+03   -0.37791E-06   -0.50298E-06  1368   0.618E-03
  92 F= -.16274081E+03 E0= -.16274081E+03  d E =-.153285E-11
       N       E                     dE             d eps       ncg     rms          rms(c)
DAV:   1    -0.162737458412E+03    0.33546E-02   -0.11281E+00  1384   0.162E+00    0.181E-01
DAV:   2    -0.162737761217E+03   -0.30280E-03   -0.37721E-03  1592   0.144E-01    0.691E-02
DAV:   3    -0.162737759114E+03    0.21027E-05   -0.33989E-04  1840   0.995E-02    0.321E-02
DAV:   4    -0.162737753579E+03    0.55353E-05   -0.80577E-05  1784   0.722E-02    0.235E-02
DAV:   5    -0.162737750988E+03    0.25914E-05   -0.24905E-05  1528   0.205E-02    0.120E-02
DAV:   6    -0.162737748468E+03    0.25194E-05   -0.84125E-06  1536   0.171E-02    0.571E-03
DAV:   7    -0.162737749144E+03   -0.67557E-06   -0.96163E-06  1512   0.109E-02
  93 F= -.16273775E+03 E0= -.16273775E+03  d E =-.143656E-11
       N       E                     dE             d eps       ncg     rms          rms(c)
DAV:   1    -0.162737930590E+03   -0.18212E-03   -0.91260E+00  1392   0.445E+00    0.407E-01
DAV:   2    -0.162740291479E+03   -0.23609E-02   -0.29007E-02  1624   0.398E-01    0.160E-01
DAV:   3    -0.162740258933E+03    0.32546E-04   -0.25580E-03  1872   0.294E-01    0.883E-02
DAV:   4    -0.162740238173E+03    0.20760E-04   -0.69349E-04  1864   0.173E-01    0.624E-02
DAV:   5    -0.162740223533E+03    0.14640E-04   -0.18652E-04  1688   0.612E-02    0.383E-02
DAV:   6    -0.162740197808E+03    0.25724E-04   -0.65121E-05  1624   0.638E-02    0.178E-02
DAV:   7    -0.162740202175E+03   -0.43664E-05   -0.74481E-05  1648   0.252E-02    0.169E-02
DAV:   8    -0.162740203183E+03   -0.10082E-05   -0.10380E-05  1392   0.868E-03    0.147E-02
DAV:   9    -0.162740203247E+03   -0.63766E-07   -0.16359E-07   840   0.179E-03
[...]
DAV:   3    -0.162740852932E+03    0.16779E-03   -0.29724E-03  1744   0.144E-01    0.204E-01
DAV:   4    -0.162740603429E+03    0.24950E-03   -0.55981E-04  1696   0.126E-01    0.108E-01
DAV:   5    -0.162740613547E+03   -0.10118E-04   -0.42197E-04  1768   0.706E-02    0.257E-02
DAV:   6    -0.162740614193E+03   -0.64573E-06   -0.82764E-05  1544   0.284E-02    0.277E-02
DAV:   7    -0.162740613078E+03    0.11147E-05   -0.85797E-06  1496   0.204E-02    0.194E-02
DAV:   8    -0.162740610857E+03    0.22213E-05   -0.80561E-06  1568   0.227E-02    0.648E-03
DAV:   9    -0.162740610863E+03   -0.59590E-08   -0.22673E-06  1136   0.125E-02
 146 F= -.16274061E+03 E0= -.16274061E+03  d E =-.230185E-11
       N       E                     dE             d eps       ncg     rms          rms(c)
DAV:   1    -0.162740833608E+03   -0.22275E-03   -0.24711E-01  1368   0.479E-01    0.218E-01
DAV:   2    -0.162741683659E+03   -0.85005E-03   -0.90969E-03  1552   0.149E-01    0.907E-02
DAV:   3    -0.162741675233E+03    0.84265E-05   -0.26714E-04  1624   0.288E-02    0.621E-02
DAV:   4    -0.162741650127E+03    0.25106E-04   -0.11837E-04  1616   0.229E-02    0.247E-02
DAV:   5    -0.162741653186E+03   -0.30592E-05   -0.24753E-05  1464   0.119E-02    0.859E-03
DAV:   6    -0.162741651944E+03    0.12422E-05   -0.13155E-06   968   0.339E-03    0.541E-03
DAV:   7    -0.162741651270E+03    0.67375E-06   -0.42450E-06  1120   0.651E-03
 147 F= -.16274165E+03 E0= -.16274165E+03  d E =-.228463E-11
       N       E                     dE             d eps       ncg     rms          rms(c)
DAV:   1    -0.162738278632E+03    0.33733E-02   -0.98738E-01  1368   0.959E-01    0.442E-01
DAV:   2    -0.162741785704E+03   -0.35071E-02   -0.37507E-02  1560   0.301E-01    0.190E-01
DAV:   3    -0.162741749599E+03    0.36105E-04   -0.10908E-03  1584   0.556E-02    0.134E-01
DAV:   4    -0.162741643174E+03    0.10642E-03   -0.42518E-04  1544   0.298E-02    0.557E-02
DAV:   5    -0.162741657762E+03   -0.14588E-04   -0.11124E-04  1592   0.174E-02    0.173E-02
DAV:   6    -0.162741653449E+03    0.43134E-05   -0.53248E-06  1208   0.756E-03    0.109E-02
DAV:   7    -0.162741651139E+03    0.23097E-05   -0.12486E-05  1240   0.119E-02    0.172E-03
DAV:   8    -0.162741651334E+03   -0.19542E-06   -0.20445E-06   976   0.578E-03
 148 F= -.16274165E+03 E0= -.16274165E+03  d E =-.228411E-11
       N       E                     dE             d eps       ncg     rms          rms(c)
DAV:   1    -0.162739793362E+03    0.18578E-02   -0.24767E-01  1368   0.480E-01    0.212E-01
DAV:   2    -0.162740643895E+03   -0.85053E-03   -0.90719E-03  1560   0.150E-01    0.953E-02
DAV:   3    -0.162740635445E+03    0.84501E-05   -0.26413E-04  1576   0.275E-02    0.656E-02
DAV:   4    -0.162740609885E+03    0.25560E-04   -0.13209E-04  1584   0.187E-02    0.253E-02
DAV:   5    -0.162740613157E+03   -0.32711E-05   -0.26739E-05  1464   0.985E-03    0.906E-03
DAV:   6    -0.162740611612E+03    0.15449E-05   -0.13926E-06  1008   0.377E-03    0.567E-03
DAV:   7    -0.162740610815E+03    0.79678E-06   -0.47153E-06  1152   0.682E-03
 149 F= -.16274061E+03 E0= -.16274061E+03  d E =-.230736E-11
       N       E                     dE             d eps       ncg     rms          rms(c)
DAV:   1    -0.162733930707E+03    0.66809E-02   -0.19477E+00  1368   0.144E+00    0.549E-01
DAV:   2    -0.162740270258E+03   -0.63396E-02   -0.70301E-02  1640   0.619E-01    0.169E-01
DAV:   3    -0.162740240125E+03    0.30133E-04   -0.32242E-03  1736   0.137E-01    0.137E-01
DAV:   4    -0.162740069689E+03    0.17044E-03   -0.36623E-04  1768   0.128E-01    0.657E-02
DAV:   5    -0.162740047660E+03    0.22029E-04   -0.25877E-04  1648   0.438E-02    0.236E-02
DAV:   6    -0.162740042590E+03    0.50701E-05   -0.65338E-05  1528   0.221E-02    0.259E-02
DAV:   7    -0.162740041441E+03    0.11490E-05   -0.87125E-06  1528   0.122E-02    0.182E-02
DAV:   8    -0.162740039264E+03    0.21771E-05   -0.35389E-06  1408   0.159E-02    0.103E-02
DAV:   9    -0.162740038139E+03    0.11243E-05   -0.25928E-06  1336   0.121E-02    0.620E-03
DAV:  10    -0.162740038132E+03    0.74942E-08   -0.14012E-06   952   0.607E-03
 150 F= -.16274004E+03 E0= -.16274004E+03  d E =-.427816E-11
       N       E                     dE             d eps       ncg     rms          rms(c)
DAV:   1    -0.162741056948E+03   -0.10188E-02   -0.23946E-01  1360   0.499E-01    0.228E-01
DAV:   2    -0.162741885008E+03   -0.82806E-03   -0.99757E-03  1696   0.242E-01    0.715E-02
DAV:   3    -0.162741853340E+03    0.31667E-04   -0.42212E-04  1664   0.516E-02    0.586E-02
DAV:   4    -0.162741822880E+03    0.30461E-04   -0.86873E-05  1784   0.481E-02    0.266E-02
DAV:   5    -0.162741825551E+03   -0.26711E-05   -0.55858E-05  1616   0.187E-02    0.141E-02
DAV:   6    -0.162741825243E+03    0.30766E-06   -0.64960E-06  1416   0.772E-03
 151 F= -.16274183E+03 E0= -.16274183E+03  d E =-.270337E-11
       N       E                     dE             d eps       ncg     rms          rms(c)
DAV:   1    -0.162737545043E+03    0.42805E-02   -0.95680E-01  1368   0.100E+00    0.458E-01
DAV:   2    -0.162740920132E+03   -0.33751E-02   -0.40696E-02  1720   0.494E-01    0.139E-01
DAV:   3    -0.162740782702E+03    0.13743E-03   -0.16499E-03  1712   0.106E-01    0.116E-01
DAV:   4    -0.162740657134E+03    0.12557E-03   -0.36389E-04  1992   0.959E-02    0.526E-02
DAV:   5    -0.162740669987E+03   -0.12853E-04   -0.23829E-04  1632   0.415E-02    0.316E-02
DAV:   6    -0.162740670051E+03   -0.63679E-07   -0.32466E-05  1528   0.186E-02    0.306E-02
DAV:   7    -0.162740669315E+03    0.73600E-06   -0.42204E-06  1136   0.111E-02
 152 F= -.16274067E+03 E0= -.16274067E+03  d E =-.289443E-11
       N       E                     dE             d eps       ncg     rms          rms(c)
DAV:   1    -0.162737178812E+03    0.34912E-02   -0.24010E-01  1368   0.508E-01    0.233E-01
DAV:   2    -0.162738000465E+03   -0.82165E-03   -0.99699E-03  1768   0.243E-01    0.672E-02
DAV:   3    -0.162737965515E+03    0.34950E-04   -0.40301E-04  1664   0.490E-02    0.555E-02
DAV:   4    -0.162737933241E+03    0.32275E-04   -0.91479E-05  1840   0.464E-02    0.247E-02
DAV:   5    -0.162737936332E+03   -0.30911E-05   -0.58272E-05  1712   0.220E-02    0.162E-02
DAV:   6    -0.162737936669E+03   -0.33785E-06   -0.10928E-05  1408   0.101E-02    0.153E-02
DAV:   7    -0.162737936352E+03    0.31745E-06   -0.34560E-07   816   0.563E-03
 153 F= -.16273794E+03 E0= -.16273794E+03  d E =-.567086E-11
       N       E                     dE             d eps       ncg     rms          rms(c)
DAV:   1    -0.162733408496E+03    0.45282E-02   -0.18827E+00  1368   0.144E+00    0.709E-01
DAV:   2    -0.162739556235E+03   -0.61477E-02   -0.78595E-02  1744   0.777E-01    0.207E-01
DAV:   3    -0.162739270096E+03    0.28614E-03   -0.37125E-03  1736   0.167E-01    0.171E-01
DAV:   4    -0.162739049642E+03    0.22045E-03   -0.75326E-04  1752   0.108E-01    0.670E-02
DAV:   5    -0.162739094207E+03   -0.44565E-04   -0.63258E-04  1760   0.655E-02    0.493E-02
DAV:   6    -0.162739092270E+03    0.19365E-05   -0.58725E-05  1608   0.374E-02    0.449E-02
DAV:   7    -0.162739092893E+03   -0.62237E-06   -0.15555E-05  1424   0.145E-02    0.444E-02
DAV:   8    -0.162739087775E+03    0.51175E-05   -0.41708E-06  1256   0.317E-02    0.338E-02
DAV:   9    -0.162739084744E+03    0.30318E-05   -0.47043E-05  1792   0.881E-02    0.294E-02
DAV:  10    -0.162739083200E+03    0.15433E-05   -0.11919E-05  1592   0.270E-02    0.202E-02
DAV:  11    -0.162739083096E+03    0.10453E-06   -0.21272E-06  1000   0.424E-03
 154 F= -.16273908E+03 E0= -.16273908E+03  d E =-.366562E-11
       N       E                     dE             d eps       ncg     rms          rms(c)
DAV:   1    -0.162740466658E+03   -0.13835E-02   -0.23981E-01  1368   0.496E-01    0.223E-01
DAV:   2    -0.162741202126E+03   -0.73547E-03   -0.91174E-03  1752   0.244E-01    0.722E-02
DAV:   3    -0.162741177860E+03    0.24266E-04   -0.40788E-04  1688   0.520E-02    0.579E-02
DAV:   4    -0.162741150711E+03    0.27150E-04   -0.81244E-05  1824   0.351E-02    0.281E-02
DAV:   5    -0.162741155018E+03   -0.43077E-05   -0.59920E-05  1672   0.180E-02    0.131E-02
DAV:   6    -0.162741154322E+03    0.69580E-06   -0.30803E-06  1344   0.127E-02
 155 F= -.16274115E+03 E0= -.16274115E+03  d E =-.267092E-11
       N       E                     dE             d eps       ncg     rms          rms(c)
DAV:   1    -0.162738749605E+03    0.24054E-02   -0.95961E-01  1368   0.100E+00    0.471E-01
DAV:   2    -0.162741685892E+03   -0.29363E-02   -0.36495E-02  1752   0.497E-01    0.144E-01
DAV:   3    -0.162741584394E+03    0.10150E-03   -0.16534E-03  1744   0.114E-01    0.116E-01
DAV:   4    -0.162741475728E+03    0.10867E-03   -0.33443E-04  1920   0.844E-02    0.571E-02
DAV:   5    -0.162741492507E+03   -0.16780E-04   -0.25210E-04  1696   0.431E-02    0.298E-02
DAV:   6    -0.162741491499E+03    0.10087E-05   -0.25470E-05  1608   0.256E-02    0.253E-02
DAV:   7    -0.162741490316E+03    0.11827E-05   -0.48733E-06  1232   0.163E-02    0.183E-02
DAV:   8    -0.162741488489E+03    0.18271E-05   -0.10394E-05  1664   0.332E-02    0.116E-02
DAV:   9    -0.162741488557E+03   -0.68081E-07   -0.42776E-06  1320   0.846E-03
 156 F= -.16274149E+03 E0= -.16274149E+03  d E =-.370613E-11
       N       E                     dE             d eps       ncg     rms          rms(c)
DAV:   1    -0.162738880845E+03    0.26076E-02   -0.23935E-01  1368   0.511E-01    0.229E-01
DAV:   2    -0.162739649422E+03   -0.76858E-03   -0.94860E-03  1736   0.254E-01    0.731E-02
DAV:   3    -0.162739623344E+03    0.26078E-04   -0.43185E-04  1672   0.532E-02    0.588E-02
DAV:   4    -0.162739596487E+03    0.26856E-04   -0.83813E-05  2064   0.429E-02    0.288E-02
DAV:   5    -0.162739598983E+03   -0.24955E-05   -0.48272E-05  1640   0.201E-02    0.122E-02
DAV:   6    -0.162739598887E+03    0.95781E-07   -0.72301E-06  1440   0.123E-02
 157 F= -.16273960E+03 E0= -.16273960E+03  d E =-.781675E-11
       N       E                     dE             d eps       ncg     rms          rms(c)
DAV:   1    -0.162730892159E+03    0.87068E-02   -0.18434E+00  1368   0.158E+00    0.729E-01
DAV:   2    -0.162739820683E+03   -0.89285E-02   -0.10061E-01  1680   0.691E-01    0.241E-01
DAV:   3    -0.162739540892E+03    0.27979E-03   -0.35377E-03  1728   0.151E-01    0.193E-01
DAV:   4    -0.162739285787E+03    0.25511E-03   -0.68570E-04  2032   0.128E-01    0.972E-02
DAV:   5    -0.162739306906E+03   -0.21119E-04   -0.39776E-04  1704   0.467E-02    0.339E-02
DAV:   6    -0.162739305150E+03    0.17557E-05   -0.30410E-05  1592   0.239E-02    0.280E-02
DAV:   7    -0.162739303087E+03    0.20633E-05   -0.71334E-06  1552   0.257E-02    0.136E-02
DAV:   8    -0.162739302564E+03    0.52303E-06   -0.41411E-06  1408   0.121E-02
 158 F= -.16273930E+03 E0= -.16273930E+03  d E =-.226320E-11
       N       E                     dE             d eps       ncg     rms          rms(c)
DAV:   1    -0.162740368456E+03   -0.10654E-02   -0.22645E-01  1344   0.541E-01    0.233E-01
DAV:   2    -0.162741356319E+03   -0.98786E-03   -0.10721E-02  1464   0.195E-01    0.657E-02
DAV:   3    -0.162741329929E+03    0.26391E-04   -0.31430E-04  1592   0.371E-02    0.473E-02
DAV:   4    -0.162741308162E+03    0.21767E-04   -0.11718E-04  1472   0.227E-02    0.150E-02
DAV:   5    -0.162741309834E+03   -0.16723E-05   -0.29083E-05  1424   0.140E-02    0.119E-02
DAV:   6    -0.162741309270E+03    0.56432E-06   -0.13536E-06   984   0.365E-03
 159 F= -.16274131E+03 E0= -.16274131E+03  d E =-.227268E-11
       N       E                     dE             d eps       ncg     rms          rms(c)
DAV:   1    -0.162737537395E+03    0.37724E-02   -0.90783E-01  1360   0.109E+00    0.476E-01
DAV:   2    -0.162741498384E+03   -0.39610E-02   -0.42962E-02  1496   0.389E-01    0.138E-01
DAV:   3    -0.162741393863E+03    0.10452E-03   -0.12439E-03  1584   0.740E-02    0.102E-01
DAV:   4    -0.162741304610E+03    0.89253E-04   -0.47438E-04  1512   0.517E-02    0.322E-02
DAV:   5    -0.162741312092E+03   -0.74820E-05   -0.11755E-04  1472   0.337E-02    0.235E-02
DAV:   6    -0.162741309839E+03    0.22535E-05   -0.78853E-06  1472   0.696E-03    0.174E-02
DAV:   7    -0.162741308902E+03    0.93691E-06   -0.49514E-06  1224   0.689E-03
 160 F= -.16274131E+03 E0= -.16274131E+03  d E =-.227351E-11
       N       E                     dE             d eps       ncg     rms          rms(c)
DAV:   1    -0.162738392630E+03    0.29172E-02   -0.22688E-01  1344   0.545E-01    0.228E-01
DAV:   2    -0.162739348721E+03   -0.95609E-03   -0.10380E-02  1464   0.192E-01    0.660E-02
DAV:   3    -0.162739323164E+03    0.25557E-04   -0.29872E-04  1584   0.355E-02    0.467E-02
DAV:   4    -0.162739302302E+03    0.20862E-04   -0.12251E-04  1464   0.205E-02    0.147E-02
DAV:   5    -0.162739303807E+03   -0.15058E-05   -0.28785E-05  1424   0.129E-02    0.116E-02
DAV:   6    -0.162739303077E+03    0.72993E-06   -0.16232E-06  1080   0.428E-03
 161 F= -.16273930E+03 E0= -.16273930E+03  d E =-.225288E-11
       N       E                     dE             d eps       ncg     rms          rms(c)
DAV:   1    -0.162731011979E+03    0.82918E-02   -0.18305E+00  1368   0.160E+00    0.525E-01
DAV:   2    -0.162739115600E+03   -0.81036E-02   -0.88407E-02  1600   0.674E-01    0.208E-01
DAV:   3    -0.162739100184E+03    0.15415E-04   -0.35249E-03  1664   0.171E-01    0.177E-01
DAV:   4    -0.162738913316E+03    0.18687E-03   -0.39128E-04  1776   0.172E-01    0.935E-02
DAV:   5    -0.162738847146E+03    0.66170E-04   -0.33874E-04  1696   0.620E-02    0.205E-02
DAV:   6    -0.162738844387E+03    0.27594E-05   -0.11618E-04  1464   0.344E-02    0.296E-02
DAV:   7    -0.162738841784E+03    0.26028E-05   -0.18083E-05  1608   0.125E-02    0.229E-02
DAV:   8    -0.162738839861E+03    0.19224E-05   -0.32684E-06  1296   0.107E-02    0.157E-02
DAV:   9    -0.162738838665E+03    0.11958E-05   -0.24458E-06  1208   0.121E-02    0.762E-03
DAV:  10    -0.162738838506E+03    0.15989E-06   -0.13229E-06   944   0.603E-03
 162 F= -.16273884E+03 E0= -.16273884E+03  d E =-.414238E-11
       N       E                     dE             d eps       ncg     rms          rms(c)
DAV:   1    -0.162740319929E+03   -0.14813E-02   -0.23279E-01  1344   0.540E-01    0.207E-01
DAV:   2    -0.162741260184E+03   -0.94026E-03   -0.10615E-02  1712   0.239E-01    0.762E-02
DAV:   3    -0.162741242277E+03    0.17907E-04   -0.42049E-04  1640   0.574E-02    0.606E-02
DAV:   4    -0.162741216453E+03    0.25824E-04   -0.61797E-05  1744   0.571E-02    0.317E-02
DAV:   5    -0.162741216204E+03    0.24821E-06   -0.47577E-05  1608   0.231E-02    0.808E-03
DAV:   6    -0.162741216549E+03   -0.34473E-06   -0.14151E-05  1464   0.105E-02    0.109E-02
DAV:   7    -0.162741216342E+03    0.20727E-06   -0.10834E-06   936   0.653E-03
 163 F= -.16274122E+03 E0= -.16274122E+03  d E =-.313281E-11
       N       E                     dE             d eps       ncg     rms          rms(c)
DAV:   1    -0.162737575377E+03    0.36412E-02   -0.93160E-01  1368   0.110E+00    0.444E-01
DAV:   2    -0.162741389366E+03   -0.38140E-02   -0.43084E-02  1736   0.493E-01    0.152E-01
DAV:   3    -0.162741312060E+03    0.77306E-04   -0.17358E-03  1696   0.121E-01    0.121E-01
DAV:   4    -0.162741209291E+03    0.10277E-03   -0.26530E-04  1784   0.126E-01    0.627E-02
DAV:   5    -0.162741208844E+03    0.44680E-06   -0.19578E-04  1696   0.494E-02    0.173E-02
DAV:   6    -0.162741209944E+03   -0.11001E-05   -0.55235E-05  1544   0.207E-02    0.222E-02
DAV:   7    -0.162741209202E+03    0.74223E-06   -0.45697E-06  1416   0.133E-02
 164 F= -.16274121E+03 E0= -.16274121E+03  d E =-.219863E-11
       N       E                     dE             d eps       ncg     rms          rms(c)
DAV:   1    -0.162737944631E+03    0.32653E-02   -0.23316E-01  1344   0.556E-01    0.221E-01
DAV:   2    -0.162738923886E+03   -0.97925E-03   -0.11081E-02  1704   0.261E-01    0.759E-02
DAV:   3    -0.162738903683E+03    0.20203E-04   -0.45867E-04  1648   0.631E-02    0.606E-02
DAV:   4    -0.162738878233E+03    0.25450E-04   -0.68181E-05  1688   0.634E-02    0.307E-02
DAV:   5    -0.162738877811E+03    0.42175E-06   -0.50303E-05  1672   0.247E-02    0.872E-03
DAV:   6    -0.162738878056E+03   -0.24535E-06   -0.15040E-05  1512   0.112E-02    0.115E-02
DAV:   7    -0.162738877840E+03    0.21655E-06   -0.13939E-06  1016   0.691E-03
 165 F= -.16273888E+03 E0= -.16273888E+03  d E =-.213099E-11
       N       E                     dE             d eps       ncg     rms          rms(c)
DAV:   1    -0.162732031661E+03    0.68464E-02   -0.18147E+00  1368   0.155E+00    0.717E-01
DAV:   2    -0.162740062363E+03   -0.80307E-02   -0.92136E-02  1656   0.752E-01    0.234E-01
DAV:   3    -0.162739895874E+03    0.16649E-03   -0.41105E-03  1720   0.188E-01    0.196E-01
DAV:   4    -0.162739699313E+03    0.19656E-03   -0.58502E-04  1848   0.177E-01    0.100E-01
DAV:   5    -0.162739696990E+03    0.23226E-05   -0.35450E-04  1808   0.685E-02    0.264E-02
DAV:   6    -0.162739698362E+03   -0.13720E-05   -0.74727E-05  1680   0.240E-02    0.253E-02
DAV:   7    -0.162739696284E+03    0.20783E-05   -0.75559E-06  1720   0.206E-02    0.160E-02
DAV:   8    -0.162739695666E+03    0.61819E-06   -0.39665E-06  1400   0.738E-03
 166 F= -.16273970E+03 E0= -.16273970E+03  d E =-.904546E-11
       N       E                     dE             d eps       ncg     rms          rms(c)
DAV:   1    -0.162740582312E+03   -0.88603E-03   -0.23560E-01  1368   0.529E-01    0.199E-01
DAV:   2    -0.162741532829E+03   -0.95052E-03   -0.10737E-02  1608   0.221E-01    0.816E-02
DAV:   3    -0.162741524976E+03    0.78536E-05   -0.45238E-04  1584   0.626E-02    0.675E-02
DAV:   4    -0.162741500154E+03    0.24821E-04   -0.61594E-05  1720   0.622E-02    0.371E-02
DAV:   5    -0.162741499102E+03    0.10522E-05   -0.51761E-05  1696   0.270E-02    0.860E-03
DAV:   6    -0.162741499303E+03   -0.20039E-06   -0.12859E-05  1448   0.111E-02    0.105E-02
DAV:   7    -0.162741498980E+03    0.32226E-06   -0.16547E-06  1032   0.584E-03
 167 F= -.16274150E+03 E0= -.16274150E+03  d E =-.366150E-11
       N       E                     dE             d eps       ncg     rms          rms(c)
DAV:   1    -0.162737554751E+03    0.39446E-02   -0.94249E-01  1368   0.107E+00    0.399E-01
DAV:   2    -0.162741338127E+03   -0.37834E-02   -0.42842E-02  1688   0.448E-01    0.163E-01
DAV:   3    -0.162741302280E+03    0.35847E-04   -0.17734E-03  1704   0.128E-01    0.138E-01
DAV:   4    -0.162741203922E+03    0.98357E-04   -0.24344E-04  1808   0.128E-01    0.764E-02
DAV:   5    -0.162741199931E+03    0.39916E-05   -0.20677E-04  1768   0.555E-02    0.184E-02
DAV:   6    -0.162741201696E+03   -0.17656E-05   -0.53906E-05  1576   0.198E-02    0.210E-02
DAV:   7    -0.162741200167E+03    0.15298E-05   -0.43271E-06  1464   0.116E-02    0.160E-02
DAV:   8    -0.162741199639E+03    0.52716E-06   -0.31940E-06  1304   0.101E-02
 168 F= -.16274120E+03 E0= -.16274120E+03  d E =-.315202E-11
       N       E                     dE             d eps       ncg     rms          rms(c)
DAV:   1    -0.162738162685E+03    0.30375E-02   -0.23562E-01  1368   0.534E-01    0.201E-01
DAV:   2    -0.162739086413E+03   -0.92373E-03   -0.10491E-02  1656   0.229E-01    0.798E-02
DAV:   3    -0.162739077035E+03    0.93786E-05   -0.44479E-04  1624   0.611E-02    0.653E-02
DAV:   4    -0.162739052288E+03    0.24747E-04   -0.58975E-05  1720   0.569E-02    0.361E-02
DAV:   5    -0.162739051013E+03    0.12748E-05   -0.49058E-05  1696   0.263E-02    0.855E-03
DAV:   6    -0.162739051461E+03   -0.44787E-06   -0.13449E-05  1528   0.101E-02    0.995E-03
DAV:   7    -0.162739051065E+03    0.39538E-06   -0.77464E-07   856   0.612E-03
 169 F= -.16273905E+03 E0= -.16273905E+03  d E =-.636077E-11
