  39  39   0   0
  0.2439952E+02  0.6834254E-09  0.1767185E-08  0.7880486E-09  0.0000000E+00
   1.0000000000000000E-004
  CAR 
 NEB                                     
      9.54153029    -23.88560167  301      1.08712884      1.00000000
    -23.886  0.0000E+00  0.0000E+00
    -23.774  0.0000E+00  0.0000E+00
    -23.663  0.0000E+00  0.0000E+00
    -23.551 -0.1607E-30 -0.1791E-31
    -23.440 -0.1222E-26 -0.1362E-27
    -23.328 -0.4943E-23 -0.5509E-24
    -23.217 -0.1072E-19 -0.1195E-20
    -23.106 -0.1246E-16 -0.1390E-17
    -22.994 -0.7518E-14 -0.8391E-15
    -22.883 -0.2490E-11 -0.2783E-12
    -22.771 -0.4398E-09 -0.4928E-10
    -22.660 -0.4127E-07 -0.4647E-08
    -22.549 -0.2043E-05 -0.2323E-06
    -22.437 -0.5263E-04 -0.6096E-05
    -22.326 -0.6846E-03 -0.8237E-04
    -22.214 -0.4152E-02 -0.5450E-03
    -22.103 -0.8261E-02 -0.1465E-02
    -21.991  0.1900E-01  0.6515E-03
    -21.880  0.1104E+00  0.1296E-01
    -21.769  0.1985E+00  0.3507E-01
    -21.657  0.1964E+00  0.5695E-01
    -21.546  0.1768E+00  0.7665E-01
    -21.434  0.3447E+00  0.1151E+00
    -21.323  0.6808E+00  0.1909E+00
    -21.211  0.8379E+00  0.2843E+00
    -21.100  0.6255E+00  0.3540E+00
    -20.989  0.2492E+00  0.3817E+00
    -20.877  0.1867E-01  0.3838E+00
    -20.766 -0.2365E-01  0.3812E+00
    -20.654 -0.9111E-02  0.3802E+00
    -20.543 -0.1407E-02  0.3800E+00
    -20.431 -0.1076E-03  0.3800E+00
    -20.320 -0.4290E-05  0.3800E+00
    -20.209 -0.9090E-07  0.3800E+00
    -20.097 -0.1031E-08  0.3800E+00
    -19.986 -0.6277E-11  0.3800E+00
    -19.874 -0.2050E-13  0.3800E+00
    -19.763 -0.3986E-16  0.3800E+00
    -19.651  0.0000E+00  0.3800E+00
    -19.540  0.0000E+00  0.3800E+00
    -19.429  0.0000E+00  0.3800E+00
    -19.317  0.0000E+00  0.3800E+00
    -19.206  0.0000E+00  0.3800E+00
    -19.094  0.0000E+00  0.3800E+00
    -18.983  0.0000E+00  0.3800E+00
    -18.872  0.0000E+00  0.3800E+00
    -18.760  0.0000E+00  0.3800E+00
    -18.649  0.0000E+00  0.3800E+00
    -18.537  0.0000E+00  0.3800E+00
    -18.426  0.0000E+00  0.3800E+00
    -18.314  0.0000E+00  0.3800E+00
    -18.203  0.0000E+00  0.3800E+00
    -18.092  0.0000E+00  0.3800E+00
    -17.980  0.0000E+00  0.3800E+00
    -17.869  0.0000E+00  0.3800E+00
    -17.757  0.0000E+00  0.3800E+00
    -17.646  0.0000E+00  0.3800E+00
    -17.534  0.0000E+00  0.3800E+00
    -17.423  0.0000E+00  0.3800E+00
    -17.312  0.0000E+00  0.3800E+00
    -17.200  0.0000E+00  0.3800E+00
    -17.089  0.0000E+00  0.3800E+00
    -16.977  0.0000E+00  0.3800E+00
    -16.866  0.0000E+00  0.3800E+00
    -16.754  0.0000E+00  0.3800E+00
    -16.643  0.0000E+00  0.3800E+00
    -16.532  0.0000E+00  0.3800E+00
    -16.420  0.0000E+00  0.3800E+00
    -16.309  0.0000E+00  0.3800E+00
    -16.197  0.0000E+00  0.3800E+00
    -16.086  0.0000E+00  0.3800E+00
    -15.975  0.0000E+00  0.3800E+00
    -15.863  0.0000E+00  0.3800E+00
    -15.752  0.0000E+00  0.3800E+00
    -15.640  0.0000E+00  0.3800E+00
    -15.529  0.0000E+00  0.3800E+00
    -15.417  0.0000E+00  0.3800E+00
    -15.306  0.0000E+00  0.3800E+00
    -15.195  0.0000E+00  0.3800E+00
    -15.083  0.0000E+00  0.3800E+00
    -14.972  0.0000E+00  0.3800E+00
    -14.860  0.0000E+00  0.3800E+00
    -14.749  0.0000E+00  0.3800E+00
    -14.637  0.0000E+00  0.3800E+00
    -14.526  0.0000E+00  0.3800E+00
    -14.415  0.0000E+00  0.3800E+00
    -14.303  0.0000E+00  0.3800E+00
    -14.192 -0.2574E-31  0.3800E+00
    -14.080 -0.2246E-27  0.3800E+00
    -13.969 -0.1044E-23  0.3800E+00
    -13.857 -0.2599E-20  0.3800E+00
    -13.746 -0.3463E-17  0.3800E+00
    -13.635 -0.2395E-14  0.3800E+00
    -13.523 -0.9057E-12  0.3800E+00
    -13.412 -0.1828E-09  0.3800E+00
    -13.300 -0.1962E-07  0.3800E+00
    -13.189 -0.1116E-05  0.3800E+00
    -13.077 -0.3338E-04  0.3800E+00
    -12.966 -0.5153E-03  0.3799E+00
    -12.855 -0.3904E-02  0.3795E+00
    -12.743 -0.1202E-01  0.3782E+00
    -12.632  0.5141E-02  0.3787E+00
    -12.520  0.1175E+00  0.3918E+00
    -12.409  0.2860E+00  0.4237E+00
    -12.298  0.3477E+00  0.4624E+00
    -12.186  0.2784E+00  0.4935E+00
    -12.075  0.1536E+00  0.5106E+00
    -11.963  0.3951E-01  0.5150E+00
    -11.852 -0.6677E-02  0.5142E+00
    -11.740 -0.6453E-02  0.5135E+00
    -11.629 -0.1446E-02  0.5134E+00
    -11.518 -0.1465E-03  0.5133E+00
    -11.406 -0.7459E-05  0.5133E+00
    -11.295 -0.1974E-06  0.5133E+00
    -11.183 -0.2756E-08  0.5133E+00
    -11.072 -0.1436E-09  0.5133E+00
    -10.960 -0.1162E-07  0.5133E+00
    -10.849 -0.5720E-06  0.5133E+00
    -10.738 -0.1450E-04  0.5133E+00
    -10.626 -0.1842E-03  0.5133E+00
    -10.515 -0.1096E-02  0.5132E+00
    -10.403 -0.2286E-02  0.5129E+00
    -10.292  0.3962E-02  0.5134E+00
    -10.180  0.2889E-01  0.5166E+00
    -10.069  0.6392E-01  0.5237E+00
     -9.958  0.7763E-01  0.5324E+00
     -9.846  0.5339E-01  0.5383E+00
     -9.735  0.1449E-01  0.5399E+00
     -9.623 -0.1018E-01  0.5388E+00
     -9.512  0.6566E-02  0.5395E+00
     -9.401  0.1042E+00  0.5511E+00
     -9.289  0.2198E+00  0.5756E+00
     -9.178  0.2258E+00  0.6008E+00
     -9.066  0.1382E+00  0.6162E+00
     -8.955  0.4380E-01  0.6211E+00
     -8.843 -0.2015E-02  0.6208E+00
     -8.732 -0.5791E-02  0.6202E+00
     -8.621 -0.1563E-02  0.6200E+00
     -8.509 -0.1791E-03  0.6200E+00
     -8.398 -0.1005E-04  0.6200E+00
     -8.286 -0.2893E-06  0.6200E+00
     -8.175 -0.4359E-08  0.6200E+00
     -8.063 -0.3474E-10  0.6200E+00
     -7.952 -0.1473E-12  0.6200E+00
     -7.841 -0.3321E-15  0.6200E+00
     -7.729  0.0000E+00  0.6200E+00
     -7.618  0.0000E+00  0.6200E+00
     -7.506  0.0000E+00  0.6200E+00
     -7.395  0.0000E+00  0.6200E+00
     -7.283  0.0000E+00  0.6200E+00
     -7.172  0.0000E+00  0.6200E+00
     -7.061  0.0000E+00  0.6200E+00
     -6.949  0.0000E+00  0.6200E+00
     -6.838  0.0000E+00  0.6200E+00
     -6.726  0.0000E+00  0.6200E+00
     -6.615  0.0000E+00  0.6200E+00
     -6.503  0.0000E+00  0.6200E+00
     -6.392  0.0000E+00  0.6200E+00
     -6.281  0.0000E+00  0.6200E+00
     -6.169  0.0000E+00  0.6200E+00
     -6.058  0.0000E+00  0.6200E+00
     -5.946  0.0000E+00  0.6200E+00
     -5.835  0.0000E+00  0.6200E+00
     -5.724  0.0000E+00  0.6200E+00
     -5.612  0.0000E+00  0.6200E+00
     -5.501  0.0000E+00  0.6200E+00
     -5.389  0.0000E+00  0.6200E+00
     -5.278  0.0000E+00  0.6200E+00
     -5.166  0.0000E+00  0.6200E+00
     -5.055  0.0000E+00  0.6200E+00
     -4.944 -0.4880E-30  0.6200E+00
     -4.832 -0.3223E-26  0.6200E+00
     -4.721 -0.1138E-22  0.6200E+00
     -4.609 -0.2148E-19  0.6200E+00
     -4.498 -0.2162E-16  0.6200E+00
     -4.386 -0.1121E-13  0.6200E+00
     -4.275 -0.3170E-11  0.6200E+00
     -4.164 -0.4733E-09  0.6200E+00
     -4.052 -0.3707E-07  0.6200E+00
     -3.941 -0.1506E-05  0.6200E+00
     -3.829 -0.3111E-04  0.6200E+00
     -3.718 -0.3131E-03  0.6200E+00
     -3.606 -0.1366E-02  0.6198E+00
     -3.495 -0.1218E-02  0.6197E+00
     -3.384  0.8294E-02  0.6206E+00
     -3.272  0.3120E-01  0.6241E+00
     -3.161  0.6015E-01  0.6308E+00
     -3.049  0.7546E-01  0.6392E+00
     -2.938  0.5413E-01  0.6452E+00
     -2.827  0.1693E-01  0.6471E+00
     -2.715 -0.1123E-02  0.6470E+00
     -2.604 -0.2164E-02  0.6467E+00
     -2.492 -0.5508E-03  0.6467E+00
     -2.381 -0.6118E-04  0.6467E+00
     -2.269 -0.3367E-05  0.6467E+00
     -2.158 -0.5482E-06  0.6467E+00
     -2.047 -0.1186E-04  0.6467E+00
     -1.935 -0.1538E-03  0.6466E+00
     -1.824 -0.9145E-03  0.6465E+00
     -1.712 -0.1829E-02  0.6463E+00
     -1.601  0.2921E-02  0.6467E+00
     -1.489  0.1903E-01  0.6488E+00
     -1.378  0.4668E-01  0.6540E+00
     -1.267  0.9087E-01  0.6641E+00
     -1.155  0.1313E+00  0.6787E+00
     -1.044  0.1326E+00  0.6935E+00
     -0.932  0.8850E-01  0.7034E+00
     -0.821  0.3890E-01  0.7077E+00
     -0.709  0.4138E-01  0.7123E+00
     -0.598  0.6344E-01  0.7194E+00
     -0.487  0.4536E-01  0.7244E+00
     -0.375  0.1885E-01  0.7265E+00
     -0.264  0.4574E-01  0.7316E+00
     -0.152  0.1084E+00  0.7437E+00
     -0.041  0.1563E+00  0.7611E+00
      0.071  0.1965E+00  0.7830E+00
      0.182  0.2059E+00  0.8060E+00
      0.293  0.1748E+00  0.8254E+00
      0.405  0.1748E+00  0.8449E+00
      0.516  0.1887E+00  0.8660E+00
      0.628  0.1527E+00  0.8830E+00
      0.739  0.1121E+00  0.8955E+00
      0.850  0.1252E+00  0.9094E+00
      0.962  0.1393E+00  0.9249E+00
      1.073  0.9758E-01  0.9358E+00
      1.185  0.3812E-01  0.9401E+00
      1.296  0.4476E-02  0.9406E+00
      1.408 -0.3162E-02  0.9402E+00
      1.519 -0.1560E-02  0.9400E+00
      1.630 -0.2844E-03  0.9400E+00
      1.742 -0.2468E-04  0.9400E+00
      1.853 -0.1080E-05  0.9400E+00
      1.965 -0.2442E-07  0.9400E+00
      2.076 -0.2889E-09  0.9400E+00
      2.188 -0.1642E-10  0.9400E+00
      2.299 -0.1808E-08  0.9400E+00
      2.410 -0.1169E-06  0.9400E+00
      2.522 -0.3894E-05  0.9400E+00
      2.633 -0.6483E-04  0.9400E+00
      2.745 -0.5014E-03  0.9399E+00
      2.856 -0.1358E-02  0.9398E+00
      2.968  0.2087E-02  0.9400E+00
      3.079  0.1649E-01  0.9419E+00
      3.190  0.2703E-01  0.9449E+00
      3.302  0.1614E-01  0.9467E+00
      3.413  0.1912E-02  0.9469E+00
      3.525 -0.1356E-02  0.9467E+00
      3.636 -0.5321E-03  0.9467E+00
      3.747 -0.5430E-03  0.9466E+00
      3.859 -0.2117E-02  0.9464E+00
      3.970 -0.1226E-02  0.9462E+00
      4.082  0.1703E-01  0.9481E+00
      4.193  0.5001E-01  0.9537E+00
      4.305  0.6085E-01  0.9605E+00
      4.416  0.4148E-01  0.9651E+00
      4.527  0.1568E-01  0.9669E+00
      4.639  0.7033E-03  0.9669E+00
      4.750 -0.1730E-02  0.9667E+00
      4.862 -0.5748E-03  0.9667E+00
      4.973 -0.1293E-03  0.9667E+00
      5.085 -0.5836E-03  0.9666E+00
      5.196 -0.2713E-02  0.9663E+00
      5.307 -0.2702E-02  0.9660E+00
      5.419  0.1903E-01  0.9681E+00
      5.530  0.6694E-01  0.9756E+00
      5.642  0.9303E-01  0.9859E+00
      5.753  0.8261E-01  0.9951E+00
      5.865  0.7926E-01  0.1004E+01
      5.976  0.8936E-01  0.1014E+01
      6.087  0.8640E-01  0.1024E+01
      6.199  0.5838E-01  0.1030E+01
      6.310  0.2443E-01  0.1033E+01
      6.422  0.1166E-01  0.1034E+01
      6.533  0.3041E-01  0.1037E+01
      6.645  0.5109E-01  0.1043E+01
      6.756  0.5646E-01  0.1049E+01
      6.867  0.6742E-01  0.1057E+01
      6.979  0.7960E-01  0.1066E+01
      7.090  0.8578E-01  0.1075E+01
      7.202  0.9931E-01  0.1086E+01
      7.313  0.1023E+00  0.1098E+01
      7.424  0.8642E-01  0.1107E+01
      7.536  0.6848E-01  0.1115E+01
      7.647  0.3980E-01  0.1120E+01
      7.759  0.8602E-02  0.1121E+01
      7.870 -0.2650E-02  0.1120E+01
      7.982 -0.1628E-02  0.1120E+01
      8.093 -0.2925E-03  0.1120E+01
      8.204 -0.2399E-04  0.1120E+01
      8.316 -0.9834E-06  0.1120E+01
      8.427 -0.2085E-07  0.1120E+01
      8.539 -0.2320E-09  0.1120E+01
      8.650 -0.1366E-11  0.1120E+01
      8.762 -0.4278E-14  0.1120E+01
      8.873 -0.1329E-16  0.1120E+01
      8.984  0.0000E+00  0.1120E+01
      9.096  0.0000E+00  0.1120E+01
      9.207  0.0000E+00  0.1120E+01
      9.319  0.0000E+00  0.1120E+01
      9.430  0.0000E+00  0.1120E+01
      9.542  0.0000E+00  0.1120E+01
