       N       E                     dE             d eps       ncg     rms          rms(c)
DAV:   1     0.290924422925E+04    0.29092E+04   -0.11506E+05   348   0.150E+03
DAV:   2     0.311134726635E+03   -0.25981E+04   -0.25113E+04   360   0.435E+02
DAV:   3    -0.115242044819E+03   -0.42638E+03   -0.41946E+03   408   0.192E+02
DAV:   4    -0.146573282485E+03   -0.31331E+02   -0.31128E+02   396   0.478E+01
DAV:   5    -0.148036646154E+03   -0.14634E+01   -0.14607E+01   480   0.109E+01    0.197E+01
RMM:   6    -0.139173058936E+03    0.88636E+01   -0.16712E+01   381   0.735E+00    0.122E+01
RMM:   7    -0.139133755027E+03    0.39304E-01   -0.15366E+01   410   0.528E+00    0.778E+00
RMM:   8    -0.138842548932E+03    0.29121E+00   -0.10088E+00   410   0.277E+00    0.468E+00
RMM:   9    -0.138964450834E+03   -0.12190E+00   -0.12029E+00   399   0.204E+00    0.230E+00
RMM:  10    -0.138827657803E+03    0.13679E+00   -0.14173E-01   398   0.124E+00    0.156E+00
RMM:  11    -0.138793673683E+03    0.33984E-01   -0.97785E-02   414   0.598E-01    0.861E-01
RMM:  12    -0.138795487648E+03   -0.18140E-02   -0.29283E-02   504   0.354E-01    0.722E-01
RMM:  13    -0.138795438445E+03    0.49203E-04   -0.36148E-03   484   0.132E-01    0.587E-01
RMM:  14    -0.138803704212E+03   -0.82658E-02   -0.11498E-02   432   0.184E-01    0.451E-01
RMM:  15    -0.138800799385E+03    0.29048E-02   -0.64667E-03   411   0.130E-01    0.223E-01
RMM:  16    -0.138800274868E+03    0.52452E-03   -0.85778E-04   406   0.604E-02    0.136E-01
RMM:  17    -0.138800355019E+03   -0.80151E-04   -0.45091E-04   345   0.392E-02    0.848E-02
RMM:  18    -0.138800404560E+03   -0.49542E-04   -0.27081E-04   296   0.304E-02    0.448E-02
RMM:  19    -0.138800393418E+03    0.11142E-04   -0.11018E-04   315   0.210E-02    0.234E-02
RMM:  20    -0.138800389706E+03    0.37120E-05   -0.27312E-05   270   0.129E-02
   1 F= -.13880039E+03 E0= -.13880991E+03  d E =-.138800E+03
       N       E                     dE             d eps       ncg     rms          rms(c)
DAV:   1    -0.138800389084E+03    0.43343E-05   -0.71901E-06   204   0.105E-02    0.184E-02
RMM:   2    -0.138800388063E+03    0.10213E-05   -0.61139E-06   195   0.728E-03
   2 F= -.13880039E+03 E0= -.13880990E+03  d E =0.164361E-05
       N       E                     dE             d eps       ncg     rms          rms(c)
DAV:   1    -0.138800388556E+03    0.52782E-06   -0.21223E-05   240   0.928E-03    0.818E-03
RMM:   2    -0.138800391406E+03   -0.28498E-05   -0.29508E-06   191   0.432E-03
   3 F= -.13880039E+03 E0= -.13880991E+03  d E =-.334327E-05
       N       E                     dE             d eps       ncg     rms          rms(c)
DAV:   1    -0.138800387713E+03    0.84341E-06   -0.33286E-05   228   0.895E-03    0.440E-03
RMM:   2    -0.138800387999E+03   -0.28639E-06   -0.13878E-06   163   0.302E-03
   4 F= -.13880039E+03 E0= -.13880991E+03  d E =0.340684E-05
       N       E                     dE             d eps       ncg     rms          rms(c)
DAV:   1    -0.138800388076E+03   -0.36327E-06   -0.15200E-06   228   0.343E-03    0.320E-03
RMM:   2    -0.138800388267E+03   -0.19124E-06   -0.45606E-08    59   0.159E-03
   5 F= -.13880039E+03 E0= -.13880991E+03  d E =-.268123E-06
       N       E                     dE             d eps       ncg     rms          rms(c)
DAV:   1    -0.138800388091E+03   -0.15138E-07   -0.21836E-06   216   0.248E-03    0.210E-03
RMM:   2    -0.138800388118E+03   -0.26754E-07   -0.18771E-09    28   0.118E-03
   6 F= -.13880039E+03 E0= -.13880991E+03  d E =0.149350E-06
       N       E                     dE             d eps       ncg     rms          rms(c)
DAV:   1    -0.138800388122E+03   -0.30312E-07   -0.74991E-07   204   0.154E-03    0.158E-03
RMM:   2    -0.138800388160E+03   -0.38341E-07   -0.35821E-09    24   0.968E-04
   7 F= -.13880039E+03 E0= -.13880991E+03  d E =-.418986E-07
       N       E                     dE             d eps       ncg     rms          rms(c)
DAV:   1    -0.138800388100E+03    0.21577E-07   -0.70856E-07   204   0.137E-03    0.912E-04
RMM:   2    -0.138800388097E+03    0.26557E-08    0.00000E+00    18   0.780E-04
   8 F= -.13880039E+03 E0= -.13880991E+03  d E =0.625732E-07
       N       E                     dE             d eps       ncg     rms          rms(c)
DAV:   1    -0.138800388098E+03    0.16335E-08   -0.20068E-07   204   0.839E-04    0.793E-04
RMM:   2    -0.138800388097E+03    0.17899E-08    0.10775-249    17   0.615E-04
   9 F= -.13880039E+03 E0= -.13880991E+03  d E =0.767614E-09
       N       E                     dE             d eps       ncg     rms          rms(c)
DAV:   1    -0.138800388087E+03    0.11823E-07   -0.14192E-07   204   0.778E-04    0.457E-04
RMM:   2    -0.138800388081E+03    0.51950E-08    0.00000E+00    15   0.389E-04
  10 F= -.13880039E+03 E0= -.13880991E+03  d E =0.152286E-07
       N       E                     dE             d eps       ncg     rms          rms(c)
DAV:   1    -0.138800388079E+03    0.74106E-08   -0.46806E-08   204   0.428E-04    0.405E-04
RMM:   2    -0.138800388080E+03   -0.77853E-09    0.00000E+00    12   0.324E-04
  11 F= -.13880039E+03 E0= -.13880991E+03  d E =0.143700E-08
       N       E                     dE             d eps       ncg     rms          rms(c)
DAV:   1    -0.138800388080E+03   -0.45111E-09   -0.30744E-08   204   0.373E-04    0.258E-04
RMM:   2    -0.138800388078E+03    0.18772E-08    0.00000E+00    11   0.215E-04
  12 F= -.13880039E+03 E0= -.13880991E+03  d E =0.220462E-08
       N       E                     dE             d eps       ncg     rms          rms(c)
DAV:   1    -0.138800388076E+03    0.32887E-08   -0.16939E-08   204   0.255E-04    0.188E-04
RMM:   2    -0.138800388076E+03    0.38199E-09    0.00000E+00     9   0.185E-04
  13 F= -.13880039E+03 E0= -.13880991E+03  d E =0.179352E-08
       N       E                     dE             d eps       ncg     rms          rms(c)
DAV:   1    -0.138800388076E+03    0.10550E-09   -0.73947E-09   204   0.195E-04    0.161E-04
RMM:   2    -0.138800388074E+03    0.18626E-08    0.00000E+00     7   0.143E-04
  14 F= -.13880039E+03 E0= -.13880991E+03  d E =0.158616E-08
       N       E                     dE             d eps       ncg     rms          rms(c)
DAV:   1    -0.138800388074E+03    0.22919E-08   -0.62158E-09   204   0.174E-04    0.979E-05
RMM:   2    -0.138800388073E+03    0.45111E-09    0.00000E+00     6   0.100E-04
  15 F= -.13880039E+03 E0= -.13880991E+03  d E =0.880391E-09
       N       E                     dE             d eps       ncg     rms          rms(c)
DAV:   1    -0.138800388074E+03    0.32742E-09   -0.22482E-09   204   0.108E-04    0.110E-04
RMM:   2    -0.138800388073E+03    0.10878E-08    0.00000E+00     6   0.809E-05
  16 F= -.13880039E+03 E0= -.13880991E+03  d E =0.964064E-09
       N       E                     dE             d eps       ncg     rms          rms(c)
DAV:   1    -0.138800388072E+03    0.14443E-08   -0.19613E-09   204   0.973E-05    0.643E-05
RMM:   2    -0.138800388072E+03   -0.13097E-09    0.00000E+00     5   0.586E-05
  17 F= -.13880039E+03 E0= -.13880991E+03  d E =0.225555E-09
       N       E                     dE             d eps       ncg     rms          rms(c)
DAV:   1    -0.138800388072E+03   -0.50932E-10   -0.15146E-09   204   0.729E-05    0.399E-05
RMM:   2    -0.138800388072E+03    0.45475E-09    0.00000E+00     5   0.485E-05
  18 F= -.13880039E+03 E0= -.13880991E+03  d E =0.534783E-09
       N       E                     dE             d eps       ncg     rms          rms(c)
DAV:   1    -0.138800388073E+03   -0.51659E-09   -0.47409E-10   204   0.496E-05    0.429E-05
RMM:   2    -0.138800388072E+03    0.95315E-09    0.00000E+00     4   0.384E-05
  19 F= -.13880039E+03 E0= -.13880991E+03  d E =-.181899E-10
       N       E                     dE             d eps       ncg     rms          rms(c)
DAV:   1    -0.138800388071E+03    0.14406E-08   -0.39139E-10   204   0.469E-05    0.236E-05
RMM:   2    -0.138800388072E+03   -0.41837E-09    0.00000E+00     4   0.266E-05
  20 F= -.13880039E+03 E0= -.13880991E+03  d E =0.691216E-10
       N       E                     dE             d eps       ncg     rms          rms(c)
DAV:   1    -0.138800388072E+03   -0.68758E-09   -0.23809E-10   204   0.287E-05    0.239E-05
RMM:   2    -0.138800388072E+03    0.27285E-09    0.00000E+00     4   0.219E-05
  21 F= -.13880039E+03 E0= -.13880991E+03  d E =0.363798E-11
       N       E                     dE             d eps       ncg     rms          rms(c)
DAV:   1    -0.138800388071E+03    0.46930E-09   -0.13101E-10   204   0.251E-05    0.158E-05
RMM:   2    -0.138800388071E+03    0.00000E+00    0.00000E+00     4   0.164E-05
  22 F= -.13880039E+03 E0= -.13880991E+03  d E =0.196451E-09
       N       E                     dE             d eps       ncg     rms          rms(c)
DAV:   1    -0.138800388072E+03   -0.10914E-09   -0.92636E-11   204   0.199E-05    0.103E-05
RMM:   2    -0.138800388071E+03    0.11278E-09    0.00000E+00     4   0.140E-05
  23 F= -.13880039E+03 E0= -.13880991E+03  d E =0.363798E-11
       N       E                     dE             d eps       ncg     rms          rms(c)
DAV:   1    -0.138800388071E+03    0.53114E-09   -0.85196E-11   204   0.144E-05    0.127E-05
RMM:   2    -0.138800388071E+03   -0.17462E-09    0.00000E+00     4   0.112E-05
  24 F= -.13880039E+03 E0= -.13880991E+03  d E =0.243745E-09
       N       E                     dE             d eps       ncg     rms          rms(c)
DAV:   1    -0.138800388072E+03   -0.83674E-09   -0.10472E-10   204   0.138E-05    0.667E-06
RMM:   2    -0.138800388071E+03    0.52387E-09    0.00000E+00     4   0.793E-06
  25 F= -.13880039E+03 E0= -.13880991E+03  d E =-.138243E-09
       N       E                     dE             d eps       ncg     rms          rms(c)
DAV:   1    -0.138800388071E+03    0.78580E-09   -0.42526E-11   204   0.882E-06    0.492E-06
RMM:   2    -0.138800388071E+03   -0.14916E-09    0.00000E+00     4   0.621E-06
  26 F= -.13880039E+03 E0= -.13880991E+03  d E =0.112777E-09
       N       E                     dE             d eps       ncg     rms          rms(c)
DAV:   1    -0.138800388072E+03   -0.73123E-09    0.61086E-12   204   0.663E-06    0.470E-06
RMM:   2    -0.138800388071E+03    0.60390E-09    0.00000E+00     4   0.512E-06
  27 F= -.13880039E+03 E0= -.13880991E+03  d E =0.218279E-10
       N       E                     dE             d eps       ncg     rms          rms(c)
DAV:   1    -0.138800388072E+03    0.32014E-09    0.17850E-11   204   0.585E-06    0.301E-06
RMM:   2    -0.138800388071E+03    0.35652E-09    0.00000E+00     4   0.380E-06
  28 F= -.13880039E+03 E0= -.13880991E+03  d E =0.727596E-10
       N       E                     dE             d eps       ncg     rms          rms(c)
DAV:   1    -0.138800388071E+03    0.46202E-09    0.13839E-11   204   0.420E-06    0.277E-06
RMM:   2    -0.138800388071E+03   -0.32742E-09    0.00000E+00     4   0.330E-06
  29 F= -.13880039E+03 E0= -.13880991E+03  d E =-.221917E-09
       N       E                     dE             d eps       ncg     rms          rms(c)
DAV:   1    -0.138800388072E+03   -0.94951E-09   -0.34308E-11   204   0.356E-06    0.203E-06
RMM:   2    -0.138800388071E+03    0.72396E-09    0.00000E+00     4   0.247E-06
  30 F= -.13880039E+03 E0= -.13880991E+03  d E =0.101863E-09
       N       E                     dE             d eps       ncg     rms          rms(c)
DAV:   1    -0.138800388072E+03    0.10914E-09   -0.39215E-11   204   0.294E-06    0.123E-06
RMM:   2    -0.138800388071E+03    0.69849E-09    0.00000E+00     4   0.199E-06
  31 F= -.13880039E+03 E0= -.13880991E+03  d E =0.836735E-10
       N       E                     dE             d eps       ncg     rms          rms(c)
DAV:   1    -0.138800388070E+03    0.14661E-08   -0.90403E-11   204   0.206E-06    0.148E-06
RMM:   2    -0.138800388071E+03   -0.71304E-09    0.00000E+00     4   0.161E-06
  32 F= -.13880039E+03 E0= -.13880991E+03  d E =0.545697E-10
       N       E                     dE             d eps       ncg     rms          rms(c)
DAV:   1    -0.138800388071E+03   -0.28012E-09   -0.17689E-10   204   0.185E-06    0.830E-07
RMM:   2    -0.138800388071E+03   -0.42564E-09    0.00000E+00     4   0.119E-06
  33 F= -.13880039E+03 E0= -.13880991E+03  d E =0.727596E-11
       N       E                     dE             d eps       ncg     rms          rms(c)
DAV:   1    -0.138800388071E+03   -0.14188E-09   -0.29685E-11   204   0.131E-06    0.604E-07
RMM:   2    -0.138800388071E+03   -0.26557E-09    0.00000E+00     4   0.939E-07
  34 F= -.13880039E+03 E0= -.13880991E+03  d E =0.181899E-10
       N       E                     dE             d eps       ncg     rms          rms(c)
DAV:   1    -0.138800388071E+03    0.90949E-10    0.39222E-11   204   0.991E-07    0.591E-07
RMM:   2    -0.138800388071E+03   -0.44020E-09    0.00000E+00     4   0.790E-07
  35 F= -.13880039E+03 E0= -.13880991E+03  d E =-.836735E-10
       N       E                     dE             d eps       ncg     rms          rms(c)
DAV:   1    -0.138800388071E+03   -0.36744E-09   -0.72496E-12   204   0.880E-07    0.329E-07
RMM:   2    -0.138800388071E+03   -0.87311E-10    0.00000E+00     4   0.578E-07
  36 F= -.13880039E+03 E0= -.13880991E+03  d E =-.145519E-10
       N       E                     dE             d eps       ncg     rms          rms(c)
DAV:   1    -0.138800388071E+03   -0.65484E-10   -0.10592E-10   204   0.611E-07    0.325E-07
RMM:   2    -0.138800388071E+03   -0.54570E-10    0.00000E+00     4   0.483E-07
  37 F= -.13880039E+03 E0= -.13880991E+03  d E =-.327418E-10
       N       E                     dE             d eps       ncg     rms          rms(c)
DAV:   1    -0.138800388070E+03    0.72032E-09   -0.57256E-12   204   0.523E-07    0.230E-07
RMM:   2    -0.138800388071E+03   -0.72760E-09    0.00000E+00     4   0.366E-07
  38 F= -.13880039E+03 E0= -.13880991E+03  d E =0.472937E-10
       N       E                     dE             d eps       ncg     rms          rms(c)
DAV:   1    -0.138800388071E+03   -0.45475E-09   -0.41324E-11   204   0.422E-07    0.140E-07
RMM:   2    -0.138800388071E+03   -0.31287E-09    0.00000E+00     4   0.302E-07
  39 F= -.13880039E+03 E0= -.13880991E+03  d E =-.400178E-10
       N       E                     dE             d eps       ncg     rms          rms(c)
DAV:   1    -0.138800388071E+03   -0.45475E-09    0.16877E-11   204   0.310E-07    0.164E-07
RMM:   2    -0.138800388071E+03    0.25830E-09    0.00000E+00     4   0.245E-07
  40 F= -.13880039E+03 E0= -.13880991E+03  d E =0.116415E-09
       N       E                     dE             d eps       ncg     rms          rms(c)
DAV:   1    -0.138800388071E+03   -0.54570E-10   -0.76338E-11   204   0.270E-07    0.932E-08
RMM:   2    -0.138800388071E+03    0.34561E-09    0.00000E+00     3   0.185E-07
  41 F= -.13880039E+03 E0= -.13880991E+03  d E =0.327418E-10
       N       E                     dE             d eps       ncg     rms          rms(c)
DAV:   1    -0.138800388071E+03    0.35288E-09   -0.41634E-11   204   0.196E-07    0.729E-08
RMM:   2    -0.138800388071E+03   -0.43656E-10    0.00000E+00     4   0.147E-07
  42 F= -.13880039E+03 E0= -.13880991E+03  d E =-.363798E-10
       N       E                     dE             d eps       ncg     rms          rms(c)
DAV:   1    -0.138800388071E+03   -0.32378E-09    0.14101E-11   204   0.156E-07    0.710E-08
RMM:   2    -0.138800388071E+03    0.22192E-09    0.00000E+00     3   0.122E-07
  43 F= -.13880039E+03 E0= -.13880991E+03  d E =-.582077E-10
       N       E                     dE             d eps       ncg     rms          rms(c)
DAV:   1    -0.138800388071E+03    0.84037E-09   -0.30484E-11   204   0.132E-07    0.477E-08
RMM:   2    -0.138800388071E+03   -0.56025E-09    0.00000E+00     3   0.928E-08
  44 F= -.13880039E+03 E0= -.13880991E+03  d E =0.582077E-10
       N       E                     dE             d eps       ncg     rms          rms(c)
DAV:   1    -0.138800388071E+03    0.25466E-10    0.15391E-10   204   0.991E-08    0.384E-08
RMM:   2    -0.138800388071E+03   -0.76034E-09    0.00000E+00     3   0.781E-08
  45 F= -.13880039E+03 E0= -.13880991E+03  d E =-.174623E-09
       N       E                     dE             d eps       ncg     rms          rms(c)
DAV:   1    -0.138800388072E+03   -0.98225E-09    0.14044E-10   204   0.817E-08    0.281E-08
RMM:   2    -0.138800388071E+03    0.32742E-09    0.00000E+00     3   0.603E-08
  46 F= -.13880039E+03 E0= -.13880991E+03  d E =0.105501E-09
       N       E                     dE             d eps       ncg     rms          rms(c)
DAV:   1    -0.138800388070E+03    0.11751E-08    0.98485E-11   204   0.650E-08    0.200E-08
RMM:   2    -0.138800388071E+03   -0.91677E-09    0.00000E+00     3   0.484E-08
  47 F= -.13880039E+03 E0= -.13880991E+03  d E =-.691216E-10
       N       E                     dE             d eps       ncg     rms          rms(c)
DAV:   1    -0.138800388071E+03   -0.67303E-09    0.20694E-11   204   0.502E-08    0.186E-08
RMM:   2    -0.138800388071E+03   -0.13461E-09    0.00000E+00     3   0.394E-08
  48 F= -.13880039E+03 E0= -.13880991E+03  d E =0.109139E-09
       N       E                     dE             d eps       ncg     rms          rms(c)
DAV:   1    -0.138800388070E+03    0.72032E-09   -0.29116E-11   204   0.422E-08    0.112E-08
RMM:   2    -0.138800388071E+03   -0.93132E-09    0.00000E+00     3   0.300E-08
  49 F= -.13880039E+03 E0= -.13880991E+03  d E =-.763976E-10
       N       E                     dE             d eps       ncg     rms          rms(c)
DAV:   1    -0.138800388071E+03   -0.10223E-08    0.10802E-11   204   0.315E-08    0.948E-09
RMM:   2    -0.138800388071E+03    0.13824E-09    0.00000E+00     3   0.245E-08
  50 F= -.13880039E+03 E0= -.13880991E+03  d E =0.472937E-10
       N       E                     dE             d eps       ncg     rms          rms(c)
DAV:   1    -0.138800388072E+03   -0.20736E-09    0.22537E-11   204   0.256E-08    0.727E-09
RMM:   2    -0.138800388071E+03    0.28740E-09    0.00000E+00     3   0.194E-08
  51 F= -.13880039E+03 E0= -.13880991E+03  d E =-.582077E-10
       N       E                     dE             d eps       ncg     rms          rms(c)
DAV:   1    -0.138800388071E+03    0.76034E-09    0.41541E-11   204   0.206E-08    0.463E-09
RMM:   2    -0.138800388071E+03   -0.52387E-09    0.00000E+00     3   0.151E-08
  52 F= -.13880039E+03 E0= -.13880991E+03  d E =-.509317E-10
       N       E                     dE             d eps       ncg     rms          rms(c)
DAV:   1    -0.138800388071E+03    0.27649E-09    0.15680E-10   204   0.155E-08    0.528E-09
RMM:   2    -0.138800388071E+03   -0.65120E-09    0.00000E+00     3   0.126E-08
  53 F= -.13880039E+03 E0= -.13880991E+03  d E =0.149157E-09
       N       E                     dE             d eps       ncg     rms          rms(c)
DAV:   1    -0.138800388072E+03   -0.10878E-08   -0.47028E-12   204   0.133E-08    0.296E-09
RMM:   2    -0.138800388071E+03    0.41109E-09    0.00000E+00     3   0.948E-09
  54 F= -.13880039E+03 E0= -.13880991E+03  d E =-.254659E-10
       N       E                     dE             d eps       ncg     rms          rms(c)
DAV:   1    -0.138800388071E+03    0.22555E-09    0.56415E-11   204   0.993E-09    0.266E-09
RMM:   2    -0.138800388071E+03    0.76398E-10    0.00000E+00     3   0.782E-09
  55 F= -.13880039E+03 E0= -.13880991E+03  d E =-.109139E-09
       N       E                     dE             d eps       ncg     rms          rms(c)
DAV:   1    -0.138800388071E+03   -0.94587E-10   -0.36052E-12   204   0.811E-09    0.178E-09
RMM:   2    -0.138800388071E+03    0.29104E-09    0.00000E+00     3   0.617E-09
  56 F= -.13880039E+03 E0= -.13880991E+03  d E =0.120053E-09
       N       E                     dE             d eps       ncg     rms          rms(c)
DAV:   1    -0.138800388071E+03    0.41109E-09   -0.10147E-10   204   0.649E-09    0.131E-09
RMM:   2    -0.138800388071E+03   -0.28012E-09    0.00000E+00     3   0.499E-09
  57 F= -.13880039E+03 E0= -.13880991E+03  d E =-.160071E-09
       N       E                     dE             d eps       ncg     rms          rms(c)
DAV:   1    -0.138800388071E+03    0.10186E-09   -0.12709E-11   204   0.513E-09    0.122E-09
RMM:   2    -0.138800388071E+03   -0.22555E-09    0.00000E+00     2   0.404E-09
  58 F= -.13880039E+03 E0= -.13880991E+03  d E =0.156433E-09
       N       E                     dE             d eps       ncg     rms          rms(c)
DAV:   1    -0.138800388071E+03    0.13824E-09   -0.11688E-11   204   0.422E-09    0.838E-10
RMM:   2    -0.138800388071E+03   -0.37835E-09    0.00000E+00     2   0.321E-09
  59 F= -.13880039E+03 E0= -.13880991E+03  d E =-.145519E-10
       N       E                     dE             d eps       ncg     rms          rms(c)
DAV:   1    -0.138800388071E+03   -0.22919E-09    0.28024E-11   204   0.334E-09    0.620E-10
RMM:   2    -0.138800388071E+03   -0.25830E-09    0.00000E+00     2   0.254E-09
  60 F= -.13880039E+03 E0= -.13880991E+03  d E =-.109139E-09
       N       E                     dE             d eps       ncg     rms          rms(c)
DAV:   1    -0.138800388072E+03   -0.10077E-08   -0.27653E-11   204   0.263E-09    0.547E-10
RMM:   2    -0.138800388071E+03    0.75670E-09    0.00000E+00     2   0.213E-09
  61 F= -.13880039E+03 E0= -.13880991E+03  d E =0.727596E-11
       N       E                     dE             d eps       ncg     rms          rms(c)
DAV:   1    -0.138800388071E+03    0.14443E-08   -0.48289E-12   204   0.216E-09    0.522E-10
RMM:   2    -0.138800388071E+03   -0.54206E-09    0.00000E+00     2   0.169E-09
  62 F= -.13880039E+03 E0= -.13880991E+03  d E =0.145519E-09
       N       E                     dE             d eps       ncg     rms          rms(c)
DAV:   1    -0.138800388072E+03   -0.14952E-08   -0.52527E-11   204   0.178E-09    0.424E-10
RMM:   2    -0.138800388071E+03    0.85493E-09    0.00000E+00     2   0.137E-09
  63 F= -.13880039E+03 E0= -.13880991E+03  d E =-.982254E-10
       N       E                     dE             d eps       ncg     rms          rms(c)
DAV:   1    -0.138800388073E+03   -0.42928E-09   -0.22689E-11   204   0.142E-09    0.365E-10
RMM:   2    -0.138800388071E+03    0.12624E-08    0.00000E+00     2   0.111E-09
  64 F= -.13880039E+03 E0= -.13880991E+03  d E =-.218279E-10
       N       E                     dE             d eps       ncg     rms          rms(c)
DAV:   1    -0.138800388072E+03    0.90586E-09    0.24996E-11   204   0.116E-09    0.275E-10
RMM:   2    -0.138800388071E+03    0.33469E-09    0.00000E+00     2   0.917E-10
  65 F= -.13880039E+03 E0= -.13880991E+03  d E =-.218279E-10
       N       E                     dE             d eps       ncg     rms          rms(c)
DAV:   1    -0.138800388071E+03    0.36016E-09   -0.23610E-11   204   0.934E-10    0.246E-10
RMM:   2    -0.138800388071E+03   -0.50932E-10    0.00000E+00     2   0.729E-10
  66 F= -.13880039E+03 E0= -.13880991E+03  d E =-.254659E-10
       N       E                     dE             d eps       ncg     rms          rms(c)
DAV:   1    -0.138800388072E+03   -0.47658E-09   -0.20347E-11   204   0.802E-10    0.173E-10
RMM:   2    -0.138800388071E+03    0.52387E-09    0.00000E+00     2   0.613E-10
  67 F= -.13880039E+03 E0= -.13880991E+03  d E =0.982254E-10
       N       E                     dE             d eps       ncg     rms          rms(c)
DAV:   1    -0.138800388070E+03    0.17062E-08    0.24557E-11   204   0.639E-10    0.304E-10
RMM:   2    -0.138800388071E+03   -0.11605E-08    0.00000E+00     2   0.520E-10
  68 F= -.13880039E+03 E0= -.13880991E+03  d E =0.218279E-10
       N       E                     dE             d eps       ncg     rms          rms(c)
DAV:   1    -0.138800388072E+03   -0.15280E-08    0.33957E-11   204   0.563E-10    0.243E-10
RMM:   2    -0.138800388071E+03    0.40018E-09    0.00000E+00     2   0.429E-10
  69 F= -.13880039E+03 E0= -.13880991E+03  d E =0.327418E-10
       N       E                     dE             d eps       ncg     rms          rms(c)
DAV:   1    -0.138800388072E+03   -0.38199E-09    0.31211E-11   204   0.476E-10    0.334E-10
RMM:   2    -0.138800388071E+03    0.64392E-09    0.00000E+00     2   0.366E-10
  70 F= -.13880039E+03 E0= -.13880991E+03  d E =-.138243E-09
       N       E                     dE             d eps       ncg     rms          rms(c)
DAV:   1    -0.138800388071E+03    0.68758E-09   -0.23658E-11   204   0.467E-10    0.496E-10
RMM:   2    -0.138800388071E+03    0.90949E-10    0.00000E+00     2   0.387E-10
  71 F= -.13880039E+03 E0= -.13880991E+03  d E =0.134605E-09
       N       E                     dE             d eps       ncg     rms          rms(c)
DAV:   1    -0.138800388072E+03   -0.71668E-09   -0.50042E-11   204   0.513E-10    0.280E-10
RMM:   2    -0.138800388071E+03    0.73123E-09    0.00000E+00     2   0.291E-10
  72 F= -.13880039E+03 E0= -.13880991E+03  d E =-.763976E-10
       N       E                     dE             d eps       ncg     rms          rms(c)
DAV:   1    -0.138800388070E+03    0.15934E-08   -0.11011E-11   204   0.330E-10    0.210E-10
RMM:   2    -0.138800388071E+03   -0.80399E-09    0.00000E+00     2   0.248E-10
  73 F= -.13880039E+03 E0= -.13880991E+03  d E =0.582077E-10
       N       E                     dE             d eps       ncg     rms          rms(c)
DAV:   1    -0.138800388071E+03   -0.64756E-09    0.14454E-11   204   0.298E-10    0.330E-10
RMM:   2    -0.138800388071E+03   -0.32014E-09    0.00000E+00     2   0.227E-10
  74 F= -.13880039E+03 E0= -.13880991E+03  d E =-.163709E-09
       N       E                     dE             d eps       ncg     rms          rms(c)
DAV:   1    -0.138800388071E+03   -0.42201E-09    0.85146E-11   204   0.286E-10    0.299E-10
RMM:   2    -0.138800388071E+03    0.20736E-09    0.00000E+00     2   0.206E-10
  75 F= -.13880039E+03 E0= -.13880991E+03  d E =0.105501E-09
       N       E                     dE             d eps       ncg     rms          rms(c)
DAV:   1    -0.138800388070E+03    0.13933E-08    0.58846E-12   204   0.295E-10    0.221E-10
RMM:   2    -0.138800388071E+03   -0.13097E-08    0.00000E+00     2   0.186E-10
  76 F= -.13880039E+03 E0= -.13880991E+03  d E =-.123691E-09
       N       E                     dE             d eps       ncg     rms          rms(c)
DAV:   1    -0.138800388072E+03   -0.14843E-08    0.75893E-11   204   0.287E-10    0.228E-10
RMM:   2    -0.138800388071E+03    0.29104E-09    0.00000E+00     2   0.172E-10
  77 F= -.13880039E+03 E0= -.13880991E+03  d E =0.116415E-09
       N       E                     dE             d eps       ncg     rms          rms(c)
DAV:   1    -0.138800388071E+03    0.93860E-09    0.22291E-11   204   0.216E-10    0.242E-10
RMM:   2    -0.138800388071E+03   -0.66211E-09    0.00000E+00     2   0.174E-10
  78 F= -.13880039E+03 E0= -.13880991E+03  d E =-.145519E-10
       N       E                     dE             d eps       ncg     rms          rms(c)
DAV:   1    -0.138800388071E+03    0.25466E-10    0.29322E-11   204   0.179E-10    0.335E-10
RMM:   2    -0.138800388071E+03   -0.65120E-09    0.00000E+00     2   0.169E-10
  79 F= -.13880039E+03 E0= -.13880991E+03  d E =0.363798E-10
       N       E                     dE             d eps       ncg     rms          rms(c)
DAV:   1    -0.138800388071E+03   -0.30923E-09   -0.35606E-11   204   0.295E-10    0.225E-10
RMM:   2    -0.138800388071E+03   -0.40018E-09    0.00000E+00     2   0.132E-10
  80 F= -.13880039E+03 E0= -.13880991E+03  d E =-.582077E-10
       N       E                     dE             d eps       ncg     rms          rms(c)
DAV:   1    -0.138800388072E+03   -0.13315E-08    0.33322E-11   204   0.210E-10    0.186E-10
RMM:   2    -0.138800388071E+03    0.93860E-09    0.00000E+00     2   0.129E-10
  81 F= -.13880039E+03 E0= -.13880991E+03  d E =0.727596E-11
       N       E                     dE             d eps       ncg     rms          rms(c)
DAV:   1    -0.138800388071E+03    0.11241E-08    0.12872E-11   204   0.185E-10    0.305E-10
RMM:   2    -0.138800388071E+03   -0.18554E-09    0.00000E+00     2   0.130E-10
  82 F= -.13880039E+03 E0= -.13880991E+03  d E =0.000000E+00
       N       E                     dE             d eps       ncg     rms          rms(c)
DAV:   1    -0.138800388071E+03   -0.29104E-09   -0.47902E-11   204   0.242E-10    0.185E-10
RMM:   2    -0.138800388071E+03    0.21100E-09    0.00000E+00     2   0.123E-10
  83 F= -.13880039E+03 E0= -.13880991E+03  d E =0.105501E-09
       N       E                     dE             d eps       ncg     rms          rms(c)
DAV:   1    -0.138800388071E+03   -0.32742E-10    0.74588E-12   204   0.193E-10    0.252E-10
RMM:   2    -0.138800388071E+03    0.13824E-09    0.00000E+00     2   0.115E-10
  84 F= -.13880039E+03 E0= -.13880991E+03  d E =-.105501E-09
       N       E                     dE             d eps       ncg     rms          rms(c)
DAV:   1    -0.138800388071E+03    0.44020E-09   -0.40583E-11   204   0.189E-10    0.166E-10
RMM:   2    -0.138800388071E+03   -0.31287E-09    0.00000E+00     2   0.106E-10
  85 F= -.13880039E+03 E0= -.13880991E+03  d E =-.109139E-10
       N       E                     dE             d eps       ncg     rms          rms(c)
DAV:   1    -0.138800388072E+03   -0.14479E-08    0.48432E-12   204   0.162E-10    0.295E-10
RMM:   2    -0.138800388071E+03    0.12442E-08    0.00000E+00     2   0.143E-10
  86 F= -.13880039E+03 E0= -.13880991E+03  d E =0.109139E-09
       N       E                     dE             d eps       ncg     rms          rms(c)
DAV:   1    -0.138800388070E+03    0.22555E-08    0.70076E-12   204   0.170E-10    0.171E-10
RMM:   2    -0.138800388071E+03   -0.11169E-08    0.00000E+00     2   0.119E-10
  87 F= -.13880039E+03 E0= -.13880991E+03  d E =-.105501E-09
       N       E                     dE             d eps       ncg     rms          rms(c)
DAV:   1    -0.138800388072E+03   -0.18699E-08    0.59842E-11   204   0.161E-10    0.344E-10
RMM:   2    -0.138800388071E+03    0.69849E-09    0.00000E+00     2   0.144E-10
  88 F= -.13880039E+03 E0= -.13880991E+03  d E =-.545697E-10
       N       E                     dE             d eps       ncg     rms          rms(c)
DAV:   1    -0.138800388071E+03    0.10514E-08    0.14579E-10   204   0.217E-10    0.213E-10
RMM:   2    -0.138800388071E+03   -0.21100E-09    0.00000E+00     2   0.110E-10
  89 F= -.13880039E+03 E0= -.13880991E+03  d E =0.141881E-09
       N       E                     dE             d eps       ncg     rms          rms(c)
DAV:   1    -0.138800388072E+03   -0.10077E-08    0.89625E-12   204   0.138E-10    0.321E-10
RMM:   2    -0.138800388071E+03    0.80763E-09    0.00000E+00     2   0.139E-10
  90 F= -.13880039E+03 E0= -.13880991E+03  d E =0.109139E-10
       N       E                     dE             d eps       ncg     rms          rms(c)
DAV:   1    -0.138800388072E+03    0.21100E-09   -0.38980E-11   204   0.225E-10    0.246E-10
RMM:   2    -0.138800388071E+03    0.54206E-09    0.00000E+00     2   0.128E-10
  91 F= -.13880039E+03 E0= -.13880991E+03  d E =-.545697E-10
       N       E                     dE             d eps       ncg     rms          rms(c)
DAV:   1    -0.138800388071E+03    0.50204E-09    0.16653E-11   204   0.228E-10    0.251E-10
RMM:   2    -0.138800388071E+03    0.13097E-09    0.00000E+00     2   0.106E-10
  92 F= -.13880039E+03 E0= -.13880991E+03  d E =0.909495E-10
       N       E                     dE             d eps       ncg     rms          rms(c)
DAV:   1    -0.138800388072E+03   -0.57844E-09    0.20165E-12   204   0.160E-10    0.428E-10
RMM:   2    -0.138800388071E+03    0.57480E-09    0.00000E+00     2   0.139E-10
  93 F= -.13880039E+03 E0= -.13880991E+03  d E =-.134605E-09
       N       E                     dE             d eps       ncg     rms          rms(c)
DAV:   1    -0.138800388070E+03    0.14625E-08    0.36680E-11   204   0.242E-10    0.253E-10
RMM:   2    -0.138800388071E+03   -0.88039E-09    0.00000E+00     2   0.123E-10
  94 F= -.13880039E+03 E0= -.13880991E+03  d E =0.727596E-11
       N       E                     dE             d eps       ncg     rms          rms(c)
DAV:   1    -0.138800388070E+03    0.12005E-09    0.37787E-11   204   0.172E-10    0.200E-10
RMM:   2    -0.138800388071E+03   -0.95315E-09    0.00000E+00     2   0.100E-10
  95 F= -.13880039E+03 E0= -.13880991E+03  d E =0.472937E-10
       N       E                     dE             d eps       ncg     rms          rms(c)
DAV:   1    -0.138800388070E+03   -0.13097E-09    0.37798E-11   204   0.139E-10    0.279E-10
RMM:   2    -0.138800388071E+03   -0.82218E-09    0.00000E+00     2   0.123E-10
  96 F= -.13880039E+03 E0= -.13880991E+03  d E =0.000000E+00
       N       E                     dE             d eps       ncg     rms          rms(c)
DAV:   1    -0.138800388071E+03   -0.62937E-09   -0.58245E-11   204   0.180E-10    0.157E-10
RMM:   2    -0.138800388071E+03   -0.19281E-09    0.00000E+00     2   0.108E-10
  97 F= -.13880039E+03 E0= -.13880991E+03  d E =0.000000E+00
       N       E                     dE             d eps       ncg     rms          rms(c)
DAV:   1    -0.138800388072E+03   -0.99317E-09    0.45421E-11   204   0.168E-10    0.231E-10
RMM:   2    -0.138800388071E+03    0.77853E-09    0.00000E+00     2   0.136E-10
  98 F= -.13880039E+03 E0= -.13880991E+03  d E =-.218279E-10
       N       E                     dE             d eps       ncg     rms          rms(c)
DAV:   1    -0.138800388071E+03    0.99317E-09   -0.16253E-12   204   0.142E-10    0.223E-10
RMM:   2    -0.138800388071E+03   -0.14552E-09    0.00000E+00     2   0.112E-10
  99 F= -.13880039E+03 E0= -.13880991E+03  d E =0.691216E-10
       N       E                     dE             d eps       ncg     rms          rms(c)
DAV:   1    -0.138800388071E+03    0.10914E-09   -0.18371E-11   204   0.161E-10    0.241E-10
RMM:   2    -0.138800388071E+03   -0.22555E-09    0.00000E+00     2   0.124E-10
 100 F= -.13880039E+03 E0= -.13880991E+03  d E =0.291038E-10
       N       E                     dE             d eps       ncg     rms          rms(c)
DAV:   1    -0.138800388071E+03   -0.25102E-09    0.97246E-12   204   0.152E-10    0.261E-10
RMM:   2    -0.138800388071E+03   -0.15280E-09    0.00000E+00     2   0.128E-10
 101 F= -.13880039E+03 E0= -.13880991E+03  d E =-.178261E-09
       N       E                     dE             d eps       ncg     rms          rms(c)
DAV:   1    -0.138800388071E+03    0.12733E-09   -0.33440E-11   204   0.240E-10    0.292E-10
RMM:   2    -0.138800388071E+03   -0.12733E-09    0.00000E+00     2   0.150E-10
 102 F= -.13880039E+03 E0= -.13880991E+03  d E =0.152795E-09
       N       E                     dE             d eps       ncg     rms          rms(c)
DAV:   1    -0.138800388071E+03    0.31650E-09   -0.22832E-11   204   0.231E-10    0.257E-10
RMM:   2    -0.138800388071E+03   -0.46930E-09    0.00000E+00     2   0.151E-10
 103 F= -.13880039E+03 E0= -.13880991E+03  d E =-.254659E-10
       N       E                     dE             d eps       ncg     rms          rms(c)
DAV:   1    -0.138800388071E+03   -0.58935E-09    0.35779E-11   204   0.310E-10    0.229E-10
RMM:   2    -0.138800388071E+03    0.17099E-09    0.00000E+00     2   0.113E-10
 104 F= -.13880039E+03 E0= -.13880991E+03  d E =0.509317E-10
       N       E                     dE             d eps       ncg     rms          rms(c)
DAV:   1    -0.138800388071E+03    0.60754E-09   -0.25384E-11   204   0.143E-10    0.243E-10
RMM:   2    -0.138800388071E+03   -0.52023E-09    0.00000E+00     2   0.122E-10
 105 F= -.13880039E+03 E0= -.13880991E+03  d E =-.836735E-10
       N       E                     dE             d eps       ncg     rms          rms(c)
DAV:   1    -0.138800388071E+03   -0.73487E-09   -0.11877E-12   204   0.185E-10    0.167E-10
RMM:   2    -0.138800388071E+03    0.18554E-09    0.00000E+00     2   0.106E-10
 106 F= -.13880039E+03 E0= -.13880991E+03  d E =-.291038E-10
       N       E                     dE             d eps       ncg     rms          rms(c)
DAV:   1    -0.138800388071E+03    0.22919E-09    0.63370E-12   204   0.134E-10    0.246E-10
RMM:   2    -0.138800388071E+03   -0.10914E-09    0.00000E+00     2   0.115E-10
 107 F= -.13880039E+03 E0= -.13880991E+03  d E =-.654836E-10
       N       E                     dE             d eps       ncg     rms          rms(c)
DAV:   1    -0.138800388071E+03    0.43656E-09   -0.90206E-11   204   0.301E-10    0.121E-10
RMM:   2    -0.138800388071E+03   -0.48385E-09    0.00000E+00     2   0.106E-10
 108 F= -.13880039E+03 E0= -.13880991E+03  d E =0.618456E-10
       N       E                     dE             d eps       ncg     rms          rms(c)
DAV:   1    -0.138800388071E+03   -0.45839E-09    0.30290E-11   204   0.113E-10    0.166E-10
RMM:   2    -0.138800388071E+03    0.65484E-10    0.00000E+00     2   0.982E-11
 109 F= -.13880039E+03 E0= -.13880991E+03  d E =0.909495E-10
       N       E                     dE             d eps       ncg     rms          rms(c)
DAV:   1    -0.138800388071E+03   -0.10186E-09   -0.19997E-11   204   0.138E-10    0.211E-10
RMM:   2    -0.138800388071E+03    0.13824E-09    0.00000E+00     2   0.100E-10
 110 F= -.13880039E+03 E0= -.13880991E+03  d E =-.291038E-10
       N       E                     dE             d eps       ncg     rms          rms(c)
DAV:   1    -0.138800388071E+03   -0.18190E-10    0.14323E-10   204   0.182E-10    0.251E-10
RMM:   2    -0.138800388071E+03    0.10914E-09    0.00000E+00     2   0.111E-10
 111 F= -.13880039E+03 E0= -.13880991E+03  d E =-.472937E-10
       N       E                     dE             d eps       ncg     rms          rms(c)
DAV:   1    -0.138800388071E+03    0.54570E-09    0.53524E-11   204   0.169E-10    0.408E-10
RMM:   2    -0.138800388071E+03   -0.38926E-09    0.00000E+00     2   0.135E-10
 112 F= -.13880039E+03 E0= -.13880991E+03  d E =0.472937E-10
       N       E                     dE             d eps       ncg     rms          rms(c)
DAV:   1    -0.138800388072E+03   -0.12114E-08    0.40035E-12   204   0.259E-10    0.290E-10
RMM:   2    -0.138800388071E+03    0.77853E-09    0.00000E+00     2   0.134E-10
 113 F= -.13880039E+03 E0= -.13880991E+03  d E =-.436557E-10
       N       E                     dE             d eps       ncg     rms          rms(c)
DAV:   1    -0.138800388071E+03    0.14625E-08   -0.40018E-11   204   0.233E-10    0.151E-10
RMM:   2    -0.138800388071E+03   -0.69849E-09    0.00000E+00     2   0.116E-10
 114 F= -.13880039E+03 E0= -.13880991E+03  d E =-.145519E-10
       N       E                     dE             d eps       ncg     rms          rms(c)
DAV:   1    -0.138800388071E+03   -0.76398E-09   -0.10524E-10   204   0.121E-10    0.286E-10
RMM:   2    -0.138800388071E+03    0.10914E-09    0.00000E+00     2   0.127E-10
 115 F= -.13880039E+03 E0= -.13880991E+03  d E =0.436557E-10
       N       E                     dE             d eps       ncg     rms          rms(c)
DAV:   1    -0.138800388071E+03   -0.10186E-09    0.41468E-11   204   0.187E-10    0.202E-10
RMM:   2    -0.138800388071E+03    0.16735E-09    0.00000E+00     2   0.101E-10
 116 F= -.13880039E+03 E0= -.13880991E+03  d E =-.436557E-10
       N       E                     dE             d eps       ncg     rms          rms(c)
DAV:   1    -0.138800388071E+03    0.17826E-09    0.69484E-11   204   0.185E-10    0.406E-10
RMM:   2    -0.138800388071E+03   -0.43656E-10    0.00000E+00     2   0.155E-10
 117 F= -.13880039E+03 E0= -.13880991E+03  d E =-.327418E-10
       N       E                     dE             d eps       ncg     rms          rms(c)
DAV:   1    -0.138800388072E+03   -0.33833E-09    0.25881E-11   204   0.337E-10    0.279E-10
RMM:   2    -0.138800388071E+03    0.43656E-09    0.00000E+00     2   0.146E-10
 118 F= -.13880039E+03 E0= -.13880991E+03  d E =0.141881E-09
       N       E                     dE             d eps       ncg     rms          rms(c)
DAV:   1    -0.138800388071E+03    0.36744E-09   -0.10011E-11   204   0.203E-10    0.211E-10
RMM:   2    -0.138800388071E+03   -0.94587E-10    0.00000E+00     2   0.110E-10
 119 F= -.13880039E+03 E0= -.13880991E+03  d E =-.163709E-09
       N       E                     dE             d eps       ncg     rms          rms(c)
DAV:   1    -0.138800388071E+03   -0.15280E-09    0.13606E-11   204   0.183E-10    0.285E-10
RMM:   2    -0.138800388071E+03    0.10550E-09    0.00000E+00     2   0.112E-10
 120 F= -.13880039E+03 E0= -.13880991E+03  d E =0.472937E-10
       N       E                     dE             d eps       ncg     rms          rms(c)
DAV:   1    -0.138800388071E+03    0.83310E-09   -0.22004E-12   204   0.197E-10    0.393E-10
RMM:   2    -0.138800388071E+03   -0.69485E-09    0.00000E+00     2   0.131E-10
 121 F= -.13880039E+03 E0= -.13880991E+03  d E =0.327418E-10
       N       E                     dE             d eps       ncg     rms          rms(c)
DAV:   1    -0.138800388071E+03   -0.60027E-09    0.28120E-11   204   0.209E-10    0.218E-10
RMM:   2    -0.138800388071E+03   -0.16007E-09    0.00000E+00     2   0.124E-10
 122 F= -.13880039E+03 E0= -.13880991E+03  d E =-.654836E-10
       N       E                     dE             d eps       ncg     rms          rms(c)
DAV:   1    -0.138800388072E+03   -0.72396E-09    0.10440E-10   204   0.182E-10    0.266E-10
RMM:   2    -0.138800388071E+03    0.67666E-09    0.00000E+00     2   0.118E-10
 123 F= -.13880039E+03 E0= -.13880991E+03  d E =0.112777E-09
       N       E                     dE             d eps       ncg     rms          rms(c)
DAV:   1    -0.138800388072E+03    0.15643E-09   -0.33697E-11   204   0.174E-10    0.232E-10
RMM:   2    -0.138800388071E+03    0.48021E-09    0.00000E+00     2   0.110E-10
 124 F= -.13880039E+03 E0= -.13880991E+03  d E =-.400178E-10
       N       E                     dE             d eps       ncg     rms          rms(c)
DAV:   1    -0.138800388071E+03    0.49840E-09    0.45782E-11   204   0.146E-10    0.282E-10
RMM:   2    -0.138800388071E+03    0.50932E-10    0.00000E+00     2   0.116E-10
 125 F= -.13880039E+03 E0= -.13880991E+03  d E =0.691216E-10
       N       E                     dE             d eps       ncg     rms          rms(c)
DAV:   1    -0.138800388072E+03   -0.62937E-09   -0.52976E-11   204   0.217E-10    0.262E-10
RMM:   2    -0.138800388071E+03    0.64756E-09    0.00000E+00     2   0.117E-10
 126 F= -.13880039E+03 E0= -.13880991E+03  d E =-.327418E-10
       N       E                     dE             d eps       ncg     rms          rms(c)
DAV:   1    -0.138800388072E+03    0.94587E-10    0.58413E-12   204   0.204E-10    0.246E-10
RMM:   2    -0.138800388071E+03    0.60027E-09    0.00000E+00     2   0.111E-10
 127 F= -.13880039E+03 E0= -.13880991E+03  d E =0.472937E-10
       N       E                     dE             d eps       ncg     rms          rms(c)
DAV:   1    -0.138800388071E+03    0.39290E-09    0.21856E-11   204   0.137E-10    0.375E-10
RMM:   2    -0.138800388071E+03    0.16371E-09    0.00000E+00     2   0.152E-10
 128 F= -.13880039E+03 E0= -.13880991E+03  d E =-.436557E-10
       N       E                     dE             d eps       ncg     rms          rms(c)
DAV:   1    -0.138800388072E+03   -0.63301E-09    0.12515E-10   204   0.214E-10    0.318E-10
RMM:   2    -0.138800388071E+03    0.68030E-09    0.00000E+00     2   0.124E-10
 129 F= -.13880039E+03 E0= -.13880991E+03  d E =-.116415E-09
       N       E                     dE             d eps       ncg     rms          rms(c)
DAV:   1    -0.138800388072E+03    0.47294E-09   -0.50460E-11   204   0.191E-10    0.153E-10
RMM:   2    -0.138800388071E+03    0.30923E-09    0.00000E+00     2   0.114E-10
 130 F= -.13880039E+03 E0= -.13880991E+03  d E =0.101863E-09
       N       E                     dE             d eps       ncg     rms          rms(c)
DAV:   1    -0.138800388071E+03    0.21828E-09    0.17650E-11   204   0.127E-10    0.377E-10
RMM:   2    -0.138800388071E+03    0.36380E-10    0.00000E+00     2   0.131E-10
 131 F= -.13880039E+03 E0= -.13880991E+03  d E =-.545697E-10
       N       E                     dE             d eps       ncg     rms          rms(c)
DAV:   1    -0.138800388071E+03   -0.11642E-09   -0.70319E-13   204   0.243E-10    0.517E-10
RMM:   2    -0.138800388071E+03    0.22192E-09    0.00000E+00     2   0.176E-10
 132 F= -.13880039E+03 E0= -.13880991E+03  d E =0.691216E-10
       N       E                     dE             d eps       ncg     rms          rms(c)
DAV:   1    -0.138800388072E+03   -0.60027E-09    0.83637E-11   204   0.279E-10    0.430E-10
RMM:   2    -0.138800388071E+03    0.81127E-09    0.00000E+00     2   0.144E-10
 133 F= -.13880039E+03 E0= -.13880991E+03  d E =-.109139E-10
       N       E                     dE             d eps       ncg     rms          rms(c)
DAV:   1    -0.138800388072E+03    0.44020E-09    0.36252E-11   204   0.246E-10    0.210E-10
RMM:   2    -0.138800388071E+03    0.40382E-09    0.00000E+00     2   0.121E-10
 134 F= -.13880039E+03 E0= -.13880991E+03  d E =0.327418E-10
       N       E                     dE             d eps       ncg     rms          rms(c)
DAV:   1    -0.138800388070E+03    0.12806E-08    0.83992E-11   204   0.228E-10    0.164E-10
RMM:   2    -0.138800388071E+03   -0.90586E-09    0.00000E+00     2   0.949E-11
 135 F= -.13880039E+03 E0= -.13880991E+03  d E =-.291038E-10
       N       E                     dE             d eps       ncg     rms          rms(c)
DAV:   1    -0.138800388071E+03   -0.47294E-09    0.43985E-11   204   0.129E-10    0.338E-10
RMM:   2    -0.138800388071E+03   -0.50932E-09    0.00000E+00     2   0.128E-10
 136 F= -.13880039E+03 E0= -.13880991E+03  d E =-.763976E-10
       N       E                     dE             d eps       ncg     rms          rms(c)
DAV:   1    -0.138800388071E+03    0.58208E-10   -0.21432E-11   204   0.190E-10    0.324E-10
RMM:   2    -0.138800388071E+03   -0.45111E-09    0.00000E+00     2   0.115E-10
 137 F= -.13880039E+03 E0= -.13880991E+03  d E =0.116415E-09
       N       E                     dE             d eps       ncg     rms          rms(c)
DAV:   1    -0.138800388072E+03   -0.10441E-08   -0.16465E-11   204   0.180E-10    0.196E-10
RMM:   2    -0.138800388071E+03    0.45111E-09    0.00000E+00     2   0.975E-11
 138 F= -.13880039E+03 E0= -.13880991E+03  d E =-.141881E-09
       N       E                     dE             d eps       ncg     rms          rms(c)
DAV:   1    -0.138800388071E+03    0.11860E-08    0.36126E-12   204   0.193E-10    0.171E-10
RMM:   2    -0.138800388071E+03   -0.58208E-09    0.00000E+00     2   0.104E-10
 139 F= -.13880039E+03 E0= -.13880991E+03  d E =0.152795E-09
       N       E                     dE             d eps       ncg     rms          rms(c)
DAV:   1    -0.138800388071E+03   -0.42201E-09    0.99543E-11   204   0.172E-10    0.154E-10
RMM:   2    -0.138800388071E+03   -0.28740E-09    0.00000E+00     2   0.110E-10
 140 F= -.13880039E+03 E0= -.13880991E+03  d E =-.127329E-09
       N       E                     dE             d eps       ncg     rms          rms(c)
DAV:   1    -0.138800388072E+03   -0.87311E-09    0.94941E-12   204   0.128E-10    0.314E-10
RMM:   2    -0.138800388071E+03    0.63301E-09    0.00000E+00     2   0.104E-10
 141 F= -.13880039E+03 E0= -.13880991E+03  d E =0.472937E-10
       N       E                     dE             d eps       ncg     rms          rms(c)
DAV:   1    -0.138800388071E+03    0.45839E-09    0.56770E-11   204   0.171E-10    0.102E-10
RMM:   2    -0.138800388071E+03    0.76398E-10    0.00000E+00     2   0.834E-11
 142 F= -.13880039E+03 E0= -.13880991E+03  d E =-.982254E-10
       N       E                     dE             d eps       ncg     rms          rms(c)
DAV:   1    -0.138800388072E+03   -0.51296E-09    0.40391E-11   204   0.847E-11    0.316E-10
RMM:   2    -0.138800388071E+03    0.71668E-09    0.00000E+00     2   0.117E-10
 143 F= -.13880039E+03 E0= -.13880991E+03  d E =0.127329E-09
       N       E                     dE             d eps       ncg     rms          rms(c)
DAV:   1    -0.138800388071E+03    0.14079E-08   -0.85783E-11   204   0.204E-10    0.222E-10
RMM:   2    -0.138800388071E+03   -0.73123E-09    0.00000E+00     2   0.113E-10
 144 F= -.13880039E+03 E0= -.13880991E+03  d E =-.400178E-10
       N       E                     dE             d eps       ncg     rms          rms(c)
DAV:   1    -0.138800388071E+03   -0.91313E-09    0.37265E-11   204   0.150E-10    0.342E-10
RMM:   2    -0.138800388071E+03    0.22555E-09    0.00000E+00     2   0.162E-10
 145 F= -.13880039E+03 E0= -.13880991E+03  d E =0.436557E-10
       N       E                     dE             d eps       ncg     rms          rms(c)
DAV:   1    -0.138800388072E+03   -0.30559E-09    0.13396E-10   204   0.278E-10    0.191E-10
RMM:   2    -0.138800388071E+03    0.40382E-09    0.00000E+00     2   0.118E-10
 146 F= -.13880039E+03 E0= -.13880991E+03  d E =-.127329E-09
       N       E                     dE             d eps       ncg     rms          rms(c)
DAV:   1    -0.138800388072E+03   -0.47658E-09    0.64808E-11   204   0.163E-10    0.235E-10
RMM:   2    -0.138800388071E+03    0.96770E-09    0.00000E+00     2   0.114E-10
 147 F= -.13880039E+03 E0= -.13880991E+03  d E =0.873115E-10
       N       E                     dE             d eps       ncg     rms          rms(c)
DAV:   1    -0.138800388070E+03    0.18445E-08    0.26311E-11   204   0.190E-10    0.175E-10
RMM:   2    -0.138800388071E+03   -0.87311E-09    0.00000E+00     2   0.962E-11
 148 F= -.13880039E+03 E0= -.13880991E+03  d E =0.363798E-11
       N       E                     dE             d eps       ncg     rms          rms(c)
DAV:   1    -0.138800388072E+03   -0.12478E-08    0.43230E-11   204   0.149E-10    0.193E-10
RMM:   2    -0.138800388071E+03    0.34561E-09    0.00000E+00     2   0.111E-10
 149 F= -.13880039E+03 E0= -.13880991E+03  d E =-.291038E-10
       N       E                     dE             d eps       ncg     rms          rms(c)
DAV:   1    -0.138800388071E+03    0.36016E-09    0.34186E-11   204   0.175E-10    0.209E-10
RMM:   2    -0.138800388071E+03   -0.54570E-10    0.00000E+00     2   0.101E-10
 150 F= -.13880039E+03 E0= -.13880991E+03  d E =-.400178E-10
       N       E                     dE             d eps       ncg     rms          rms(c)
DAV:   1    -0.138800388072E+03   -0.32742E-09    0.64477E-11   204   0.153E-10    0.255E-10
RMM:   2    -0.138800388071E+03    0.28740E-09    0.00000E+00     2   0.995E-11
 151 F= -.13880039E+03 E0= -.13880991E+03  d E =0.145519E-10
       N       E                     dE             d eps       ncg     rms          rms(c)
DAV:   1    -0.138800388070E+03    0.14188E-08    0.11196E-10   204   0.192E-10    0.282E-10
RMM:   2    -0.138800388071E+03   -0.10368E-08    0.00000E+00     2   0.124E-10
 152 F= -.13880039E+03 E0= -.13880991E+03  d E =0.945874E-10
       N       E                     dE             d eps       ncg     rms          rms(c)
DAV:   1    -0.138800388071E+03   -0.46566E-09   -0.55279E-11   204   0.256E-10    0.178E-10
RMM:   2    -0.138800388071E+03   -0.60027E-09    0.00000E+00     2   0.121E-10
 153 F= -.13880039E+03 E0= -.13880991E+03  d E =-.291038E-10
       N       E                     dE             d eps       ncg     rms          rms(c)
DAV:   1    -0.138800388072E+03   -0.87311E-09    0.38079E-11   204   0.149E-10    0.370E-10
RMM:   2    -0.138800388071E+03    0.21828E-09    0.00000E+00     2   0.144E-10
 154 F= -.13880039E+03 E0= -.13880991E+03  d E =-.545697E-10
       N       E                     dE             d eps       ncg     rms          rms(c)
DAV:   1    -0.138800388071E+03    0.37107E-09   -0.24743E-12   204   0.228E-10    0.431E-10
RMM:   2    -0.138800388071E+03   -0.69122E-10    0.00000E+00     2   0.150E-10
 155 F= -.13880039E+03 E0= -.13880991E+03  d E =0.836735E-10
       N       E                     dE             d eps       ncg     rms          rms(c)
DAV:   1    -0.138800388071E+03    0.36016E-09    0.62796E-11   204   0.283E-10    0.213E-10
RMM:   2    -0.138800388071E+03   -0.43292E-09    0.00000E+00     2   0.105E-10
 156 F= -.13880039E+03 E0= -.13880991E+03  d E =-.363798E-11
       N       E                     dE             d eps       ncg     rms          rms(c)
DAV:   1    -0.138800388071E+03   -0.50932E-09    0.14970E-11   204   0.229E-10    0.114E-10
RMM:   2    -0.138800388071E+03    0.76398E-10    0.00000E+00     2   0.885E-11
 157 F= -.13880039E+03 E0= -.13880991E+03  d E =0.000000E+00
       N       E                     dE             d eps       ncg     rms          rms(c)
DAV:   1    -0.138800388072E+03   -0.41837E-09    0.62301E-11   204   0.113E-10    0.230E-10
RMM:   2    -0.138800388071E+03    0.45111E-09    0.00000E+00     2   0.109E-10
 158 F= -.13880039E+03 E0= -.13880991E+03  d E =-.436557E-10
       N       E                     dE             d eps       ncg     rms          rms(c)
DAV:   1    -0.138800388072E+03   -0.38199E-09    0.38671E-11   204   0.146E-10    0.298E-10
RMM:   2    -0.138800388071E+03    0.89494E-09    0.00000E+00     2   0.120E-10
 159 F= -.13880039E+03 E0= -.13880991E+03  d E =0.618456E-10
       N       E                     dE             d eps       ncg     rms          rms(c)
DAV:   1    -0.138800388070E+03    0.23319E-08    0.70428E-11   204   0.169E-10    0.221E-10
RMM:   2    -0.138800388071E+03   -0.15389E-08    0.00000E+00     2   0.107E-10
 160 F= -.13880039E+03 E0= -.13880991E+03  d E =-.101863E-09
       N       E                     dE             d eps       ncg     rms          rms(c)
DAV:   1    -0.138800388071E+03   -0.15352E-08   -0.17893E-11   204   0.261E-10    0.181E-10
RMM:   2    -0.138800388071E+03    0.65484E-10    0.00000E+00     2   0.130E-10
 161 F= -.13880039E+03 E0= -.13880991E+03  d E =0.691216E-10
       N       E                     dE             d eps       ncg     rms          rms(c)
DAV:   1    -0.138800388072E+03   -0.32014E-09   -0.51892E-11   204   0.182E-10    0.250E-10
RMM:   2    -0.138800388071E+03    0.40018E-09    0.00000E+00     2   0.131E-10
 162 F= -.13880039E+03 E0= -.13880991E+03  d E =0.145519E-10
       N       E                     dE             d eps       ncg     rms          rms(c)
DAV:   1    -0.138800388071E+03    0.10732E-08    0.13069E-11   204   0.197E-10    0.351E-10
RMM:   2    -0.138800388071E+03   -0.66575E-09    0.00000E+00     2   0.145E-10
 163 F= -.13880039E+03 E0= -.13880991E+03  d E =0.727596E-11
       N       E                     dE             d eps       ncg     rms          rms(c)
DAV:   1    -0.138800388071E+03   -0.14916E-09   -0.38934E-11   204   0.193E-10    0.170E-10
RMM:   2    -0.138800388071E+03   -0.52023E-09    0.00000E+00     2   0.868E-11
 164 F= -.13880039E+03 E0= -.13880991E+03  d E =-.363798E-11
       N       E                     dE             d eps       ncg     rms          rms(c)
DAV:   1    -0.138800388071E+03   -0.57480E-09    0.26325E-11   204   0.111E-10    0.185E-10
RMM:   2    -0.138800388071E+03   -0.54570E-10    0.00000E+00     2   0.873E-11
 165 F= -.13880039E+03 E0= -.13880991E+03  d E =-.109139E-09
       N       E                     dE             d eps       ncg     rms          rms(c)
DAV:   1    -0.138800388072E+03   -0.27649E-09    0.89186E-12   204   0.130E-10    0.218E-10
RMM:   2    -0.138800388071E+03    0.25466E-09    0.00000E+00     2   0.108E-10
 166 F= -.13880039E+03 E0= -.13880991E+03  d E =0.327418E-10
       N       E                     dE             d eps       ncg     rms          rms(c)
DAV:   1    -0.138800388071E+03    0.32742E-10   -0.83413E-11   204   0.176E-10    0.334E-10
RMM:   2    -0.138800388071E+03    0.29104E-09    0.00000E+00     2   0.117E-10
 167 F= -.13880039E+03 E0= -.13880991E+03  d E =0.691216E-10
       N       E                     dE             d eps       ncg     rms          rms(c)
DAV:   1    -0.138800388071E+03    0.22555E-09   -0.10195E-10   204   0.203E-10    0.199E-10
RMM:   2    -0.138800388071E+03    0.87311E-10    0.00000E+00     2   0.103E-10
 168 F= -.13880039E+03 E0= -.13880991E+03  d E =0.218279E-10
       N       E                     dE             d eps       ncg     rms          rms(c)
DAV:   1    -0.138800388072E+03   -0.83674E-09    0.53517E-12   204   0.158E-10    0.319E-10
RMM:   2    -0.138800388071E+03    0.77125E-09    0.00000E+00     2   0.126E-10
 169 F= -.13880039E+03 E0= -.13880991E+03  d E =-.152795E-09
       N       E                     dE             d eps       ncg     rms          rms(c)
DAV:   1    -0.138800388071E+03    0.72032E-09   -0.46183E-11   204   0.208E-10    0.267E-10
RMM:   2    -0.138800388071E+03    0.16735E-09    0.00000E+00     2   0.128E-10
 170 F= -.13880039E+03 E0= -.13880991E+03  d E =0.116415E-09
       N       E                     dE             d eps       ncg     rms          rms(c)
DAV:   1    -0.138800388071E+03    0.20373E-09   -0.79100E-12   204   0.236E-10    0.235E-10
RMM:   2    -0.138800388071E+03   -0.83674E-10    0.00000E+00     2   0.120E-10
 171 F= -.13880039E+03 E0= -.13880991E+03  d E =-.472937E-10
       N       E                     dE             d eps       ncg     rms          rms(c)
DAV:   1    -0.138800388072E+03   -0.72760E-09   -0.27410E-11   204   0.242E-10    0.215E-10
RMM:   2    -0.138800388071E+03    0.68758E-09    0.00000E+00     2   0.119E-10
 172 F= -.13880039E+03 E0= -.13880991E+03  d E =0.436557E-10
       N       E                     dE             d eps       ncg     rms          rms(c)
DAV:   1    -0.138800388071E+03    0.98225E-09   -0.33221E-11   204   0.172E-10    0.155E-10
RMM:   2    -0.138800388071E+03   -0.39290E-09    0.00000E+00     2   0.114E-10
 173 F= -.13880039E+03 E0= -.13880991E+03  d E =-.982254E-10
       N       E                     dE             d eps       ncg     rms          rms(c)
DAV:   1    -0.138800388072E+03   -0.65847E-09    0.16284E-10   204   0.170E-10    0.196E-10
RMM:   2    -0.138800388071E+03    0.35652E-09    0.00000E+00     2   0.117E-10
 174 F= -.13880039E+03 E0= -.13880991E+03  d E =0.909495E-10
       N       E                     dE             d eps       ncg     rms          rms(c)
DAV:   1    -0.138800388071E+03    0.81127E-09   -0.57144E-11   204   0.182E-10    0.237E-10
RMM:   2    -0.138800388071E+03   -0.37107E-09    0.00000E+00     2   0.135E-10
 175 F= -.13880039E+03 E0= -.13880991E+03  d E =0.836735E-10
       N       E                     dE             d eps       ncg     rms          rms(c)
DAV:   1    -0.138800388071E+03   -0.18190E-09    0.87930E-12   204   0.185E-10    0.275E-10
RMM:   2    -0.138800388071E+03   -0.28012E-09    0.00000E+00     2   0.147E-10
 176 F= -.13880039E+03 E0= -.13880991E+03  d E =-.909495E-10
       N       E                     dE             d eps       ncg     rms          rms(c)
DAV:   1    -0.138800388071E+03   -0.90949E-10   -0.19677E-11   204   0.218E-10    0.291E-10
RMM:   2    -0.138800388071E+03   -0.24374E-09    0.00000E+00     2   0.144E-10
 177 F= -.13880039E+03 E0= -.13880991E+03  d E =-.545697E-10
       N       E                     dE             d eps       ncg     rms          rms(c)
DAV:   1    -0.138800388071E+03    0.49840E-09    0.67204E-11   204   0.238E-10    0.218E-10
RMM:   2    -0.138800388071E+03   -0.62937E-09    0.00000E+00     2   0.108E-10
 178 F= -.13880039E+03 E0= -.13880991E+03  d E =0.112777E-09
       N       E                     dE             d eps       ncg     rms          rms(c)
DAV:   1    -0.138800388070E+03    0.37107E-09    0.16313E-11   204   0.203E-10    0.426E-10
RMM:   2    -0.138800388071E+03   -0.11132E-08    0.00000E+00     2   0.143E-10
 179 F= -.13880039E+03 E0= -.13880991E+03  d E =-.112777E-09
       N       E                     dE             d eps       ncg     rms          rms(c)
DAV:   1    -0.138800388071E+03   -0.75670E-09   -0.95457E-11   204   0.272E-10    0.166E-10
RMM:   2    -0.138800388071E+03   -0.30923E-09    0.00000E+00     2   0.110E-10
 180 F= -.13880039E+03 E0= -.13880991E+03  d E =0.472937E-10
       N       E                     dE             d eps       ncg     rms          rms(c)
DAV:   1    -0.138800388070E+03    0.11678E-08    0.25575E-11   204   0.155E-10    0.406E-10
RMM:   2    -0.138800388071E+03   -0.15425E-08    0.00000E+00     2   0.141E-10
 181 F= -.13880039E+03 E0= -.13880991E+03  d E =-.654836E-10
       N       E                     dE             d eps       ncg     rms          rms(c)
DAV:   1    -0.138800388071E+03   -0.16335E-08   -0.78849E-12   204   0.283E-10    0.543E-10
RMM:   2    -0.138800388071E+03    0.21464E-09    0.00000E+00     2   0.179E-10
 182 F= -.13880039E+03 E0= -.13880991E+03  d E =0.123691E-09
       N       E                     dE             d eps       ncg     rms          rms(c)
DAV:   1    -0.138800388071E+03    0.59663E-09    0.56740E-11   204   0.334E-10    0.186E-10
RMM:   2    -0.138800388071E+03   -0.33106E-09    0.00000E+00     2   0.118E-10
 183 F= -.13880039E+03 E0= -.13880991E+03  d E =0.509317E-10
       N       E                     dE             d eps       ncg     rms          rms(c)
DAV:   1    -0.138800388072E+03   -0.15243E-08   -0.25063E-11   204   0.237E-10    0.204E-10
RMM:   2    -0.138800388071E+03    0.10514E-08    0.00000E+00     2   0.121E-10
 184 F= -.13880039E+03 E0= -.13880991E+03  d E =-.141881E-09
       N       E                     dE             d eps       ncg     rms          rms(c)
DAV:   1    -0.138800388070E+03    0.24665E-08   -0.25241E-11   204   0.158E-10    0.292E-10
RMM:   2    -0.138800388071E+03   -0.14188E-08    0.00000E+00     2   0.125E-10
 185 F= -.13880039E+03 E0= -.13880991E+03  d E =-.363798E-11
       N       E                     dE             d eps       ncg     rms          rms(c)
DAV:   1    -0.138800388072E+03   -0.18663E-08    0.40821E-11   204   0.233E-10    0.292E-10
RMM:   2    -0.138800388071E+03    0.42564E-09    0.00000E+00     2   0.132E-10
 186 F= -.13880039E+03 E0= -.13880991E+03  d E =-.218279E-10
       N       E                     dE             d eps       ncg     rms          rms(c)
DAV:   1    -0.138800388071E+03    0.12296E-08    0.10382E-11   204   0.273E-10    0.331E-10
RMM:   2    -0.138800388071E+03   -0.65484E-09    0.00000E+00     2   0.142E-10
 187 F= -.13880039E+03 E0= -.13880991E+03  d E =0.149157E-09
       N       E                     dE             d eps       ncg     rms          rms(c)
DAV:   1    -0.138800388071E+03   -0.97498E-09   -0.31707E-11   204   0.229E-10    0.201E-10
RMM:   2    -0.138800388071E+03    0.12369E-09    0.00000E+00     2   0.134E-10
 188 F= -.13880039E+03 E0= -.13880991E+03  d E =-.196451E-09
       N       E                     dE             d eps       ncg     rms          rms(c)
DAV:   1    -0.138800388071E+03    0.36380E-10    0.12137E-10   204   0.164E-10    0.269E-10
RMM:   2    -0.138800388071E+03    0.24011E-09    0.00000E+00     2   0.128E-10
 189 F= -.13880039E+03 E0= -.13880991E+03  d E =0.152795E-09
       N       E                     dE             d eps       ncg     rms          rms(c)
DAV:   1    -0.138800388071E+03    0.11278E-09    0.44358E-12   204   0.192E-10    0.194E-10
RMM:   2    -0.138800388071E+03    0.11642E-09    0.00000E+00     2   0.111E-10
 190 F= -.13880039E+03 E0= -.13880991E+03  d E =-.109139E-10
       N       E                     dE             d eps       ncg     rms          rms(c)
DAV:   1    -0.138800388071E+03   -0.54570E-10   -0.54689E-11   204   0.161E-10    0.232E-10
RMM:   2    -0.138800388071E+03    0.76398E-10    0.00000E+00     2   0.124E-10
 191 F= -.13880039E+03 E0= -.13880991E+03  d E =-.945874E-10
       N       E                     dE             d eps       ncg     rms          rms(c)
DAV:   1    -0.138800388071E+03    0.21828E-09   -0.32181E-11   204   0.221E-10    0.300E-10
RMM:   2    -0.138800388071E+03   -0.65484E-10    0.00000E+00     2   0.121E-10
 192 F= -.13880039E+03 E0= -.13880991E+03  d E =0.763976E-10
       N       E                     dE             d eps       ncg     rms          rms(c)
DAV:   1    -0.138800388071E+03   -0.20009E-09   -0.68138E-12   204   0.249E-10    0.318E-10
RMM:   2    -0.138800388071E+03    0.54570E-10    0.00000E+00     2   0.134E-10
 193 F= -.13880039E+03 E0= -.13880991E+03  d E =-.800355E-10
       N       E                     dE             d eps       ncg     rms          rms(c)
DAV:   1    -0.138800388071E+03    0.49840E-09    0.41278E-11   204   0.247E-10    0.288E-10
RMM:   2    -0.138800388071E+03   -0.42201E-09    0.00000E+00     2   0.130E-10
 194 F= -.13880039E+03 E0= -.13880991E+03  d E =0.218279E-10
       N       E                     dE             d eps       ncg     rms          rms(c)
DAV:   1    -0.138800388071E+03   -0.34197E-09    0.64923E-11   204   0.186E-10    0.264E-10
RMM:   2    -0.138800388071E+03   -0.90949E-10    0.00000E+00     2   0.103E-10
 195 F= -.13880039E+03 E0= -.13880991E+03  d E =-.109139E-10
       N       E                     dE             d eps       ncg     rms          rms(c)
DAV:   1    -0.138800388071E+03    0.54206E-09    0.74460E-13   204   0.160E-10    0.202E-10
RMM:   2    -0.138800388071E+03   -0.63665E-09    0.00000E+00     2   0.942E-11
 196 F= -.13880039E+03 E0= -.13880991E+03  d E =-.363798E-11
       N       E                     dE             d eps       ncg     rms          rms(c)
DAV:   1    -0.138800388072E+03   -0.85129E-09    0.32749E-11   204   0.137E-10    0.264E-10
RMM:   2    -0.138800388071E+03    0.38199E-09    0.00000E+00     2   0.111E-10
 197 F= -.13880039E+03 E0= -.13880991E+03  d E =0.167347E-09
       N       E                     dE             d eps       ncg     rms          rms(c)
DAV:   1    -0.138800388071E+03    0.14552E-09   -0.39370E-11   204   0.232E-10    0.175E-10
RMM:   2    -0.138800388071E+03    0.50932E-10    0.00000E+00     2   0.122E-10
 198 F= -.13880039E+03 E0= -.13880991E+03  d E =-.185537E-09
       N       E                     dE             d eps       ncg     rms          rms(c)
DAV:   1    -0.138800388071E+03    0.16371E-09    0.24194E-11   204   0.143E-10    0.167E-10
RMM:   2    -0.138800388071E+03   -0.29104E-10    0.00000E+00     2   0.110E-10
 199 F= -.13880039E+03 E0= -.13880991E+03  d E =0.836735E-10
       N       E                     dE             d eps       ncg     rms          rms(c)
DAV:   1    -0.138800388071E+03    0.11278E-09    0.15089E-11   204   0.161E-10    0.167E-10
RMM:   2    -0.138800388071E+03   -0.12005E-09    0.00000E+00     2   0.873E-11
 200 F= -.13880039E+03 E0= -.13880991E+03  d E =0.218279E-10
       N       E                     dE             d eps       ncg     rms          rms(c)
DAV:   1    -0.138800388071E+03    0.21828E-09    0.17769E-11   204   0.135E-10    0.204E-10
RMM:   2    -0.138800388071E+03   -0.35652E-09    0.00000E+00     2   0.106E-10
 201 F= -.13880039E+03 E0= -.13880991E+03  d E =-.181899E-10
       N       E                     dE             d eps       ncg     rms          rms(c)
DAV:   1    -0.138800388071E+03    0.29104E-10   -0.20452E-11   204   0.208E-10    0.140E-10
RMM:   2    -0.138800388071E+03   -0.40018E-09    0.00000E+00     2   0.108E-10
 202 F= -.13880039E+03 E0= -.13880991E+03  d E =-.145519E-10
       N       E                     dE             d eps       ncg     rms          rms(c)
DAV:   1    -0.138800388071E+03   -0.64392E-09    0.28993E-11   204   0.989E-11    0.210E-10
RMM:   2    -0.138800388071E+03    0.21100E-09    0.00000E+00     2   0.903E-11
 203 F= -.13880039E+03 E0= -.13880991E+03  d E =-.327418E-10
       N       E                     dE             d eps       ncg     rms          rms(c)
DAV:   1    -0.138800388071E+03    0.56752E-09    0.78646E-11   204   0.115E-10    0.261E-10
RMM:   2    -0.138800388071E+03   -0.27285E-09    0.00000E+00     2   0.915E-11
 204 F= -.13880039E+03 E0= -.13880991E+03  d E =0.836735E-10
       N       E                     dE             d eps       ncg     rms          rms(c)
DAV:   1    -0.138800388072E+03   -0.74942E-09    0.44343E-11   204   0.116E-10    0.296E-10
RMM:   2    -0.138800388071E+03    0.37471E-09    0.00000E+00     2   0.110E-10
 205 F= -.13880039E+03 E0= -.13880991E+03  d E =-.101863E-09
       N       E                     dE             d eps       ncg     rms          rms(c)
DAV:   1    -0.138800388070E+03    0.16516E-08    0.47495E-11   204   0.185E-10    0.211E-10
RMM:   2    -0.138800388071E+03   -0.12114E-08    0.00000E+00     2   0.112E-10
 206 F= -.13880039E+03 E0= -.13880991E+03  d E =0.654836E-10
       N       E                     dE             d eps       ncg     rms          rms(c)
DAV:   1    -0.138800388071E+03   -0.85129E-09    0.31339E-11   204   0.204E-10    0.308E-10
RMM:   2    -0.138800388071E+03   -0.40382E-09    0.00000E+00     2   0.131E-10
 207 F= -.13880039E+03 E0= -.13880991E+03  d E =-.436557E-10
       N       E                     dE             d eps       ncg     rms          rms(c)
DAV:   1    -0.138800388072E+03   -0.10623E-08    0.37062E-11   204   0.177E-10    0.295E-10
RMM:   2    -0.138800388071E+03    0.65847E-09    0.00000E+00     2   0.129E-10
 208 F= -.13880039E+03 E0= -.13880991E+03  d E =0.000000E+00
       N       E                     dE             d eps       ncg     rms          rms(c)
DAV:   1    -0.138800388072E+03    0.31287E-09    0.16444E-11   204   0.227E-10    0.189E-10
RMM:   2    -0.138800388071E+03    0.29831E-09    0.00000E+00     2   0.121E-10
 209 F= -.13880039E+03 E0= -.13880991E+03  d E =-.472937E-10
       N       E                     dE             d eps       ncg     rms          rms(c)
DAV:   1    -0.138800388071E+03    0.62209E-09    0.11843E-10   204   0.179E-10    0.185E-10
RMM:   2    -0.138800388071E+03   -0.22919E-09    0.00000E+00     2   0.116E-10
 210 F= -.13880039E+03 E0= -.13880991E+03  d E =0.945874E-10
       N       E                     dE             d eps       ncg     rms          rms(c)
DAV:   1    -0.138800388072E+03   -0.13824E-08   -0.63281E-11   204   0.160E-10    0.227E-10
RMM:   2    -0.138800388071E+03    0.12005E-08    0.00000E+00     2   0.110E-10
 211 F= -.13880039E+03 E0= -.13880991E+03  d E =0.472937E-10
       N       E                     dE             d eps       ncg     rms          rms(c)
DAV:   1    -0.138800388071E+03    0.17608E-08    0.19047E-11   204   0.208E-10    0.270E-10
RMM:   2    -0.138800388071E+03   -0.70941E-09    0.00000E+00     2   0.130E-10
 212 F= -.13880039E+03 E0= -.13880991E+03  d E =-.149157E-09
       N       E                     dE             d eps       ncg     rms          rms(c)
DAV:   1    -0.138800388071E+03   -0.34561E-09    0.67546E-11   204   0.169E-10    0.196E-10
RMM:   2    -0.138800388071E+03   -0.34561E-09    0.00000E+00     2   0.129E-10
 213 F= -.13880039E+03 E0= -.13880991E+03  d E =0.181899E-10
       N       E                     dE             d eps       ncg     rms          rms(c)
DAV:   1    -0.138800388071E+03   -0.13461E-09   -0.48089E-11   204   0.165E-10    0.196E-10
RMM:   2    -0.138800388071E+03   -0.83674E-10    0.00000E+00     2   0.120E-10
 214 F= -.13880039E+03 E0= -.13880991E+03  d E =0.127329E-09
       N       E                     dE             d eps       ncg     rms          rms(c)
DAV:   1    -0.138800388071E+03   -0.43656E-10   -0.73991E-11   204   0.156E-10    0.310E-10
RMM:   2    -0.138800388071E+03   -0.18917E-09    0.00000E+00     2   0.159E-10
 215 F= -.13880039E+03 E0= -.13880991E+03  d E =-.149157E-09
       N       E                     dE             d eps       ncg     rms          rms(c)
DAV:   1    -0.138800388072E+03   -0.42564E-09   -0.14218E-11   204   0.249E-10    0.247E-10
RMM:   2    -0.138800388071E+03    0.32742E-09    0.00000E+00     2   0.139E-10
 216 F= -.13880039E+03 E0= -.13880991E+03  d E =0.909495E-10
       N       E                     dE             d eps       ncg     rms          rms(c)
DAV:   1    -0.138800388071E+03    0.22192E-09    0.81749E-11   204   0.215E-10    0.168E-10
RMM:   2    -0.138800388071E+03    0.25466E-10    0.00000E+00     2   0.130E-10
 217 F= -.13880039E+03 E0= -.13880991E+03  d E =-.800355E-10
       N       E                     dE             d eps       ncg     rms          rms(c)
DAV:   1    -0.138800388072E+03   -0.34561E-09    0.10940E-10   204   0.141E-10    0.146E-10
RMM:   2    -0.138800388071E+03    0.43656E-09    0.00000E+00     2   0.106E-10
 218 F= -.13880039E+03 E0= -.13880991E+03  d E =0.654836E-10
       N       E                     dE             d eps       ncg     rms          rms(c)
DAV:   1    -0.138800388072E+03   -0.21828E-09    0.54102E-11   204   0.123E-10    0.179E-10
RMM:   2    -0.138800388071E+03    0.60027E-09    0.00000E+00     2   0.102E-10
 219 F= -.13880039E+03 E0= -.13880991E+03  d E =-.545697E-10
       N       E                     dE             d eps       ncg     rms          rms(c)
DAV:   1    -0.138800388072E+03    0.28376E-09    0.70443E-11   204   0.159E-10    0.361E-10
RMM:   2    -0.138800388071E+03    0.26921E-09    0.00000E+00     2   0.149E-10
 220 F= -.13880039E+03 E0= -.13880991E+03  d E =-.472937E-10
       N       E                     dE             d eps       ncg     rms          rms(c)
DAV:   1    -0.138800388071E+03    0.30559E-09    0.58884E-12   204   0.235E-10    0.393E-10
RMM:   2    -0.138800388071E+03    0.61846E-10    0.00000E+00     2   0.159E-10
 221 F= -.13880039E+03 E0= -.13880991E+03  d E =0.982254E-10
       N       E                     dE             d eps       ncg     rms          rms(c)
DAV:   1    -0.138800388072E+03   -0.94951E-09   -0.64348E-11   204   0.265E-10    0.182E-10
RMM:   2    -0.138800388071E+03    0.10805E-08    0.00000E+00     2   0.120E-10
 222 F= -.13880039E+03 E0= -.13880991E+03  d E =0.691216E-10
       N       E                     dE             d eps       ncg     rms          rms(c)
DAV:   1    -0.138800388072E+03    0.49477E-09    0.55047E-11   204   0.183E-10    0.206E-10
RMM:   2    -0.138800388071E+03    0.42928E-09    0.00000E+00     2   0.999E-11
 223 F= -.13880039E+03 E0= -.13880991E+03  d E =-.156433E-09
       N       E                     dE             d eps       ncg     rms          rms(c)
DAV:   1    -0.138800388072E+03   -0.19645E-09    0.44365E-11   204   0.164E-10    0.224E-10
RMM:   2    -0.138800388071E+03    0.69485E-09    0.00000E+00     2   0.132E-10
 224 F= -.13880039E+03 E0= -.13880991E+03  d E =0.691216E-10
       N       E                     dE             d eps       ncg     rms          rms(c)
DAV:   1    -0.138800388071E+03    0.12187E-08   -0.20733E-11   204   0.223E-10    0.176E-10
RMM:   2    -0.138800388071E+03   -0.55661E-09    0.00000E+00     2   0.101E-10
 225 F= -.13880039E+03 E0= -.13880991E+03  d E =-.327418E-10
       N       E                     dE             d eps       ncg     rms          rms(c)
DAV:   1    -0.138800388071E+03    0.32742E-10    0.18508E-11   204   0.199E-10    0.194E-10
RMM:   2    -0.138800388071E+03   -0.56389E-09    0.00000E+00     2   0.881E-11
 226 F= -.13880039E+03 E0= -.13880991E+03  d E =0.254659E-10
       N       E                     dE             d eps       ncg     rms          rms(c)
DAV:   1    -0.138800388071E+03   -0.13461E-09    0.51972E-12   204   0.153E-10    0.219E-10
RMM:   2    -0.138800388071E+03   -0.27649E-09    0.00000E+00     2   0.993E-11
 227 F= -.13880039E+03 E0= -.13880991E+03  d E =0.152795E-09
       N       E                     dE             d eps       ncg     rms          rms(c)
DAV:   1    -0.138800388071E+03   -0.80036E-10   -0.11667E-11   204   0.153E-10    0.234E-10
RMM:   2    -0.138800388071E+03   -0.33833E-09    0.00000E+00     2   0.117E-10
 228 F= -.13880039E+03 E0= -.13880991E+03  d E =-.141881E-09
       N       E                     dE             d eps       ncg     rms          rms(c)
DAV:   1    -0.138800388071E+03    0.24374E-09    0.29456E-11   204   0.172E-10    0.178E-10
RMM:   2    -0.138800388071E+03   -0.50204E-09    0.00000E+00     2   0.111E-10
 229 F= -.13880039E+03 E0= -.13880991E+03  d E =0.800355E-10
       N       E                     dE             d eps       ncg     rms          rms(c)
DAV:   1    -0.138800388071E+03   -0.49113E-09    0.88411E-12   204   0.176E-10    0.165E-10
RMM:   2    -0.138800388071E+03   -0.11642E-09    0.00000E+00     2   0.903E-11
 230 F= -.13880039E+03 E0= -.13880991E+03  d E =-.105501E-09
       N       E                     dE             d eps       ncg     rms          rms(c)
DAV:   1    -0.138800388072E+03   -0.37107E-09    0.22447E-11   204   0.126E-10    0.174E-10
RMM:   2    -0.138800388071E+03    0.37107E-09    0.00000E+00     2   0.106E-10
 231 F= -.13880039E+03 E0= -.13880991E+03  d E =0.116415E-09
       N       E                     dE             d eps       ncg     rms          rms(c)
DAV:   1    -0.138800388072E+03   -0.10914E-10    0.76896E-12   204   0.123E-10    0.164E-10
RMM:   2    -0.138800388071E+03    0.35288E-09    0.00000E+00     2   0.936E-11
 232 F= -.13880039E+03 E0= -.13880991E+03  d E =-.291038E-10
       N       E                     dE             d eps       ncg     rms          rms(c)
DAV:   1    -0.138800388070E+03    0.13970E-08    0.31951E-11   168   0.132E-10    0.141E-10
RMM:   2    -0.138800388071E+03   -0.11169E-08    0.00000E+00     1   0.924E-11
 233 F= -.13880039E+03 E0= -.13880991E+03  d E =-.727596E-10
       N       E                     dE             d eps       ncg     rms          rms(c)
DAV:   1    -0.138800388072E+03   -0.15425E-08    0.29610E-11   168   0.138E-10    0.213E-10
RMM:   2    -0.138800388071E+03    0.49113E-09    0.00000E+00     1   0.102E-10
 234 F= -.13880039E+03 E0= -.13880991E+03  d E =0.654836E-10
       N       E                     dE             d eps       ncg     rms          rms(c)
DAV:   1    -0.138800388071E+03    0.90222E-09   -0.53116E-11   168   0.193E-10    0.235E-10
RMM:   2    -0.138800388071E+03   -0.40018E-09    0.00000E+00     1   0.107E-10
 235 F= -.13880039E+03 E0= -.13880991E+03  d E =0.109139E-10
       N       E                     dE             d eps       ncg     rms          rms(c)
DAV:   1    -0.138800388071E+03   -0.55661E-09    0.36225E-11   168   0.198E-10    0.154E-10
RMM:   2    -0.138800388071E+03    0.94587E-10    0.00000E+00     1   0.107E-10
 236 F= -.13880039E+03 E0= -.13880991E+03  d E =-.618456E-10
       N       E                     dE             d eps       ncg     rms          rms(c)
DAV:   1    -0.138800388071E+03    0.49840E-09    0.42534E-11   168   0.130E-10    0.220E-10
RMM:   2    -0.138800388071E+03   -0.39290E-09    0.00000E+00     1   0.106E-10
 237 F= -.13880039E+03 E0= -.13880991E+03  d E =0.109139E-10
       N       E                     dE             d eps       ncg     rms          rms(c)
DAV:   1    -0.138800388071E+03   -0.19645E-09   -0.31547E-11   168   0.167E-10    0.190E-10
RMM:   2    -0.138800388071E+03   -0.21100E-09    0.00000E+00     1   0.949E-11
 238 F= -.13880039E+03 E0= -.13880991E+03  d E =-.145519E-10
       N       E                     dE             d eps       ncg     rms          rms(c)
DAV:   1    -0.138800388072E+03   -0.91313E-09    0.50759E-11   168   0.140E-10    0.208E-10
RMM:   2    -0.138800388071E+03    0.64392E-09    0.00000E+00     1   0.944E-11
 239 F= -.13880039E+03 E0= -.13880991E+03  d E =-.582077E-10
       N       E                     dE             d eps       ncg     rms          rms(c)
DAV:   1    -0.138800388071E+03    0.11569E-08    0.36033E-11   168   0.194E-10    0.218E-10
RMM:   2    -0.138800388071E+03   -0.37107E-09    0.00000E+00     1   0.103E-10
 240 F= -.13880039E+03 E0= -.13880991E+03  d E =0.141881E-09
       N       E                     dE             d eps       ncg     rms          rms(c)
DAV:   1    -0.138800388071E+03   -0.39290E-09   -0.11198E-11   168   0.130E-10    0.195E-10
RMM:   2    -0.138800388071E+03   -0.69122E-10    0.00000E+00     1   0.929E-11
 241 F= -.13880039E+03 E0= -.13880991E+03  d E =-.909495E-10
       N       E                     dE             d eps       ncg     rms          rms(c)
DAV:   1    -0.138800388071E+03    0.46202E-09   -0.49072E-11   168   0.182E-10    0.141E-10
RMM:   2    -0.138800388071E+03   -0.46202E-09    0.00000E+00     1   0.860E-11
 242 F= -.13880039E+03 E0= -.13880991E+03  d E =0.691216E-10
       N       E                     dE             d eps       ncg     rms          rms(c)
DAV:   1    -0.138800388072E+03   -0.12733E-08    0.20261E-11   168   0.137E-10    0.250E-10
RMM:   2    -0.138800388071E+03    0.68030E-09    0.00000E+00     1   0.104E-10
 243 F= -.13880039E+03 E0= -.13880991E+03  d E =-.130967E-09
       N       E                     dE             d eps       ncg     rms          rms(c)
DAV:   1    -0.138800388072E+03    0.40382E-09    0.45068E-11   168   0.167E-10    0.362E-10
RMM:   2    -0.138800388071E+03    0.31650E-09    0.00000E+00     1   0.145E-10
 244 F= -.13880039E+03 E0= -.13880991E+03  d E =0.400178E-10
       N       E                     dE             d eps       ncg     rms          rms(c)
DAV:   1    -0.138800388071E+03    0.97498E-09    0.62899E-11   168   0.242E-10    0.179E-10
RMM:   2    -0.138800388071E+03   -0.55661E-09    0.00000E+00     1   0.937E-11
 245 F= -.13880039E+03 E0= -.13880991E+03  d E =0.101863E-09
       N       E                     dE             d eps       ncg     rms          rms(c)
DAV:   1    -0.138800388071E+03   -0.62209E-09    0.69007E-11   168   0.195E-10    0.354E-10
RMM:   2    -0.138800388071E+03   -0.61846E-10    0.00000E+00     1   0.129E-10
 246 F= -.13880039E+03 E0= -.13880991E+03  d E =-.127329E-09
       N       E                     dE             d eps       ncg     rms          rms(c)
DAV:   1    -0.138800388071E+03    0.47294E-10   -0.32360E-11   168   0.264E-10    0.258E-10
RMM:   2    -0.138800388071E+03    0.40018E-10    0.00000E+00     1   0.153E-10
 247 F= -.13880039E+03 E0= -.13880991E+03  d E =0.149157E-09
       N       E                     dE             d eps       ncg     rms          rms(c)
DAV:   1    -0.138800388071E+03   -0.12733E-09   -0.52935E-11   168   0.299E-10    0.215E-10
RMM:   2    -0.138800388071E+03    0.90949E-10    0.00000E+00     1   0.155E-10
 248 F= -.13880039E+03 E0= -.13880991E+03  d E =-.763976E-10
       N       E                     dE             d eps       ncg     rms          rms(c)
DAV:   1    -0.138800388071E+03    0.64028E-09   -0.11916E-11   168   0.283E-10    0.112E-10
RMM:   2    -0.138800388071E+03   -0.48749E-09    0.00000E+00     1   0.963E-11
 249 F= -.13880039E+03 E0= -.13880991E+03  d E =0.618456E-10
       N       E                     dE             d eps       ncg     rms          rms(c)
DAV:   1    -0.138800388072E+03   -0.13533E-08    0.11337E-11   168   0.105E-10    0.238E-10
RMM:   2    -0.138800388071E+03    0.72760E-09    0.00000E+00     1   0.952E-11
 250 F= -.13880039E+03 E0= -.13880991E+03  d E =-.138243E-09
       N       E                     dE             d eps       ncg     rms          rms(c)
DAV:   1    -0.138800388071E+03    0.82582E-09   -0.20964E-11   168   0.128E-10    0.188E-10
RMM:   2    -0.138800388071E+03   -0.72760E-10    0.00000E+00     1   0.100E-10
 251 F= -.13880039E+03 E0= -.13880991E+03  d E =0.254659E-10
       N       E                     dE             d eps       ncg     rms          rms(c)
DAV:   1    -0.138800388071E+03    0.53478E-09   -0.36740E-11   168   0.144E-10    0.240E-10
RMM:   2    -0.138800388071E+03   -0.49477E-09    0.00000E+00     1   0.108E-10
 252 F= -.13880039E+03 E0= -.13880991E+03  d E =0.112777E-09
       N       E                     dE             d eps       ncg     rms          rms(c)
DAV:   1    -0.138800388071E+03   -0.41109E-09    0.33299E-13   168   0.181E-10    0.330E-10
RMM:   2    -0.138800388071E+03   -0.72760E-10    0.00000E+00     1   0.143E-10
 253 F= -.13880039E+03 E0= -.13880991E+03  d E =0.109139E-10
       N       E                     dE             d eps       ncg     rms          rms(c)
DAV:   1    -0.138800388072E+03   -0.11278E-08   -0.20972E-11   168   0.318E-10    0.172E-10
RMM:   2    -0.138800388071E+03    0.10223E-08    0.00000E+00     1   0.104E-10
 254 F= -.13880039E+03 E0= -.13880991E+03  d E =-.327418E-10
       N       E                     dE             d eps       ncg     rms          rms(c)
DAV:   1    -0.138800388071E+03    0.12806E-08    0.15010E-11   168   0.140E-10    0.266E-10
RMM:   2    -0.138800388071E+03   -0.18554E-09    0.00000E+00     1   0.970E-11
 255 F= -.13880039E+03 E0= -.13880991E+03  d E =0.727596E-10
       N       E                     dE             d eps       ncg     rms          rms(c)
DAV:   1    -0.138800388071E+03    0.34561E-09    0.28923E-11   168   0.167E-10    0.159E-10
RMM:   2    -0.138800388071E+03   -0.67666E-09    0.00000E+00     1   0.107E-10
 256 F= -.13880039E+03 E0= -.13880991E+03  d E =-.145519E-09
       N       E                     dE             d eps       ncg     rms          rms(c)
DAV:   1    -0.138800388072E+03   -0.17499E-08    0.18745E-11   168   0.143E-10    0.219E-10
RMM:   2    -0.138800388071E+03    0.10768E-08    0.00000E+00     1   0.111E-10
 257 F= -.13880039E+03 E0= -.13880991E+03  d E =0.363798E-11
       N       E                     dE             d eps       ncg     rms          rms(c)
DAV:   1    -0.138800388072E+03    0.49113E-09    0.63137E-12   168   0.150E-10    0.221E-10
RMM:   2    -0.138800388071E+03    0.63665E-09    0.00000E+00     1   0.106E-10
 258 F= -.13880039E+03 E0= -.13880991E+03  d E =0.509317E-10
       N       E                     dE             d eps       ncg     rms          rms(c)
DAV:   1    -0.138800388072E+03    0.18190E-09    0.66312E-12   168   0.177E-10    0.152E-10
RMM:   2    -0.138800388071E+03    0.45839E-09    0.00000E+00     1   0.769E-11
 259 F= -.13880039E+03 E0= -.13880991E+03  d E =0.363798E-11
       N       E                     dE             d eps       ncg     rms          rms(c)
DAV:   1    -0.138800388071E+03    0.42928E-09    0.78448E-11   168   0.112E-10    0.241E-10
RMM:   2    -0.138800388071E+03    0.61846E-10    0.00000E+00     1   0.887E-11
 260 F= -.13880039E+03 E0= -.13880991E+03  d E =0.327418E-10
       N       E                     dE             d eps       ncg     rms          rms(c)
DAV:   1    -0.138800388072E+03   -0.26193E-09    0.55051E-11   168   0.150E-10    0.170E-10
RMM:   2    -0.138800388071E+03    0.23283E-09    0.00000E+00     1   0.918E-11
 261 F= -.13880039E+03 E0= -.13880991E+03  d E =-.909495E-10
       N       E                     dE             d eps       ncg     rms          rms(c)
DAV:   1    -0.138800388071E+03    0.58208E-09    0.23828E-11   168   0.194E-10    0.307E-10
RMM:   2    -0.138800388071E+03   -0.19645E-09    0.00000E+00     1   0.125E-10
 262 F= -.13880039E+03 E0= -.13880991E+03  d E =0.152795E-09
       N       E                     dE             d eps       ncg     rms          rms(c)
DAV:   1    -0.138800388072E+03   -0.12733E-08    0.14763E-12   168   0.212E-10    0.166E-10
RMM:   2    -0.138800388071E+03    0.90222E-09    0.00000E+00     1   0.104E-10
 263 F= -.13880039E+03 E0= -.13880991E+03  d E =-.174623E-09
       N       E                     dE             d eps       ncg     rms          rms(c)
DAV:   1    -0.138800388070E+03    0.17426E-08    0.53371E-11   168   0.139E-10    0.345E-10
RMM:   2    -0.138800388071E+03   -0.75670E-09    0.00000E+00     1   0.136E-10
 264 F= -.13880039E+03 E0= -.13880991E+03  d E =0.836735E-10
       N       E                     dE             d eps       ncg     rms          rms(c)
DAV:   1    -0.138800388071E+03   -0.64392E-09   -0.73172E-11   168   0.239E-10    0.266E-10
RMM:   2    -0.138800388071E+03   -0.14552E-09    0.00000E+00     1   0.121E-10
 265 F= -.13880039E+03 E0= -.13880991E+03  d E =-.327418E-10
       N       E                     dE             d eps       ncg     rms          rms(c)
DAV:   1    -0.138800388071E+03    0.38563E-09   -0.15795E-11   168   0.206E-10    0.303E-10
RMM:   2    -0.138800388071E+03   -0.46930E-09    0.00000E+00     1   0.153E-10
 266 F= -.13880039E+03 E0= -.13880991E+03  d E =0.618456E-10
       N       E                     dE             d eps       ncg     rms          rms(c)
DAV:   1    -0.138800388071E+03   -0.73851E-09    0.70186E-11   168   0.296E-10    0.204E-10
RMM:   2    -0.138800388071E+03    0.26921E-09    0.00000E+00     1   0.105E-10
 267 F= -.13880039E+03 E0= -.13880991E+03  d E =0.000000E+00
       N       E                     dE             d eps       ncg     rms          rms(c)
DAV:   1    -0.138800388072E+03   -0.62937E-09   -0.12281E-11   168   0.174E-10    0.259E-10
RMM:   2    -0.138800388071E+03    0.88767E-09    0.00000E+00     1   0.109E-10
 268 F= -.13880039E+03 E0= -.13880991E+03  d E =-.109139E-10
       N       E                     dE             d eps       ncg     rms          rms(c)
DAV:   1    -0.138800388072E+03    0.58571E-09    0.50644E-11   168   0.145E-10    0.261E-10
RMM:   2    -0.138800388071E+03    0.32014E-09    0.00000E+00     1   0.115E-10
 269 F= -.13880039E+03 E0= -.13880991E+03  d E =0.181899E-10
       N       E                     dE             d eps       ncg     rms          rms(c)
DAV:   1    -0.138800388071E+03    0.57480E-09   -0.11112E-10   168   0.272E-10    0.224E-10
RMM:   2    -0.138800388071E+03   -0.33469E-09    0.00000E+00     1   0.123E-10
 270 F= -.13880039E+03 E0= -.13880991E+03  d E =-.800355E-10
       N       E                     dE             d eps       ncg     rms          rms(c)
DAV:   1    -0.138800388071E+03   -0.26193E-09    0.55378E-11   168   0.245E-10    0.345E-10
RMM:   2    -0.138800388071E+03   -0.87311E-10    0.00000E+00     1   0.138E-10
 271 F= -.13880039E+03 E0= -.13880991E+03  d E =-.145519E-10
       N       E                     dE             d eps       ncg     rms          rms(c)
DAV:   1    -0.138800388071E+03    0.40018E-10   -0.18653E-11   168   0.248E-10    0.199E-10
RMM:   2    -0.138800388071E+03   -0.18917E-09    0.00000E+00     1   0.982E-11
 272 F= -.13880039E+03 E0= -.13880991E+03  d E =-.618456E-10
       N       E                     dE             d eps       ncg     rms          rms(c)
DAV:   1    -0.138800388072E+03   -0.60390E-09   -0.21867E-11   168   0.229E-10    0.183E-10
RMM:   2    -0.138800388071E+03    0.60754E-09    0.00000E+00     1   0.117E-10
 273 F= -.13880039E+03 E0= -.13880991E+03  d E =0.192813E-09
       N       E                     dE             d eps       ncg     rms          rms(c)
DAV:   1    -0.138800388072E+03    0.14188E-09   -0.63244E-11   168   0.198E-10    0.326E-10
RMM:   2    -0.138800388071E+03    0.27649E-09    0.00000E+00     1   0.141E-10
 274 F= -.13880039E+03 E0= -.13880991E+03  d E =-.189175E-09
       N       E                     dE             d eps       ncg     rms          rms(c)
DAV:   1    -0.138800388072E+03    0.83674E-10    0.69702E-11   168   0.228E-10    0.277E-10
RMM:   2    -0.138800388071E+03    0.29468E-09    0.00000E+00     1   0.139E-10
 275 F= -.13880039E+03 E0= -.13880991E+03  d E =0.101863E-09
       N       E                     dE             d eps       ncg     rms          rms(c)
DAV:   1    -0.138800388071E+03    0.62209E-09    0.33744E-12   168   0.177E-10    0.228E-10
RMM:   2    -0.138800388071E+03   -0.39654E-09    0.00000E+00     1   0.947E-11
 276 F= -.13880039E+03 E0= -.13880991E+03  d E =-.691216E-10
       N       E                     dE             d eps       ncg     rms          rms(c)
DAV:   1    -0.138800388072E+03   -0.96770E-09    0.46841E-11   168   0.160E-10    0.213E-10
RMM:   2    -0.138800388071E+03    0.58571E-09    0.00000E+00     1   0.111E-10
 277 F= -.13880039E+03 E0= -.13880991E+03  d E =0.145519E-10
       N       E                     dE             d eps       ncg     rms          rms(c)
DAV:   1    -0.138800388072E+03   -0.50932E-10   -0.37633E-11   168   0.218E-10    0.183E-10
RMM:   2    -0.138800388071E+03    0.74215E-09    0.00000E+00     1   0.101E-10
 278 F= -.13880039E+03 E0= -.13880991E+03  d E =0.105501E-09
       N       E                     dE             d eps       ncg     rms          rms(c)
DAV:   1    -0.138800388071E+03    0.51296E-09   -0.71079E-11   168   0.181E-10    0.279E-10
RMM:   2    -0.138800388071E+03    0.13824E-09    0.00000E+00     1   0.144E-10
 279 F= -.13880039E+03 E0= -.13880991E+03  d E =-.909495E-10
       N       E                     dE             d eps       ncg     rms          rms(c)
DAV:   1    -0.138800388072E+03   -0.54570E-09   -0.26139E-11   168   0.285E-10    0.197E-10
RMM:   2    -0.138800388071E+03    0.74215E-09    0.00000E+00     1   0.106E-10
 280 F= -.13880039E+03 E0= -.13880991E+03  d E =0.582077E-10
       N       E                     dE             d eps       ncg     rms          rms(c)
DAV:   1    -0.138800388072E+03   -0.13097E-09    0.39528E-11   168   0.179E-10    0.165E-10
RMM:   2    -0.138800388071E+03    0.77489E-09    0.00000E+00     1   0.100E-10
 281 F= -.13880039E+03 E0= -.13880991E+03  d E =-.982254E-10
       N       E                     dE             d eps       ncg     rms          rms(c)
DAV:   1    -0.138800388072E+03    0.55661E-09   -0.26601E-11   168   0.158E-10    0.204E-10
RMM:   2    -0.138800388071E+03    0.31287E-09    0.00000E+00     1   0.126E-10
 282 F= -.13880039E+03 E0= -.13880991E+03  d E =0.945874E-10
       N       E                     dE             d eps       ncg     rms          rms(c)
DAV:   1    -0.138800388071E+03    0.69849E-09    0.72478E-11   168   0.175E-10    0.224E-10
RMM:   2    -0.138800388071E+03   -0.33833E-09    0.00000E+00     1   0.106E-10
 283 F= -.13880039E+03 E0= -.13880991E+03  d E =0.472937E-10
       N       E                     dE             d eps       ncg     rms          rms(c)
DAV:   1    -0.138800388071E+03   -0.30559E-09   -0.77157E-13   168   0.202E-10    0.179E-10
RMM:   2    -0.138800388071E+03   -0.14916E-09    0.00000E+00     1   0.921E-11
 284 F= -.13880039E+03 E0= -.13880991E+03  d E =-.116415E-09
       N       E                     dE             d eps       ncg     rms          rms(c)
DAV:   1    -0.138800388071E+03    0.47294E-09    0.55195E-11   168   0.112E-10    0.141E-10
RMM:   2    -0.138800388071E+03   -0.68030E-09    0.00000E+00     1   0.101E-10
 285 F= -.13880039E+03 E0= -.13880991E+03  d E =-.582077E-10
       N       E                     dE             d eps       ncg     rms          rms(c)
DAV:   1    -0.138800388071E+03   -0.27285E-09    0.42800E-11   168   0.120E-10    0.291E-10
RMM:   2    -0.138800388071E+03   -0.25102E-09    0.00000E+00     1   0.110E-10
 286 F= -.13880039E+03 E0= -.13880991E+03  d E =0.156433E-09
       N       E                     dE             d eps       ncg     rms          rms(c)
DAV:   1    -0.138800388072E+03   -0.77489E-09   -0.22284E-11   168   0.158E-10    0.283E-10
RMM:   2    -0.138800388071E+03    0.49113E-09    0.00000E+00     1   0.121E-10
 287 F= -.13880039E+03 E0= -.13880991E+03  d E =-.327418E-10
       N       E                     dE             d eps       ncg     rms          rms(c)
DAV:   1    -0.138800388070E+03    0.16953E-08    0.10281E-10   168   0.156E-10    0.212E-10
RMM:   2    -0.138800388071E+03   -0.11860E-08    0.00000E+00     1   0.114E-10
 288 F= -.13880039E+03 E0= -.13880991E+03  d E =0.181899E-10
       N       E                     dE             d eps       ncg     rms          rms(c)
DAV:   1    -0.138800388072E+03   -0.15789E-08    0.48220E-11   168   0.158E-10    0.303E-10
RMM:   2    -0.138800388071E+03    0.43656E-09    0.00000E+00     1   0.122E-10
 289 F= -.13880039E+03 E0= -.13880991E+03  d E =0.436557E-10
       N       E                     dE             d eps       ncg     rms          rms(c)
DAV:   1    -0.138800388070E+03    0.17135E-08    0.52066E-11   168   0.233E-10    0.361E-10
RMM:   2    -0.138800388071E+03   -0.14370E-08    0.00000E+00     1   0.134E-10
 290 F= -.13880039E+03 E0= -.13880991E+03  d E =-.160071E-09
       N       E                     dE             d eps       ncg     rms          rms(c)
DAV:   1    -0.138800388072E+03   -0.22192E-08   -0.10389E-11   168   0.216E-10    0.236E-10
RMM:   2    -0.138800388071E+03    0.82582E-09    0.00000E+00     1   0.132E-10
 291 F= -.13880039E+03 E0= -.13880991E+03  d E =0.436557E-10
       N       E                     dE             d eps       ncg     rms          rms(c)
DAV:   1    -0.138800388073E+03   -0.62209E-09   -0.80875E-12   168   0.155E-10    0.350E-10
RMM:   2    -0.138800388071E+03    0.14952E-08    0.00000E+00     1   0.122E-10
 292 F= -.13880039E+03 E0= -.13880991E+03  d E =0.472937E-10
       N       E                     dE             d eps       ncg     rms          rms(c)
DAV:   1    -0.138800388072E+03    0.55661E-09    0.60046E-13   168   0.254E-10    0.271E-10
RMM:   2    -0.138800388071E+03    0.97862E-09    0.00000E+00     1   0.120E-10
 293 F= -.13880039E+03 E0= -.13880991E+03  d E =0.400178E-10
       N       E                     dE             d eps       ncg     rms          rms(c)
DAV:   1    -0.138800388071E+03    0.82946E-09    0.13485E-10   168   0.159E-10    0.142E-10
RMM:   2    -0.138800388071E+03    0.83674E-10    0.00000E+00     1   0.104E-10
 294 F= -.13880039E+03 E0= -.13880991E+03  d E =-.654836E-10
       N       E                     dE             d eps       ncg     rms          rms(c)
DAV:   1    -0.138800388072E+03   -0.81127E-09    0.63367E-11   168   0.133E-10    0.219E-10
RMM:   2    -0.138800388071E+03    0.81855E-09    0.00000E+00     1   0.109E-10
 295 F= -.13880039E+03 E0= -.13880991E+03  d E =-.763976E-10
       N       E                     dE             d eps       ncg     rms          rms(c)
DAV:   1    -0.138800388071E+03    0.10550E-08    0.62109E-11   168   0.165E-10    0.281E-10
RMM:   2    -0.138800388071E+03   -0.17826E-09    0.00000E+00     1   0.116E-10
 296 F= -.13880039E+03 E0= -.13880991E+03  d E =0.582077E-10
       N       E                     dE             d eps       ncg     rms          rms(c)
DAV:   1    -0.138800388070E+03    0.76761E-09   -0.14682E-11   168   0.192E-10    0.304E-10
RMM:   2    -0.138800388071E+03   -0.95315E-09    0.00000E+00     1   0.109E-10
 297 F= -.13880039E+03 E0= -.13880991E+03  d E =-.727596E-11
       N       E                     dE             d eps       ncg     rms          rms(c)
DAV:   1    -0.138800388072E+03   -0.13570E-08   -0.10185E-10   168   0.264E-10    0.220E-10
RMM:   2    -0.138800388071E+03    0.48749E-09    0.00000E+00     1   0.132E-10
 298 F= -.13880039E+03 E0= -.13880991E+03  d E =0.836735E-10
       N       E                     dE             d eps       ncg     rms          rms(c)
DAV:   1    -0.138800388071E+03    0.87675E-09    0.66040E-11   168   0.223E-10    0.124E-10
RMM:   2    -0.138800388071E+03   -0.51296E-09    0.00000E+00     1   0.107E-10
 299 F= -.13880039E+03 E0= -.13880991E+03  d E =-.123691E-09
       N       E                     dE             d eps       ncg     rms          rms(c)
DAV:   1    -0.138800388071E+03   -0.50204E-09    0.23003E-11   168   0.140E-10    0.171E-10
RMM:   2    -0.138800388071E+03    0.36380E-11    0.00000E+00     1   0.964E-11
 300 F= -.13880039E+03 E0= -.13880991E+03  d E =0.145519E-10
