LAMMPS data file. CGCMM style. atom_style full generated by VMD/TopoTools v1.8 on Sat May 03 08:09:27 EDT 2025
 2106 atoms
 1803 bonds
 2210 angles
 2361 dihedrals
 0 impropers
 13 atom types
 1 bond types
 110 angle types
 230 dihedral types
 0 improper types
 -150.000000 150.000000  xlo xhi
 -150.000000 150.000000  ylo yhi
 -6.219000 6.281000  zlo zhi

# Pair Coeffs
#
# 1  CL
# 2  CR
# 3  H
# 4  H1
# 5  H2
# 6  Mo
# 7  NA
# 8  O
# 9  O1
# 10  O2
# 11  O3
# 12  O4
# 13  S

# Bond Coeffs
#
# 1  

# Angle Coeffs
#
# 1  CL-H-O1
# 2  CL-H1-O
# 3  CL-H2-O
# 4  CL-Mo-S
# 5  CL-NA-H1
# 6  CL-NA-O
# 7  CL-O-H1
# 8  CL-O-H2
# 9  CL-O-O
# 10  CL-O1-CR
# 11  CL-O1-H
# 12  CL-S-Mo
# 13  CR-O1-H
# 14  CR-O2-H1
# 15  CR-O2-H2
# 16  CR-O2-NA
# 17  CR-O2-O
# 18  CR-O3-H2
# 19  CR-O3-O
# 20  CR-O4-H2
# 21  H-CL-H2
# 22  H-CL-O
# 23  H-CL-O1
# 24  H1-CL-H1
# 25  H1-CL-O
# 26  H1-Mo-H2
# 27  H1-Mo-O
# 28  H1-Mo-S
# 29  H1-NA-H1
# 30  H1-NA-H2
# 31  H1-NA-NA
# 32  H1-NA-O
# 33  H1-NA-O2
# 34  H1-O-H1
# 35  H1-O-H2
# 36  H1-O-Mo
# 37  H1-O-NA
# 38  H1-O-O
# 39  H1-O-O2
# 40  H1-O-O3
# 41  H1-O-S
# 42  H1-O2-H2
# 43  H1-O2-NA
# 44  H1-O2-O
# 45  H1-S-Mo
# 46  H1-S-O
# 47  H2-CL-H2
# 48  H2-CL-Mo
# 49  H2-CL-NA
# 50  H2-CL-O
# 51  H2-CL-O1
# 52  H2-CL-S
# 53  H2-Mo-O
# 54  H2-Mo-S
# 55  H2-NA-NA
# 56  H2-NA-O
# 57  H2-O-H2
# 58  H2-O-Mo
# 59  H2-O-NA
# 60  H2-O-O
# 61  H2-O-O2
# 62  H2-O-O3
# 63  H2-O-S
# 64  H2-O2-NA
# 65  H2-O2-O
# 66  H2-O3-O
# 67  H2-S-Mo
# 68  H2-S-O
# 69  Mo-CL-S
# 70  Mo-H1-O
# 71  Mo-H2-O
# 72  Mo-H2-S
# 73  Mo-O-Mo
# 74  Mo-O-S
# 75  Mo-S-Mo
# 76  Mo-S-NA
# 77  Mo-S-O
# 78  NA-CL-O
# 79  NA-H1-O
# 80  NA-H2-O
# 81  NA-NA-O
# 82  NA-O-NA
# 83  NA-O-O
# 84  NA-O-O2
# 85  NA-O2-O
# 86  O-CL-O
# 87  O-CL-O1
# 88  O-H1-O
# 89  O-H1-O2
# 90  O-H1-S
# 91  O-H2-O
# 92  O-H2-O2
# 93  O-H2-O3
# 94  O-H2-O4
# 95  O-H2-S
# 96  O-Mo-S
# 97  O-NA-O
# 98  O-NA-O2
# 99  O-O-O
# 100  O-O2-O
# 101  O1-CR-O2
# 102  O1-CR-O3
# 103  O1-CR-O4
# 104  O2-CR-O3
# 105  O2-CR-O4
# 106  O3-CR-O4
# 107  S-H1-S
# 108  S-H2-S
# 109  S-Mo-S
# 110  S-O-S

# Dihedral Coeffs
#
# 1  CL-H-O1-CR
# 2  CL-H1-O-H1
# 3  CL-H1-O-H2
# 4  CL-H1-O-O
# 5  CL-H2-O-H1
# 6  CL-H2-O-H2
# 7  CL-H2-O-NA
# 8  CL-H2-O-O
# 9  CL-H2-O-S
# 10  CL-Mo-S-Mo
# 11  CL-NA-O-H1
# 12  CL-NA-O-H2
# 13  CL-NA-O-NA
# 14  CL-O-O-H1
# 15  CL-O-O-H2
# 16  H-CL-H2-O
# 17  H-CL-O-H1
# 18  H-CL-O-H2
# 19  H-CL-O-O
# 20  H-CL-O1-CR
# 21  H1-CL-H1-O
# 22  H1-CL-O-H1
# 23  H1-CL-O-H2
# 24  H1-Mo-O-H2
# 25  H1-Mo-S-H2
# 26  H1-Mo-S-Mo
# 27  H1-NA-NA-H1
# 28  H1-NA-NA-H2
# 29  H1-NA-NA-O
# 30  H1-NA-O-H1
# 31  H1-NA-O-H2
# 32  H1-NA-O-NA
# 33  H1-NA-O-O2
# 34  H1-NA-O2-CR
# 35  H1-NA-O2-H1
# 36  H1-NA-O2-H2
# 37  H1-NA-O2-O
# 38  H1-O-O-H1
# 39  H1-O-O-H2
# 40  H1-O-O-NA
# 41  H1-O-O-O
# 42  H1-O-O2-CR
# 43  H1-O-O2-H1
# 44  H1-O-O2-H2
# 45  H1-O-O2-NA
# 46  H1-O-O2-O
# 47  H1-O-O3-CR
# 48  H1-O-O3-H2
# 49  H1-O-S-H2
# 50  H1-O-S-Mo
# 51  H2-CL-H-O1
# 52  H2-CL-H2-O
# 53  H2-CL-Mo-S
# 54  H2-CL-NA-H1
# 55  H2-CL-NA-O
# 56  H2-CL-O-H1
# 57  H2-CL-O-H2
# 58  H2-CL-O-O
# 59  H2-CL-O1-CR
# 60  H2-CL-O1-H
# 61  H2-CL-S-Mo
# 62  H2-Mo-O-H1
# 63  H2-Mo-O-Mo
# 64  H2-Mo-O-S
# 65  H2-Mo-S-Mo
# 66  H2-Mo-S-O
# 67  H2-NA-NA-H2
# 68  H2-NA-NA-O
# 69  H2-NA-O-H1
# 70  H2-NA-O-H2
# 71  H2-NA-O-NA
# 72  H2-NA-O-O
# 73  H2-O-O-H2
# 74  H2-O-O-NA
# 75  H2-O-O-O
# 76  H2-O-O2-CR
# 77  H2-O-O2-H1
# 78  H2-O-O2-H2
# 79  H2-O-O2-NA
# 80  H2-O-O2-O
# 81  H2-O-O3-CR
# 82  H2-O-S-H1
# 83  H2-O-S-Mo
# 84  Mo-CL-H2-O
# 85  Mo-H1-O-H2
# 86  Mo-H2-O-H1
# 87  Mo-H2-O-H2
# 88  Mo-H2-O-Mo
# 89  Mo-H2-O-S
# 90  Mo-H2-S-Mo
# 91  Mo-H2-S-O
# 92  Mo-O-S-H1
# 93  Mo-O-S-H2
# 94  Mo-O-S-Mo
# 95  NA-CL-H2-O
# 96  NA-CL-O-H1
# 97  NA-CL-O-H2
# 98  NA-CL-O-O
# 99  NA-H1-O-CL
# 100  NA-H1-O-H1
# 101  NA-H1-O-H2
# 102  NA-H1-O-NA
# 103  NA-H2-O-H1
# 104  NA-H2-O-H2
# 105  NA-H2-O-O
# 106  NA-NA-O-H1
# 107  NA-NA-O-H2
# 108  NA-NA-O-NA
# 109  NA-O-O2-CR
# 110  NA-O-O2-H1
# 111  NA-O-O2-H2
# 112  NA-O-O2-O
# 113  O-CL-H-O1
# 114  O-CL-H1-O
# 115  O-CL-H2-O
# 116  O-CL-NA-H1
# 117  O-CL-NA-O
# 118  O-CL-O-H1
# 119  O-CL-O-H2
# 120  O-CL-O1-CR
# 121  O-CL-O1-H
# 122  O-H1-Mo-H2
# 123  O-H1-Mo-S
# 124  O-H1-NA-CL
# 125  O-H1-NA-H1
# 126  O-H1-NA-H2
# 127  O-H1-NA-NA
# 128  O-H1-NA-O
# 129  O-H1-NA-O2
# 130  O-H1-O-CL
# 131  O-H1-O-H1
# 132  O-H1-O-H2
# 133  O-H1-O-NA
# 134  O-H1-O-O
# 135  O-H1-O2-CR
# 136  O-H1-O2-H2
# 137  O-H1-O2-NA
# 138  O-H1-O2-O
# 139  O-H1-S-Mo
# 140  O-H2-Mo-H1
# 141  O-H2-Mo-S
# 142  O-H2-NA-H1
# 143  O-H2-NA-NA
# 144  O-H2-NA-O
# 145  O-H2-O-CL
# 146  O-H2-O-H1
# 147  O-H2-O-H2
# 148  O-H2-O-Mo
# 149  O-H2-O-NA
# 150  O-H2-O-O
# 151  O-H2-O-S
# 152  O-H2-O2-CR
# 153  O-H2-O2-H1
# 154  O-H2-O2-NA
# 155  O-H2-O2-O
# 156  O-H2-O3-CR
# 157  O-H2-O4-CR
# 158  O-H2-S-Mo
# 159  O-Mo-S-H1
# 160  O-Mo-S-H2
# 161  O-Mo-S-Mo
# 162  O-NA-O-H1
# 163  O-NA-O-H2
# 164  O-NA-O2-CR
# 165  O-NA-O2-H1
# 166  O-NA-O2-H2
# 167  O-NA-O2-O
# 168  O1-CL-H2-O
# 169  O1-CL-O-H1
# 170  O1-CL-O-H2
# 171  O1-CL-O-O
# 172  O1-CR-O2-H1
# 173  O1-CR-O2-H2
# 174  O1-CR-O2-NA
# 175  O1-CR-O2-O
# 176  O1-CR-O3-H2
# 177  O1-CR-O3-O
# 178  O1-CR-O4-H2
# 179  O2-CR-O1-CL
# 180  O2-CR-O1-H
# 181  O2-CR-O3-H2
# 182  O2-CR-O3-O
# 183  O2-CR-O4-H2
# 184  O2-H1-O-H2
# 185  O2-H2-O-H1
# 186  O2-H2-O-NA
# 187  O2-NA-O-H1
# 188  O2-NA-O-H2
# 189  O3-CR-O1-CL
# 190  O3-CR-O1-H
# 191  O3-CR-O2-H1
# 192  O3-CR-O2-H2
# 193  O3-CR-O2-NA
# 194  O3-CR-O2-O
# 195  O3-CR-O4-H2
# 196  O3-H2-O-H1
# 197  O4-CR-O1-CL
# 198  O4-CR-O1-H
# 199  O4-CR-O2-H1
# 200  O4-CR-O2-H2
# 201  O4-CR-O2-NA
# 202  O4-CR-O2-O
# 203  O4-CR-O3-H2
# 204  O4-CR-O3-O
# 205  O4-H2-O-H1
# 206  O4-H2-O-H2
# 207  O4-H2-O-O
# 208  S-CL-H2-O
# 209  S-CL-Mo-S
# 210  S-H1-O-H2
# 211  S-H1-O-Mo
# 212  S-H1-S-Mo
# 213  S-H2-Mo-S
# 214  S-H2-O-H1
# 215  S-H2-O-Mo
# 216  S-H2-O-S
# 217  S-H2-S-Mo
# 218  S-H2-S-O
# 219  S-Mo-O-H1
# 220  S-Mo-O-H2
# 221  S-Mo-O-Mo
# 222  S-Mo-O-S
# 223  S-Mo-S-CL
# 224  S-Mo-S-H1
# 225  S-Mo-S-H2
# 226  S-Mo-S-Mo
# 227  S-Mo-S-NA
# 228  S-Mo-S-O
# 229  S-O-S-H2
# 230  S-O-S-Mo

 Masses

 1 35.452999 # CL
 2 12.011000 # CR
 3 1.008000 # H
 4 1.008000 # H1
 5 1.008000 # H2
 6 95.940002 # Mo
 7 22.989771 # NA
 8 15.999000 # O
 9 15.999000 # O1
 10 15.999000 # O2
 11 15.999000 # O3
 12 15.999000 # O4
 13 32.064999 # S

 Atoms # full

1 1 6 0.000000 20.162001 0.000000 -3.130000 # Mo MOL
2 1 13 0.000000 20.141001 0.918000 -1.565000 # S MOL
3 1 13 0.000000 20.141001 0.918000 -4.695000 # S MOL
4 1 6 0.000000 20.162001 0.000000 0.000000 # Mo MOL
5 1 13 0.000000 20.141001 0.918000 1.565000 # S MOL
6 1 13 0.000000 20.141001 0.918000 -1.565000 # S MOL
7 1 6 0.000000 20.162001 0.000000 3.130000 # Mo MOL
8 1 13 0.000000 20.141001 0.918000 4.695000 # S MOL
9 1 13 0.000000 20.141001 0.918000 1.565000 # S MOL
10 1 6 0.000000 19.974001 2.745000 -3.130000 # Mo MOL
11 1 13 0.000000 19.829000 3.652000 -1.565000 # S MOL
12 1 13 0.000000 19.829000 3.652000 -4.695000 # S MOL
13 1 6 0.000000 19.974001 2.745000 0.000000 # Mo MOL
14 1 13 0.000000 19.829000 3.652000 1.565000 # S MOL
15 1 13 0.000000 19.829000 3.652000 -1.565000 # S MOL
16 1 6 0.000000 19.974001 2.745000 3.130000 # Mo MOL
17 1 13 0.000000 19.829000 3.652000 4.695000 # S MOL
18 1 13 0.000000 19.829000 3.652000 1.565000 # S MOL
19 1 6 0.000000 19.414000 5.440000 -3.130000 # Mo MOL
20 1 13 0.000000 19.146999 6.318000 -1.565000 # S MOL
21 1 13 0.000000 19.146999 6.318000 -4.695000 # S MOL
22 1 6 0.000000 19.414000 5.440000 0.000000 # Mo MOL
23 1 13 0.000000 19.146999 6.318000 1.565000 # S MOL
24 1 13 0.000000 19.146999 6.318000 -1.565000 # S MOL
25 1 6 0.000000 19.414000 5.440000 3.130000 # Mo MOL
26 1 13 0.000000 19.146999 6.318000 4.695000 # S MOL
27 1 13 0.000000 19.146999 6.318000 1.565000 # S MOL
28 1 6 0.000000 18.493000 8.033000 -3.130000 # Mo MOL
29 1 13 0.000000 18.108000 8.866000 -1.565000 # S MOL
30 1 13 0.000000 18.108000 8.866000 -4.695000 # S MOL
31 1 6 0.000000 18.493000 8.033000 0.000000 # Mo MOL
32 1 13 0.000000 18.108000 8.866000 1.565000 # S MOL
33 1 13 0.000000 18.108000 8.866000 -1.565000 # S MOL
34 1 6 0.000000 18.493000 8.033000 3.130000 # Mo MOL
35 1 13 0.000000 18.108000 8.866000 4.695000 # S MOL
36 1 13 0.000000 18.108000 8.866000 1.565000 # S MOL
37 1 6 0.000000 17.226999 10.476000 -3.130000 # Mo MOL
38 1 13 0.000000 16.732000 11.249000 -1.565000 # S MOL
39 1 13 0.000000 16.732000 11.249000 -4.695000 # S MOL
40 1 6 0.000000 17.226999 10.476000 0.000000 # Mo MOL
41 1 13 0.000000 16.732000 11.249000 1.565000 # S MOL
42 1 13 0.000000 16.732000 11.249000 -1.565000 # S MOL
43 1 6 0.000000 17.226999 10.476000 3.130000 # Mo MOL
44 1 13 0.000000 16.732000 11.249000 4.695000 # S MOL
45 1 13 0.000000 16.732000 11.249000 1.565000 # S MOL
46 1 6 0.000000 15.640000 12.724000 -3.130000 # Mo MOL
47 1 13 0.000000 15.045000 13.423000 -1.565000 # S MOL
48 1 13 0.000000 15.045000 13.423000 -4.695000 # S MOL
49 1 6 0.000000 15.640000 12.724000 0.000000 # Mo MOL
50 1 13 0.000000 15.045000 13.423000 1.565000 # S MOL
51 1 13 0.000000 15.045000 13.423000 -1.565000 # S MOL
52 1 6 0.000000 15.640000 12.724000 3.130000 # Mo MOL
53 1 13 0.000000 15.045000 13.423000 4.695000 # S MOL
54 1 13 0.000000 15.045000 13.423000 1.565000 # S MOL
55 1 6 0.000000 13.762000 14.735000 -3.130000 # Mo MOL
56 1 13 0.000000 13.077000 15.346000 -1.565000 # S MOL
57 1 13 0.000000 13.077000 15.346000 -4.695000 # S MOL
58 1 6 0.000000 13.762000 14.735000 0.000000 # Mo MOL
59 1 13 0.000000 13.077000 15.346000 1.565000 # S MOL
60 1 13 0.000000 13.077000 15.346000 -1.565000 # S MOL
61 1 6 0.000000 13.762000 14.735000 3.130000 # Mo MOL
62 1 13 0.000000 13.077000 15.346000 4.695000 # S MOL
63 1 13 0.000000 13.077000 15.346000 1.565000 # S MOL
64 1 6 0.000000 11.627000 16.472000 -3.130000 # Mo MOL
65 1 13 0.000000 10.865000 16.983999 -1.565000 # S MOL
66 1 13 0.000000 10.865000 16.983999 -4.695000 # S MOL
67 1 6 0.000000 11.627000 16.472000 0.000000 # Mo MOL
68 1 13 0.000000 10.865000 16.983999 1.565000 # S MOL
69 1 13 0.000000 10.865000 16.983999 -1.565000 # S MOL
70 1 6 0.000000 11.627000 16.472000 3.130000 # Mo MOL
71 1 13 0.000000 10.865000 16.983999 4.695000 # S MOL
72 1 13 0.000000 10.865000 16.983999 1.565000 # S MOL
73 1 6 0.000000 9.276000 17.902000 -3.130000 # Mo MOL
74 1 13 0.000000 8.451000 18.305000 -1.565000 # S MOL
75 1 13 0.000000 8.451000 18.305000 -4.695000 # S MOL
76 1 6 0.000000 9.276000 17.902000 0.000000 # Mo MOL
77 1 13 0.000000 8.451000 18.305000 1.565000 # S MOL
78 1 13 0.000000 8.451000 18.305000 -1.565000 # S MOL
79 1 6 0.000000 9.276000 17.902000 3.130000 # Mo MOL
80 1 13 0.000000 8.451000 18.305000 4.695000 # S MOL
81 1 13 0.000000 8.451000 18.305000 1.565000 # S MOL
82 1 6 0.000000 6.752000 18.997999 -3.130000 # Mo MOL
83 1 13 0.000000 5.880000 19.285999 -1.565000 # S MOL
84 1 13 0.000000 5.880000 19.285999 -4.695000 # S MOL
85 1 6 0.000000 6.752000 18.997999 0.000000 # Mo MOL
86 1 13 0.000000 5.880000 19.285999 1.565000 # S MOL
87 1 13 0.000000 5.880000 19.285999 -1.565000 # S MOL
88 1 6 0.000000 6.752000 18.997999 3.130000 # Mo MOL
89 1 13 0.000000 5.880000 19.285999 4.695000 # S MOL
90 1 13 0.000000 5.880000 19.285999 1.565000 # S MOL
91 1 6 0.000000 4.102000 19.740000 -3.130000 # Mo MOL
92 1 13 0.000000 3.199000 19.907000 -1.565000 # S MOL
93 1 13 0.000000 3.199000 19.907000 -4.695000 # S MOL
94 1 6 0.000000 4.102000 19.740000 0.000000 # Mo MOL
95 1 13 0.000000 3.199000 19.907000 1.565000 # S MOL
96 1 13 0.000000 3.199000 19.907000 -1.565000 # S MOL
97 1 6 0.000000 4.102000 19.740000 3.130000 # Mo MOL
98 1 13 0.000000 3.199000 19.907000 4.695000 # S MOL
99 1 13 0.000000 3.199000 19.907000 1.565000 # S MOL
100 1 6 0.000000 1.376000 20.115000 -3.130000 # Mo MOL
101 1 13 0.000000 0.459000 20.157000 -1.565000 # S MOL
102 1 13 0.000000 0.459000 20.157000 -4.695000 # S MOL
103 1 6 0.000000 1.376000 20.115000 0.000000 # Mo MOL
104 1 13 0.000000 0.459000 20.157000 1.565000 # S MOL
105 1 13 0.000000 0.459000 20.157000 -1.565000 # S MOL
106 1 6 0.000000 1.376000 20.115000 3.130000 # Mo MOL
107 1 13 0.000000 0.459000 20.157000 4.695000 # S MOL
108 1 13 0.000000 0.459000 20.157000 1.565000 # S MOL
109 1 6 0.000000 -1.376000 20.115000 -3.130000 # Mo MOL
110 1 13 0.000000 -2.290000 20.032000 -1.565000 # S MOL
111 1 13 0.000000 -2.290000 20.032000 -4.695000 # S MOL
112 1 6 0.000000 -1.376000 20.115000 0.000000 # Mo MOL
113 1 13 0.000000 -2.290000 20.032000 1.565000 # S MOL
114 1 13 0.000000 -2.290000 20.032000 -1.565000 # S MOL
115 1 6 0.000000 -1.376000 20.115000 3.130000 # Mo MOL
116 1 13 0.000000 -2.290000 20.032000 4.695000 # S MOL
117 1 13 0.000000 -2.290000 20.032000 1.565000 # S MOL
118 1 6 0.000000 -4.102000 19.740000 -3.130000 # Mo MOL
119 1 13 0.000000 -4.996000 19.533001 -1.565000 # S MOL
120 1 13 0.000000 -4.996000 19.533001 -4.695000 # S MOL
121 1 6 0.000000 -4.102000 19.740000 0.000000 # Mo MOL
122 1 13 0.000000 -4.996000 19.533001 1.565000 # S MOL
123 1 13 0.000000 -4.996000 19.533001 -1.565000 # S MOL
124 1 6 0.000000 -4.102000 19.740000 3.130000 # Mo MOL
125 1 13 0.000000 -4.996000 19.533001 4.695000 # S MOL
126 1 13 0.000000 -4.996000 19.533001 1.565000 # S MOL
127 1 6 0.000000 -6.752000 18.997999 -3.130000 # Mo MOL
128 1 13 0.000000 -7.610000 18.671000 -1.565000 # S MOL
129 1 13 0.000000 -7.610000 18.671000 -4.695000 # S MOL
130 1 6 0.000000 -6.752000 18.997999 0.000000 # Mo MOL
131 1 13 0.000000 -7.610000 18.671000 1.565000 # S MOL
132 1 13 0.000000 -7.610000 18.671000 -1.565000 # S MOL
133 1 6 0.000000 -6.752000 18.997999 3.130000 # Mo MOL
134 1 13 0.000000 -7.610000 18.671000 4.695000 # S MOL
135 1 13 0.000000 -7.610000 18.671000 1.565000 # S MOL
136 1 6 0.000000 -9.276000 17.902000 -3.130000 # Mo MOL
137 1 13 0.000000 -10.081000 17.461000 -1.565000 # S MOL
138 1 13 0.000000 -10.081000 17.461000 -4.695000 # S MOL
139 1 6 0.000000 -9.276000 17.902000 0.000000 # Mo MOL
140 1 13 0.000000 -10.081000 17.461000 1.565000 # S MOL
141 1 13 0.000000 -10.081000 17.461000 -1.565000 # S MOL
142 1 6 0.000000 -9.276000 17.902000 3.130000 # Mo MOL
143 1 13 0.000000 -10.081000 17.461000 4.695000 # S MOL
144 1 13 0.000000 -10.081000 17.461000 1.565000 # S MOL
145 1 6 0.000000 -11.627000 16.472000 -3.130000 # Mo MOL
146 1 13 0.000000 -12.365000 15.926000 -1.565000 # S MOL
147 1 13 0.000000 -12.365000 15.926000 -4.695000 # S MOL
148 1 6 0.000000 -11.627000 16.472000 0.000000 # Mo MOL
149 1 13 0.000000 -12.365000 15.926000 1.565000 # S MOL
150 1 13 0.000000 -12.365000 15.926000 -1.565000 # S MOL
151 1 6 0.000000 -11.627000 16.472000 3.130000 # Mo MOL
152 1 13 0.000000 -12.365000 15.926000 4.695000 # S MOL
153 1 13 0.000000 -12.365000 15.926000 1.565000 # S MOL
154 1 6 0.000000 -13.762000 14.735000 -3.130000 # Mo MOL
155 1 13 0.000000 -14.418000 14.094000 -1.565000 # S MOL
156 1 13 0.000000 -14.418000 14.094000 -4.695000 # S MOL
157 1 6 0.000000 -13.762000 14.735000 0.000000 # Mo MOL
158 1 13 0.000000 -14.418000 14.094000 1.565000 # S MOL
159 1 13 0.000000 -14.418000 14.094000 -1.565000 # S MOL
160 1 6 0.000000 -13.762000 14.735000 3.130000 # Mo MOL
161 1 13 0.000000 -14.418000 14.094000 4.695000 # S MOL
162 1 13 0.000000 -14.418000 14.094000 1.565000 # S MOL
163 1 6 0.000000 -15.640000 12.724000 -3.130000 # Mo MOL
164 1 13 0.000000 -16.202999 11.999000 -1.565000 # S MOL
165 1 13 0.000000 -16.202999 11.999000 -4.695000 # S MOL
166 1 6 0.000000 -15.640000 12.724000 0.000000 # Mo MOL
167 1 13 0.000000 -16.202999 11.999000 1.565000 # S MOL
168 1 13 0.000000 -16.202999 11.999000 -1.565000 # S MOL
169 1 6 0.000000 -15.640000 12.724000 3.130000 # Mo MOL
170 1 13 0.000000 -16.202999 11.999000 4.695000 # S MOL
171 1 13 0.000000 -16.202999 11.999000 1.565000 # S MOL
172 1 6 0.000000 -17.226999 10.476000 -3.130000 # Mo MOL
173 1 13 0.000000 -17.686001 9.681000 -1.565000 # S MOL
174 1 13 0.000000 -17.686001 9.681000 -4.695000 # S MOL
175 1 6 0.000000 -17.226999 10.476000 0.000000 # Mo MOL
176 1 13 0.000000 -17.686001 9.681000 1.565000 # S MOL
177 1 13 0.000000 -17.686001 9.681000 -1.565000 # S MOL
178 1 6 0.000000 -17.226999 10.476000 3.130000 # Mo MOL
179 1 13 0.000000 -17.686001 9.681000 4.695000 # S MOL
180 1 13 0.000000 -17.686001 9.681000 1.565000 # S MOL
181 1 6 0.000000 -18.493000 8.033000 -3.130000 # Mo MOL
182 1 13 0.000000 -18.839001 7.183000 -1.565000 # S MOL
183 1 13 0.000000 -18.839001 7.183000 -4.695000 # S MOL
184 1 6 0.000000 -18.493000 8.033000 0.000000 # Mo MOL
185 1 13 0.000000 -18.839001 7.183000 1.565000 # S MOL
186 1 13 0.000000 -18.839001 7.183000 -1.565000 # S MOL
187 1 6 0.000000 -18.493000 8.033000 3.130000 # Mo MOL
188 1 13 0.000000 -18.839001 7.183000 4.695000 # S MOL
189 1 13 0.000000 -18.839001 7.183000 1.565000 # S MOL
190 1 6 0.000000 -19.414000 5.440000 -3.130000 # Mo MOL
191 1 13 0.000000 -19.642000 4.550000 -1.565000 # S MOL
192 1 13 0.000000 -19.642000 4.550000 -4.695000 # S MOL
193 1 6 0.000000 -19.414000 5.440000 0.000000 # Mo MOL
194 1 13 0.000000 -19.642000 4.550000 1.565000 # S MOL
195 1 13 0.000000 -19.642000 4.550000 -1.565000 # S MOL
196 1 6 0.000000 -19.414000 5.440000 3.130000 # Mo MOL
197 1 13 0.000000 -19.642000 4.550000 4.695000 # S MOL
198 1 13 0.000000 -19.642000 4.550000 1.565000 # S MOL
199 1 6 0.000000 -19.974001 2.745000 -3.130000 # Mo MOL
200 1 13 0.000000 -20.079000 1.833000 -1.565000 # S MOL
201 1 13 0.000000 -20.079000 1.833000 -4.695000 # S MOL
202 1 6 0.000000 -19.974001 2.745000 0.000000 # Mo MOL
203 1 13 0.000000 -20.079000 1.833000 1.565000 # S MOL
204 1 13 0.000000 -20.079000 1.833000 -1.565000 # S MOL
205 1 6 0.000000 -19.974001 2.745000 3.130000 # Mo MOL
206 1 13 0.000000 -20.079000 1.833000 4.695000 # S MOL
207 1 13 0.000000 -20.079000 1.833000 1.565000 # S MOL
208 1 6 0.000000 -20.162001 0.000000 -3.130000 # Mo MOL
209 1 13 0.000000 -20.141001 -0.918000 -1.565000 # S MOL
210 1 13 0.000000 -20.141001 -0.918000 -4.695000 # S MOL
211 1 6 0.000000 -20.162001 0.000000 0.000000 # Mo MOL
212 1 13 0.000000 -20.141001 -0.918000 1.565000 # S MOL
213 1 13 0.000000 -20.141001 -0.918000 -1.565000 # S MOL
214 1 6 0.000000 -20.162001 0.000000 3.130000 # Mo MOL
215 1 13 0.000000 -20.141001 -0.918000 4.695000 # S MOL
216 1 13 0.000000 -20.141001 -0.918000 1.565000 # S MOL
217 1 6 0.000000 -19.974001 -2.745000 -3.130000 # Mo MOL
218 1 13 0.000000 -19.829000 -3.652000 -1.565000 # S MOL
219 1 13 0.000000 -19.829000 -3.652000 -4.695000 # S MOL
220 1 6 0.000000 -19.974001 -2.745000 0.000000 # Mo MOL
221 1 13 0.000000 -19.829000 -3.652000 1.565000 # S MOL
222 1 13 0.000000 -19.829000 -3.652000 -1.565000 # S MOL
223 1 6 0.000000 -19.974001 -2.745000 3.130000 # Mo MOL
224 1 13 0.000000 -19.829000 -3.652000 4.695000 # S MOL
225 1 13 0.000000 -19.829000 -3.652000 1.565000 # S MOL
226 1 6 0.000000 -19.414000 -5.440000 -3.130000 # Mo MOL
227 1 13 0.000000 -19.146999 -6.318000 -1.565000 # S MOL
228 1 13 0.000000 -19.146999 -6.318000 -4.695000 # S MOL
229 1 6 0.000000 -19.414000 -5.440000 0.000000 # Mo MOL
230 1 13 0.000000 -19.146999 -6.318000 1.565000 # S MOL
231 1 13 0.000000 -19.146999 -6.318000 -1.565000 # S MOL
232 1 6 0.000000 -19.414000 -5.440000 3.130000 # Mo MOL
233 1 13 0.000000 -19.146999 -6.318000 4.695000 # S MOL
234 1 13 0.000000 -19.146999 -6.318000 1.565000 # S MOL
235 1 6 0.000000 -18.493000 -8.033000 -3.130000 # Mo MOL
236 1 13 0.000000 -18.108000 -8.866000 -1.565000 # S MOL
237 1 13 0.000000 -18.108000 -8.866000 -4.695000 # S MOL
238 1 6 0.000000 -18.493000 -8.033000 0.000000 # Mo MOL
239 1 13 0.000000 -18.108000 -8.866000 1.565000 # S MOL
240 1 13 0.000000 -18.108000 -8.866000 -1.565000 # S MOL
241 1 6 0.000000 -18.493000 -8.033000 3.130000 # Mo MOL
242 1 13 0.000000 -18.108000 -8.866000 4.695000 # S MOL
243 1 13 0.000000 -18.108000 -8.866000 1.565000 # S MOL
244 1 6 0.000000 -17.226999 -10.476000 -3.130000 # Mo MOL
245 1 13 0.000000 -16.732000 -11.249000 -1.565000 # S MOL
246 1 13 0.000000 -16.732000 -11.249000 -4.695000 # S MOL
247 1 6 0.000000 -17.226999 -10.476000 0.000000 # Mo MOL
248 1 13 0.000000 -16.732000 -11.249000 1.565000 # S MOL
249 1 13 0.000000 -16.732000 -11.249000 -1.565000 # S MOL
250 1 6 0.000000 -17.226999 -10.476000 3.130000 # Mo MOL
251 1 13 0.000000 -16.732000 -11.249000 4.695000 # S MOL
252 1 13 0.000000 -16.732000 -11.249000 1.565000 # S MOL
253 1 6 0.000000 -15.640000 -12.724000 -3.130000 # Mo MOL
254 1 13 0.000000 -15.045000 -13.423000 -1.565000 # S MOL
255 1 13 0.000000 -15.045000 -13.423000 -4.695000 # S MOL
256 1 6 0.000000 -15.640000 -12.724000 0.000000 # Mo MOL
257 1 13 0.000000 -15.045000 -13.423000 1.565000 # S MOL
258 1 13 0.000000 -15.045000 -13.423000 -1.565000 # S MOL
259 1 6 0.000000 -15.640000 -12.724000 3.130000 # Mo MOL
260 1 13 0.000000 -15.045000 -13.423000 4.695000 # S MOL
261 1 13 0.000000 -15.045000 -13.423000 1.565000 # S MOL
262 1 6 0.000000 -13.762000 -14.735000 -3.130000 # Mo MOL
263 1 13 0.000000 -13.077000 -15.346000 -1.565000 # S MOL
264 1 13 0.000000 -13.077000 -15.346000 -4.695000 # S MOL
265 1 6 0.000000 -13.762000 -14.735000 0.000000 # Mo MOL
266 1 13 0.000000 -13.077000 -15.346000 1.565000 # S MOL
267 1 13 0.000000 -13.077000 -15.346000 -1.565000 # S MOL
268 1 6 0.000000 -13.762000 -14.735000 3.130000 # Mo MOL
269 1 13 0.000000 -13.077000 -15.346000 4.695000 # S MOL
270 1 13 0.000000 -13.077000 -15.346000 1.565000 # S MOL
271 1 6 0.000000 -11.627000 -16.472000 -3.130000 # Mo MOL
272 1 13 0.000000 -10.865000 -16.983999 -1.565000 # S MOL
273 1 13 0.000000 -10.865000 -16.983999 -4.695000 # S MOL
274 1 6 0.000000 -11.627000 -16.472000 0.000000 # Mo MOL
275 1 13 0.000000 -10.865000 -16.983999 1.565000 # S MOL
276 1 13 0.000000 -10.865000 -16.983999 -1.565000 # S MOL
277 1 6 0.000000 -11.627000 -16.472000 3.130000 # Mo MOL
278 1 13 0.000000 -10.865000 -16.983999 4.695000 # S MOL
279 1 13 0.000000 -10.865000 -16.983999 1.565000 # S MOL
280 1 6 0.000000 -9.276000 -17.902000 -3.130000 # Mo MOL
281 1 13 0.000000 -8.451000 -18.305000 -1.565000 # S MOL
282 1 13 0.000000 -8.451000 -18.305000 -4.695000 # S MOL
283 1 6 0.000000 -9.276000 -17.902000 0.000000 # Mo MOL
284 1 13 0.000000 -8.451000 -18.305000 1.565000 # S MOL
285 1 13 0.000000 -8.451000 -18.305000 -1.565000 # S MOL
286 1 6 0.000000 -9.276000 -17.902000 3.130000 # Mo MOL
287 1 13 0.000000 -8.451000 -18.305000 4.695000 # S MOL
288 1 13 0.000000 -8.451000 -18.305000 1.565000 # S MOL
289 1 6 0.000000 -6.752000 -18.997999 -3.130000 # Mo MOL
290 1 13 0.000000 -5.880000 -19.285999 -1.565000 # S MOL
291 1 13 0.000000 -5.880000 -19.285999 -4.695000 # S MOL
292 1 6 0.000000 -6.752000 -18.997999 0.000000 # Mo MOL
293 1 13 0.000000 -5.880000 -19.285999 1.565000 # S MOL
294 1 13 0.000000 -5.880000 -19.285999 -1.565000 # S MOL
295 1 6 0.000000 -6.752000 -18.997999 3.130000 # Mo MOL
296 1 13 0.000000 -5.880000 -19.285999 4.695000 # S MOL
297 1 13 0.000000 -5.880000 -19.285999 1.565000 # S MOL
298 1 6 0.000000 -4.102000 -19.740000 -3.130000 # Mo MOL
299 1 13 0.000000 -3.199000 -19.907000 -1.565000 # S MOL
300 1 13 0.000000 -3.199000 -19.907000 -4.695000 # S MOL
301 1 6 0.000000 -4.102000 -19.740000 0.000000 # Mo MOL
302 1 13 0.000000 -3.199000 -19.907000 1.565000 # S MOL
303 1 13 0.000000 -3.199000 -19.907000 -1.565000 # S MOL
304 1 6 0.000000 -4.102000 -19.740000 3.130000 # Mo MOL
305 1 13 0.000000 -3.199000 -19.907000 4.695000 # S MOL
306 1 13 0.000000 -3.199000 -19.907000 1.565000 # S MOL
307 1 6 0.000000 -1.376000 -20.115000 -3.130000 # Mo MOL
308 1 13 0.000000 -0.459000 -20.157000 -1.565000 # S MOL
309 1 13 0.000000 -0.459000 -20.157000 -4.695000 # S MOL
310 1 6 0.000000 -1.376000 -20.115000 0.000000 # Mo MOL
311 1 13 0.000000 -0.459000 -20.157000 1.565000 # S MOL
312 1 13 0.000000 -0.459000 -20.157000 -1.565000 # S MOL
313 1 6 0.000000 -1.376000 -20.115000 3.130000 # Mo MOL
314 1 13 0.000000 -0.459000 -20.157000 4.695000 # S MOL
315 1 13 0.000000 -0.459000 -20.157000 1.565000 # S MOL
316 1 6 0.000000 1.376000 -20.115000 -3.130000 # Mo MOL
317 1 13 0.000000 2.290000 -20.032000 -1.565000 # S MOL
318 1 13 0.000000 2.290000 -20.032000 -4.695000 # S MOL
319 1 6 0.000000 1.376000 -20.115000 0.000000 # Mo MOL
320 1 13 0.000000 2.290000 -20.032000 1.565000 # S MOL
321 1 13 0.000000 2.290000 -20.032000 -1.565000 # S MOL
322 1 6 0.000000 1.376000 -20.115000 3.130000 # Mo MOL
323 1 13 0.000000 2.290000 -20.032000 4.695000 # S MOL
324 1 13 0.000000 2.290000 -20.032000 1.565000 # S MOL
325 1 6 0.000000 4.102000 -19.740000 -3.130000 # Mo MOL
326 1 13 0.000000 4.996000 -19.533001 -1.565000 # S MOL
327 1 13 0.000000 4.996000 -19.533001 -4.695000 # S MOL
328 1 6 0.000000 4.102000 -19.740000 0.000000 # Mo MOL
329 1 13 0.000000 4.996000 -19.533001 1.565000 # S MOL
330 1 13 0.000000 4.996000 -19.533001 -1.565000 # S MOL
331 1 6 0.000000 4.102000 -19.740000 3.130000 # Mo MOL
332 1 13 0.000000 4.996000 -19.533001 4.695000 # S MOL
333 1 13 0.000000 4.996000 -19.533001 1.565000 # S MOL
334 1 6 0.000000 6.752000 -18.997999 -3.130000 # Mo MOL
335 1 13 0.000000 7.610000 -18.671000 -1.565000 # S MOL
336 1 13 0.000000 7.610000 -18.671000 -4.695000 # S MOL
337 1 6 0.000000 6.752000 -18.997999 0.000000 # Mo MOL
338 1 13 0.000000 7.610000 -18.671000 1.565000 # S MOL
339 1 13 0.000000 7.610000 -18.671000 -1.565000 # S MOL
340 1 6 0.000000 6.752000 -18.997999 3.130000 # Mo MOL
341 1 13 0.000000 7.610000 -18.671000 4.695000 # S MOL
342 1 13 0.000000 7.610000 -18.671000 1.565000 # S MOL
343 1 6 0.000000 9.276000 -17.902000 -3.130000 # Mo MOL
344 1 13 0.000000 10.081000 -17.461000 -1.565000 # S MOL
345 1 13 0.000000 10.081000 -17.461000 -4.695000 # S MOL
346 1 6 0.000000 9.276000 -17.902000 0.000000 # Mo MOL
347 1 13 0.000000 10.081000 -17.461000 1.565000 # S MOL
348 1 13 0.000000 10.081000 -17.461000 -1.565000 # S MOL
349 1 6 0.000000 9.276000 -17.902000 3.130000 # Mo MOL
350 1 13 0.000000 10.081000 -17.461000 4.695000 # S MOL
351 1 13 0.000000 10.081000 -17.461000 1.565000 # S MOL
352 1 6 0.000000 11.627000 -16.472000 -3.130000 # Mo MOL
353 1 13 0.000000 12.365000 -15.926000 -1.565000 # S MOL
354 1 13 0.000000 12.365000 -15.926000 -4.695000 # S MOL
355 1 6 0.000000 11.627000 -16.472000 0.000000 # Mo MOL
356 1 13 0.000000 12.365000 -15.926000 1.565000 # S MOL
357 1 13 0.000000 12.365000 -15.926000 -1.565000 # S MOL
358 1 6 0.000000 11.627000 -16.472000 3.130000 # Mo MOL
359 1 13 0.000000 12.365000 -15.926000 4.695000 # S MOL
360 1 13 0.000000 12.365000 -15.926000 1.565000 # S MOL
361 1 6 0.000000 13.762000 -14.735000 -3.130000 # Mo MOL
362 1 13 0.000000 14.418000 -14.094000 -1.565000 # S MOL
363 1 13 0.000000 14.418000 -14.094000 -4.695000 # S MOL
364 1 6 0.000000 13.762000 -14.735000 0.000000 # Mo MOL
365 1 13 0.000000 14.418000 -14.094000 1.565000 # S MOL
366 1 13 0.000000 14.418000 -14.094000 -1.565000 # S MOL
367 1 6 0.000000 13.762000 -14.735000 3.130000 # Mo MOL
368 1 13 0.000000 14.418000 -14.094000 4.695000 # S MOL
369 1 13 0.000000 14.418000 -14.094000 1.565000 # S MOL
370 1 6 0.000000 15.640000 -12.724000 -3.130000 # Mo MOL
371 1 13 0.000000 16.202999 -11.999000 -1.565000 # S MOL
372 1 13 0.000000 16.202999 -11.999000 -4.695000 # S MOL
373 1 6 0.000000 15.640000 -12.724000 0.000000 # Mo MOL
374 1 13 0.000000 16.202999 -11.999000 1.565000 # S MOL
375 1 13 0.000000 16.202999 -11.999000 -1.565000 # S MOL
376 1 6 0.000000 15.640000 -12.724000 3.130000 # Mo MOL
377 1 13 0.000000 16.202999 -11.999000 4.695000 # S MOL
378 1 13 0.000000 16.202999 -11.999000 1.565000 # S MOL
379 1 6 0.000000 17.226999 -10.476000 -3.130000 # Mo MOL
380 1 13 0.000000 17.686001 -9.681000 -1.565000 # S MOL
381 1 13 0.000000 17.686001 -9.681000 -4.695000 # S MOL
382 1 6 0.000000 17.226999 -10.476000 0.000000 # Mo MOL
383 1 13 0.000000 17.686001 -9.681000 1.565000 # S MOL
384 1 13 0.000000 17.686001 -9.681000 -1.565000 # S MOL
385 1 6 0.000000 17.226999 -10.476000 3.130000 # Mo MOL
386 1 13 0.000000 17.686001 -9.681000 4.695000 # S MOL
387 1 13 0.000000 17.686001 -9.681000 1.565000 # S MOL
388 1 6 0.000000 18.493000 -8.033000 -3.130000 # Mo MOL
389 1 13 0.000000 18.839001 -7.183000 -1.565000 # S MOL
390 1 13 0.000000 18.839001 -7.183000 -4.695000 # S MOL
391 1 6 0.000000 18.493000 -8.033000 0.000000 # Mo MOL
392 1 13 0.000000 18.839001 -7.183000 1.565000 # S MOL
393 1 13 0.000000 18.839001 -7.183000 -1.565000 # S MOL
394 1 6 0.000000 18.493000 -8.033000 3.130000 # Mo MOL
395 1 13 0.000000 18.839001 -7.183000 4.695000 # S MOL
396 1 13 0.000000 18.839001 -7.183000 1.565000 # S MOL
397 1 6 0.000000 19.414000 -5.440000 -3.130000 # Mo MOL
398 1 13 0.000000 19.642000 -4.550000 -1.565000 # S MOL
399 1 13 0.000000 19.642000 -4.550000 -4.695000 # S MOL
400 1 6 0.000000 19.414000 -5.440000 0.000000 # Mo MOL
401 1 13 0.000000 19.642000 -4.550000 1.565000 # S MOL
402 1 13 0.000000 19.642000 -4.550000 -1.565000 # S MOL
403 1 6 0.000000 19.414000 -5.440000 3.130000 # Mo MOL
404 1 13 0.000000 19.642000 -4.550000 4.695000 # S MOL
405 1 13 0.000000 19.642000 -4.550000 1.565000 # S MOL
406 1 6 0.000000 19.974001 -2.745000 -3.130000 # Mo MOL
407 1 13 0.000000 20.079000 -1.833000 -1.565000 # S MOL
408 1 13 0.000000 20.079000 -1.833000 -4.695000 # S MOL
409 1 6 0.000000 19.974001 -2.745000 0.000000 # Mo MOL
410 1 13 0.000000 20.079000 -1.833000 1.565000 # S MOL
411 1 13 0.000000 20.079000 -1.833000 -1.565000 # S MOL
412 1 6 0.000000 19.974001 -2.745000 3.130000 # Mo MOL
413 1 13 0.000000 20.079000 -1.833000 4.695000 # S MOL
414 1 13 0.000000 20.079000 -1.833000 1.565000 # S MOL
415 2 2 0.000000 -3.097000 4.493000 -4.822000 # CR HCR
416 2 9 0.000000 -3.292000 5.686000 -3.773000 # O1 HCR
417 2 10 0.000000 -1.530000 4.329000 -5.157000 # O2 HCR
418 2 11 0.000000 -3.906000 4.829000 -6.167000 # O3 HCR
419 2 12 0.000000 -3.660000 3.130000 -4.188000 # O4 HCR
420 2 3 0.000000 -3.365000 6.134000 -3.380000 # H HCR
421 3 2 0.000000 -2.650000 14.781000 -4.658000 # CR HCR
422 3 9 0.000000 -2.784000 14.175000 -3.183000 # O1 HCR
423 3 10 0.000000 -2.943000 13.623000 -5.739000 # O2 HCR
424 3 11 0.000000 -1.164000 15.353000 -4.867000 # O3 HCR
425 3 12 0.000000 -3.710000 15.973000 -4.843000 # O4 HCR
426 3 3 0.000000 -2.834000 13.948000 -2.630000 # H HCR