LAMMPS data file. CGCMM style. atom_style full generated by VMD/TopoTools v1.8 on Sun May 25 17:45:45 EDT 2025
 2096 atoms
 1068 bonds
 548 angles
 0 dihedrals
 0 impropers
 13 atom types
 3 bond types
 2 angle types
 0 dihedral types
 0 improper types
 -0.000001 49.999999  xlo xhi
 0.000001 50.000001  ylo yhi
 -0.265500 12.234500  zlo zhi

# Pair Coeffs
#
# 1  CL
# 2  CR
# 3  H
# 4  H1
# 5  H2
# 6  Mo
# 7  NA
# 8  O
# 9  O1
# 10  O2
# 11  O3
# 12  O4
# 13  S

# Bond Coeffs
#
# 1  1
# 2  2
# 3  3

# Angle Coeffs
#
# 1  1
# 2  2

 Masses

 1 35.452999 # CL
 2 12.011000 # CR
 3 1.008000 # H
 4 1.008000 # H1
 5 1.008000 # H2
 6 95.940002 # Mo
 7 22.989771 # NA
 8 15.999000 # O
 9 15.999000 # O1
 10 15.999000 # O2
 11 15.999000 # O3
 12 15.999000 # O4
 13 32.064999 # S

 Atoms # full

1 1 6 0.734000 45.161999 25.000000 3.120000 # Mo MOL
2 1 13 -0.374250 45.140999 25.917999 4.685000 # S MOL
3 1 13 -0.374250 45.140999 25.917999 1.555000 # S MOL
4 1 6 0.734000 45.161999 25.000000 6.250000 # Mo MOL
5 1 13 -0.374250 45.140999 25.917999 7.815000 # S MOL
6 1 13 -0.374250 45.140999 25.917999 4.685000 # S MOL
7 1 6 0.734000 45.161999 25.000000 9.380000 # Mo MOL
8 1 13 -0.374250 45.140999 25.917999 10.945000 # S MOL
9 1 13 -0.374250 45.140999 25.917999 7.815000 # S MOL
10 1 6 0.734000 44.973999 27.745001 3.120000 # Mo MOL
11 1 13 -0.374250 44.828999 28.652000 4.685000 # S MOL
12 1 13 -0.374250 44.828999 28.652000 1.555000 # S MOL
13 1 6 0.734000 44.973999 27.745001 6.250000 # Mo MOL
14 1 13 -0.374250 44.828999 28.652000 7.815000 # S MOL
15 1 13 -0.374250 44.828999 28.652000 4.685000 # S MOL
16 1 6 0.734000 44.973999 27.745001 9.380000 # Mo MOL
17 1 13 -0.374250 44.828999 28.652000 10.945000 # S MOL
18 1 13 -0.374250 44.828999 28.652000 7.815000 # S MOL
19 1 6 0.734000 44.414001 30.440001 3.120000 # Mo MOL
20 1 13 -0.374250 44.146999 31.318001 4.685000 # S MOL
21 1 13 -0.374250 44.146999 31.318001 1.555000 # S MOL
22 1 6 0.734000 44.414001 30.440001 6.250000 # Mo MOL
23 1 13 -0.374250 44.146999 31.318001 7.815000 # S MOL
24 1 13 -0.374250 44.146999 31.318001 4.685000 # S MOL
25 1 6 0.734000 44.414001 30.440001 9.380000 # Mo MOL
26 1 13 -0.374250 44.146999 31.318001 10.945000 # S MOL
27 1 13 -0.374250 44.146999 31.318001 7.815000 # S MOL
28 1 6 0.734000 43.493000 33.033001 3.120000 # Mo MOL
29 1 13 -0.374250 43.108002 33.866001 4.685000 # S MOL
30 1 13 -0.374250 43.108002 33.866001 1.555000 # S MOL
31 1 6 0.734000 43.493000 33.033001 6.250000 # Mo MOL
32 1 13 -0.374250 43.108002 33.866001 7.815000 # S MOL
33 1 13 -0.374250 43.108002 33.866001 4.685000 # S MOL
34 1 6 0.734000 43.493000 33.033001 9.380000 # Mo MOL
35 1 13 -0.374250 43.108002 33.866001 10.945000 # S MOL
36 1 13 -0.374250 43.108002 33.866001 7.815000 # S MOL
37 1 6 0.734000 42.227001 35.476002 3.120000 # Mo MOL
38 1 13 -0.374250 41.731998 36.249001 4.685000 # S MOL
39 1 13 -0.374250 41.731998 36.249001 1.555000 # S MOL
40 1 6 0.734000 42.227001 35.476002 6.250000 # Mo MOL
41 1 13 -0.374250 41.731998 36.249001 7.815000 # S MOL
42 1 13 -0.374250 41.731998 36.249001 4.685000 # S MOL
43 1 6 0.734000 42.227001 35.476002 9.380000 # Mo MOL
44 1 13 -0.374250 41.731998 36.249001 10.945000 # S MOL
45 1 13 -0.374250 41.731998 36.249001 7.815000 # S MOL
46 1 6 0.734000 40.639999 37.723999 3.120000 # Mo MOL
47 1 13 -0.374250 40.044998 38.423000 4.685000 # S MOL
48 1 13 -0.374250 40.044998 38.423000 1.555000 # S MOL
49 1 6 0.734000 40.639999 37.723999 6.250000 # Mo MOL
50 1 13 -0.374250 40.044998 38.423000 7.815000 # S MOL
51 1 13 -0.374250 40.044998 38.423000 4.685000 # S MOL
52 1 6 0.734000 40.639999 37.723999 9.380000 # Mo MOL
53 1 13 -0.374250 40.044998 38.423000 10.945000 # S MOL
54 1 13 -0.374250 40.044998 38.423000 7.815000 # S MOL
55 1 6 0.734000 38.762001 39.735001 3.120000 # Mo MOL
56 1 13 -0.374250 38.077000 40.346001 4.685000 # S MOL
57 1 13 -0.374250 38.077000 40.346001 1.555000 # S MOL
58 1 6 0.734000 38.762001 39.735001 6.250000 # Mo MOL
59 1 13 -0.374250 38.077000 40.346001 7.815000 # S MOL
60 1 13 -0.374250 38.077000 40.346001 4.685000 # S MOL
61 1 6 0.734000 38.762001 39.735001 9.380000 # Mo MOL
62 1 13 -0.374250 38.077000 40.346001 10.945000 # S MOL
63 1 13 -0.374250 38.077000 40.346001 7.815000 # S MOL
64 1 6 0.734000 36.626999 41.472000 3.120000 # Mo MOL
65 1 13 -0.374250 35.865002 41.984001 4.685000 # S MOL
66 1 13 -0.374250 35.865002 41.984001 1.555000 # S MOL
67 1 6 0.734000 36.626999 41.472000 6.250000 # Mo MOL
68 1 13 -0.374250 35.865002 41.984001 7.815000 # S MOL
69 1 13 -0.374250 35.865002 41.984001 4.685000 # S MOL
70 1 6 0.734000 36.626999 41.472000 9.380000 # Mo MOL
71 1 13 -0.374250 35.865002 41.984001 10.945000 # S MOL
72 1 13 -0.374250 35.865002 41.984001 7.815000 # S MOL
73 1 6 0.734000 34.276001 42.902000 3.120000 # Mo MOL
74 1 13 -0.374250 33.451000 43.305000 4.685000 # S MOL
75 1 13 -0.374250 33.451000 43.305000 1.555000 # S MOL
76 1 6 0.734000 34.276001 42.902000 6.250000 # Mo MOL
77 1 13 -0.374250 33.451000 43.305000 7.815000 # S MOL
78 1 13 -0.374250 33.451000 43.305000 4.685000 # S MOL
79 1 6 0.734000 34.276001 42.902000 9.380000 # Mo MOL
80 1 13 -0.374250 33.451000 43.305000 10.945000 # S MOL
81 1 13 -0.374250 33.451000 43.305000 7.815000 # S MOL
82 1 6 0.734000 31.752001 43.998001 3.120000 # Mo MOL
83 1 13 -0.374250 30.879999 44.285999 4.685000 # S MOL
84 1 13 -0.374250 30.879999 44.285999 1.555000 # S MOL
85 1 6 0.734000 31.752001 43.998001 6.250000 # Mo MOL
86 1 13 -0.374250 30.879999 44.285999 7.815000 # S MOL
87 1 13 -0.374250 30.879999 44.285999 4.685000 # S MOL
88 1 6 0.734000 31.752001 43.998001 9.380000 # Mo MOL
89 1 13 -0.374250 30.879999 44.285999 10.945000 # S MOL
90 1 13 -0.374250 30.879999 44.285999 7.815000 # S MOL
91 1 6 0.734000 29.101999 44.740002 3.120000 # Mo MOL
92 1 13 -0.374250 28.198999 44.907001 4.685000 # S MOL
93 1 13 -0.374250 28.198999 44.907001 1.555000 # S MOL
94 1 6 0.734000 29.101999 44.740002 6.250000 # Mo MOL
95 1 13 -0.374250 28.198999 44.907001 7.815000 # S MOL
96 1 13 -0.374250 28.198999 44.907001 4.685000 # S MOL
97 1 6 0.734000 29.101999 44.740002 9.380000 # Mo MOL
98 1 13 -0.374250 28.198999 44.907001 10.945000 # S MOL
99 1 13 -0.374250 28.198999 44.907001 7.815000 # S MOL
100 1 6 0.734000 26.375999 45.115002 3.120000 # Mo MOL
101 1 13 -0.374250 25.459000 45.157001 4.685000 # S MOL
102 1 13 -0.374250 25.459000 45.157001 1.555000 # S MOL
103 1 6 0.734000 26.375999 45.115002 6.250000 # Mo MOL
104 1 13 -0.374250 25.459000 45.157001 7.815000 # S MOL
105 1 13 -0.374250 25.459000 45.157001 4.685000 # S MOL
106 1 6 0.734000 26.375999 45.115002 9.380000 # Mo MOL
107 1 13 -0.374250 25.459000 45.157001 10.945000 # S MOL
108 1 13 -0.374250 25.459000 45.157001 7.815000 # S MOL
109 1 6 0.734000 23.624001 45.115002 3.120000 # Mo MOL
110 1 13 -0.374250 22.709999 45.032001 4.685000 # S MOL
111 1 13 -0.374250 22.709999 45.032001 1.555000 # S MOL
112 1 6 0.734000 23.624001 45.115002 6.250000 # Mo MOL
113 1 13 -0.374250 22.709999 45.032001 7.815000 # S MOL
114 1 13 -0.374250 22.709999 45.032001 4.685000 # S MOL
115 1 6 0.734000 23.624001 45.115002 9.380000 # Mo MOL
116 1 13 -0.374250 22.709999 45.032001 10.945000 # S MOL
117 1 13 -0.374250 22.709999 45.032001 7.815000 # S MOL
118 1 6 0.734000 20.898001 44.740002 3.120000 # Mo MOL
119 1 13 -0.374250 20.004000 44.533001 4.685000 # S MOL
120 1 13 -0.374250 20.004000 44.533001 1.555000 # S MOL
121 1 6 0.734000 20.898001 44.740002 6.250000 # Mo MOL
122 1 13 -0.374250 20.004000 44.533001 7.815000 # S MOL
123 1 13 -0.374250 20.004000 44.533001 4.685000 # S MOL
124 1 6 0.734000 20.898001 44.740002 9.380000 # Mo MOL
125 1 13 -0.374250 20.004000 44.533001 10.945000 # S MOL
126 1 13 -0.374250 20.004000 44.533001 7.815000 # S MOL
127 1 6 0.734000 18.247999 43.998001 3.120000 # Mo MOL
128 1 13 -0.374250 17.389999 43.671001 4.685000 # S MOL
129 1 13 -0.374250 17.389999 43.671001 1.555000 # S MOL
130 1 6 0.734000 18.247999 43.998001 6.250000 # Mo MOL
131 1 13 -0.374250 17.389999 43.671001 7.815000 # S MOL
132 1 13 -0.374250 17.389999 43.671001 4.685000 # S MOL
133 1 6 0.734000 18.247999 43.998001 9.380000 # Mo MOL
134 1 13 -0.374250 17.389999 43.671001 10.945000 # S MOL
135 1 13 -0.374250 17.389999 43.671001 7.815000 # S MOL
136 1 6 0.734000 15.724000 42.902000 3.120000 # Mo MOL
137 1 13 -0.374250 14.919000 42.460999 4.685000 # S MOL
138 1 13 -0.374250 14.919000 42.460999 1.555000 # S MOL
139 1 6 0.734000 15.724000 42.902000 6.250000 # Mo MOL
140 1 13 -0.374250 14.919000 42.460999 7.815000 # S MOL
141 1 13 -0.374250 14.919000 42.460999 4.685000 # S MOL
142 1 6 0.734000 15.724000 42.902000 9.380000 # Mo MOL
143 1 13 -0.374250 14.919000 42.460999 10.945000 # S MOL
144 1 13 -0.374250 14.919000 42.460999 7.815000 # S MOL
145 1 6 0.734000 13.373000 41.472000 3.120000 # Mo MOL
146 1 13 -0.374250 12.635000 40.925999 4.685000 # S MOL
147 1 13 -0.374250 12.635000 40.925999 1.555000 # S MOL
148 1 6 0.734000 13.373000 41.472000 6.250000 # Mo MOL
149 1 13 -0.374250 12.635000 40.925999 7.815000 # S MOL
150 1 13 -0.374250 12.635000 40.925999 4.685000 # S MOL
151 1 6 0.734000 13.373000 41.472000 9.380000 # Mo MOL
152 1 13 -0.374250 12.635000 40.925999 10.945000 # S MOL
153 1 13 -0.374250 12.635000 40.925999 7.815000 # S MOL
154 1 6 0.734000 11.238000 39.735001 3.120000 # Mo MOL
155 1 13 -0.374250 10.582000 39.094002 4.685000 # S MOL
156 1 13 -0.374250 10.582000 39.094002 1.555000 # S MOL
157 1 6 0.734000 11.238000 39.735001 6.250000 # Mo MOL
158 1 13 -0.374250 10.582000 39.094002 7.815000 # S MOL
159 1 13 -0.374250 10.582000 39.094002 4.685000 # S MOL
160 1 6 0.734000 11.238000 39.735001 9.380000 # Mo MOL
161 1 13 -0.374250 10.582000 39.094002 10.945000 # S MOL
162 1 13 -0.374250 10.582000 39.094002 7.815000 # S MOL
163 1 6 0.734000 9.360000 37.723999 3.120000 # Mo MOL
164 1 13 -0.374250 8.797000 36.999001 4.685000 # S MOL
165 1 13 -0.374250 8.797000 36.999001 1.555000 # S MOL
166 1 6 0.734000 9.360000 37.723999 6.250000 # Mo MOL
167 1 13 -0.374250 8.797000 36.999001 7.815000 # S MOL
168 1 13 -0.374250 8.797000 36.999001 4.685000 # S MOL
169 1 6 0.734000 9.360000 37.723999 9.380000 # Mo MOL
170 1 13 -0.374250 8.797000 36.999001 10.945000 # S MOL
171 1 13 -0.374250 8.797000 36.999001 7.815000 # S MOL
172 1 6 0.734000 7.773000 35.476002 3.120000 # Mo MOL
173 1 13 -0.374250 7.314000 34.681000 4.685000 # S MOL
174 1 13 -0.374250 7.314000 34.681000 1.555000 # S MOL
175 1 6 0.734000 7.773000 35.476002 6.250000 # Mo MOL
176 1 13 -0.374250 7.314000 34.681000 7.815000 # S MOL
177 1 13 -0.374250 7.314000 34.681000 4.685000 # S MOL
178 1 6 0.734000 7.773000 35.476002 9.380000 # Mo MOL
179 1 13 -0.374250 7.314000 34.681000 10.945000 # S MOL
180 1 13 -0.374250 7.314000 34.681000 7.815000 # S MOL
181 1 6 0.734000 6.507000 33.033001 3.120000 # Mo MOL
182 1 13 -0.374250 6.161000 32.182999 4.685000 # S MOL
183 1 13 -0.374250 6.161000 32.182999 1.555000 # S MOL
184 1 6 0.734000 6.507000 33.033001 6.250000 # Mo MOL
185 1 13 -0.374250 6.161000 32.182999 7.815000 # S MOL
186 1 13 -0.374250 6.161000 32.182999 4.685000 # S MOL
187 1 6 0.734000 6.507000 33.033001 9.380000 # Mo MOL
188 1 13 -0.374250 6.161000 32.182999 10.945000 # S MOL
189 1 13 -0.374250 6.161000 32.182999 7.815000 # S MOL
190 1 6 0.734000 5.586000 30.440001 3.120000 # Mo MOL
191 1 13 -0.374250 5.358000 29.549999 4.685000 # S MOL
192 1 13 -0.374250 5.358000 29.549999 1.555000 # S MOL
193 1 6 0.734000 5.586000 30.440001 6.250000 # Mo MOL
194 1 13 -0.374250 5.358000 29.549999 7.815000 # S MOL
195 1 13 -0.374250 5.358000 29.549999 4.685000 # S MOL
196 1 6 0.734000 5.586000 30.440001 9.380000 # Mo MOL
197 1 13 -0.374250 5.358000 29.549999 10.945000 # S MOL
198 1 13 -0.374250 5.358000 29.549999 7.815000 # S MOL
199 1 6 0.734000 5.026000 27.745001 3.120000 # Mo MOL
200 1 13 -0.374250 4.921000 26.833000 4.685000 # S MOL
201 1 13 -0.374250 4.921000 26.833000 1.555000 # S MOL
202 1 6 0.734000 5.026000 27.745001 6.250000 # Mo MOL
203 1 13 -0.374250 4.921000 26.833000 7.815000 # S MOL
204 1 13 -0.374250 4.921000 26.833000 4.685000 # S MOL
205 1 6 0.734000 5.026000 27.745001 9.380000 # Mo MOL
206 1 13 -0.374250 4.921000 26.833000 10.945000 # S MOL
207 1 13 -0.374250 4.921000 26.833000 7.815000 # S MOL
208 1 6 0.734000 4.838000 25.000000 3.120000 # Mo MOL
209 1 13 -0.374250 4.859000 24.082001 4.685000 # S MOL
210 1 13 -0.374250 4.859000 24.082001 1.555000 # S MOL
211 1 6 0.734000 4.838000 25.000000 6.250000 # Mo MOL
212 1 13 -0.374250 4.859000 24.082001 7.815000 # S MOL
213 1 13 -0.374250 4.859000 24.082001 4.685000 # S MOL
214 1 6 0.734000 4.838000 25.000000 9.380000 # Mo MOL
215 1 13 -0.374250 4.859000 24.082001 10.945000 # S MOL
216 1 13 -0.374250 4.859000 24.082001 7.815000 # S MOL
217 1 6 0.734000 5.026000 22.254999 3.120000 # Mo MOL
218 1 13 -0.374250 5.171000 21.348000 4.685000 # S MOL
219 1 13 -0.374250 5.171000 21.348000 1.555000 # S MOL
220 1 6 0.734000 5.026000 22.254999 6.250000 # Mo MOL
221 1 13 -0.374250 5.171000 21.348000 7.815000 # S MOL
222 1 13 -0.374250 5.171000 21.348000 4.685000 # S MOL
223 1 6 0.734000 5.026000 22.254999 9.380000 # Mo MOL
224 1 13 -0.374250 5.171000 21.348000 10.945000 # S MOL
225 1 13 -0.374250 5.171000 21.348000 7.815000 # S MOL
226 1 6 0.734000 5.586000 19.559999 3.120000 # Mo MOL
227 1 13 -0.374250 5.853000 18.681999 4.685000 # S MOL
228 1 13 -0.374250 5.853000 18.681999 1.555000 # S MOL
229 1 6 0.734000 5.586000 19.559999 6.250000 # Mo MOL
230 1 13 -0.374250 5.853000 18.681999 7.815000 # S MOL
231 1 13 -0.374250 5.853000 18.681999 4.685000 # S MOL
232 1 6 0.734000 5.586000 19.559999 9.380000 # Mo MOL
233 1 13 -0.374250 5.853000 18.681999 10.945000 # S MOL
234 1 13 -0.374250 5.853000 18.681999 7.815000 # S MOL
235 1 6 0.734000 6.507000 16.966999 3.120000 # Mo MOL
236 1 13 -0.374250 6.892000 16.134001 4.685000 # S MOL
237 1 13 -0.374250 6.892000 16.134001 1.555000 # S MOL
238 1 6 0.734000 6.507000 16.966999 6.250000 # Mo MOL
239 1 13 -0.374250 6.892000 16.134001 7.815000 # S MOL
240 1 13 -0.374250 6.892000 16.134001 4.685000 # S MOL
241 1 6 0.734000 6.507000 16.966999 9.380000 # Mo MOL
242 1 13 -0.374250 6.892000 16.134001 10.945000 # S MOL
243 1 13 -0.374250 6.892000 16.134001 7.815000 # S MOL
244 1 6 0.734000 7.773000 14.524000 3.120000 # Mo MOL
245 1 13 -0.374250 8.268000 13.751000 4.685000 # S MOL
246 1 13 -0.374250 8.268000 13.751000 1.555000 # S MOL
247 1 6 0.734000 7.773000 14.524000 6.250000 # Mo MOL
248 1 13 -0.374250 8.268000 13.751000 7.815000 # S MOL
249 1 13 -0.374250 8.268000 13.751000 4.685000 # S MOL
250 1 6 0.734000 7.773000 14.524000 9.380000 # Mo MOL
251 1 13 -0.374250 8.268000 13.751000 10.945000 # S MOL
252 1 13 -0.374250 8.268000 13.751000 7.815000 # S MOL
253 1 6 0.734000 9.360000 12.276000 3.120000 # Mo MOL
254 1 13 -0.374250 9.955000 11.577000 4.685000 # S MOL
255 1 13 -0.374250 9.955000 11.577000 1.555000 # S MOL
256 1 6 0.734000 9.360000 12.276000 6.250000 # Mo MOL
257 1 13 -0.374250 9.955000 11.577000 7.815000 # S MOL
258 1 13 -0.374250 9.955000 11.577000 4.685000 # S MOL
259 1 6 0.734000 9.360000 12.276000 9.380000 # Mo MOL
260 1 13 -0.374250 9.955000 11.577000 10.945000 # S MOL
261 1 13 -0.374250 9.955000 11.577000 7.815000 # S MOL
262 1 6 0.734000 11.238000 10.265000 3.120000 # Mo MOL
263 1 13 -0.374250 11.923000 9.654000 4.685000 # S MOL
264 1 13 -0.374250 11.923000 9.654000 1.555000 # S MOL
265 1 6 0.734000 11.238000 10.265000 6.250000 # Mo MOL
266 1 13 -0.374250 11.923000 9.654000 7.815000 # S MOL
267 1 13 -0.374250 11.923000 9.654000 4.685000 # S MOL
268 1 6 0.734000 11.238000 10.265000 9.380000 # Mo MOL
269 1 13 -0.374250 11.923000 9.654000 10.945000 # S MOL
270 1 13 -0.374250 11.923000 9.654000 7.815000 # S MOL
271 1 6 0.734000 13.373000 8.528000 3.120000 # Mo MOL
272 1 13 -0.374250 14.135000 8.016000 4.685000 # S MOL
273 1 13 -0.374250 14.135000 8.016000 1.555000 # S MOL
274 1 6 0.734000 13.373000 8.528000 6.250000 # Mo MOL
275 1 13 -0.374250 14.135000 8.016000 7.815000 # S MOL
276 1 13 -0.374250 14.135000 8.016000 4.685000 # S MOL
277 1 6 0.734000 13.373000 8.528000 9.380000 # Mo MOL
278 1 13 -0.374250 14.135000 8.016000 10.945000 # S MOL
279 1 13 -0.374250 14.135000 8.016000 7.815000 # S MOL
280 1 6 0.734000 15.724000 7.098000 3.120000 # Mo MOL
281 1 13 -0.374250 16.549000 6.695000 4.685000 # S MOL
282 1 13 -0.374250 16.549000 6.695000 1.555000 # S MOL
283 1 6 0.734000 15.724000 7.098000 6.250000 # Mo MOL
284 1 13 -0.374250 16.549000 6.695000 7.815000 # S MOL
285 1 13 -0.374250 16.549000 6.695000 4.685000 # S MOL
286 1 6 0.734000 15.724000 7.098000 9.380000 # Mo MOL
287 1 13 -0.374250 16.549000 6.695000 10.945000 # S MOL
288 1 13 -0.374250 16.549000 6.695000 7.815000 # S MOL
289 1 6 0.734000 18.247999 6.002000 3.120000 # Mo MOL
290 1 13 -0.374250 19.120001 5.714000 4.685000 # S MOL
291 1 13 -0.374250 19.120001 5.714000 1.555000 # S MOL
292 1 6 0.734000 18.247999 6.002000 6.250000 # Mo MOL
293 1 13 -0.374250 19.120001 5.714000 7.815000 # S MOL
294 1 13 -0.374250 19.120001 5.714000 4.685000 # S MOL
295 1 6 0.734000 18.247999 6.002000 9.380000 # Mo MOL
296 1 13 -0.374250 19.120001 5.714000 10.945000 # S MOL
297 1 13 -0.374250 19.120001 5.714000 7.815000 # S MOL
298 1 6 0.734000 20.898001 5.260000 3.120000 # Mo MOL
299 1 13 -0.374250 21.801001 5.093000 4.685000 # S MOL
300 1 13 -0.374250 21.801001 5.093000 1.555000 # S MOL
301 1 6 0.734000 20.898001 5.260000 6.250000 # Mo MOL
302 1 13 -0.374250 21.801001 5.093000 7.815000 # S MOL
303 1 13 -0.374250 21.801001 5.093000 4.685000 # S MOL
304 1 6 0.734000 20.898001 5.260000 9.380000 # Mo MOL
305 1 13 -0.374250 21.801001 5.093000 10.945000 # S MOL
306 1 13 -0.374250 21.801001 5.093000 7.815000 # S MOL
307 1 6 0.734000 23.624001 4.885000 3.120000 # Mo MOL
308 1 13 -0.374250 24.541000 4.843000 4.685000 # S MOL
309 1 13 -0.374250 24.541000 4.843000 1.555000 # S MOL
310 1 6 0.734000 23.624001 4.885000 6.250000 # Mo MOL
311 1 13 -0.374250 24.541000 4.843000 7.815000 # S MOL
312 1 13 -0.374250 24.541000 4.843000 4.685000 # S MOL
313 1 6 0.734000 23.624001 4.885000 9.380000 # Mo MOL
314 1 13 -0.374250 24.541000 4.843000 10.945000 # S MOL
315 1 13 -0.374250 24.541000 4.843000 7.815000 # S MOL
316 1 6 0.734000 26.375999 4.885000 3.120000 # Mo MOL
317 1 13 -0.374250 27.290001 4.968000 4.685000 # S MOL
318 1 13 -0.374250 27.290001 4.968000 1.555000 # S MOL
319 1 6 0.734000 26.375999 4.885000 6.250000 # Mo MOL
320 1 13 -0.374250 27.290001 4.968000 7.815000 # S MOL
321 1 13 -0.374250 27.290001 4.968000 4.685000 # S MOL
322 1 6 0.734000 26.375999 4.885000 9.380000 # Mo MOL
323 1 13 -0.374250 27.290001 4.968000 10.945000 # S MOL
324 1 13 -0.374250 27.290001 4.968000 7.815000 # S MOL
325 1 6 0.734000 29.101999 5.260000 3.120000 # Mo MOL
326 1 13 -0.374250 29.996000 5.467000 4.685000 # S MOL
327 1 13 -0.374250 29.996000 5.467000 1.555000 # S MOL
328 1 6 0.734000 29.101999 5.260000 6.250000 # Mo MOL
329 1 13 -0.374250 29.996000 5.467000 7.815000 # S MOL
330 1 13 -0.374250 29.996000 5.467000 4.685000 # S MOL
331 1 6 0.734000 29.101999 5.260000 9.380000 # Mo MOL
332 1 13 -0.374250 29.996000 5.467000 10.945000 # S MOL
333 1 13 -0.374250 29.996000 5.467000 7.815000 # S MOL
334 1 6 0.734000 31.752001 6.002000 3.120000 # Mo MOL
335 1 13 -0.374250 32.610001 6.329000 4.685000 # S MOL
336 1 13 -0.374250 32.610001 6.329000 1.555000 # S MOL
337 1 6 0.734000 31.752001 6.002000 6.250000 # Mo MOL
338 1 13 -0.374250 32.610001 6.329000 7.815000 # S MOL
339 1 13 -0.374250 32.610001 6.329000 4.685000 # S MOL
340 1 6 0.734000 31.752001 6.002000 9.380000 # Mo MOL
341 1 13 -0.374250 32.610001 6.329000 10.945000 # S MOL
342 1 13 -0.374250 32.610001 6.329000 7.815000 # S MOL
343 1 6 0.734000 34.276001 7.098000 3.120000 # Mo MOL
344 1 13 -0.374250 35.081001 7.539000 4.685000 # S MOL
345 1 13 -0.374250 35.081001 7.539000 1.555000 # S MOL
346 1 6 0.734000 34.276001 7.098000 6.250000 # Mo MOL
347 1 13 -0.374250 35.081001 7.539000 7.815000 # S MOL
348 1 13 -0.374250 35.081001 7.539000 4.685000 # S MOL
349 1 6 0.734000 34.276001 7.098000 9.380000 # Mo MOL
350 1 13 -0.374250 35.081001 7.539000 10.945000 # S MOL
351 1 13 -0.374250 35.081001 7.539000 7.815000 # S MOL
352 1 6 0.734000 36.626999 8.528000 3.120000 # Mo MOL
353 1 13 -0.374250 37.365002 9.074000 4.685000 # S MOL
354 1 13 -0.374250 37.365002 9.074000 1.555000 # S MOL
355 1 6 0.734000 36.626999 8.528000 6.250000 # Mo MOL
356 1 13 -0.374250 37.365002 9.074000 7.815000 # S MOL
357 1 13 -0.374250 37.365002 9.074000 4.685000 # S MOL
358 1 6 0.734000 36.626999 8.528000 9.380000 # Mo MOL
359 1 13 -0.374250 37.365002 9.074000 10.945000 # S MOL
360 1 13 -0.374250 37.365002 9.074000 7.815000 # S MOL
361 1 6 0.734000 38.762001 10.265000 3.120000 # Mo MOL
362 1 13 -0.374250 39.417999 10.906000 4.685000 # S MOL
363 1 13 -0.374250 39.417999 10.906000 1.555000 # S MOL
364 1 6 0.734000 38.762001 10.265000 6.250000 # Mo MOL
365 1 13 -0.374250 39.417999 10.906000 7.815000 # S MOL
366 1 13 -0.374250 39.417999 10.906000 4.685000 # S MOL
367 1 6 0.734000 38.762001 10.265000 9.380000 # Mo MOL
368 1 13 -0.374250 39.417999 10.906000 10.945000 # S MOL
369 1 13 -0.374250 39.417999 10.906000 7.815000 # S MOL
370 1 6 0.734000 40.639999 12.276000 3.120000 # Mo MOL
371 1 13 -0.374250 41.202999 13.001000 4.685000 # S MOL
372 1 13 -0.374250 41.202999 13.001000 1.555000 # S MOL
373 1 6 0.734000 40.639999 12.276000 6.250000 # Mo MOL
374 1 13 -0.374250 41.202999 13.001000 7.815000 # S MOL
375 1 13 -0.374250 41.202999 13.001000 4.685000 # S MOL
376 1 6 0.734000 40.639999 12.276000 9.380000 # Mo MOL
377 1 13 -0.374250 41.202999 13.001000 10.945000 # S MOL
378 1 13 -0.374250 41.202999 13.001000 7.815000 # S MOL
379 1 6 0.734000 42.227001 14.524000 3.120000 # Mo MOL
380 1 13 -0.374250 42.686001 15.319000 4.685000 # S MOL
381 1 13 -0.374250 42.686001 15.319000 1.555000 # S MOL
382 1 6 0.734000 42.227001 14.524000 6.250000 # Mo MOL
383 1 13 -0.374250 42.686001 15.319000 7.815000 # S MOL
384 1 13 -0.374250 42.686001 15.319000 4.685000 # S MOL
385 1 6 0.734000 42.227001 14.524000 9.380000 # Mo MOL
386 1 13 -0.374250 42.686001 15.319000 10.945000 # S MOL
387 1 13 -0.374250 42.686001 15.319000 7.815000 # S MOL
388 1 6 0.734000 43.493000 16.966999 3.120000 # Mo MOL
389 1 13 -0.374250 43.839001 17.816999 4.685000 # S MOL
390 1 13 -0.374250 43.839001 17.816999 1.555000 # S MOL
391 1 6 0.734000 43.493000 16.966999 6.250000 # Mo MOL
392 1 13 -0.374250 43.839001 17.816999 7.815000 # S MOL
393 1 13 -0.374250 43.839001 17.816999 4.685000 # S MOL
394 1 6 0.734000 43.493000 16.966999 9.380000 # Mo MOL
395 1 13 -0.374250 43.839001 17.816999 10.945000 # S MOL
396 1 13 -0.374250 43.839001 17.816999 7.815000 # S MOL
397 1 6 0.734000 44.414001 19.559999 3.120000 # Mo MOL
398 1 13 -0.374250 44.641998 20.450001 4.685000 # S MOL
399 1 13 -0.374250 44.641998 20.450001 1.555000 # S MOL
400 1 6 0.734000 44.414001 19.559999 6.250000 # Mo MOL
401 1 13 -0.374250 44.641998 20.450001 7.815000 # S MOL
402 1 13 -0.374250 44.641998 20.450001 4.685000 # S MOL
403 1 6 0.734000 44.414001 19.559999 9.380000 # Mo MOL
404 1 13 -0.374250 44.641998 20.450001 10.945000 # S MOL
405 1 13 -0.374250 44.641998 20.450001 7.815000 # S MOL
406 1 6 0.734000 44.973999 22.254999 3.120000 # Mo MOL
407 1 13 -0.374250 45.078999 23.167000 4.685000 # S MOL
408 1 13 -0.374250 45.078999 23.167000 1.555000 # S MOL
409 1 6 0.734000 44.973999 22.254999 6.250000 # Mo MOL
410 1 13 -0.374250 45.078999 23.167000 7.815000 # S MOL
411 1 13 -0.374250 45.078999 23.167000 4.685000 # S MOL
412 1 6 0.734000 44.973999 22.254999 9.380000 # Mo MOL
413 1 13 -0.374250 45.078999 23.167000 10.945000 # S MOL
414 1 13 -0.374250 45.078999 23.167000 7.815000 # S MOL
415 2 2 0.813000 24.242001 34.770000 3.097000 # CR HCR
416 2 9 -0.703000 24.632999 34.804001 1.546000 # O1 HCR
417 2 10 -0.703000 22.650000 34.573002 3.240000 # O2 HCR
418 2 11 -0.703000 24.681000 36.150002 3.788000 # O3 HCR
419 2 12 -0.703000 25.004000 33.549999 3.811000 # O4 HCR
420 2 3 1.000000 24.780001 34.817001 0.964000 # H HCR
421 3 2 0.813000 18.542999 41.313000 3.077000 # CR HCR
422 3 9 -0.703000 17.833000 41.563999 1.665000 # O1 HCR
423 3 10 -0.703000 19.066000 39.792000 3.148000 # O2 HCR
424 3 11 -0.703000 17.487000 41.577999 4.258000 # O3 HCR
425 3 12 -0.703000 19.783001 42.320000 3.237000 # O4 HCR
426 3 3 1.000000 17.566999 41.658001 1.136000 # H HCR
427 4 2 0.813000 19.549000 28.691999 2.662000 # CR HCR
428 4 9 -0.703000 20.995001 29.233000 3.079000 # O1 HCR
429 4 10 -0.703000 18.443001 29.302000 3.661000 # O2 HCR
430 4 11 -0.703000 19.533001 27.089001 2.751000 # O3 HCR
431 4 12 -0.703000 19.225000 29.143999 1.155000 # O4 HCR
432 4 3 1.000000 21.538000 29.436001 3.236000 # H HCR
433 5 2 0.813000 20.205999 35.514999 3.433000 # CR HCR
434 5 9 -0.703000 20.726000 34.188999 4.162000 # O1 HCR
435 5 10 -0.703000 19.261000 36.341999 4.441000 # O2 HCR
436 5 11 -0.703000 19.374001 35.111000 2.121000 # O3 HCR
437 5 12 -0.703000 21.464001 36.417000 3.008000 # O4 HCR
438 5 3 1.000000 20.921000 33.691002 4.435000 # H HCR
439 6 8 -0.834000 16.152000 18.642000 1.268000 # O TIP
440 6 4 0.417000 15.272000 18.820999 1.600000 # H1 TIP
441 6 5 0.417000 16.532000 19.507999 1.117000 # H2 TIP
442 7 8 -0.834000 24.611000 27.813000 0.333000 # O TIP
443 7 4 0.417000 24.611000 26.856001 0.326000 # H1 TIP
444 7 5 0.417000 23.684000 28.052999 0.338000 # H2 TIP
445 8 8 -0.834000 30.740000 13.471000 7.335000 # O TIP
446 8 4 0.417000 31.281000 13.607000 8.112000 # H1 TIP
447 8 5 0.417000 30.750999 14.316000 6.883000 # H2 TIP
448 9 8 -0.834000 26.107000 39.155998 1.184000 # O TIP
449 9 4 0.417000 25.784000 38.256001 1.204000 # H1 TIP
450 9 5 0.417000 25.656000 39.589001 1.909000 # H2 TIP
451 10 8 -0.834000 25.875000 17.393000 5.755000 # O TIP
452 10 4 0.417000 25.445999 18.097000 6.241000 # H1 TIP
453 10 5 0.417000 26.775000 17.697001 5.636000 # H2 TIP
454 11 8 -0.834000 39.824001 17.542999 5.471000 # O TIP
455 11 4 0.417000 40.435001 16.820000 5.615000 # H1 TIP
456 11 5 0.417000 38.962002 17.127001 5.448000 # H2 TIP
457 12 8 -0.834000 10.125000 23.351000 2.649000 # O TIP
458 12 4 0.417000 10.713000 22.600000 2.576000 # H1 TIP
459 12 5 0.417000 10.643000 24.020000 3.097000 # H2 TIP
460 13 8 -0.834000 35.459000 23.489000 6.917000 # O TIP
461 13 4 0.417000 36.090000 24.205000 6.985000 # H1 TIP
462 13 5 0.417000 34.698002 23.879999 6.488000 # H2 TIP
463 14 8 -0.834000 25.167000 36.522999 9.733000 # O TIP
464 14 4 0.417000 24.382000 35.978001 9.772000 # H1 TIP
465 14 5 0.417000 25.892000 35.909000 9.849000 # H2 TIP
466 15 8 -0.834000 32.005001 35.012001 1.677000 # O TIP
467 15 4 0.417000 31.542999 35.483002 2.370000 # H1 TIP
468 15 5 0.417000 32.911999 34.969002 1.979000 # H2 TIP
469 16 8 -0.834000 14.879000 14.787000 4.899000 # O TIP
470 16 4 0.417000 14.660000 13.855000 4.898000 # H1 TIP
471 16 5 0.417000 14.031000 15.233000 4.901000 # H2 TIP
472 17 8 -0.834000 22.542000 38.497002 10.391000 # O TIP
473 17 4 0.417000 21.726000 38.000999 10.329000 # H1 TIP
474 17 5 0.417000 23.214001 37.894001 10.070000 # H2 TIP
475 18 8 -0.834000 8.226000 24.476000 11.217000 # O TIP
476 18 4 0.417000 8.458000 23.548000 11.194000 # H1 TIP
477 18 5 0.417000 9.066000 24.931999 11.269000 # H2 TIP
478 19 8 -0.834000 33.923000 27.455999 3.432000 # O TIP
479 19 4 0.417000 33.243000 27.907000 3.932000 # H1 TIP
480 19 5 0.417000 34.483002 27.054001 4.097000 # H2 TIP
481 20 8 -0.834000 29.184000 8.357000 7.982000 # O TIP
482 20 4 0.417000 28.395000 8.311000 8.522000 # H1 TIP
483 20 5 0.417000 29.413000 9.287000 7.972000 # H2 TIP
484 21 8 -0.834000 30.966999 13.007000 4.634000 # O TIP
485 21 4 0.417000 30.826000 13.943000 4.491000 # H1 TIP
486 21 5 0.417000 31.896000 12.936000 4.859000 # H2 TIP
487 22 8 -0.834000 26.452999 28.943001 10.344000 # O TIP
488 22 4 0.417000 26.606001 29.879999 10.229000 # H1 TIP
489 22 5 0.417000 26.662001 28.777000 11.264000 # H2 TIP
490 23 8 -0.834000 19.941999 28.351999 5.454000 # O TIP
491 23 4 0.417000 20.452999 29.016001 4.992000 # H1 TIP
492 23 5 0.417000 19.695999 27.724001 4.774000 # H2 TIP
493 24 8 -0.834000 14.387000 27.688999 3.568000 # O TIP
494 24 4 0.417000 15.176000 27.264000 3.233000 # H1 TIP
495 24 5 0.417000 14.466000 28.600000 3.283000 # H2 TIP
496 25 8 -0.834000 12.999000 35.535000 6.804000 # O TIP
497 25 4 0.417000 12.962000 36.457001 7.057000 # H1 TIP
498 25 5 0.417000 13.911000 35.391998 6.550000 # H2 TIP
499 26 8 -0.834000 18.365999 11.305000 4.097000 # O TIP
500 26 4 0.417000 18.239000 10.727000 3.345000 # H1 TIP
501 26 5 0.417000 18.582001 10.715000 4.819000 # H2 TIP
502 27 8 -0.834000 39.820999 27.277000 8.953000 # O TIP
503 27 4 0.417000 38.984001 26.889999 9.207000 # H1 TIP
504 27 5 0.417000 39.775002 28.179001 9.273000 # H2 TIP
505 28 8 -0.834000 20.187000 14.456000 8.510000 # O TIP
506 28 4 0.417000 19.898001 14.367000 9.418000 # H1 TIP
507 28 5 0.417000 19.445000 14.864000 8.062000 # H2 TIP
508 29 8 -0.834000 22.224001 36.624001 4.868000 # O TIP
509 29 4 0.417000 21.844000 37.487000 4.703000 # H1 TIP
510 29 5 0.417000 23.159000 36.792000 4.983000 # H2 TIP
511 30 8 -0.834000 19.650999 8.984000 5.742000 # O TIP
512 30 4 0.417000 19.988001 9.023000 4.848000 # H1 TIP
513 30 5 0.417000 19.827000 8.086000 6.026000 # H2 TIP
514 31 8 -0.834000 18.561001 19.697001 8.512000 # O TIP
515 31 4 0.417000 18.992001 18.898001 8.209000 # H1 TIP
516 31 5 0.417000 17.837999 19.827000 7.898000 # H2 TIP
517 32 8 -0.834000 17.403000 12.444000 11.376000 # O TIP
518 32 4 0.417000 17.754000 13.080000 10.752000 # H1 TIP
519 32 5 0.417000 17.388000 11.617000 10.894000 # H2 TIP
520 33 8 -0.834000 20.777000 33.890999 9.291000 # O TIP
521 33 4 0.417000 21.007999 32.967999 9.398000 # H1 TIP
522 33 5 0.417000 20.209000 33.908001 8.520000 # H2 TIP
523 34 8 -0.834000 15.551000 31.863001 1.082000 # O TIP
524 34 4 0.417000 16.160999 32.207001 1.735000 # H1 TIP
525 34 5 0.417000 15.250000 31.031000 1.449000 # H2 TIP
526 35 8 -0.834000 18.058001 33.688999 7.735000 # O TIP
527 35 4 0.417000 17.226000 33.852001 7.292000 # H1 TIP
528 35 5 0.417000 18.478001 33.005001 7.213000 # H2 TIP