LAMMPS data file. CGCMM style. atom_style full generated by VMD/TopoTools v1.8 on Sat May 03 07:10:16 EDT 2025
 11556 atoms
 9594 bonds
 0 angles
 0 dihedrals
 0 impropers
 13 atom types
 1 bond types
 0 angle types
 0 dihedral types
 0 improper types
 -150.000000 150.000000  xlo xhi
 -150.000000 150.000000  ylo yhi
 -6.193500 6.306500  zlo zhi

# Pair Coeffs
#
# 1  CL
# 2  CR
# 3  H
# 4  H1
# 5  H2
# 6  Mo
# 7  NA
# 8  O
# 9  O1
# 10  O2
# 11  O3
# 12  O4
# 13  S

# Bond Coeffs
#
# 1  

 Masses

 1 35.452999 # CL
 2 12.011000 # CR
 3 1.008000 # H
 4 1.008000 # H1
 5 1.008000 # H2
 6 95.940002 # Mo
 7 22.989771 # NA
 8 15.999000 # O
 9 15.999000 # O1
 10 15.999000 # O2
 11 15.999000 # O3
 12 15.999000 # O4
 13 32.064999 # S

 Atoms # full

1 1 6 0.734000 49.966999 0.000000 -3.130000 # Mo MOL
2 1 13 -0.370000 49.959000 0.918000 -1.565000 # S MOL
3 1 13 -0.370000 49.959000 0.918000 -4.695000 # S MOL
4 1 6 0.734000 49.966999 0.000000 0.000000 # Mo MOL
5 1 13 -0.370000 49.959000 0.918000 1.565000 # S MOL
6 1 13 -0.370000 49.959000 0.918000 -1.565000 # S MOL
7 1 6 0.734000 49.966999 0.000000 3.130000 # Mo MOL
8 1 13 -0.370000 49.959000 0.918000 4.695000 # S MOL
9 1 13 -0.370000 49.959000 0.918000 1.565000 # S MOL
10 1 6 0.734000 49.890999 2.753000 -3.130000 # Mo MOL
11 1 13 -0.370000 49.832001 3.669000 -1.565000 # S MOL
12 1 13 -0.370000 49.832001 3.669000 -4.695000 # S MOL
13 1 6 0.734000 49.890999 2.753000 0.000000 # Mo MOL
14 1 13 -0.370000 49.832001 3.669000 1.565000 # S MOL
15 1 13 -0.370000 49.832001 3.669000 -1.565000 # S MOL
16 1 6 0.734000 49.890999 2.753000 3.130000 # Mo MOL
17 1 13 -0.370000 49.832001 3.669000 4.695000 # S MOL
18 1 13 -0.370000 49.832001 3.669000 1.565000 # S MOL
19 1 6 0.734000 49.664001 5.497000 -3.130000 # Mo MOL
20 1 13 -0.370000 49.554001 6.408000 -1.565000 # S MOL
21 1 13 -0.370000 49.554001 6.408000 -4.695000 # S MOL
22 1 6 0.734000 49.664001 5.497000 0.000000 # Mo MOL
23 1 13 -0.370000 49.554001 6.408000 1.565000 # S MOL
24 1 13 -0.370000 49.554001 6.408000 -1.565000 # S MOL
25 1 6 0.734000 49.664001 5.497000 3.130000 # Mo MOL
26 1 13 -0.370000 49.554001 6.408000 4.695000 # S MOL
27 1 13 -0.370000 49.554001 6.408000 1.565000 # S MOL
28 1 6 0.734000 49.285000 8.224000 -3.130000 # Mo MOL
29 1 13 -0.370000 49.125999 9.128000 -1.565000 # S MOL
30 1 13 -0.370000 49.125999 9.128000 -4.695000 # S MOL
31 1 6 0.734000 49.285000 8.224000 0.000000 # Mo MOL
32 1 13 -0.370000 49.125999 9.128000 1.565000 # S MOL
33 1 13 -0.370000 49.125999 9.128000 -1.565000 # S MOL
34 1 6 0.734000 49.285000 8.224000 3.130000 # Mo MOL
35 1 13 -0.370000 49.125999 9.128000 4.695000 # S MOL
36 1 13 -0.370000 49.125999 9.128000 1.565000 # S MOL
37 1 6 0.734000 48.757999 10.927000 -3.130000 # Mo MOL
38 1 13 -0.370000 48.549000 11.821000 -1.565000 # S MOL
39 1 13 -0.370000 48.549000 11.821000 -4.695000 # S MOL
40 1 6 0.734000 48.757999 10.927000 0.000000 # Mo MOL
41 1 13 -0.370000 48.549000 11.821000 1.565000 # S MOL
42 1 13 -0.370000 48.549000 11.821000 -1.565000 # S MOL
43 1 6 0.734000 48.757999 10.927000 3.130000 # Mo MOL
44 1 13 -0.370000 48.549000 11.821000 4.695000 # S MOL
45 1 13 -0.370000 48.549000 11.821000 1.565000 # S MOL
46 1 6 0.734000 48.082001 13.596000 -3.130000 # Mo MOL
47 1 13 -0.370000 47.824001 14.477000 -1.565000 # S MOL
48 1 13 -0.370000 47.824001 14.477000 -4.695000 # S MOL
49 1 6 0.734000 48.082001 13.596000 0.000000 # Mo MOL
50 1 13 -0.370000 47.824001 14.477000 1.565000 # S MOL
51 1 13 -0.370000 47.824001 14.477000 -1.565000 # S MOL
52 1 6 0.734000 48.082001 13.596000 3.130000 # Mo MOL
53 1 13 -0.370000 47.824001 14.477000 4.695000 # S MOL
54 1 13 -0.370000 47.824001 14.477000 1.565000 # S MOL
55 1 6 0.734000 47.259998 16.224001 -3.130000 # Mo MOL
56 1 13 -0.370000 46.953999 17.090000 -1.565000 # S MOL
57 1 13 -0.370000 46.953999 17.090000 -4.695000 # S MOL
58 1 6 0.734000 47.259998 16.224001 0.000000 # Mo MOL
59 1 13 -0.370000 46.953999 17.090000 1.565000 # S MOL
60 1 13 -0.370000 46.953999 17.090000 -1.565000 # S MOL
61 1 6 0.734000 47.259998 16.224001 3.130000 # Mo MOL
62 1 13 -0.370000 46.953999 17.090000 4.695000 # S MOL
63 1 13 -0.370000 46.953999 17.090000 1.565000 # S MOL
64 1 6 0.734000 46.293999 18.802999 -3.130000 # Mo MOL
65 1 13 -0.370000 45.941002 19.650000 -1.565000 # S MOL
66 1 13 -0.370000 45.941002 19.650000 -4.695000 # S MOL
67 1 6 0.734000 46.293999 18.802999 0.000000 # Mo MOL
68 1 13 -0.370000 45.941002 19.650000 1.565000 # S MOL
69 1 13 -0.370000 45.941002 19.650000 -1.565000 # S MOL
70 1 6 0.734000 46.293999 18.802999 3.130000 # Mo MOL
71 1 13 -0.370000 45.941002 19.650000 4.695000 # S MOL
72 1 13 -0.370000 45.941002 19.650000 1.565000 # S MOL
73 1 6 0.734000 45.188000 21.325001 -3.130000 # Mo MOL
74 1 13 -0.370000 44.789001 22.150999 -1.565000 # S MOL
75 1 13 -0.370000 44.789001 22.150999 -4.695000 # S MOL
76 1 6 0.734000 45.188000 21.325001 0.000000 # Mo MOL
77 1 13 -0.370000 44.789001 22.150999 1.565000 # S MOL
78 1 13 -0.370000 44.789001 22.150999 -1.565000 # S MOL
79 1 6 0.734000 45.188000 21.325001 3.130000 # Mo MOL
80 1 13 -0.370000 44.789001 22.150999 4.695000 # S MOL
81 1 13 -0.370000 44.789001 22.150999 1.565000 # S MOL
82 1 6 0.734000 43.945000 23.782000 -3.130000 # Mo MOL
83 1 13 -0.370000 43.500000 24.584999 -1.565000 # S MOL
84 1 13 -0.370000 43.500000 24.584999 -4.695000 # S MOL
85 1 6 0.734000 43.945000 23.782000 0.000000 # Mo MOL
86 1 13 -0.370000 43.500000 24.584999 1.565000 # S MOL
87 1 13 -0.370000 43.500000 24.584999 -1.565000 # S MOL
88 1 6 0.734000 43.945000 23.782000 3.130000 # Mo MOL
89 1 13 -0.370000 43.500000 24.584999 4.695000 # S MOL
90 1 13 -0.370000 43.500000 24.584999 1.565000 # S MOL
91 1 6 0.734000 42.568001 26.166000 -3.130000 # Mo MOL
92 1 13 -0.370000 42.080002 26.944000 -1.565000 # S MOL
93 1 13 -0.370000 42.080002 26.944000 -4.695000 # S MOL
94 1 6 0.734000 42.568001 26.166000 0.000000 # Mo MOL
95 1 13 -0.370000 42.080002 26.944000 1.565000 # S MOL
96 1 13 -0.370000 42.080002 26.944000 -1.565000 # S MOL
97 1 6 0.734000 42.568001 26.166000 3.130000 # Mo MOL
98 1 13 -0.370000 42.080002 26.944000 4.695000 # S MOL
99 1 13 -0.370000 42.080002 26.944000 1.565000 # S MOL
100 1 6 0.734000 41.062000 28.472000 -3.130000 # Mo MOL
101 1 13 -0.370000 40.532001 29.221001 -1.565000 # S MOL
102 1 13 -0.370000 40.532001 29.221001 -4.695000 # S MOL
103 1 6 0.734000 41.062000 28.472000 0.000000 # Mo MOL
104 1 13 -0.370000 40.532001 29.221001 1.565000 # S MOL
105 1 13 -0.370000 40.532001 29.221001 -1.565000 # S MOL
106 1 6 0.734000 41.062000 28.472000 3.130000 # Mo MOL
107 1 13 -0.370000 40.532001 29.221001 4.695000 # S MOL
108 1 13 -0.370000 40.532001 29.221001 1.565000 # S MOL
109 1 6 0.734000 39.431000 30.690001 -3.130000 # Mo MOL
110 1 13 -0.370000 38.860001 31.410000 -1.565000 # S MOL
111 1 13 -0.370000 38.860001 31.410000 -4.695000 # S MOL
112 1 6 0.734000 39.431000 30.690001 0.000000 # Mo MOL
113 1 13 -0.370000 38.860001 31.410000 1.565000 # S MOL
114 1 13 -0.370000 38.860001 31.410000 -1.565000 # S MOL
115 1 6 0.734000 39.431000 30.690001 3.130000 # Mo MOL
116 1 13 -0.370000 38.860001 31.410000 4.695000 # S MOL
117 1 13 -0.370000 38.860001 31.410000 1.565000 # S MOL
118 1 6 0.734000 37.680000 32.816002 -3.130000 # Mo MOL
119 1 13 -0.370000 37.070999 33.502998 -1.565000 # S MOL
120 1 13 -0.370000 37.070999 33.502998 -4.695000 # S MOL
121 1 6 0.734000 37.680000 32.816002 0.000000 # Mo MOL
122 1 13 -0.370000 37.070999 33.502998 1.565000 # S MOL
123 1 13 -0.370000 37.070999 33.502998 -1.565000 # S MOL
124 1 6 0.734000 37.680000 32.816002 3.130000 # Mo MOL
125 1 13 -0.370000 37.070999 33.502998 4.695000 # S MOL
126 1 13 -0.370000 37.070999 33.502998 1.565000 # S MOL
127 1 6 0.734000 35.814999 34.841999 -3.130000 # Mo MOL
128 1 13 -0.370000 35.168999 35.493999 -1.565000 # S MOL
129 1 13 -0.370000 35.168999 35.493999 -4.695000 # S MOL
130 1 6 0.734000 35.814999 34.841999 0.000000 # Mo MOL
131 1 13 -0.370000 35.168999 35.493999 1.565000 # S MOL
132 1 13 -0.370000 35.168999 35.493999 -1.565000 # S MOL
133 1 6 0.734000 35.814999 34.841999 3.130000 # Mo MOL
134 1 13 -0.370000 35.168999 35.493999 4.695000 # S MOL
135 1 13 -0.370000 35.168999 35.493999 1.565000 # S MOL
136 1 6 0.734000 33.841999 36.762001 -3.130000 # Mo MOL
137 1 13 -0.370000 33.160999 37.376999 -1.565000 # S MOL
138 1 13 -0.370000 33.160999 37.376999 -4.695000 # S MOL
139 1 6 0.734000 33.841999 36.762001 0.000000 # Mo MOL
140 1 13 -0.370000 33.160999 37.376999 1.565000 # S MOL
141 1 13 -0.370000 33.160999 37.376999 -1.565000 # S MOL
142 1 6 0.734000 33.841999 36.762001 3.130000 # Mo MOL
143 1 13 -0.370000 33.160999 37.376999 4.695000 # S MOL
144 1 13 -0.370000 33.160999 37.376999 1.565000 # S MOL
145 1 6 0.734000 31.764999 38.570000 -3.130000 # Mo MOL
146 1 13 -0.370000 31.051001 39.146999 -1.565000 # S MOL
147 1 13 -0.370000 31.051001 39.146999 -4.695000 # S MOL
148 1 6 0.734000 31.764999 38.570000 0.000000 # Mo MOL
149 1 13 -0.370000 31.051001 39.146999 1.565000 # S MOL
150 1 13 -0.370000 31.051001 39.146999 -1.565000 # S MOL
151 1 6 0.734000 31.764999 38.570000 3.130000 # Mo MOL
152 1 13 -0.370000 31.051001 39.146999 4.695000 # S MOL
153 1 13 -0.370000 31.051001 39.146999 1.565000 # S MOL
154 1 6 0.734000 29.591999 40.262001 -3.130000 # Mo MOL
155 1 13 -0.370000 28.848000 40.798000 -1.565000 # S MOL
156 1 13 -0.370000 28.848000 40.798000 -4.695000 # S MOL
157 1 6 0.734000 29.591999 40.262001 0.000000 # Mo MOL
158 1 13 -0.370000 28.848000 40.798000 1.565000 # S MOL
159 1 13 -0.370000 28.848000 40.798000 -1.565000 # S MOL
160 1 6 0.734000 29.591999 40.262001 3.130000 # Mo MOL
161 1 13 -0.370000 28.848000 40.798000 4.695000 # S MOL
162 1 13 -0.370000 28.848000 40.798000 1.565000 # S MOL
163 1 6 0.734000 27.329000 41.831001 -3.130000 # Mo MOL
164 1 13 -0.370000 26.556000 42.326000 -1.565000 # S MOL
165 1 13 -0.370000 26.556000 42.326000 -4.695000 # S MOL
166 1 6 0.734000 27.329000 41.831001 0.000000 # Mo MOL
167 1 13 -0.370000 26.556000 42.326000 1.565000 # S MOL
168 1 13 -0.370000 26.556000 42.326000 -1.565000 # S MOL
169 1 6 0.734000 27.329000 41.831001 3.130000 # Mo MOL
170 1 13 -0.370000 26.556000 42.326000 4.695000 # S MOL
171 1 13 -0.370000 26.556000 42.326000 1.565000 # S MOL
172 1 6 0.734000 24.983000 43.272999 -3.130000 # Mo MOL
173 1 13 -0.370000 24.184000 43.723999 -1.565000 # S MOL
174 1 13 -0.370000 24.184000 43.723999 -4.695000 # S MOL
175 1 6 0.734000 24.983000 43.272999 0.000000 # Mo MOL
176 1 13 -0.370000 24.184000 43.723999 1.565000 # S MOL
177 1 13 -0.370000 24.184000 43.723999 -1.565000 # S MOL
178 1 6 0.734000 24.983000 43.272999 3.130000 # Mo MOL
179 1 13 -0.370000 24.184000 43.723999 4.695000 # S MOL
180 1 13 -0.370000 24.184000 43.723999 1.565000 # S MOL
181 1 6 0.734000 22.562000 44.583000 -3.130000 # Mo MOL
182 1 13 -0.370000 21.739000 44.990002 -1.565000 # S MOL
183 1 13 -0.370000 21.739000 44.990002 -4.695000 # S MOL
184 1 6 0.734000 22.562000 44.583000 0.000000 # Mo MOL
185 1 13 -0.370000 21.739000 44.990002 1.565000 # S MOL
186 1 13 -0.370000 21.739000 44.990002 -1.565000 # S MOL
187 1 6 0.734000 22.562000 44.583000 3.130000 # Mo MOL
188 1 13 -0.370000 21.739000 44.990002 4.695000 # S MOL
189 1 13 -0.370000 21.739000 44.990002 1.565000 # S MOL
190 1 6 0.734000 20.070999 45.757999 -3.130000 # Mo MOL
191 1 13 -0.370000 19.226999 46.118999 -1.565000 # S MOL
192 1 13 -0.370000 19.226999 46.118999 -4.695000 # S MOL
193 1 6 0.734000 20.070999 45.757999 0.000000 # Mo MOL
194 1 13 -0.370000 19.226999 46.118999 1.565000 # S MOL
195 1 13 -0.370000 19.226999 46.118999 -1.565000 # S MOL
196 1 6 0.734000 20.070999 45.757999 3.130000 # Mo MOL
197 1 13 -0.370000 19.226999 46.118999 4.695000 # S MOL
198 1 13 -0.370000 19.226999 46.118999 1.565000 # S MOL
199 1 6 0.734000 17.520000 46.794998 -3.130000 # Mo MOL
200 1 13 -0.370000 16.658001 47.109001 -1.565000 # S MOL
201 1 13 -0.370000 16.658001 47.109001 -4.695000 # S MOL
202 1 6 0.734000 17.520000 46.794998 0.000000 # Mo MOL
203 1 13 -0.370000 16.658001 47.109001 1.565000 # S MOL
204 1 13 -0.370000 16.658001 47.109001 -1.565000 # S MOL
205 1 6 0.734000 17.520000 46.794998 3.130000 # Mo MOL
206 1 13 -0.370000 16.658001 47.109001 4.695000 # S MOL
207 1 13 -0.370000 16.658001 47.109001 1.565000 # S MOL
208 1 6 0.734000 14.916000 47.688999 -3.130000 # Mo MOL
209 1 13 -0.370000 14.037000 47.955002 -1.565000 # S MOL
210 1 13 -0.370000 14.037000 47.955002 -4.695000 # S MOL
211 1 6 0.734000 14.916000 47.688999 0.000000 # Mo MOL
212 1 13 -0.370000 14.037000 47.955002 1.565000 # S MOL
213 1 13 -0.370000 14.037000 47.955002 -1.565000 # S MOL
214 1 6 0.734000 14.916000 47.688999 3.130000 # Mo MOL
215 1 13 -0.370000 14.037000 47.955002 4.695000 # S MOL
216 1 13 -0.370000 14.037000 47.955002 1.565000 # S MOL
217 1 6 0.734000 12.266000 48.438000 -3.130000 # Mo MOL
218 1 13 -0.370000 11.374000 48.654999 -1.565000 # S MOL
219 1 13 -0.370000 11.374000 48.654999 -4.695000 # S MOL
220 1 6 0.734000 12.266000 48.438000 0.000000 # Mo MOL
221 1 13 -0.370000 11.374000 48.654999 1.565000 # S MOL
222 1 13 -0.370000 11.374000 48.654999 -1.565000 # S MOL
223 1 6 0.734000 12.266000 48.438000 3.130000 # Mo MOL
224 1 13 -0.370000 11.374000 48.654999 4.695000 # S MOL
225 1 13 -0.370000 11.374000 48.654999 1.565000 # S MOL
226 1 6 0.734000 9.579000 49.040001 -3.130000 # Mo MOL
227 1 13 -0.370000 8.677000 49.208000 -1.565000 # S MOL
228 1 13 -0.370000 8.677000 49.208000 -4.695000 # S MOL
229 1 6 0.734000 9.579000 49.040001 0.000000 # Mo MOL
230 1 13 -0.370000 8.677000 49.208000 1.565000 # S MOL
231 1 13 -0.370000 8.677000 49.208000 -1.565000 # S MOL
232 1 6 0.734000 9.579000 49.040001 3.130000 # Mo MOL
233 1 13 -0.370000 8.677000 49.208000 4.695000 # S MOL
234 1 13 -0.370000 8.677000 49.208000 1.565000 # S MOL
235 1 6 0.734000 6.863000 49.493000 -3.130000 # Mo MOL
236 1 13 -0.370000 5.953000 49.611000 -1.565000 # S MOL
237 1 13 -0.370000 5.953000 49.611000 -4.695000 # S MOL
238 1 6 0.734000 6.863000 49.493000 0.000000 # Mo MOL
239 1 13 -0.370000 5.953000 49.611000 1.565000 # S MOL
240 1 13 -0.370000 5.953000 49.611000 -1.565000 # S MOL
241 1 6 0.734000 6.863000 49.493000 3.130000 # Mo MOL
242 1 13 -0.370000 5.953000 49.611000 4.695000 # S MOL
243 1 13 -0.370000 5.953000 49.611000 1.565000 # S MOL
244 1 6 0.734000 4.126000 49.796001 -3.130000 # Mo MOL
245 1 13 -0.370000 3.211000 49.863998 -1.565000 # S MOL
246 1 13 -0.370000 3.211000 49.863998 -4.695000 # S MOL
247 1 6 0.734000 4.126000 49.796001 0.000000 # Mo MOL
248 1 13 -0.370000 3.211000 49.863998 1.565000 # S MOL
249 1 13 -0.370000 3.211000 49.863998 -1.565000 # S MOL
250 1 6 0.734000 4.126000 49.796001 3.130000 # Mo MOL
251 1 13 -0.370000 3.211000 49.863998 4.695000 # S MOL
252 1 13 -0.370000 3.211000 49.863998 1.565000 # S MOL
253 1 6 0.734000 1.377000 49.948002 -3.130000 # Mo MOL
254 1 13 -0.370000 0.459000 49.965000 -1.565000 # S MOL
255 1 13 -0.370000 0.459000 49.965000 -4.695000 # S MOL
256 1 6 0.734000 1.377000 49.948002 0.000000 # Mo MOL
257 1 13 -0.370000 0.459000 49.965000 1.565000 # S MOL
258 1 13 -0.370000 0.459000 49.965000 -1.565000 # S MOL
259 1 6 0.734000 1.377000 49.948002 3.130000 # Mo MOL
260 1 13 -0.370000 0.459000 49.965000 4.695000 # S MOL
261 1 13 -0.370000 0.459000 49.965000 1.565000 # S MOL
262 1 6 0.734000 -1.377000 49.948002 -3.130000 # Mo MOL
263 1 13 -0.370000 -2.294000 49.914001 -1.565000 # S MOL
264 1 13 -0.370000 -2.294000 49.914001 -4.695000 # S MOL
265 1 6 0.734000 -1.377000 49.948002 0.000000 # Mo MOL
266 1 13 -0.370000 -2.294000 49.914001 1.565000 # S MOL
267 1 13 -0.370000 -2.294000 49.914001 -1.565000 # S MOL
268 1 6 0.734000 -1.377000 49.948002 3.130000 # Mo MOL
269 1 13 -0.370000 -2.294000 49.914001 4.695000 # S MOL
270 1 13 -0.370000 -2.294000 49.914001 1.565000 # S MOL
271 1 6 0.734000 -4.126000 49.796001 -3.130000 # Mo MOL
272 1 13 -0.370000 -5.040000 49.712002 -1.565000 # S MOL
273 1 13 -0.370000 -5.040000 49.712002 -4.695000 # S MOL
274 1 6 0.734000 -4.126000 49.796001 0.000000 # Mo MOL
275 1 13 -0.370000 -5.040000 49.712002 1.565000 # S MOL
276 1 13 -0.370000 -5.040000 49.712002 -1.565000 # S MOL
277 1 6 0.734000 -4.126000 49.796001 3.130000 # Mo MOL
278 1 13 -0.370000 -5.040000 49.712002 4.695000 # S MOL
279 1 13 -0.370000 -5.040000 49.712002 1.565000 # S MOL
280 1 6 0.734000 -6.863000 49.493000 -3.130000 # Mo MOL
281 1 13 -0.370000 -7.771000 49.359001 -1.565000 # S MOL
282 1 13 -0.370000 -7.771000 49.359001 -4.695000 # S MOL
283 1 6 0.734000 -6.863000 49.493000 0.000000 # Mo MOL
284 1 13 -0.370000 -7.771000 49.359001 1.565000 # S MOL
285 1 13 -0.370000 -7.771000 49.359001 -1.565000 # S MOL
286 1 6 0.734000 -6.863000 49.493000 3.130000 # Mo MOL
287 1 13 -0.370000 -7.771000 49.359001 4.695000 # S MOL
288 1 13 -0.370000 -7.771000 49.359001 1.565000 # S MOL
289 1 6 0.734000 -9.579000 49.040001 -3.130000 # Mo MOL
290 1 13 -0.370000 -10.478000 48.855999 -1.565000 # S MOL
291 1 13 -0.370000 -10.478000 48.855999 -4.695000 # S MOL
292 1 6 0.734000 -9.579000 49.040001 0.000000 # Mo MOL
293 1 13 -0.370000 -10.478000 48.855999 1.565000 # S MOL
294 1 13 -0.370000 -10.478000 48.855999 -1.565000 # S MOL
295 1 6 0.734000 -9.579000 49.040001 3.130000 # Mo MOL
296 1 13 -0.370000 -10.478000 48.855999 4.695000 # S MOL
297 1 13 -0.370000 -10.478000 48.855999 1.565000 # S MOL
298 1 6 0.734000 -12.266000 48.438000 -3.130000 # Mo MOL
299 1 13 -0.370000 -13.154000 48.203999 -1.565000 # S MOL
300 1 13 -0.370000 -13.154000 48.203999 -4.695000 # S MOL
301 1 6 0.734000 -12.266000 48.438000 0.000000 # Mo MOL
302 1 13 -0.370000 -13.154000 48.203999 1.565000 # S MOL
303 1 13 -0.370000 -13.154000 48.203999 -1.565000 # S MOL
304 1 6 0.734000 -12.266000 48.438000 3.130000 # Mo MOL
305 1 13 -0.370000 -13.154000 48.203999 4.695000 # S MOL
306 1 13 -0.370000 -13.154000 48.203999 1.565000 # S MOL
307 1 6 0.734000 -14.916000 47.688999 -3.130000 # Mo MOL
308 1 13 -0.370000 -15.789000 47.407001 -1.565000 # S MOL
309 1 13 -0.370000 -15.789000 47.407001 -4.695000 # S MOL
310 1 6 0.734000 -14.916000 47.688999 0.000000 # Mo MOL
311 1 13 -0.370000 -15.789000 47.407001 1.565000 # S MOL
312 1 13 -0.370000 -15.789000 47.407001 -1.565000 # S MOL
313 1 6 0.734000 -14.916000 47.688999 3.130000 # Mo MOL
314 1 13 -0.370000 -15.789000 47.407001 4.695000 # S MOL
315 1 13 -0.370000 -15.789000 47.407001 1.565000 # S MOL
316 1 6 0.734000 -17.520000 46.794998 -3.130000 # Mo MOL
317 1 13 -0.370000 -18.377001 46.465000 -1.565000 # S MOL
318 1 13 -0.370000 -18.377001 46.465000 -4.695000 # S MOL
319 1 6 0.734000 -17.520000 46.794998 0.000000 # Mo MOL
320 1 13 -0.370000 -18.377001 46.465000 1.565000 # S MOL
321 1 13 -0.370000 -18.377001 46.465000 -1.565000 # S MOL
322 1 6 0.734000 -17.520000 46.794998 3.130000 # Mo MOL
323 1 13 -0.370000 -18.377001 46.465000 4.695000 # S MOL
324 1 13 -0.370000 -18.377001 46.465000 1.565000 # S MOL
325 1 6 0.734000 -20.070999 45.757999 -3.130000 # Mo MOL
326 1 13 -0.370000 -20.909000 45.382000 -1.565000 # S MOL
327 1 13 -0.370000 -20.909000 45.382000 -4.695000 # S MOL
328 1 6 0.734000 -20.070999 45.757999 0.000000 # Mo MOL
329 1 13 -0.370000 -20.909000 45.382000 1.565000 # S MOL
330 1 13 -0.370000 -20.909000 45.382000 -1.565000 # S MOL
331 1 6 0.734000 -20.070999 45.757999 3.130000 # Mo MOL
332 1 13 -0.370000 -20.909000 45.382000 4.695000 # S MOL
333 1 13 -0.370000 -20.909000 45.382000 1.565000 # S MOL
334 1 6 0.734000 -22.562000 44.583000 -3.130000 # Mo MOL
335 1 13 -0.370000 -23.377001 44.160999 -1.565000 # S MOL
336 1 13 -0.370000 -23.377001 44.160999 -4.695000 # S MOL
337 1 6 0.734000 -22.562000 44.583000 0.000000 # Mo MOL
338 1 13 -0.370000 -23.377001 44.160999 1.565000 # S MOL
339 1 13 -0.370000 -23.377001 44.160999 -1.565000 # S MOL
340 1 6 0.734000 -22.562000 44.583000 3.130000 # Mo MOL
341 1 13 -0.370000 -23.377001 44.160999 4.695000 # S MOL
342 1 13 -0.370000 -23.377001 44.160999 1.565000 # S MOL
343 1 6 0.734000 -24.983000 43.272999 -3.130000 # Mo MOL
344 1 13 -0.370000 -25.774000 42.806000 -1.565000 # S MOL
345 1 13 -0.370000 -25.774000 42.806000 -4.695000 # S MOL
346 1 6 0.734000 -24.983000 43.272999 0.000000 # Mo MOL
347 1 13 -0.370000 -25.774000 42.806000 1.565000 # S MOL
348 1 13 -0.370000 -25.774000 42.806000 -1.565000 # S MOL
349 1 6 0.734000 -24.983000 43.272999 3.130000 # Mo MOL
350 1 13 -0.370000 -25.774000 42.806000 4.695000 # S MOL
351 1 13 -0.370000 -25.774000 42.806000 1.565000 # S MOL
352 1 6 0.734000 -27.329000 41.831001 -3.130000 # Mo MOL
353 1 13 -0.370000 -28.093000 41.321999 -1.565000 # S MOL
354 1 13 -0.370000 -28.093000 41.321999 -4.695000 # S MOL
355 1 6 0.734000 -27.329000 41.831001 0.000000 # Mo MOL
356 1 13 -0.370000 -28.093000 41.321999 1.565000 # S MOL
357 1 13 -0.370000 -28.093000 41.321999 -1.565000 # S MOL
358 1 6 0.734000 -27.329000 41.831001 3.130000 # Mo MOL
359 1 13 -0.370000 -28.093000 41.321999 4.695000 # S MOL
360 1 13 -0.370000 -28.093000 41.321999 1.565000 # S MOL
361 1 6 0.734000 -29.591999 40.262001 -3.130000 # Mo MOL
362 1 13 -0.370000 -30.327000 39.710999 -1.565000 # S MOL
363 1 13 -0.370000 -30.327000 39.710999 -4.695000 # S MOL
364 1 6 0.734000 -29.591999 40.262001 0.000000 # Mo MOL
365 1 13 -0.370000 -30.327000 39.710999 1.565000 # S MOL
366 1 13 -0.370000 -30.327000 39.710999 -1.565000 # S MOL
367 1 6 0.734000 -29.591999 40.262001 3.130000 # Mo MOL
368 1 13 -0.370000 -30.327000 39.710999 4.695000 # S MOL
369 1 13 -0.370000 -30.327000 39.710999 1.565000 # S MOL
370 1 6 0.734000 -31.764999 38.570000 -3.130000 # Mo MOL
371 1 13 -0.370000 -32.467999 37.980000 -1.565000 # S MOL
372 1 13 -0.370000 -32.467999 37.980000 -4.695000 # S MOL
373 1 6 0.734000 -31.764999 38.570000 0.000000 # Mo MOL
374 1 13 -0.370000 -32.467999 37.980000 1.565000 # S MOL
375 1 13 -0.370000 -32.467999 37.980000 -1.565000 # S MOL
376 1 6 0.734000 -31.764999 38.570000 3.130000 # Mo MOL
377 1 13 -0.370000 -32.467999 37.980000 4.695000 # S MOL
378 1 13 -0.370000 -32.467999 37.980000 1.565000 # S MOL
379 1 6 0.734000 -33.841999 36.762001 -3.130000 # Mo MOL
380 1 13 -0.370000 -34.511002 36.133999 -1.565000 # S MOL
381 1 13 -0.370000 -34.511002 36.133999 -4.695000 # S MOL
382 1 6 0.734000 -33.841999 36.762001 0.000000 # Mo MOL
383 1 13 -0.370000 -34.511002 36.133999 1.565000 # S MOL
384 1 13 -0.370000 -34.511002 36.133999 -1.565000 # S MOL
385 1 6 0.734000 -33.841999 36.762001 3.130000 # Mo MOL
386 1 13 -0.370000 -34.511002 36.133999 4.695000 # S MOL
387 1 13 -0.370000 -34.511002 36.133999 1.565000 # S MOL
388 1 6 0.734000 -35.814999 34.841999 -3.130000 # Mo MOL
389 1 13 -0.370000 -36.449001 34.178001 -1.565000 # S MOL
390 1 13 -0.370000 -36.449001 34.178001 -4.695000 # S MOL
391 1 6 0.734000 -35.814999 34.841999 0.000000 # Mo MOL
392 1 13 -0.370000 -36.449001 34.178001 1.565000 # S MOL
393 1 13 -0.370000 -36.449001 34.178001 -1.565000 # S MOL
394 1 6 0.734000 -35.814999 34.841999 3.130000 # Mo MOL
395 1 13 -0.370000 -36.449001 34.178001 4.695000 # S MOL
396 1 13 -0.370000 -36.449001 34.178001 1.565000 # S MOL
397 1 6 0.734000 -37.680000 32.816002 -3.130000 # Mo MOL
398 1 13 -0.370000 -38.277000 32.118000 -1.565000 # S MOL
399 1 13 -0.370000 -38.277000 32.118000 -4.695000 # S MOL
400 1 6 0.734000 -37.680000 32.816002 0.000000 # Mo MOL
401 1 13 -0.370000 -38.277000 32.118000 1.565000 # S MOL
402 1 13 -0.370000 -38.277000 32.118000 -1.565000 # S MOL
403 1 6 0.734000 -37.680000 32.816002 3.130000 # Mo MOL
404 1 13 -0.370000 -38.277000 32.118000 4.695000 # S MOL
405 1 13 -0.370000 -38.277000 32.118000 1.565000 # S MOL
406 1 6 0.734000 -39.431000 30.690001 -3.130000 # Mo MOL
407 1 13 -0.370000 -39.987999 29.961000 -1.565000 # S MOL
408 1 13 -0.370000 -39.987999 29.961000 -4.695000 # S MOL
409 1 6 0.734000 -39.431000 30.690001 0.000000 # Mo MOL
410 1 13 -0.370000 -39.987999 29.961000 1.565000 # S MOL
411 1 13 -0.370000 -39.987999 29.961000 -1.565000 # S MOL
412 1 6 0.734000 -39.431000 30.690001 3.130000 # Mo MOL
413 1 13 -0.370000 -39.987999 29.961000 4.695000 # S MOL
414 1 13 -0.370000 -39.987999 29.961000 1.565000 # S MOL
415 1 6 0.734000 -41.062000 28.472000 -3.130000 # Mo MOL
416 1 13 -0.370000 -41.577999 27.712000 -1.565000 # S MOL
417 1 13 -0.370000 -41.577999 27.712000 -4.695000 # S MOL
418 1 6 0.734000 -41.062000 28.472000 0.000000 # Mo MOL
419 1 13 -0.370000 -41.577999 27.712000 1.565000 # S MOL
420 1 13 -0.370000 -41.577999 27.712000 -1.565000 # S MOL
421 1 6 0.734000 -41.062000 28.472000 3.130000 # Mo MOL
422 1 13 -0.370000 -41.577999 27.712000 4.695000 # S MOL
423 1 13 -0.370000 -41.577999 27.712000 1.565000 # S MOL
424 1 6 0.734000 -42.568001 26.166000 -3.130000 # Mo MOL
425 1 13 -0.370000 -43.041000 25.379999 -1.565000 # S MOL
426 1 13 -0.370000 -43.041000 25.379999 -4.695000 # S MOL
427 1 6 0.734000 -42.568001 26.166000 0.000000 # Mo MOL
428 1 13 -0.370000 -43.041000 25.379999 1.565000 # S MOL
429 1 13 -0.370000 -43.041000 25.379999 -1.565000 # S MOL
430 1 6 0.734000 -42.568001 26.166000 3.130000 # Mo MOL
431 1 13 -0.370000 -43.041000 25.379999 4.695000 # S MOL
432 1 13 -0.370000 -43.041000 25.379999 1.565000 # S MOL
433 1 6 0.734000 -43.945000 23.782000 -3.130000 # Mo MOL
434 1 13 -0.370000 -44.374001 22.969999 -1.565000 # S MOL
435 1 13 -0.370000 -44.374001 22.969999 -4.695000 # S MOL
436 1 6 0.734000 -43.945000 23.782000 0.000000 # Mo MOL
437 1 13 -0.370000 -44.374001 22.969999 1.565000 # S MOL
438 1 13 -0.370000 -44.374001 22.969999 -1.565000 # S MOL
439 1 6 0.734000 -43.945000 23.782000 3.130000 # Mo MOL
440 1 13 -0.370000 -44.374001 22.969999 4.695000 # S MOL
441 1 13 -0.370000 -44.374001 22.969999 1.565000 # S MOL
442 1 6 0.734000 -45.188000 21.325001 -3.130000 # Mo MOL
443 1 13 -0.370000 -45.571999 20.490999 -1.565000 # S MOL
444 1 13 -0.370000 -45.571999 20.490999 -4.695000 # S MOL
445 1 6 0.734000 -45.188000 21.325001 0.000000 # Mo MOL
446 1 13 -0.370000 -45.571999 20.490999 1.565000 # S MOL
447 1 13 -0.370000 -45.571999 20.490999 -1.565000 # S MOL
448 1 6 0.734000 -45.188000 21.325001 3.130000 # Mo MOL
449 1 13 -0.370000 -45.571999 20.490999 4.695000 # S MOL
450 1 13 -0.370000 -45.571999 20.490999 1.565000 # S MOL
451 1 6 0.734000 -46.293999 18.802999 -3.130000 # Mo MOL
452 1 13 -0.370000 -46.632000 17.948999 -1.565000 # S MOL
453 1 13 -0.370000 -46.632000 17.948999 -4.695000 # S MOL
454 1 6 0.734000 -46.293999 18.802999 0.000000 # Mo MOL
455 1 13 -0.370000 -46.632000 17.948999 1.565000 # S MOL
456 1 13 -0.370000 -46.632000 17.948999 -1.565000 # S MOL
457 1 6 0.734000 -46.293999 18.802999 3.130000 # Mo MOL
458 1 13 -0.370000 -46.632000 17.948999 4.695000 # S MOL
459 1 13 -0.370000 -46.632000 17.948999 1.565000 # S MOL
460 1 6 0.734000 -47.259998 16.224001 -3.130000 # Mo MOL
461 1 13 -0.370000 -47.549999 15.353000 -1.565000 # S MOL
462 1 13 -0.370000 -47.549999 15.353000 -4.695000 # S MOL
463 1 6 0.734000 -47.259998 16.224001 0.000000 # Mo MOL
464 1 13 -0.370000 -47.549999 15.353000 1.565000 # S MOL
465 1 13 -0.370000 -47.549999 15.353000 -1.565000 # S MOL
466 1 6 0.734000 -47.259998 16.224001 3.130000 # Mo MOL
467 1 13 -0.370000 -47.549999 15.353000 4.695000 # S MOL
468 1 13 -0.370000 -47.549999 15.353000 1.565000 # S MOL
469 1 6 0.734000 -48.082001 13.596000 -3.130000 # Mo MOL
470 1 13 -0.370000 -48.323002 12.711000 -1.565000 # S MOL
471 1 13 -0.370000 -48.323002 12.711000 -4.695000 # S MOL
472 1 6 0.734000 -48.082001 13.596000 0.000000 # Mo MOL
473 1 13 -0.370000 -48.323002 12.711000 1.565000 # S MOL
474 1 13 -0.370000 -48.323002 12.711000 -1.565000 # S MOL
475 1 6 0.734000 -48.082001 13.596000 3.130000 # Mo MOL
476 1 13 -0.370000 -48.323002 12.711000 4.695000 # S MOL
477 1 13 -0.370000 -48.323002 12.711000 1.565000 # S MOL
478 1 6 0.734000 -48.757999 10.927000 -3.130000 # Mo MOL
479 1 13 -0.370000 -48.950001 10.029000 -1.565000 # S MOL
480 1 13 -0.370000 -48.950001 10.029000 -4.695000 # S MOL
481 1 6 0.734000 -48.757999 10.927000 0.000000 # Mo MOL
482 1 13 -0.370000 -48.950001 10.029000 1.565000 # S MOL
483 1 13 -0.370000 -48.950001 10.029000 -1.565000 # S MOL
484 1 6 0.734000 -48.757999 10.927000 3.130000 # Mo MOL
485 1 13 -0.370000 -48.950001 10.029000 4.695000 # S MOL
486 1 13 -0.370000 -48.950001 10.029000 1.565000 # S MOL
487 1 6 0.734000 -49.285000 8.224000 -3.130000 # Mo MOL
488 1 13 -0.370000 -49.428001 7.317000 -1.565000 # S MOL
489 1 13 -0.370000 -49.428001 7.317000 -4.695000 # S MOL
490 1 6 0.734000 -49.285000 8.224000 0.000000 # Mo MOL
491 1 13 -0.370000 -49.428001 7.317000 1.565000 # S MOL
492 1 13 -0.370000 -49.428001 7.317000 -1.565000 # S MOL
493 1 6 0.734000 -49.285000 8.224000 3.130000 # Mo MOL
494 1 13 -0.370000 -49.428001 7.317000 4.695000 # S MOL
495 1 13 -0.370000 -49.428001 7.317000 1.565000 # S MOL
496 1 6 0.734000 -49.664001 5.497000 -3.130000 # Mo MOL
497 1 13 -0.370000 -49.756001 4.583000 -1.565000 # S MOL
498 1 13 -0.370000 -49.756001 4.583000 -4.695000 # S MOL
499 1 6 0.734000 -49.664001 5.497000 0.000000 # Mo MOL
500 1 13 -0.370000 -49.756001 4.583000 1.565000 # S MOL
501 1 13 -0.370000 -49.756001 4.583000 -1.565000 # S MOL
502 1 6 0.734000 -49.664001 5.497000 3.130000 # Mo MOL
503 1 13 -0.370000 -49.756001 4.583000 4.695000 # S MOL
504 1 13 -0.370000 -49.756001 4.583000 1.565000 # S MOL
505 1 6 0.734000 -49.890999 2.753000 -3.130000 # Mo MOL
506 1 13 -0.370000 -49.932999 1.836000 -1.565000 # S MOL
507 1 13 -0.370000 -49.932999 1.836000 -4.695000 # S MOL
508 1 6 0.734000 -49.890999 2.753000 0.000000 # Mo MOL
509 1 13 -0.370000 -49.932999 1.836000 1.565000 # S MOL
510 1 13 -0.370000 -49.932999 1.836000 -1.565000 # S MOL
511 1 6 0.734000 -49.890999 2.753000 3.130000 # Mo MOL
512 1 13 -0.370000 -49.932999 1.836000 4.695000 # S MOL
513 1 13 -0.370000 -49.932999 1.836000 1.565000 # S MOL
514 1 6 0.734000 -49.966999 0.000000 -3.130000 # Mo MOL
515 1 13 -0.370000 -49.959000 -0.918000 -1.565000 # S MOL
516 1 13 -0.370000 -49.959000 -0.918000 -4.695000 # S MOL
517 1 6 0.734000 -49.966999 0.000000 0.000000 # Mo MOL
518 1 13 -0.370000 -49.959000 -0.918000 1.565000 # S MOL
519 1 13 -0.370000 -49.959000 -0.918000 -1.565000 # S MOL
520 1 6 0.734000 -49.966999 0.000000 3.130000 # Mo MOL