LAMMPS data file. CGCMM style. atom_style full generated by VMD/TopoTools v1.8 on Mon May 26 13:14:22 EDT 2025
 3824 atoms
 1936 bonds
 982 angles
 0 dihedrals
 0 impropers
 13 atom types
 3 bond types
 2 angle types
 0 dihedral types
 0 improper types
 0.000001 50.000001  xlo xhi
 0.000001 50.000001  ylo yhi
 -0.000000 22.330000  zlo zhi

# Pair Coeffs
#
# 1  CL
# 2  CR
# 3  H
# 4  H1
# 5  H2
# 6  Mo
# 7  NA
# 8  O
# 9  O1
# 10  O2
# 11  O3
# 12  O4
# 13  S

# Bond Coeffs
#
# 1  1
# 2  2
# 3  3

# Angle Coeffs
#
# 1  1
# 2  2

 Masses

 1 35.452999 # CL
 2 12.011000 # CR
 3 1.008000 # H
 4 1.008000 # H1
 5 1.008000 # H2
 6 95.940002 # Mo
 7 22.989771 # NA
 8 15.999000 # O
 9 15.999000 # O1
 10 15.999000 # O2
 11 15.999000 # O3
 12 15.999000 # O4
 13 32.064999 # S

 Atoms # full

1 1 6 0.734000 45.244999 25.000000 1.595000 # Mo MOL
2 1 13 -0.370570 47.080002 25.000000 3.190000 # S MOL
3 1 13 -0.370570 46.097000 26.660000 0.000000 # S MOL
4 1 6 0.734000 45.244999 25.000000 4.785000 # Mo MOL
5 1 13 -0.370570 47.080002 25.000000 6.380000 # S MOL
6 1 13 -0.370570 46.097000 26.660000 3.190000 # S MOL
7 1 6 0.734000 45.244999 25.000000 7.975000 # Mo MOL
8 1 13 -0.370570 47.080002 25.000000 9.570000 # S MOL
9 1 13 -0.370570 46.097000 26.660000 6.380000 # S MOL
10 1 6 0.734000 45.244999 25.000000 11.165000 # Mo MOL
11 1 13 -0.370570 47.080002 25.000000 12.760000 # S MOL
12 1 13 -0.370570 46.097000 26.660000 9.570000 # S MOL
13 1 6 0.734000 45.244999 25.000000 14.355000 # Mo MOL
14 1 13 -0.370570 47.080002 25.000000 15.950000 # S MOL
15 1 13 -0.370570 46.097000 26.660000 12.760000 # S MOL
16 1 6 0.734000 45.244999 25.000000 17.545000 # Mo MOL
17 1 13 -0.370570 47.080002 25.000000 19.139999 # S MOL
18 1 13 -0.370570 46.097000 26.660000 15.950000 # S MOL
19 1 6 0.734000 45.244999 25.000000 20.735001 # Mo MOL
20 1 13 -0.370570 47.080002 25.000000 22.330000 # S MOL
21 1 13 -0.370570 46.097000 26.660000 19.139999 # S MOL
22 1 6 0.734000 44.994999 28.167000 1.595000 # Mo MOL
23 1 13 -0.370570 46.808998 28.454000 3.190000 # S MOL
24 1 13 -0.370570 45.577999 29.940001 0.000000 # S MOL
25 1 6 0.734000 44.994999 28.167000 4.785000 # Mo MOL
26 1 13 -0.370570 46.808998 28.454000 6.380000 # S MOL
27 1 13 -0.370570 45.577999 29.940001 3.190000 # S MOL
28 1 6 0.734000 44.994999 28.167000 7.975000 # Mo MOL
29 1 13 -0.370570 46.808998 28.454000 9.570000 # S MOL
30 1 13 -0.370570 45.577999 29.940001 6.380000 # S MOL
31 1 6 0.734000 44.994999 28.167000 11.165000 # Mo MOL
32 1 13 -0.370570 46.808998 28.454000 12.760000 # S MOL
33 1 13 -0.370570 45.577999 29.940001 9.570000 # S MOL
34 1 6 0.734000 44.994999 28.167000 14.355000 # Mo MOL
35 1 13 -0.370570 46.808998 28.454000 15.950000 # S MOL
36 1 13 -0.370570 45.577999 29.940001 12.760000 # S MOL
37 1 6 0.734000 44.994999 28.167000 17.545000 # Mo MOL
38 1 13 -0.370570 46.808998 28.454000 19.139999 # S MOL
39 1 13 -0.370570 45.577999 29.940001 15.950000 # S MOL
40 1 6 0.734000 44.994999 28.167000 20.735001 # Mo MOL
41 1 13 -0.370570 46.808998 28.454000 22.330000 # S MOL
42 1 13 -0.370570 45.577999 29.940001 19.139999 # S MOL
43 1 6 0.734000 44.254002 31.256001 1.595000 # Mo MOL
44 1 13 -0.370570 46.000000 31.823000 3.190000 # S MOL
45 1 13 -0.370570 44.551998 33.098999 0.000000 # S MOL
46 1 6 0.734000 44.254002 31.256001 4.785000 # Mo MOL
47 1 13 -0.370570 46.000000 31.823000 6.380000 # S MOL
48 1 13 -0.370570 44.551998 33.098999 3.190000 # S MOL
49 1 6 0.734000 44.254002 31.256001 7.975000 # Mo MOL
50 1 13 -0.370570 46.000000 31.823000 9.570000 # S MOL
51 1 13 -0.370570 44.551998 33.098999 6.380000 # S MOL
52 1 6 0.734000 44.254002 31.256001 11.165000 # Mo MOL
53 1 13 -0.370570 46.000000 31.823000 12.760000 # S MOL
54 1 13 -0.370570 44.551998 33.098999 9.570000 # S MOL
55 1 6 0.734000 44.254002 31.256001 14.355000 # Mo MOL
56 1 13 -0.370570 46.000000 31.823000 15.950000 # S MOL
57 1 13 -0.370570 44.551998 33.098999 12.760000 # S MOL
58 1 6 0.734000 44.254002 31.256001 17.545000 # Mo MOL
59 1 13 -0.370570 46.000000 31.823000 19.139999 # S MOL
60 1 13 -0.370570 44.551998 33.098999 15.950000 # S MOL
61 1 6 0.734000 44.254002 31.256001 20.735001 # Mo MOL
62 1 13 -0.370570 46.000000 31.823000 22.330000 # S MOL
63 1 13 -0.370570 44.551998 33.098999 19.139999 # S MOL
64 1 6 0.734000 43.037998 34.191002 1.595000 # Mo MOL
65 1 13 -0.370570 44.674000 35.023998 3.190000 # S MOL
66 1 13 -0.370570 43.043999 36.056999 0.000000 # S MOL
67 1 6 0.734000 43.037998 34.191002 4.785000 # Mo MOL
68 1 13 -0.370570 44.674000 35.023998 6.380000 # S MOL
69 1 13 -0.370570 43.043999 36.056999 3.190000 # S MOL
70 1 6 0.734000 43.037998 34.191002 7.975000 # Mo MOL
71 1 13 -0.370570 44.674000 35.023998 9.570000 # S MOL
72 1 13 -0.370570 43.043999 36.056999 6.380000 # S MOL
73 1 6 0.734000 43.037998 34.191002 11.165000 # Mo MOL
74 1 13 -0.370570 44.674000 35.023998 12.760000 # S MOL
75 1 13 -0.370570 43.043999 36.056999 9.570000 # S MOL
76 1 6 0.734000 43.037998 34.191002 14.355000 # Mo MOL
77 1 13 -0.370570 44.674000 35.023998 15.950000 # S MOL
78 1 13 -0.370570 43.043999 36.056999 12.760000 # S MOL
79 1 6 0.734000 43.037998 34.191002 17.545000 # Mo MOL
80 1 13 -0.370570 44.674000 35.023998 19.139999 # S MOL
81 1 13 -0.370570 43.043999 36.056999 15.950000 # S MOL
82 1 6 0.734000 43.037998 34.191002 20.735001 # Mo MOL
83 1 13 -0.370570 44.674000 35.023998 22.330000 # S MOL
84 1 13 -0.370570 43.043999 36.056999 19.139999 # S MOL
85 1 6 0.734000 41.377998 36.898998 1.595000 # Mo MOL
86 1 13 -0.370570 42.862999 37.979000 3.190000 # S MOL
87 1 13 -0.370570 41.091999 38.743999 0.000000 # S MOL
88 1 6 0.734000 41.377998 36.898998 4.785000 # Mo MOL
89 1 13 -0.370570 42.862999 37.979000 6.380000 # S MOL
90 1 13 -0.370570 41.091999 38.743999 3.190000 # S MOL
91 1 6 0.734000 41.377998 36.898998 7.975000 # Mo MOL
92 1 13 -0.370570 42.862999 37.979000 9.570000 # S MOL
93 1 13 -0.370570 41.091999 38.743999 6.380000 # S MOL
94 1 6 0.734000 41.377998 36.898998 11.165000 # Mo MOL
95 1 13 -0.370570 42.862999 37.979000 12.760000 # S MOL
96 1 13 -0.370570 41.091999 38.743999 9.570000 # S MOL
97 1 6 0.734000 41.377998 36.898998 14.355000 # Mo MOL
98 1 13 -0.370570 42.862999 37.979000 15.950000 # S MOL
99 1 13 -0.370570 41.091999 38.743999 12.760000 # S MOL
100 1 6 0.734000 41.377998 36.898998 17.545000 # Mo MOL
101 1 13 -0.370570 42.862999 37.979000 19.139999 # S MOL
102 1 13 -0.370570 41.091999 38.743999 15.950000 # S MOL
103 1 6 0.734000 41.377998 36.898998 20.735001 # Mo MOL
104 1 13 -0.370570 42.862999 37.979000 22.330000 # S MOL
105 1 13 -0.370570 41.091999 38.743999 19.139999 # S MOL
106 1 6 0.734000 39.314999 39.314999 1.595000 # Mo MOL
107 1 13 -0.370570 40.612999 40.612999 3.190000 # S MOL
108 1 13 -0.370570 38.743999 41.091999 0.000000 # S MOL
109 1 6 0.734000 39.314999 39.314999 4.785000 # Mo MOL
110 1 13 -0.370570 40.612999 40.612999 6.380000 # S MOL
111 1 13 -0.370570 38.743999 41.091999 3.190000 # S MOL
112 1 6 0.734000 39.314999 39.314999 7.975000 # Mo MOL
113 1 13 -0.370570 40.612999 40.612999 9.570000 # S MOL
114 1 13 -0.370570 38.743999 41.091999 6.380000 # S MOL
115 1 6 0.734000 39.314999 39.314999 11.165000 # Mo MOL
116 1 13 -0.370570 40.612999 40.612999 12.760000 # S MOL
117 1 13 -0.370570 38.743999 41.091999 9.570000 # S MOL
118 1 6 0.734000 39.314999 39.314999 14.355000 # Mo MOL
119 1 13 -0.370570 40.612999 40.612999 15.950000 # S MOL
120 1 13 -0.370570 38.743999 41.091999 12.760000 # S MOL
121 1 6 0.734000 39.314999 39.314999 17.545000 # Mo MOL
122 1 13 -0.370570 40.612999 40.612999 19.139999 # S MOL
123 1 13 -0.370570 38.743999 41.091999 15.950000 # S MOL
124 1 6 0.734000 39.314999 39.314999 20.735001 # Mo MOL
125 1 13 -0.370570 40.612999 40.612999 22.330000 # S MOL
126 1 13 -0.370570 38.743999 41.091999 19.139999 # S MOL
127 1 6 0.734000 36.898998 41.377998 1.595000 # Mo MOL
128 1 13 -0.370570 37.979000 42.862999 3.190000 # S MOL
129 1 13 -0.370570 36.056999 43.043999 0.000000 # S MOL
130 1 6 0.734000 36.898998 41.377998 4.785000 # Mo MOL
131 1 13 -0.370570 37.979000 42.862999 6.380000 # S MOL
132 1 13 -0.370570 36.056999 43.043999 3.190000 # S MOL
133 1 6 0.734000 36.898998 41.377998 7.975000 # Mo MOL
134 1 13 -0.370570 37.979000 42.862999 9.570000 # S MOL
135 1 13 -0.370570 36.056999 43.043999 6.380000 # S MOL
136 1 6 0.734000 36.898998 41.377998 11.165000 # Mo MOL
137 1 13 -0.370570 37.979000 42.862999 12.760000 # S MOL
138 1 13 -0.370570 36.056999 43.043999 9.570000 # S MOL
139 1 6 0.734000 36.898998 41.377998 14.355000 # Mo MOL
140 1 13 -0.370570 37.979000 42.862999 15.950000 # S MOL
141 1 13 -0.370570 36.056999 43.043999 12.760000 # S MOL
142 1 6 0.734000 36.898998 41.377998 17.545000 # Mo MOL
143 1 13 -0.370570 37.979000 42.862999 19.139999 # S MOL
144 1 13 -0.370570 36.056999 43.043999 15.950000 # S MOL
145 1 6 0.734000 36.898998 41.377998 20.735001 # Mo MOL
146 1 13 -0.370570 37.979000 42.862999 22.330000 # S MOL
147 1 13 -0.370570 36.056999 43.043999 19.139999 # S MOL
148 1 6 0.734000 34.191002 43.037998 1.595000 # Mo MOL
149 1 13 -0.370570 35.023998 44.674000 3.190000 # S MOL
150 1 13 -0.370570 33.098999 44.551998 0.000000 # S MOL
151 1 6 0.734000 34.191002 43.037998 4.785000 # Mo MOL
152 1 13 -0.370570 35.023998 44.674000 6.380000 # S MOL
153 1 13 -0.370570 33.098999 44.551998 3.190000 # S MOL
154 1 6 0.734000 34.191002 43.037998 7.975000 # Mo MOL
155 1 13 -0.370570 35.023998 44.674000 9.570000 # S MOL
156 1 13 -0.370570 33.098999 44.551998 6.380000 # S MOL
157 1 6 0.734000 34.191002 43.037998 11.165000 # Mo MOL
158 1 13 -0.370570 35.023998 44.674000 12.760000 # S MOL
159 1 13 -0.370570 33.098999 44.551998 9.570000 # S MOL
160 1 6 0.734000 34.191002 43.037998 14.355000 # Mo MOL
161 1 13 -0.370570 35.023998 44.674000 15.950000 # S MOL
162 1 13 -0.370570 33.098999 44.551998 12.760000 # S MOL
163 1 6 0.734000 34.191002 43.037998 17.545000 # Mo MOL
164 1 13 -0.370570 35.023998 44.674000 19.139999 # S MOL
165 1 13 -0.370570 33.098999 44.551998 15.950000 # S MOL
166 1 6 0.734000 34.191002 43.037998 20.735001 # Mo MOL
167 1 13 -0.370570 35.023998 44.674000 22.330000 # S MOL
168 1 13 -0.370570 33.098999 44.551998 19.139999 # S MOL
169 1 6 0.734000 31.256001 44.254002 1.595000 # Mo MOL
170 1 13 -0.370570 31.823000 46.000000 3.190000 # S MOL
171 1 13 -0.370570 29.940001 45.577999 0.000000 # S MOL
172 1 6 0.734000 31.256001 44.254002 4.785000 # Mo MOL
173 1 13 -0.370570 31.823000 46.000000 6.380000 # S MOL
174 1 13 -0.370570 29.940001 45.577999 3.190000 # S MOL
175 1 6 0.734000 31.256001 44.254002 7.975000 # Mo MOL
176 1 13 -0.370570 31.823000 46.000000 9.570000 # S MOL
177 1 13 -0.370570 29.940001 45.577999 6.380000 # S MOL
178 1 6 0.734000 31.256001 44.254002 11.165000 # Mo MOL
179 1 13 -0.370570 31.823000 46.000000 12.760000 # S MOL
180 1 13 -0.370570 29.940001 45.577999 9.570000 # S MOL
181 1 6 0.734000 31.256001 44.254002 14.355000 # Mo MOL
182 1 13 -0.370570 31.823000 46.000000 15.950000 # S MOL
183 1 13 -0.370570 29.940001 45.577999 12.760000 # S MOL
184 1 6 0.734000 31.256001 44.254002 17.545000 # Mo MOL
185 1 13 -0.370570 31.823000 46.000000 19.139999 # S MOL
186 1 13 -0.370570 29.940001 45.577999 15.950000 # S MOL
187 1 6 0.734000 31.256001 44.254002 20.735001 # Mo MOL
188 1 13 -0.370570 31.823000 46.000000 22.330000 # S MOL
189 1 13 -0.370570 29.940001 45.577999 19.139999 # S MOL
190 1 6 0.734000 28.167000 44.994999 1.595000 # Mo MOL
191 1 13 -0.370570 28.454000 46.808998 3.190000 # S MOL
192 1 13 -0.370570 26.660000 46.097000 0.000000 # S MOL
193 1 6 0.734000 28.167000 44.994999 4.785000 # Mo MOL
194 1 13 -0.370570 28.454000 46.808998 6.380000 # S MOL
195 1 13 -0.370570 26.660000 46.097000 3.190000 # S MOL
196 1 6 0.734000 28.167000 44.994999 7.975000 # Mo MOL
197 1 13 -0.370570 28.454000 46.808998 9.570000 # S MOL
198 1 13 -0.370570 26.660000 46.097000 6.380000 # S MOL
199 1 6 0.734000 28.167000 44.994999 11.165000 # Mo MOL
200 1 13 -0.370570 28.454000 46.808998 12.760000 # S MOL
201 1 13 -0.370570 26.660000 46.097000 9.570000 # S MOL
202 1 6 0.734000 28.167000 44.994999 14.355000 # Mo MOL
203 1 13 -0.370570 28.454000 46.808998 15.950000 # S MOL
204 1 13 -0.370570 26.660000 46.097000 12.760000 # S MOL
205 1 6 0.734000 28.167000 44.994999 17.545000 # Mo MOL
206 1 13 -0.370570 28.454000 46.808998 19.139999 # S MOL
207 1 13 -0.370570 26.660000 46.097000 15.950000 # S MOL
208 1 6 0.734000 28.167000 44.994999 20.735001 # Mo MOL
209 1 13 -0.370570 28.454000 46.808998 22.330000 # S MOL
210 1 13 -0.370570 26.660000 46.097000 19.139999 # S MOL
211 1 6 0.734000 25.000000 45.244999 1.595000 # Mo MOL
212 1 13 -0.370570 25.000000 47.080002 3.190000 # S MOL
213 1 13 -0.370570 23.340000 46.097000 0.000000 # S MOL
214 1 6 0.734000 25.000000 45.244999 4.785000 # Mo MOL
215 1 13 -0.370570 25.000000 47.080002 6.380000 # S MOL
216 1 13 -0.370570 23.340000 46.097000 3.190000 # S MOL
217 1 6 0.734000 25.000000 45.244999 7.975000 # Mo MOL
218 1 13 -0.370570 25.000000 47.080002 9.570000 # S MOL
219 1 13 -0.370570 23.340000 46.097000 6.380000 # S MOL
220 1 6 0.734000 25.000000 45.244999 11.165000 # Mo MOL
221 1 13 -0.370570 25.000000 47.080002 12.760000 # S MOL
222 1 13 -0.370570 23.340000 46.097000 9.570000 # S MOL
223 1 6 0.734000 25.000000 45.244999 14.355000 # Mo MOL
224 1 13 -0.370570 25.000000 47.080002 15.950000 # S MOL
225 1 13 -0.370570 23.340000 46.097000 12.760000 # S MOL
226 1 6 0.734000 25.000000 45.244999 17.545000 # Mo MOL
227 1 13 -0.370570 25.000000 47.080002 19.139999 # S MOL
228 1 13 -0.370570 23.340000 46.097000 15.950000 # S MOL
229 1 6 0.734000 25.000000 45.244999 20.735001 # Mo MOL
230 1 13 -0.370570 25.000000 47.080002 22.330000 # S MOL
231 1 13 -0.370570 23.340000 46.097000 19.139999 # S MOL
232 1 6 0.734000 21.833000 44.994999 1.595000 # Mo MOL
233 1 13 -0.370570 21.546000 46.808998 3.190000 # S MOL
234 1 13 -0.370570 20.059999 45.577999 0.000000 # S MOL
235 1 6 0.734000 21.833000 44.994999 4.785000 # Mo MOL
236 1 13 -0.370570 21.546000 46.808998 6.380000 # S MOL
237 1 13 -0.370570 20.059999 45.577999 3.190000 # S MOL
238 1 6 0.734000 21.833000 44.994999 7.975000 # Mo MOL
239 1 13 -0.370570 21.546000 46.808998 9.570000 # S MOL
240 1 13 -0.370570 20.059999 45.577999 6.380000 # S MOL
241 1 6 0.734000 21.833000 44.994999 11.165000 # Mo MOL
242 1 13 -0.370570 21.546000 46.808998 12.760000 # S MOL
243 1 13 -0.370570 20.059999 45.577999 9.570000 # S MOL
244 1 6 0.734000 21.833000 44.994999 14.355000 # Mo MOL
245 1 13 -0.370570 21.546000 46.808998 15.950000 # S MOL
246 1 13 -0.370570 20.059999 45.577999 12.760000 # S MOL
247 1 6 0.734000 21.833000 44.994999 17.545000 # Mo MOL
248 1 13 -0.370570 21.546000 46.808998 19.139999 # S MOL
249 1 13 -0.370570 20.059999 45.577999 15.950000 # S MOL
250 1 6 0.734000 21.833000 44.994999 20.735001 # Mo MOL
251 1 13 -0.370570 21.546000 46.808998 22.330000 # S MOL
252 1 13 -0.370570 20.059999 45.577999 19.139999 # S MOL
253 1 6 0.734000 18.743999 44.254002 1.595000 # Mo MOL
254 1 13 -0.370570 18.177000 46.000000 3.190000 # S MOL
255 1 13 -0.370570 16.900999 44.551998 0.000000 # S MOL
256 1 6 0.734000 18.743999 44.254002 4.785000 # Mo MOL
257 1 13 -0.370570 18.177000 46.000000 6.380000 # S MOL
258 1 13 -0.370570 16.900999 44.551998 3.190000 # S MOL
259 1 6 0.734000 18.743999 44.254002 7.975000 # Mo MOL
260 1 13 -0.370570 18.177000 46.000000 9.570000 # S MOL
261 1 13 -0.370570 16.900999 44.551998 6.380000 # S MOL
262 1 6 0.734000 18.743999 44.254002 11.165000 # Mo MOL
263 1 13 -0.370570 18.177000 46.000000 12.760000 # S MOL
264 1 13 -0.370570 16.900999 44.551998 9.570000 # S MOL
265 1 6 0.734000 18.743999 44.254002 14.355000 # Mo MOL
266 1 13 -0.370570 18.177000 46.000000 15.950000 # S MOL
267 1 13 -0.370570 16.900999 44.551998 12.760000 # S MOL
268 1 6 0.734000 18.743999 44.254002 17.545000 # Mo MOL
269 1 13 -0.370570 18.177000 46.000000 19.139999 # S MOL
270 1 13 -0.370570 16.900999 44.551998 15.950000 # S MOL
271 1 6 0.734000 18.743999 44.254002 20.735001 # Mo MOL
272 1 13 -0.370570 18.177000 46.000000 22.330000 # S MOL
273 1 13 -0.370570 16.900999 44.551998 19.139999 # S MOL
274 1 6 0.734000 15.809000 43.037998 1.595000 # Mo MOL
275 1 13 -0.370570 14.976000 44.674000 3.190000 # S MOL
276 1 13 -0.370570 13.943000 43.043999 0.000000 # S MOL
277 1 6 0.734000 15.809000 43.037998 4.785000 # Mo MOL
278 1 13 -0.370570 14.976000 44.674000 6.380000 # S MOL
279 1 13 -0.370570 13.943000 43.043999 3.190000 # S MOL
280 1 6 0.734000 15.809000 43.037998 7.975000 # Mo MOL
281 1 13 -0.370570 14.976000 44.674000 9.570000 # S MOL
282 1 13 -0.370570 13.943000 43.043999 6.380000 # S MOL
283 1 6 0.734000 15.809000 43.037998 11.165000 # Mo MOL
284 1 13 -0.370570 14.976000 44.674000 12.760000 # S MOL
285 1 13 -0.370570 13.943000 43.043999 9.570000 # S MOL
286 1 6 0.734000 15.809000 43.037998 14.355000 # Mo MOL
287 1 13 -0.370570 14.976000 44.674000 15.950000 # S MOL
288 1 13 -0.370570 13.943000 43.043999 12.760000 # S MOL
289 1 6 0.734000 15.809000 43.037998 17.545000 # Mo MOL
290 1 13 -0.370570 14.976000 44.674000 19.139999 # S MOL
291 1 13 -0.370570 13.943000 43.043999 15.950000 # S MOL
292 1 6 0.734000 15.809000 43.037998 20.735001 # Mo MOL
293 1 13 -0.370570 14.976000 44.674000 22.330000 # S MOL
294 1 13 -0.370570 13.943000 43.043999 19.139999 # S MOL
295 1 6 0.734000 13.101000 41.377998 1.595000 # Mo MOL
296 1 13 -0.370570 12.021000 42.862999 3.190000 # S MOL
297 1 13 -0.370570 11.256000 41.091999 0.000000 # S MOL
298 1 6 0.734000 13.101000 41.377998 4.785000 # Mo MOL
299 1 13 -0.370570 12.021000 42.862999 6.380000 # S MOL
300 1 13 -0.370570 11.256000 41.091999 3.190000 # S MOL
301 1 6 0.734000 13.101000 41.377998 7.975000 # Mo MOL
302 1 13 -0.370570 12.021000 42.862999 9.570000 # S MOL
303 1 13 -0.370570 11.256000 41.091999 6.380000 # S MOL
304 1 6 0.734000 13.101000 41.377998 11.165000 # Mo MOL
305 1 13 -0.370570 12.021000 42.862999 12.760000 # S MOL
306 1 13 -0.370570 11.256000 41.091999 9.570000 # S MOL
307 1 6 0.734000 13.101000 41.377998 14.355000 # Mo MOL
308 1 13 -0.370570 12.021000 42.862999 15.950000 # S MOL
309 1 13 -0.370570 11.256000 41.091999 12.760000 # S MOL
310 1 6 0.734000 13.101000 41.377998 17.545000 # Mo MOL
311 1 13 -0.370570 12.021000 42.862999 19.139999 # S MOL
312 1 13 -0.370570 11.256000 41.091999 15.950000 # S MOL
313 1 6 0.734000 13.101000 41.377998 20.735001 # Mo MOL
314 1 13 -0.370570 12.021000 42.862999 22.330000 # S MOL
315 1 13 -0.370570 11.256000 41.091999 19.139999 # S MOL
316 1 6 0.734000 10.685000 39.314999 1.595000 # Mo MOL
317 1 13 -0.370570 9.387000 40.612999 3.190000 # S MOL
318 1 13 -0.370570 8.908000 38.743999 0.000000 # S MOL
319 1 6 0.734000 10.685000 39.314999 4.785000 # Mo MOL
320 1 13 -0.370570 9.387000 40.612999 6.380000 # S MOL
321 1 13 -0.370570 8.908000 38.743999 3.190000 # S MOL
322 1 6 0.734000 10.685000 39.314999 7.975000 # Mo MOL
323 1 13 -0.370570 9.387000 40.612999 9.570000 # S MOL
324 1 13 -0.370570 8.908000 38.743999 6.380000 # S MOL
325 1 6 0.734000 10.685000 39.314999 11.165000 # Mo MOL
326 1 13 -0.370570 9.387000 40.612999 12.760000 # S MOL
327 1 13 -0.370570 8.908000 38.743999 9.570000 # S MOL
328 1 6 0.734000 10.685000 39.314999 14.355000 # Mo MOL
329 1 13 -0.370570 9.387000 40.612999 15.950000 # S MOL
330 1 13 -0.370570 8.908000 38.743999 12.760000 # S MOL
331 1 6 0.734000 10.685000 39.314999 17.545000 # Mo MOL
332 1 13 -0.370570 9.387000 40.612999 19.139999 # S MOL
333 1 13 -0.370570 8.908000 38.743999 15.950000 # S MOL
334 1 6 0.734000 10.685000 39.314999 20.735001 # Mo MOL
335 1 13 -0.370570 9.387000 40.612999 22.330000 # S MOL
336 1 13 -0.370570 8.908000 38.743999 19.139999 # S MOL
337 1 6 0.734000 8.622000 36.898998 1.595000 # Mo MOL
338 1 13 -0.370570 7.137000 37.979000 3.190000 # S MOL
339 1 13 -0.370570 6.956000 36.056999 0.000000 # S MOL
340 1 6 0.734000 8.622000 36.898998 4.785000 # Mo MOL
341 1 13 -0.370570 7.137000 37.979000 6.380000 # S MOL
342 1 13 -0.370570 6.956000 36.056999 3.190000 # S MOL
343 1 6 0.734000 8.622000 36.898998 7.975000 # Mo MOL
344 1 13 -0.370570 7.137000 37.979000 9.570000 # S MOL
345 1 13 -0.370570 6.956000 36.056999 6.380000 # S MOL
346 1 6 0.734000 8.622000 36.898998 11.165000 # Mo MOL
347 1 13 -0.370570 7.137000 37.979000 12.760000 # S MOL
348 1 13 -0.370570 6.956000 36.056999 9.570000 # S MOL
349 1 6 0.734000 8.622000 36.898998 14.355000 # Mo MOL
350 1 13 -0.370570 7.137000 37.979000 15.950000 # S MOL
351 1 13 -0.370570 6.956000 36.056999 12.760000 # S MOL
352 1 6 0.734000 8.622000 36.898998 17.545000 # Mo MOL
353 1 13 -0.370570 7.137000 37.979000 19.139999 # S MOL
354 1 13 -0.370570 6.956000 36.056999 15.950000 # S MOL
355 1 6 0.734000 8.622000 36.898998 20.735001 # Mo MOL
356 1 13 -0.370570 7.137000 37.979000 22.330000 # S MOL
357 1 13 -0.370570 6.956000 36.056999 19.139999 # S MOL
358 1 6 0.734000 6.962000 34.191002 1.595000 # Mo MOL
359 1 13 -0.370570 5.326000 35.023998 3.190000 # S MOL
360 1 13 -0.370570 5.448000 33.098999 0.000000 # S MOL
361 1 6 0.734000 6.962000 34.191002 4.785000 # Mo MOL
362 1 13 -0.370570 5.326000 35.023998 6.380000 # S MOL
363 1 13 -0.370570 5.448000 33.098999 3.190000 # S MOL
364 1 6 0.734000 6.962000 34.191002 7.975000 # Mo MOL
365 1 13 -0.370570 5.326000 35.023998 9.570000 # S MOL
366 1 13 -0.370570 5.448000 33.098999 6.380000 # S MOL
367 1 6 0.734000 6.962000 34.191002 11.165000 # Mo MOL
368 1 13 -0.370570 5.326000 35.023998 12.760000 # S MOL
369 1 13 -0.370570 5.448000 33.098999 9.570000 # S MOL
370 1 6 0.734000 6.962000 34.191002 14.355000 # Mo MOL
371 1 13 -0.370570 5.326000 35.023998 15.950000 # S MOL
372 1 13 -0.370570 5.448000 33.098999 12.760000 # S MOL
373 1 6 0.734000 6.962000 34.191002 17.545000 # Mo MOL
374 1 13 -0.370570 5.326000 35.023998 19.139999 # S MOL
375 1 13 -0.370570 5.448000 33.098999 15.950000 # S MOL
376 1 6 0.734000 6.962000 34.191002 20.735001 # Mo MOL
377 1 13 -0.370570 5.326000 35.023998 22.330000 # S MOL
378 1 13 -0.370570 5.448000 33.098999 19.139999 # S MOL
379 1 6 0.734000 5.746000 31.256001 1.595000 # Mo MOL
380 1 13 -0.370570 4.000000 31.823000 3.190000 # S MOL
381 1 13 -0.370570 4.422000 29.940001 0.000000 # S MOL
382 1 6 0.734000 5.746000 31.256001 4.785000 # Mo MOL
383 1 13 -0.370570 4.000000 31.823000 6.380000 # S MOL
384 1 13 -0.370570 4.422000 29.940001 3.190000 # S MOL
385 1 6 0.734000 5.746000 31.256001 7.975000 # Mo MOL
386 1 13 -0.370570 4.000000 31.823000 9.570000 # S MOL
387 1 13 -0.370570 4.422000 29.940001 6.380000 # S MOL
388 1 6 0.734000 5.746000 31.256001 11.165000 # Mo MOL
389 1 13 -0.370570 4.000000 31.823000 12.760000 # S MOL
390 1 13 -0.370570 4.422000 29.940001 9.570000 # S MOL
391 1 6 0.734000 5.746000 31.256001 14.355000 # Mo MOL
392 1 13 -0.370570 4.000000 31.823000 15.950000 # S MOL
393 1 13 -0.370570 4.422000 29.940001 12.760000 # S MOL
394 1 6 0.734000 5.746000 31.256001 17.545000 # Mo MOL
395 1 13 -0.370570 4.000000 31.823000 19.139999 # S MOL
396 1 13 -0.370570 4.422000 29.940001 15.950000 # S MOL
397 1 6 0.734000 5.746000 31.256001 20.735001 # Mo MOL
398 1 13 -0.370570 4.000000 31.823000 22.330000 # S MOL
399 1 13 -0.370570 4.422000 29.940001 19.139999 # S MOL
400 1 6 0.734000 5.005000 28.167000 1.595000 # Mo MOL
401 1 13 -0.370570 3.191000 28.454000 3.190000 # S MOL
402 1 13 -0.370570 3.903000 26.660000 0.000000 # S MOL
403 1 6 0.734000 5.005000 28.167000 4.785000 # Mo MOL
404 1 13 -0.370570 3.191000 28.454000 6.380000 # S MOL
405 1 13 -0.370570 3.903000 26.660000 3.190000 # S MOL
406 1 6 0.734000 5.005000 28.167000 7.975000 # Mo MOL
407 1 13 -0.370570 3.191000 28.454000 9.570000 # S MOL
408 1 13 -0.370570 3.903000 26.660000 6.380000 # S MOL
409 1 6 0.734000 5.005000 28.167000 11.165000 # Mo MOL
410 1 13 -0.370570 3.191000 28.454000 12.760000 # S MOL
411 1 13 -0.370570 3.903000 26.660000 9.570000 # S MOL
412 1 6 0.734000 5.005000 28.167000 14.355000 # Mo MOL
413 1 13 -0.370570 3.191000 28.454000 15.950000 # S MOL
414 1 13 -0.370570 3.903000 26.660000 12.760000 # S MOL
415 1 6 0.734000 5.005000 28.167000 17.545000 # Mo MOL
416 1 13 -0.370570 3.191000 28.454000 19.139999 # S MOL
417 1 13 -0.370570 3.903000 26.660000 15.950000 # S MOL
418 1 6 0.734000 5.005000 28.167000 20.735001 # Mo MOL
419 1 13 -0.370570 3.191000 28.454000 22.330000 # S MOL
420 1 13 -0.370570 3.903000 26.660000 19.139999 # S MOL
421 1 6 0.734000 4.755000 25.000000 1.595000 # Mo MOL
422 1 13 -0.370570 2.920000 25.000000 3.190000 # S MOL
423 1 13 -0.370570 3.903000 23.340000 0.000000 # S MOL
424 1 6 0.734000 4.755000 25.000000 4.785000 # Mo MOL
425 1 13 -0.370570 2.920000 25.000000 6.380000 # S MOL
426 1 13 -0.370570 3.903000 23.340000 3.190000 # S MOL
427 1 6 0.734000 4.755000 25.000000 7.975000 # Mo MOL
428 1 13 -0.370570 2.920000 25.000000 9.570000 # S MOL
429 1 13 -0.370570 3.903000 23.340000 6.380000 # S MOL
430 1 6 0.734000 4.755000 25.000000 11.165000 # Mo MOL
431 1 13 -0.370570 2.920000 25.000000 12.760000 # S MOL
432 1 13 -0.370570 3.903000 23.340000 9.570000 # S MOL
433 1 6 0.734000 4.755000 25.000000 14.355000 # Mo MOL
434 1 13 -0.370570 2.920000 25.000000 15.950000 # S MOL
435 1 13 -0.370570 3.903000 23.340000 12.760000 # S MOL
436 1 6 0.734000 4.755000 25.000000 17.545000 # Mo MOL
437 1 13 -0.370570 2.920000 25.000000 19.139999 # S MOL
438 1 13 -0.370570 3.903000 23.340000 15.950000 # S MOL
439 1 6 0.734000 4.755000 25.000000 20.735001 # Mo MOL
440 1 13 -0.370570 2.920000 25.000000 22.330000 # S MOL
441 1 13 -0.370570 3.903000 23.340000 19.139999 # S MOL
442 1 6 0.734000 5.005000 21.833000 1.595000 # Mo MOL
443 1 13 -0.370570 3.191000 21.546000 3.190000 # S MOL
444 1 13 -0.370570 4.422000 20.059999 0.000000 # S MOL
445 1 6 0.734000 5.005000 21.833000 4.785000 # Mo MOL
446 1 13 -0.370570 3.191000 21.546000 6.380000 # S MOL
447 1 13 -0.370570 4.422000 20.059999 3.190000 # S MOL
448 1 6 0.734000 5.005000 21.833000 7.975000 # Mo MOL
449 1 13 -0.370570 3.191000 21.546000 9.570000 # S MOL
450 1 13 -0.370570 4.422000 20.059999 6.380000 # S MOL
451 1 6 0.734000 5.005000 21.833000 11.165000 # Mo MOL
452 1 13 -0.370570 3.191000 21.546000 12.760000 # S MOL
453 1 13 -0.370570 4.422000 20.059999 9.570000 # S MOL
454 1 6 0.734000 5.005000 21.833000 14.355000 # Mo MOL
455 1 13 -0.370570 3.191000 21.546000 15.950000 # S MOL
456 1 13 -0.370570 4.422000 20.059999 12.760000 # S MOL
457 1 6 0.734000 5.005000 21.833000 17.545000 # Mo MOL
458 1 13 -0.370570 3.191000 21.546000 19.139999 # S MOL
459 1 13 -0.370570 4.422000 20.059999 15.950000 # S MOL
460 1 6 0.734000 5.005000 21.833000 20.735001 # Mo MOL
461 1 13 -0.370570 3.191000 21.546000 22.330000 # S MOL
462 1 13 -0.370570 4.422000 20.059999 19.139999 # S MOL
463 1 6 0.734000 5.746000 18.743999 1.595000 # Mo MOL
464 1 13 -0.370570 4.000000 18.177000 3.190000 # S MOL
465 1 13 -0.370570 5.448000 16.900999 0.000000 # S MOL
466 1 6 0.734000 5.746000 18.743999 4.785000 # Mo MOL
467 1 13 -0.370570 4.000000 18.177000 6.380000 # S MOL
468 1 13 -0.370570 5.448000 16.900999 3.190000 # S MOL
469 1 6 0.734000 5.746000 18.743999 7.975000 # Mo MOL
470 1 13 -0.370570 4.000000 18.177000 9.570000 # S MOL
471 1 13 -0.370570 5.448000 16.900999 6.380000 # S MOL
472 1 6 0.734000 5.746000 18.743999 11.165000 # Mo MOL
473 1 13 -0.370570 4.000000 18.177000 12.760000 # S MOL
474 1 13 -0.370570 5.448000 16.900999 9.570000 # S MOL
475 1 6 0.734000 5.746000 18.743999 14.355000 # Mo MOL
476 1 13 -0.370570 4.000000 18.177000 15.950000 # S MOL
477 1 13 -0.370570 5.448000 16.900999 12.760000 # S MOL
478 1 6 0.734000 5.746000 18.743999 17.545000 # Mo MOL
479 1 13 -0.370570 4.000000 18.177000 19.139999 # S MOL
480 1 13 -0.370570 5.448000 16.900999 15.950000 # S MOL
481 1 6 0.734000 5.746000 18.743999 20.735001 # Mo MOL
482 1 13 -0.370570 4.000000 18.177000 22.330000 # S MOL
483 1 13 -0.370570 5.448000 16.900999 19.139999 # S MOL
484 1 6 0.734000 6.962000 15.809000 1.595000 # Mo MOL
485 1 13 -0.370570 5.326000 14.976000 3.190000 # S MOL
486 1 13 -0.370570 6.956000 13.943000 0.000000 # S MOL
487 1 6 0.734000 6.962000 15.809000 4.785000 # Mo MOL
488 1 13 -0.370570 5.326000 14.976000 6.380000 # S MOL
489 1 13 -0.370570 6.956000 13.943000 3.190000 # S MOL
490 1 6 0.734000 6.962000 15.809000 7.975000 # Mo MOL
491 1 13 -0.370570 5.326000 14.976000 9.570000 # S MOL
492 1 13 -0.370570 6.956000 13.943000 6.380000 # S MOL
493 1 6 0.734000 6.962000 15.809000 11.165000 # Mo MOL
494 1 13 -0.370570 5.326000 14.976000 12.760000 # S MOL
495 1 13 -0.370570 6.956000 13.943000 9.570000 # S MOL
496 1 6 0.734000 6.962000 15.809000 14.355000 # Mo MOL
497 1 13 -0.370570 5.326000 14.976000 15.950000 # S MOL
498 1 13 -0.370570 6.956000 13.943000 12.760000 # S MOL
499 1 6 0.734000 6.962000 15.809000 17.545000 # Mo MOL
500 1 13 -0.370570 5.326000 14.976000 19.139999 # S MOL
501 1 13 -0.370570 6.956000 13.943000 15.950000 # S MOL
502 1 6 0.734000 6.962000 15.809000 20.735001 # Mo MOL
503 1 13 -0.370570 5.326000 14.976000 22.330000 # S MOL
504 1 13 -0.370570 6.956000 13.943000 19.139999 # S MOL
505 1 6 0.734000 8.622000 13.101000 1.595000 # Mo MOL
506 1 13 -0.370570 7.137000 12.021000 3.190000 # S MOL
507 1 13 -0.370570 8.908000 11.256000 0.000000 # S MOL
508 1 6 0.734000 8.622000 13.101000 4.785000 # Mo MOL
509 1 13 -0.370570 7.137000 12.021000 6.380000 # S MOL
510 1 13 -0.370570 8.908000 11.256000 3.190000 # S MOL
511 1 6 0.734000 8.622000 13.101000 7.975000 # Mo MOL
512 1 13 -0.370570 7.137000 12.021000 9.570000 # S MOL
513 1 13 -0.370570 8.908000 11.256000 6.380000 # S MOL
514 1 6 0.734000 8.622000 13.101000 11.165000 # Mo MOL
515 1 13 -0.370570 7.137000 12.021000 12.760000 # S MOL
516 1 13 -0.370570 8.908000 11.256000 9.570000 # S MOL
517 1 6 0.734000 8.622000 13.101000 14.355000 # Mo MOL
518 1 13 -0.370570 7.137000 12.021000 15.950000 # S MOL
519 1 13 -0.370570 8.908000 11.256000 12.760000 # S MOL
520 1 6 0.734000 8.622000 13.101000 17.545000 # Mo MOL
521 1 13 -0.370570 7.137000 12.021000 19.139999 # S MOL
522 1 13 -0.370570 8.908000 11.256000 15.950000 # S MOL
523 1 6 0.734000 8.622000 13.101000 20.735001 # Mo MOL
524 1 13 -0.370570 7.137000 12.021000 22.330000 # S MOL
525 1 13 -0.370570 8.908000 11.256000 19.139999 # S MOL