LAMMPS data file. CGCMM style. atom_style full generated by VMD/TopoTools v1.8 on Sat Aug 16 07:03:04 EDT 2025
 1168 atoms
 1325 bonds
 246 angles
 0 dihedrals
 0 impropers
 17 atom types
 4 bond types
 2 angle types
 0 dihedral types
 0 improper types
 -0.157501 22.122500  xlo xhi
 -0.000001 21.933999  ylo yhi
 -0.000001 21.933999  zlo zhi

# Pair Coeffs
#
# 1  CL
# 2  CR
# 3  H
# 4  H1
# 5  H2
# 6  Mo1
# 7  Mo2
# 8  NA
# 9  O
# 10  O1
# 11  O2
# 12  O3
# 13  O4
# 14  S1
# 15  S2
# 16  S3
# 17  S4

# Bond Coeffs
#
# 1  1
# 2  2
# 3  3
# 4  4

# Angle Coeffs
#
# 1  1
# 2  2

 Masses

 1 35.452999 # CL
 2 12.011000 # CR
 3 1.008000 # H
 4 1.008000 # H1
 5 1.008000 # H2
 6 95.940002 # Mo1
 7 95.940002 # Mo2
 8 22.989771 # NA
 9 15.999000 # O
 10 15.999000 # O1
 11 15.999000 # O2
 12 15.999000 # O3
 13 15.999000 # O4
 14 32.064999 # S1
 15 32.064999 # S2
 16 32.064999 # S3
 17 32.064999 # S4

 Atoms # full

1 1 6 0.734000 0.796000 10.967000 19.740999 # Mo1 MOL
2 1 7 0.734000 2.387000 13.678000 19.311001 # Mo2 MOL
3 1 14 -0.370571 2.387000 12.112000 21.146999 # S1 MOL
4 1 15 -0.370571 2.387000 11.622000 18.049999 # S2 MOL
5 1 16 -0.370571 0.796000 15.202000 20.295000 # S3 MOL
6 1 17 -0.370571 0.796000 13.778000 17.500999 # S4 MOL
7 2 6 0.734000 0.796000 16.124001 18.065001 # Mo1 MOL
8 2 7 0.734000 2.387000 18.065001 16.124001 # Mo2 MOL
9 2 14 -0.370571 2.387000 17.877001 18.530001 # S1 MOL
10 2 15 -0.370571 2.387000 15.660000 16.312000 # S2 MOL
11 2 16 -0.370571 0.796000 19.875999 16.024000 # S3 MOL
12 2 17 -0.370571 0.796000 17.082001 14.600000 # S4 MOL
13 3 6 0.734000 0.796000 19.311001 13.678000 # Mo1 MOL
14 3 7 0.734000 2.387000 19.740999 10.967000 # Mo2 MOL
15 3 14 -0.370571 2.387000 21.003000 13.024000 # S1 MOL
16 3 15 -0.370571 2.387000 17.905001 12.533000 # S2 MOL
17 3 16 -0.370571 0.796000 21.146999 9.822000 # S3 MOL
18 3 17 -0.370571 0.796000 18.049999 10.312000 # S4 MOL
19 4 6 0.734000 0.796000 19.311001 8.256000 # Mo1 MOL
20 4 7 0.734000 2.387000 18.065001 5.810000 # Mo2 MOL
21 4 14 -0.370571 2.387000 20.295000 6.732000 # S1 MOL
22 4 15 -0.370571 2.387000 17.500999 8.156000 # S2 MOL
23 4 16 -0.370571 0.796000 18.530001 4.057000 # S3 MOL
24 4 17 -0.370571 0.796000 16.312000 6.274000 # S4 MOL
25 5 6 0.734000 0.796000 16.124001 3.869000 # Mo1 MOL
26 5 7 0.734000 2.387000 13.678000 2.623000 # Mo2 MOL
27 5 14 -0.370571 2.387000 16.024000 2.058000 # S1 MOL
28 5 15 -0.370571 2.387000 14.600000 4.852000 # S2 MOL
29 5 16 -0.370571 0.796000 13.024000 0.931000 # S3 MOL
30 5 17 -0.370571 0.796000 12.533000 4.029000 # S4 MOL
31 6 6 0.734000 0.796000 10.967000 2.193000 # Mo1 MOL
32 6 7 0.734000 2.387000 8.256000 2.623000 # Mo2 MOL
33 6 14 -0.370571 2.387000 9.822000 0.787000 # S1 MOL
34 6 15 -0.370571 2.387000 10.312000 3.884000 # S2 MOL
35 6 16 -0.370571 0.796000 6.732000 1.639000 # S3 MOL
36 6 17 -0.370571 0.796000 8.156000 4.433000 # S4 MOL
37 7 6 0.734000 0.796000 5.810000 3.869000 # Mo1 MOL
38 7 7 0.734000 2.387000 3.869000 5.810000 # Mo2 MOL
39 7 14 -0.370571 2.387000 4.057000 3.404000 # S1 MOL
40 7 15 -0.370571 2.387000 6.274000 5.622000 # S2 MOL
41 7 16 -0.370571 0.796000 2.058000 5.910000 # S3 MOL
42 7 17 -0.370571 0.796000 4.852000 7.334000 # S4 MOL
43 8 6 0.734000 0.796000 2.623000 8.256000 # Mo1 MOL
44 8 7 0.734000 2.387000 2.193000 10.967000 # Mo2 MOL
45 8 14 -0.370571 2.387000 0.931000 8.910000 # S1 MOL
46 8 15 -0.370571 2.387000 4.029000 9.401000 # S2 MOL
47 8 16 -0.370571 0.796000 0.787000 12.112000 # S3 MOL
48 8 17 -0.370571 0.796000 3.884000 11.622000 # S4 MOL
49 9 6 0.734000 0.796000 2.623000 13.678000 # Mo1 MOL
50 9 7 0.734000 2.387000 3.869000 16.124001 # Mo2 MOL
51 9 14 -0.370571 2.387000 1.639000 15.202000 # S1 MOL
52 9 15 -0.370571 2.387000 4.433000 13.778000 # S2 MOL
53 9 16 -0.370571 0.796000 3.404000 17.877001 # S3 MOL
54 9 17 -0.370571 0.796000 5.622000 15.660000 # S4 MOL
55 10 6 0.734000 0.796000 5.810000 18.065001 # Mo1 MOL
56 10 7 0.734000 2.387000 8.256000 19.311001 # Mo2 MOL
57 10 14 -0.370571 2.387000 5.910000 19.875999 # S1 MOL
58 10 15 -0.370571 2.387000 7.334000 17.082001 # S2 MOL
59 10 16 -0.370571 0.796000 8.910000 21.003000 # S3 MOL
60 10 17 -0.370571 0.796000 9.401000 17.905001 # S4 MOL
61 11 6 0.734000 3.979000 10.967000 19.740999 # Mo1 MOL
62 11 7 0.734000 5.570000 13.678000 19.311001 # Mo2 MOL
63 11 14 -0.370571 5.570000 12.112000 21.146999 # S1 MOL
64 11 15 -0.370571 5.570000 11.622000 18.049999 # S2 MOL
65 11 16 -0.370571 3.979000 15.202000 20.295000 # S3 MOL
66 11 17 -0.370571 3.979000 13.778000 17.500999 # S4 MOL
67 12 6 0.734000 3.979000 16.124001 18.065001 # Mo1 MOL
68 12 7 0.734000 5.570000 18.065001 16.124001 # Mo2 MOL
69 12 14 -0.370571 5.570000 17.877001 18.530001 # S1 MOL
70 12 15 -0.370571 5.570000 15.660000 16.312000 # S2 MOL
71 12 16 -0.370571 3.979000 19.875999 16.024000 # S3 MOL
72 12 17 -0.370571 3.979000 17.082001 14.600000 # S4 MOL
73 13 6 0.734000 3.979000 19.311001 13.678000 # Mo1 MOL
74 13 7 0.734000 5.570000 19.740999 10.967000 # Mo2 MOL
75 13 14 -0.370571 5.570000 21.003000 13.024000 # S1 MOL
76 13 15 -0.370571 5.570000 17.905001 12.533000 # S2 MOL
77 13 16 -0.370571 3.979000 21.146999 9.822000 # S3 MOL
78 13 17 -0.370571 3.979000 18.049999 10.312000 # S4 MOL
79 14 6 0.734000 3.979000 19.311001 8.256000 # Mo1 MOL
80 14 7 0.734000 5.570000 18.065001 5.810000 # Mo2 MOL
81 14 14 -0.370571 5.570000 20.295000 6.732000 # S1 MOL
82 14 15 -0.370571 5.570000 17.500999 8.156000 # S2 MOL
83 14 16 -0.370571 3.979000 18.530001 4.057000 # S3 MOL
84 14 17 -0.370571 3.979000 16.312000 6.274000 # S4 MOL
85 15 6 0.734000 3.979000 16.124001 3.869000 # Mo1 MOL
86 15 7 0.734000 5.570000 13.678000 2.623000 # Mo2 MOL
87 15 14 -0.370571 5.570000 16.024000 2.058000 # S1 MOL
88 15 15 -0.370571 5.570000 14.600000 4.852000 # S2 MOL
89 15 16 -0.370571 3.979000 13.024000 0.931000 # S3 MOL
90 15 17 -0.370571 3.979000 12.533000 4.029000 # S4 MOL
91 16 6 0.734000 3.979000 10.967000 2.193000 # Mo1 MOL
92 16 7 0.734000 5.570000 8.256000 2.623000 # Mo2 MOL
93 16 14 -0.370571 5.570000 9.822000 0.787000 # S1 MOL
94 16 15 -0.370571 5.570000 10.312000 3.884000 # S2 MOL
95 16 16 -0.370571 3.979000 6.732000 1.639000 # S3 MOL
96 16 17 -0.370571 3.979000 8.156000 4.433000 # S4 MOL
97 17 6 0.734000 3.979000 5.810000 3.869000 # Mo1 MOL
98 17 7 0.734000 5.570000 3.869000 5.810000 # Mo2 MOL
99 17 14 -0.370571 5.570000 4.057000 3.404000 # S1 MOL
100 17 15 -0.370571 5.570000 6.274000 5.622000 # S2 MOL
101 17 16 -0.370571 3.979000 2.058000 5.910000 # S3 MOL
102 17 17 -0.370571 3.979000 4.852000 7.334000 # S4 MOL
103 18 6 0.734000 3.979000 2.623000 8.256000 # Mo1 MOL
104 18 7 0.734000 5.570000 2.193000 10.967000 # Mo2 MOL
105 18 14 -0.370571 5.570000 0.931000 8.910000 # S1 MOL
106 18 15 -0.370571 5.570000 4.029000 9.401000 # S2 MOL
107 18 16 -0.370571 3.979000 0.787000 12.112000 # S3 MOL
108 18 17 -0.370571 3.979000 3.884000 11.622000 # S4 MOL
109 19 6 0.734000 3.979000 2.623000 13.678000 # Mo1 MOL
110 19 7 0.734000 5.570000 3.869000 16.124001 # Mo2 MOL
111 19 14 -0.370571 5.570000 1.639000 15.202000 # S1 MOL
112 19 15 -0.370571 5.570000 4.433000 13.778000 # S2 MOL
113 19 16 -0.370571 3.979000 3.404000 17.877001 # S3 MOL
114 19 17 -0.370571 3.979000 5.622000 15.660000 # S4 MOL
115 20 6 0.734000 3.979000 5.810000 18.065001 # Mo1 MOL
116 20 7 0.734000 5.570000 8.256000 19.311001 # Mo2 MOL
117 20 14 -0.370571 5.570000 5.910000 19.875999 # S1 MOL
118 20 15 -0.370571 5.570000 7.334000 17.082001 # S2 MOL
119 20 16 -0.370571 3.979000 8.910000 21.003000 # S3 MOL
120 20 17 -0.370571 3.979000 9.401000 17.905001 # S4 MOL
121 21 6 0.734000 7.162000 10.967000 19.740999 # Mo1 MOL
122 21 7 0.734000 8.753000 13.678000 19.311001 # Mo2 MOL
123 21 14 -0.370571 8.753000 12.112000 21.146999 # S1 MOL
124 21 15 -0.370571 8.753000 11.622000 18.049999 # S2 MOL
125 21 16 -0.370571 7.162000 15.202000 20.295000 # S3 MOL
126 21 17 -0.370571 7.162000 13.778000 17.500999 # S4 MOL
127 22 6 0.734000 7.162000 16.124001 18.065001 # Mo1 MOL
128 22 7 0.734000 8.753000 18.065001 16.124001 # Mo2 MOL
129 22 14 -0.370571 8.753000 17.877001 18.530001 # S1 MOL
130 22 15 -0.370571 8.753000 15.660000 16.312000 # S2 MOL
131 22 16 -0.370571 7.162000 19.875999 16.024000 # S3 MOL
132 22 17 -0.370571 7.162000 17.082001 14.600000 # S4 MOL
133 23 6 0.734000 7.162000 19.311001 13.678000 # Mo1 MOL
134 23 7 0.734000 8.753000 19.740999 10.967000 # Mo2 MOL
135 23 14 -0.370571 8.753000 21.003000 13.024000 # S1 MOL
136 23 15 -0.370571 8.753000 17.905001 12.533000 # S2 MOL
137 23 16 -0.370571 7.162000 21.146999 9.822000 # S3 MOL
138 23 17 -0.370571 7.162000 18.049999 10.312000 # S4 MOL
139 24 6 0.734000 7.162000 19.311001 8.256000 # Mo1 MOL
140 24 7 0.734000 8.753000 18.065001 5.810000 # Mo2 MOL
141 24 14 -0.370571 8.753000 20.295000 6.732000 # S1 MOL
142 24 15 -0.370571 8.753000 17.500999 8.156000 # S2 MOL
143 24 16 -0.370571 7.162000 18.530001 4.057000 # S3 MOL
144 24 17 -0.370571 7.162000 16.312000 6.274000 # S4 MOL
145 25 6 0.734000 7.162000 16.124001 3.869000 # Mo1 MOL
146 25 7 0.734000 8.753000 13.678000 2.623000 # Mo2 MOL
147 25 14 -0.370571 8.753000 16.024000 2.058000 # S1 MOL
148 25 15 -0.370571 8.753000 14.600000 4.852000 # S2 MOL
149 25 16 -0.370571 7.162000 13.024000 0.931000 # S3 MOL
150 25 17 -0.370571 7.162000 12.533000 4.029000 # S4 MOL
151 26 6 0.734000 7.162000 10.967000 2.193000 # Mo1 MOL
152 26 7 0.734000 8.753000 8.256000 2.623000 # Mo2 MOL
153 26 14 -0.370571 8.753000 9.822000 0.787000 # S1 MOL
154 26 15 -0.370571 8.753000 10.312000 3.884000 # S2 MOL
155 26 16 -0.370571 7.162000 6.732000 1.639000 # S3 MOL
156 26 17 -0.370571 7.162000 8.156000 4.433000 # S4 MOL
157 27 6 0.734000 7.162000 5.810000 3.869000 # Mo1 MOL
158 27 7 0.734000 8.753000 3.869000 5.810000 # Mo2 MOL
159 27 14 -0.370571 8.753000 4.057000 3.404000 # S1 MOL
160 27 15 -0.370571 8.753000 6.274000 5.622000 # S2 MOL
161 27 16 -0.370571 7.162000 2.058000 5.910000 # S3 MOL
162 27 17 -0.370571 7.162000 4.852000 7.334000 # S4 MOL
163 28 6 0.734000 7.162000 2.623000 8.256000 # Mo1 MOL
164 28 7 0.734000 8.753000 2.193000 10.967000 # Mo2 MOL
165 28 14 -0.370571 8.753000 0.931000 8.910000 # S1 MOL
166 28 15 -0.370571 8.753000 4.029000 9.401000 # S2 MOL
167 28 16 -0.370571 7.162000 0.787000 12.112000 # S3 MOL
168 28 17 -0.370571 7.162000 3.884000 11.622000 # S4 MOL
169 29 6 0.734000 7.162000 2.623000 13.678000 # Mo1 MOL
170 29 7 0.734000 8.753000 3.869000 16.124001 # Mo2 MOL
171 29 14 -0.370571 8.753000 1.639000 15.202000 # S1 MOL
172 29 15 -0.370571 8.753000 4.433000 13.778000 # S2 MOL
173 29 16 -0.370571 7.162000 3.404000 17.877001 # S3 MOL
174 29 17 -0.370571 7.162000 5.622000 15.660000 # S4 MOL
175 30 6 0.734000 7.162000 5.810000 18.065001 # Mo1 MOL
176 30 7 0.734000 8.753000 8.256000 19.311001 # Mo2 MOL
177 30 14 -0.370571 8.753000 5.910000 19.875999 # S1 MOL
178 30 15 -0.370571 8.753000 7.334000 17.082001 # S2 MOL
179 30 16 -0.370571 7.162000 8.910000 21.003000 # S3 MOL
180 30 17 -0.370571 7.162000 9.401000 17.905001 # S4 MOL
181 31 6 0.734000 10.344000 10.967000 19.740999 # Mo1 MOL
182 31 7 0.734000 11.936000 13.678000 19.311001 # Mo2 MOL
183 31 14 -0.370571 11.936000 12.112000 21.146999 # S1 MOL
184 31 15 -0.370571 11.936000 11.622000 18.049999 # S2 MOL
185 31 16 -0.370571 10.344000 15.202000 20.295000 # S3 MOL
186 31 17 -0.370571 10.344000 13.778000 17.500999 # S4 MOL
187 32 6 0.734000 10.344000 16.124001 18.065001 # Mo1 MOL
188 32 7 0.734000 11.936000 18.065001 16.124001 # Mo2 MOL
189 32 14 -0.370571 11.936000 17.877001 18.530001 # S1 MOL
190 32 15 -0.370571 11.936000 15.660000 16.312000 # S2 MOL
191 32 16 -0.370571 10.344000 19.875999 16.024000 # S3 MOL
192 32 17 -0.370571 10.344000 17.082001 14.600000 # S4 MOL
193 33 6 0.734000 10.344000 19.311001 13.678000 # Mo1 MOL
194 33 7 0.734000 11.936000 19.740999 10.967000 # Mo2 MOL
195 33 14 -0.370571 11.936000 21.003000 13.024000 # S1 MOL
196 33 15 -0.370571 11.936000 17.905001 12.533000 # S2 MOL
197 33 16 -0.370571 10.344000 21.146999 9.822000 # S3 MOL
198 33 17 -0.370571 10.344000 18.049999 10.312000 # S4 MOL
199 34 6 0.734000 10.344000 19.311001 8.256000 # Mo1 MOL
200 34 7 0.734000 11.936000 18.065001 5.810000 # Mo2 MOL
201 34 14 -0.370571 11.936000 20.295000 6.732000 # S1 MOL
202 34 15 -0.370571 11.936000 17.500999 8.156000 # S2 MOL
203 34 16 -0.370571 10.344000 18.530001 4.057000 # S3 MOL
204 34 17 -0.370571 10.344000 16.312000 6.274000 # S4 MOL
205 35 6 0.734000 10.344000 16.124001 3.869000 # Mo1 MOL
206 35 7 0.734000 11.936000 13.678000 2.623000 # Mo2 MOL
207 35 14 -0.370571 11.936000 16.024000 2.058000 # S1 MOL
208 35 15 -0.370571 11.936000 14.600000 4.852000 # S2 MOL
209 35 16 -0.370571 10.344000 13.024000 0.931000 # S3 MOL
210 35 17 -0.370571 10.344000 12.533000 4.029000 # S4 MOL
211 36 6 0.734000 10.344000 10.967000 2.193000 # Mo1 MOL
212 36 7 0.734000 11.936000 8.256000 2.623000 # Mo2 MOL
213 36 14 -0.370571 11.936000 9.822000 0.787000 # S1 MOL
214 36 15 -0.370571 11.936000 10.312000 3.884000 # S2 MOL
215 36 16 -0.370571 10.344000 6.732000 1.639000 # S3 MOL
216 36 17 -0.370571 10.344000 8.156000 4.433000 # S4 MOL
217 37 6 0.734000 10.344000 5.810000 3.869000 # Mo1 MOL
218 37 7 0.734000 11.936000 3.869000 5.810000 # Mo2 MOL
219 37 14 -0.370571 11.936000 4.057000 3.404000 # S1 MOL
220 37 15 -0.370571 11.936000 6.274000 5.622000 # S2 MOL
221 37 16 -0.370571 10.344000 2.058000 5.910000 # S3 MOL
222 37 17 -0.370571 10.344000 4.852000 7.334000 # S4 MOL
223 38 6 0.734000 10.344000 2.623000 8.256000 # Mo1 MOL
224 38 7 0.734000 11.936000 2.193000 10.967000 # Mo2 MOL
225 38 14 -0.370571 11.936000 0.931000 8.910000 # S1 MOL
226 38 15 -0.370571 11.936000 4.029000 9.401000 # S2 MOL
227 38 16 -0.370571 10.344000 0.787000 12.112000 # S3 MOL
228 38 17 -0.370571 10.344000 3.884000 11.622000 # S4 MOL
229 39 6 0.734000 10.344000 2.623000 13.678000 # Mo1 MOL
230 39 7 0.734000 11.936000 3.869000 16.124001 # Mo2 MOL
231 39 14 -0.370571 11.936000 1.639000 15.202000 # S1 MOL
232 39 15 -0.370571 11.936000 4.433000 13.778000 # S2 MOL
233 39 16 -0.370571 10.344000 3.404000 17.877001 # S3 MOL
234 39 17 -0.370571 10.344000 5.622000 15.660000 # S4 MOL
235 40 6 0.734000 10.344000 5.810000 18.065001 # Mo1 MOL
236 40 7 0.734000 11.936000 8.256000 19.311001 # Mo2 MOL
237 40 14 -0.370571 11.936000 5.910000 19.875999 # S1 MOL
238 40 15 -0.370571 11.936000 7.334000 17.082001 # S2 MOL
239 40 16 -0.370571 10.344000 8.910000 21.003000 # S3 MOL
240 40 17 -0.370571 10.344000 9.401000 17.905001 # S4 MOL
241 41 6 0.734000 13.527000 10.967000 19.740999 # Mo1 MOL
242 41 7 0.734000 15.119000 13.678000 19.311001 # Mo2 MOL
243 41 14 -0.370571 15.119000 12.112000 21.146999 # S1 MOL
244 41 15 -0.370571 15.119000 11.622000 18.049999 # S2 MOL
245 41 16 -0.370571 13.527000 15.202000 20.295000 # S3 MOL
246 41 17 -0.370571 13.527000 13.778000 17.500999 # S4 MOL
247 42 6 0.734000 13.527000 16.124001 18.065001 # Mo1 MOL
248 42 7 0.734000 15.119000 18.065001 16.124001 # Mo2 MOL
249 42 14 -0.370571 15.119000 17.877001 18.530001 # S1 MOL
250 42 15 -0.370571 15.119000 15.660000 16.312000 # S2 MOL
251 42 16 -0.370571 13.527000 19.875999 16.024000 # S3 MOL
252 42 17 -0.370571 13.527000 17.082001 14.600000 # S4 MOL
253 43 6 0.734000 13.527000 19.311001 13.678000 # Mo1 MOL
254 43 7 0.734000 15.119000 19.740999 10.967000 # Mo2 MOL
255 43 14 -0.370571 15.119000 21.003000 13.024000 # S1 MOL
256 43 15 -0.370571 15.119000 17.905001 12.533000 # S2 MOL
257 43 16 -0.370571 13.527000 21.146999 9.822000 # S3 MOL
258 43 17 -0.370571 13.527000 18.049999 10.312000 # S4 MOL
259 44 6 0.734000 13.527000 19.311001 8.256000 # Mo1 MOL
260 44 7 0.734000 15.119000 18.065001 5.810000 # Mo2 MOL
261 44 14 -0.370571 15.119000 20.295000 6.732000 # S1 MOL
262 44 15 -0.370571 15.119000 17.500999 8.156000 # S2 MOL
263 44 16 -0.370571 13.527000 18.530001 4.057000 # S3 MOL
264 44 17 -0.370571 13.527000 16.312000 6.274000 # S4 MOL
265 45 6 0.734000 13.527000 16.124001 3.869000 # Mo1 MOL
266 45 7 0.734000 15.119000 13.678000 2.623000 # Mo2 MOL
267 45 14 -0.370571 15.119000 16.024000 2.058000 # S1 MOL
268 45 15 -0.370571 15.119000 14.600000 4.852000 # S2 MOL
269 45 16 -0.370571 13.527000 13.024000 0.931000 # S3 MOL
270 45 17 -0.370571 13.527000 12.533000 4.029000 # S4 MOL
271 46 6 0.734000 13.527000 10.967000 2.193000 # Mo1 MOL
272 46 7 0.734000 15.119000 8.256000 2.623000 # Mo2 MOL
273 46 14 -0.370571 15.119000 9.822000 0.787000 # S1 MOL
274 46 15 -0.370571 15.119000 10.312000 3.884000 # S2 MOL
275 46 16 -0.370571 13.527000 6.732000 1.639000 # S3 MOL
276 46 17 -0.370571 13.527000 8.156000 4.433000 # S4 MOL
277 47 6 0.734000 13.527000 5.810000 3.869000 # Mo1 MOL
278 47 7 0.734000 15.119000 3.869000 5.810000 # Mo2 MOL
279 47 14 -0.370571 15.119000 4.057000 3.404000 # S1 MOL
280 47 15 -0.370571 15.119000 6.274000 5.622000 # S2 MOL
281 47 16 -0.370571 13.527000 2.058000 5.910000 # S3 MOL
282 47 17 -0.370571 13.527000 4.852000 7.334000 # S4 MOL
283 48 6 0.734000 13.527000 2.623000 8.256000 # Mo1 MOL
284 48 7 0.734000 15.119000 2.193000 10.967000 # Mo2 MOL
285 48 14 -0.370571 15.119000 0.931000 8.910000 # S1 MOL
286 48 15 -0.370571 15.119000 4.029000 9.401000 # S2 MOL
287 48 16 -0.370571 13.527000 0.787000 12.112000 # S3 MOL
288 48 17 -0.370571 13.527000 3.884000 11.622000 # S4 MOL
289 49 6 0.734000 13.527000 2.623000 13.678000 # Mo1 MOL
290 49 7 0.734000 15.119000 3.869000 16.124001 # Mo2 MOL
291 49 14 -0.370571 15.119000 1.639000 15.202000 # S1 MOL
292 49 15 -0.370571 15.119000 4.433000 13.778000 # S2 MOL
293 49 16 -0.370571 13.527000 3.404000 17.877001 # S3 MOL
294 49 17 -0.370571 13.527000 5.622000 15.660000 # S4 MOL
295 50 6 0.734000 13.527000 5.810000 18.065001 # Mo1 MOL
296 50 7 0.734000 15.119000 8.256000 19.311001 # Mo2 MOL
297 50 14 -0.370571 15.119000 5.910000 19.875999 # S1 MOL
298 50 15 -0.370571 15.119000 7.334000 17.082001 # S2 MOL
299 50 16 -0.370571 13.527000 8.910000 21.003000 # S3 MOL
300 50 17 -0.370571 13.527000 9.401000 17.905001 # S4 MOL
301 51 6 0.734000 16.709999 10.967000 19.740999 # Mo1 MOL
302 51 7 0.734000 18.301001 13.678000 19.311001 # Mo2 MOL
303 51 14 -0.370571 18.301001 12.112000 21.146999 # S1 MOL
304 51 15 -0.370571 18.301001 11.622000 18.049999 # S2 MOL
305 51 16 -0.370571 16.709999 15.202000 20.295000 # S3 MOL
306 51 17 -0.370571 16.709999 13.778000 17.500999 # S4 MOL
307 52 6 0.734000 16.709999 16.124001 18.065001 # Mo1 MOL
308 52 7 0.734000 18.301001 18.065001 16.124001 # Mo2 MOL
309 52 14 -0.370571 18.301001 17.877001 18.530001 # S1 MOL
310 52 15 -0.370571 18.301001 15.660000 16.312000 # S2 MOL
311 52 16 -0.370571 16.709999 19.875999 16.024000 # S3 MOL
312 52 17 -0.370571 16.709999 17.082001 14.600000 # S4 MOL
313 53 6 0.734000 16.709999 19.311001 13.678000 # Mo1 MOL
314 53 7 0.734000 18.301001 19.740999 10.967000 # Mo2 MOL
315 53 14 -0.370571 18.301001 21.003000 13.024000 # S1 MOL
316 53 15 -0.370571 18.301001 17.905001 12.533000 # S2 MOL
317 53 16 -0.370571 16.709999 21.146999 9.822000 # S3 MOL
318 53 17 -0.370571 16.709999 18.049999 10.312000 # S4 MOL
319 54 6 0.734000 16.709999 19.311001 8.256000 # Mo1 MOL
320 54 7 0.734000 18.301001 18.065001 5.810000 # Mo2 MOL
321 54 14 -0.370571 18.301001 20.295000 6.732000 # S1 MOL
322 54 15 -0.370571 18.301001 17.500999 8.156000 # S2 MOL
323 54 16 -0.370571 16.709999 18.530001 4.057000 # S3 MOL
324 54 17 -0.370571 16.709999 16.312000 6.274000 # S4 MOL
325 55 6 0.734000 16.709999 16.124001 3.869000 # Mo1 MOL
326 55 7 0.734000 18.301001 13.678000 2.623000 # Mo2 MOL
327 55 14 -0.370571 18.301001 16.024000 2.058000 # S1 MOL
328 55 15 -0.370571 18.301001 14.600000 4.852000 # S2 MOL
329 55 16 -0.370571 16.709999 13.024000 0.931000 # S3 MOL
330 55 17 -0.370571 16.709999 12.533000 4.029000 # S4 MOL
331 56 6 0.734000 16.709999 10.967000 2.193000 # Mo1 MOL
332 56 7 0.734000 18.301001 8.256000 2.623000 # Mo2 MOL
333 56 14 -0.370571 18.301001 9.822000 0.787000 # S1 MOL
334 56 15 -0.370571 18.301001 10.312000 3.884000 # S2 MOL
335 56 16 -0.370571 16.709999 6.732000 1.639000 # S3 MOL
336 56 17 -0.370571 16.709999 8.156000 4.433000 # S4 MOL
337 57 6 0.734000 16.709999 5.810000 3.869000 # Mo1 MOL
338 57 7 0.734000 18.301001 3.869000 5.810000 # Mo2 MOL
339 57 14 -0.370571 18.301001 4.057000 3.404000 # S1 MOL
340 57 15 -0.370571 18.301001 6.274000 5.622000 # S2 MOL
341 57 16 -0.370571 16.709999 2.058000 5.910000 # S3 MOL
342 57 17 -0.370571 16.709999 4.852000 7.334000 # S4 MOL
343 58 6 0.734000 16.709999 2.623000 8.256000 # Mo1 MOL
344 58 7 0.734000 18.301001 2.193000 10.967000 # Mo2 MOL
345 58 14 -0.370571 18.301001 0.931000 8.910000 # S1 MOL
346 58 15 -0.370571 18.301001 4.029000 9.401000 # S2 MOL
347 58 16 -0.370571 16.709999 0.787000 12.112000 # S3 MOL
348 58 17 -0.370571 16.709999 3.884000 11.622000 # S4 MOL
349 59 6 0.734000 16.709999 2.623000 13.678000 # Mo1 MOL
350 59 7 0.734000 18.301001 3.869000 16.124001 # Mo2 MOL
351 59 14 -0.370571 18.301001 1.639000 15.202000 # S1 MOL
352 59 15 -0.370571 18.301001 4.433000 13.778000 # S2 MOL
353 59 16 -0.370571 16.709999 3.404000 17.877001 # S3 MOL
354 59 17 -0.370571 16.709999 5.622000 15.660000 # S4 MOL
355 60 6 0.734000 16.709999 5.810000 18.065001 # Mo1 MOL
356 60 7 0.734000 18.301001 8.256000 19.311001 # Mo2 MOL
357 60 14 -0.370571 18.301001 5.910000 19.875999 # S1 MOL
358 60 15 -0.370571 18.301001 7.334000 17.082001 # S2 MOL
359 60 16 -0.370571 16.709999 8.910000 21.003000 # S3 MOL
360 60 17 -0.370571 16.709999 9.401000 17.905001 # S4 MOL
361 61 6 0.734000 19.893000 10.967000 19.740999 # Mo1 MOL
362 61 7 0.734000 21.483999 13.678000 19.311001 # Mo2 MOL
363 61 14 -0.370571 21.483999 12.112000 21.146999 # S1 MOL
364 61 15 -0.370571 21.483999 11.622000 18.049999 # S2 MOL
365 61 16 -0.370571 19.893000 15.202000 20.295000 # S3 MOL
366 61 17 -0.370571 19.893000 13.778000 17.500999 # S4 MOL
367 62 6 0.734000 19.893000 16.124001 18.065001 # Mo1 MOL
368 62 7 0.734000 21.483999 18.065001 16.124001 # Mo2 MOL
369 62 14 -0.370571 21.483999 17.877001 18.530001 # S1 MOL
370 62 15 -0.370571 21.483999 15.660000 16.312000 # S2 MOL
371 62 16 -0.370571 19.893000 19.875999 16.024000 # S3 MOL
372 62 17 -0.370571 19.893000 17.082001 14.600000 # S4 MOL
373 63 6 0.734000 19.893000 19.311001 13.678000 # Mo1 MOL
374 63 7 0.734000 21.483999 19.740999 10.967000 # Mo2 MOL
375 63 14 -0.370571 21.483999 21.003000 13.024000 # S1 MOL
376 63 15 -0.370571 21.483999 17.905001 12.533000 # S2 MOL
377 63 16 -0.370571 19.893000 21.146999 9.822000 # S3 MOL
378 63 17 -0.370571 19.893000 18.049999 10.312000 # S4 MOL
379 64 6 0.734000 19.893000 19.311001 8.256000 # Mo1 MOL
380 64 7 0.734000 21.483999 18.065001 5.810000 # Mo2 MOL
381 64 14 -0.370571 21.483999 20.295000 6.732000 # S1 MOL
382 64 15 -0.370571 21.483999 17.500999 8.156000 # S2 MOL
383 64 16 -0.370571 19.893000 18.530001 4.057000 # S3 MOL
384 64 17 -0.370571 19.893000 16.312000 6.274000 # S4 MOL
385 65 6 0.734000 19.893000 16.124001 3.869000 # Mo1 MOL
386 65 7 0.734000 21.483999 13.678000 2.623000 # Mo2 MOL
387 65 14 -0.370571 21.483999 16.024000 2.058000 # S1 MOL
388 65 15 -0.370571 21.483999 14.600000 4.852000 # S2 MOL
389 65 16 -0.370571 19.893000 13.024000 0.931000 # S3 MOL
390 65 17 -0.370571 19.893000 12.533000 4.029000 # S4 MOL
391 66 6 0.734000 19.893000 10.967000 2.193000 # Mo1 MOL
392 66 7 0.734000 21.483999 8.256000 2.623000 # Mo2 MOL
393 66 14 -0.370571 21.483999 9.822000 0.787000 # S1 MOL
394 66 15 -0.370571 21.483999 10.312000 3.884000 # S2 MOL
395 66 16 -0.370571 19.893000 6.732000 1.639000 # S3 MOL
396 66 17 -0.370571 19.893000 8.156000 4.433000 # S4 MOL
397 67 6 0.734000 19.893000 5.810000 3.869000 # Mo1 MOL
398 67 7 0.734000 21.483999 3.869000 5.810000 # Mo2 MOL
399 67 14 -0.370571 21.483999 4.057000 3.404000 # S1 MOL
400 67 15 -0.370571 21.483999 6.274000 5.622000 # S2 MOL
401 67 16 -0.370571 19.893000 2.058000 5.910000 # S3 MOL
402 67 17 -0.370571 19.893000 4.852000 7.334000 # S4 MOL
403 68 6 0.734000 19.893000 2.623000 8.256000 # Mo1 MOL
404 68 7 0.734000 21.483999 2.193000 10.967000 # Mo2 MOL
405 68 14 -0.370571 21.483999 0.931000 8.910000 # S1 MOL
406 68 15 -0.370571 21.483999 4.029000 9.401000 # S2 MOL
407 68 16 -0.370571 19.893000 0.787000 12.112000 # S3 MOL
408 68 17 -0.370571 19.893000 3.884000 11.622000 # S4 MOL
409 69 6 0.734000 19.893000 2.623000 13.678000 # Mo1 MOL
410 69 7 0.734000 21.483999 3.869000 16.124001 # Mo2 MOL
411 69 14 -0.370571 21.483999 1.639000 15.202000 # S1 MOL
412 69 15 -0.370571 21.483999 4.433000 13.778000 # S2 MOL
413 69 16 -0.370571 19.893000 3.404000 17.877001 # S3 MOL
414 69 17 -0.370571 19.893000 5.622000 15.660000 # S4 MOL
415 70 6 0.734000 19.893000 5.810000 18.065001 # Mo1 MOL
416 70 7 0.734000 21.483999 8.256000 19.311001 # Mo2 MOL
417 70 14 -0.370571 21.483999 5.910000 19.875999 # S1 MOL
418 70 15 -0.370571 21.483999 7.334000 17.082001 # S2 MOL
419 70 16 -0.370571 19.893000 8.910000 21.003000 # S3 MOL
420 70 17 -0.370571 19.893000 9.401000 17.905001 # S4 MOL
421 2 2 0.812000 0.737000 10.978000 6.719000 # CR HCR
422 2 10 -0.703000 -0.131000 11.502000 5.481000 # O1 HCR
423 2 11 -0.703000 -0.219000 10.804000 8.004000 # O2 HCR
424 2 12 -0.703000 1.895000 12.041000 7.047000 # O3 HCR
425 2 13 -0.703000 1.402000 9.565000 6.345000 # O4 HCR
426 2 3 1.000000 -0.456000 11.698000 5.016000 # H HCR
427 3 9 -0.834000 5.206000 12.428000 15.996000 # O TIP
428 3 4 0.417000 5.391000 12.908000 16.802999 # H1 TIP
429 3 5 0.417000 4.985000 11.543000 16.288000 # H2 TIP
430 4 9 -0.834000 8.017000 8.744000 16.146000 # O TIP
431 4 4 0.417000 7.933000 9.684000 16.302999 # H1 TIP
432 4 5 0.417000 7.828000 8.639000 15.213000 # H2 TIP
433 5 9 -0.834000 16.417000 9.542000 7.853000 # O TIP
434 5 4 0.417000 15.599000 9.432000 8.338000 # H1 TIP
435 5 5 0.417000 17.077000 9.111000 8.396000 # H2 TIP
436 6 9 -0.834000 15.540000 10.595000 5.988000 # O TIP
437 6 4 0.417000 16.061001 11.326000 6.319000 # H1 TIP
438 6 5 0.417000 15.146000 10.207000 6.770000 # H2 TIP
439 7 9 -0.834000 9.600000 14.502000 7.747000 # O TIP
440 7 4 0.417000 10.188000 15.257000 7.737000 # H1 TIP
441 7 5 0.417000 9.563000 14.238000 8.666000 # H2 TIP
442 8 9 -0.834000 12.897000 14.331000 11.167000 # O TIP
443 8 4 0.417000 11.968000 14.550000 11.103000 # H1 TIP
444 8 5 0.417000 13.352000 15.142000 10.938000 # H2 TIP
445 9 9 -0.834000 20.982000 15.392000 7.372000 # O TIP
446 9 4 0.417000 21.254000 14.545000 7.018000 # H1 TIP
447 9 5 0.417000 21.502001 15.496000 8.170000 # H2 TIP
448 10 9 -0.834000 19.656000 10.009000 5.029000 # O TIP
449 10 4 0.417000 19.900000 10.821000 4.585000 # H1 TIP
450 10 5 0.417000 18.920000 10.255000 5.591000 # H2 TIP
451 11 9 -0.834000 16.469999 9.958000 14.327000 # O TIP
452 11 4 0.417000 16.683001 10.859000 14.568000 # H1 TIP
453 11 5 0.417000 16.115999 10.024000 13.440000 # H2 TIP
454 12 9 -0.834000 12.588000 7.196000 12.501000 # O TIP
455 12 4 0.417000 11.641000 7.321000 12.563000 # H1 TIP
456 12 5 0.417000 12.949000 8.082000 12.512000 # H2 TIP
457 13 9 -0.834000 5.324000 16.987000 10.861000 # O TIP
458 13 4 0.417000 6.018000 16.589001 11.386000 # H1 TIP
459 13 5 0.417000 4.707000 16.273001 10.698000 # H2 TIP
460 14 9 -0.834000 13.948000 12.712000 9.239000 # O TIP
461 14 4 0.417000 13.068000 12.445000 8.976000 # H1 TIP
462 14 5 0.417000 13.817000 13.524000 9.728000 # H2 TIP
463 15 9 -0.834000 9.438000 10.401000 9.360000 # O TIP
464 15 4 0.417000 8.997000 11.250000 9.330000 # H1 TIP
465 15 5 0.417000 10.372000 10.615000 9.355000 # H2 TIP
466 16 9 -0.834000 10.799000 7.360000 6.496000 # O TIP
467 16 4 0.417000 10.162000 8.018000 6.218000 # H1 TIP
468 16 5 0.417000 10.314000 6.534000 6.477000 # H2 TIP
469 17 9 -0.834000 14.057000 11.032000 12.835000 # O TIP
470 17 4 0.417000 13.234000 10.886000 12.369000 # H1 TIP
471 17 5 0.417000 14.361000 10.154000 13.066000 # H2 TIP
472 18 9 -0.834000 7.301000 7.307000 9.402000 # O TIP
473 18 4 0.417000 7.582000 8.171000 9.103000 # H1 TIP
474 18 5 0.417000 6.637000 7.488000 10.068000 # H2 TIP
475 19 9 -0.834000 16.125999 16.349001 10.537000 # O TIP
476 19 4 0.417000 15.382000 15.756000 10.441000 # H1 TIP
477 19 5 0.417000 16.827000 15.800000 10.888000 # H2 TIP
478 20 9 -0.834000 18.503000 10.311000 10.124000 # O TIP
479 20 4 0.417000 17.958000 9.557000 9.902000 # H1 TIP
480 20 5 0.417000 17.882000 10.974000 10.430000 # H2 TIP
481 21 9 -0.834000 16.941999 13.568000 7.214000 # O TIP
482 21 4 0.417000 16.200001 14.171000 7.175000 # H1 TIP
483 21 5 0.417000 17.622999 14.055000 7.677000 # H2 TIP
484 22 9 -0.834000 8.112000 14.585000 10.130000 # O TIP
485 22 4 0.417000 9.037000 14.754000 10.308000 # H1 TIP
486 22 5 0.417000 8.107000 13.749000 9.664000 # H2 TIP
487 23 9 -0.834000 20.360001 8.420000 13.041000 # O TIP
488 23 4 0.417000 21.247000 8.062000 13.086000 # H1 TIP
489 23 5 0.417000 19.893000 7.832000 12.447000 # H2 TIP
490 24 9 -0.834000 11.935000 5.873000 14.858000 # O TIP
491 24 4 0.417000 11.813000 6.635000 15.423000 # H1 TIP
492 24 5 0.417000 11.877000 6.221000 13.968000 # H2 TIP
493 25 9 -0.834000 21.052999 13.774000 13.872000 # O TIP
494 25 4 0.417000 20.174000 14.142000 13.785000 # H1 TIP
495 25 5 0.417000 20.910999 12.832000 13.963000 # H2 TIP
496 26 9 -0.834000 0.198000 8.438000 13.406000 # O TIP
497 26 4 0.417000 0.194000 7.500000 13.597000 # H1 TIP
498 26 5 0.417000 0.481000 8.848000 14.224000 # H2 TIP
499 27 9 -0.834000 6.244000 14.553000 13.652000 # O TIP
500 27 4 0.417000 6.305000 13.620000 13.856000 # H1 TIP
501 27 5 0.417000 7.122000 14.792000 13.356000 # H2 TIP
502 28 9 -0.834000 12.453000 11.251000 14.111000 # O TIP
503 28 4 0.417000 11.728000 11.189000 13.490000 # H1 TIP
504 28 5 0.417000 12.883000 10.397000 14.065000 # H2 TIP
505 29 9 -0.834000 7.058000 6.320000 11.372000 # O TIP
506 29 4 0.417000 6.239000 6.729000 11.651000 # H1 TIP
507 29 5 0.417000 7.249000 5.676000 12.055000 # H2 TIP
508 30 9 -0.834000 13.908000 7.738000 9.615000 # O TIP
509 30 4 0.417000 14.023000 6.788000 9.574000 # H1 TIP
510 30 5 0.417000 13.020000 7.886000 9.288000 # H2 TIP
511 31 9 -0.834000 10.146000 11.882000 8.097000 # O TIP
512 31 4 0.417000 9.845000 12.719000 7.743000 # H1 TIP
513 31 5 0.417000 10.982000 12.086000 8.517000 # H2 TIP