LAMMPS data file. CGCMM style. atom_style full generated by VMD/TopoTools v1.8 on Mon Sep 08 15:43:13 EDT 2025
 1196 atoms
 1345 bonds
 1110 angles
 0 dihedrals
 0 impropers
 17 atom types
 4 bond types
 3 angle types
 0 dihedral types
 0 improper types
 0.011999 22.292000  xlo xhi
 0.000499 35.095500  ylo yhi
 0.000499 35.095500  zlo zhi

# Pair Coeffs
#
# 1  CL
# 2  CR
# 3  H
# 4  H1
# 5  H2
# 6  Mo1
# 7  Mo2
# 8  NA
# 9  O
# 10  O1
# 11  O2
# 12  O3
# 13  O4
# 14  S1
# 15  S2
# 16  S3
# 17  S4

# Bond Coeffs
#
# 1  1
# 2  2
# 3  3
# 4  4

# Angle Coeffs
#
# 1  1
# 2  2
# 3  3

 Masses

 1 35.452999 # CL
 2 12.011000 # CR
 3 1.008000 # H
 4 1.008000 # H1
 5 1.008000 # H2
 6 95.940002 # Mo1
 7 95.940002 # Mo2
 8 22.989771 # NA
 9 15.999000 # O
 10 15.999000 # O1
 11 15.999000 # O2
 12 15.999000 # O3
 13 15.999000 # O4
 14 32.064999 # S1
 15 32.064999 # S2
 16 32.064999 # S3
 17 32.064999 # S4

 Atoms # full

1 1 6 0.734000 0.796000 17.548000 26.322001 # Mo1 MOL
2 1 7 0.734000 2.387000 20.259001 25.892000 # Mo2 MOL
3 1 14 -0.370571 2.387000 18.693001 27.728001 # S1 MOL
4 1 15 -0.370571 2.387000 18.202999 24.631001 # S2 MOL
5 1 16 -0.370571 0.796000 21.783001 26.875999 # S3 MOL
6 1 17 -0.370571 0.796000 20.358999 24.082001 # S4 MOL
7 2 6 0.734000 0.796000 22.705000 24.646000 # Mo1 MOL
8 2 7 0.734000 2.387000 24.646000 22.705000 # Mo2 MOL
9 2 14 -0.370571 2.387000 24.458000 25.111000 # S1 MOL
10 2 15 -0.370571 2.387000 22.240999 22.893000 # S2 MOL
11 2 16 -0.370571 0.796000 26.457001 22.605000 # S3 MOL
12 2 17 -0.370571 0.796000 23.663000 21.181000 # S4 MOL
13 3 6 0.734000 0.796000 25.892000 20.259001 # Mo1 MOL
14 3 7 0.734000 2.387000 26.322001 17.548000 # Mo2 MOL
15 3 14 -0.370571 2.387000 27.584000 19.605000 # S1 MOL
16 3 15 -0.370571 2.387000 24.486000 19.114000 # S2 MOL
17 3 16 -0.370571 0.796000 27.728001 16.403000 # S3 MOL
18 3 17 -0.370571 0.796000 24.631001 16.893000 # S4 MOL
19 4 6 0.734000 0.796000 25.892000 14.837000 # Mo1 MOL
20 4 7 0.734000 2.387000 24.646000 12.391000 # Mo2 MOL
21 4 14 -0.370571 2.387000 26.875999 13.313000 # S1 MOL
22 4 15 -0.370571 2.387000 24.082001 14.737000 # S2 MOL
23 4 16 -0.370571 0.796000 25.111000 10.638000 # S3 MOL
24 4 17 -0.370571 0.796000 22.893000 12.855000 # S4 MOL
25 5 6 0.734000 0.796000 22.705000 10.450000 # Mo1 MOL
26 5 7 0.734000 2.387000 20.259001 9.204000 # Mo2 MOL
27 5 14 -0.370571 2.387000 22.605000 8.639000 # S1 MOL
28 5 15 -0.370571 2.387000 21.181000 11.433000 # S2 MOL
29 5 16 -0.370571 0.796000 19.605000 7.512000 # S3 MOL
30 5 17 -0.370571 0.796000 19.114000 10.610000 # S4 MOL
31 6 6 0.734000 0.796000 17.548000 8.774000 # Mo1 MOL
32 6 7 0.734000 2.387000 14.837000 9.204000 # Mo2 MOL
33 6 14 -0.370571 2.387000 16.403000 7.368000 # S1 MOL
34 6 15 -0.370571 2.387000 16.893000 10.465000 # S2 MOL
35 6 16 -0.370571 0.796000 13.313000 8.220000 # S3 MOL
36 6 17 -0.370571 0.796000 14.737000 11.014000 # S4 MOL
37 7 6 0.734000 0.796000 12.391000 10.450000 # Mo1 MOL
38 7 7 0.734000 2.387000 10.450000 12.391000 # Mo2 MOL
39 7 14 -0.370571 2.387000 10.638000 9.985000 # S1 MOL
40 7 15 -0.370571 2.387000 12.855000 12.203000 # S2 MOL
41 7 16 -0.370571 0.796000 8.639000 12.491000 # S3 MOL
42 7 17 -0.370571 0.796000 11.433000 13.915000 # S4 MOL
43 8 6 0.734000 0.796000 9.204000 14.837000 # Mo1 MOL
44 8 7 0.734000 2.387000 8.774000 17.548000 # Mo2 MOL
45 8 14 -0.370571 2.387000 7.512000 15.491000 # S1 MOL
46 8 15 -0.370571 2.387000 10.610000 15.982000 # S2 MOL
47 8 16 -0.370571 0.796000 7.368000 18.693001 # S3 MOL
48 8 17 -0.370571 0.796000 10.465000 18.202999 # S4 MOL
49 9 6 0.734000 0.796000 9.204000 20.259001 # Mo1 MOL
50 9 7 0.734000 2.387000 10.450000 22.705000 # Mo2 MOL
51 9 14 -0.370571 2.387000 8.220000 21.783001 # S1 MOL
52 9 15 -0.370571 2.387000 11.014000 20.358999 # S2 MOL
53 9 16 -0.370571 0.796000 9.985000 24.458000 # S3 MOL
54 9 17 -0.370571 0.796000 12.203000 22.240999 # S4 MOL
55 10 6 0.734000 0.796000 12.391000 24.646000 # Mo1 MOL
56 10 7 0.734000 2.387000 14.837000 25.892000 # Mo2 MOL
57 10 14 -0.370571 2.387000 12.491000 26.457001 # S1 MOL
58 10 15 -0.370571 2.387000 13.915000 23.663000 # S2 MOL
59 10 16 -0.370571 0.796000 15.491000 27.584000 # S3 MOL
60 10 17 -0.370571 0.796000 15.982000 24.486000 # S4 MOL
61 11 6 0.734000 3.979000 17.548000 26.322001 # Mo1 MOL
62 11 7 0.734000 5.570000 20.259001 25.892000 # Mo2 MOL
63 11 14 -0.370571 5.570000 18.693001 27.728001 # S1 MOL
64 11 15 -0.370571 5.570000 18.202999 24.631001 # S2 MOL
65 11 16 -0.370571 3.979000 21.783001 26.875999 # S3 MOL
66 11 17 -0.370571 3.979000 20.358999 24.082001 # S4 MOL
67 12 6 0.734000 3.979000 22.705000 24.646000 # Mo1 MOL
68 12 7 0.734000 5.570000 24.646000 22.705000 # Mo2 MOL
69 12 14 -0.370571 5.570000 24.458000 25.111000 # S1 MOL
70 12 15 -0.370571 5.570000 22.240999 22.893000 # S2 MOL
71 12 16 -0.370571 3.979000 26.457001 22.605000 # S3 MOL
72 12 17 -0.370571 3.979000 23.663000 21.181000 # S4 MOL
73 13 6 0.734000 3.979000 25.892000 20.259001 # Mo1 MOL
74 13 7 0.734000 5.570000 26.322001 17.548000 # Mo2 MOL
75 13 14 -0.370571 5.570000 27.584000 19.605000 # S1 MOL
76 13 15 -0.370571 5.570000 24.486000 19.114000 # S2 MOL
77 13 16 -0.370571 3.979000 27.728001 16.403000 # S3 MOL
78 13 17 -0.370571 3.979000 24.631001 16.893000 # S4 MOL
79 14 6 0.734000 3.979000 25.892000 14.837000 # Mo1 MOL
80 14 7 0.734000 5.570000 24.646000 12.391000 # Mo2 MOL
81 14 14 -0.370571 5.570000 26.875999 13.313000 # S1 MOL
82 14 15 -0.370571 5.570000 24.082001 14.737000 # S2 MOL
83 14 16 -0.370571 3.979000 25.111000 10.638000 # S3 MOL
84 14 17 -0.370571 3.979000 22.893000 12.855000 # S4 MOL
85 15 6 0.734000 3.979000 22.705000 10.450000 # Mo1 MOL
86 15 7 0.734000 5.570000 20.259001 9.204000 # Mo2 MOL
87 15 14 -0.370571 5.570000 22.605000 8.639000 # S1 MOL
88 15 15 -0.370571 5.570000 21.181000 11.433000 # S2 MOL
89 15 16 -0.370571 3.979000 19.605000 7.512000 # S3 MOL
90 15 17 -0.370571 3.979000 19.114000 10.610000 # S4 MOL
91 16 6 0.734000 3.979000 17.548000 8.774000 # Mo1 MOL
92 16 7 0.734000 5.570000 14.837000 9.204000 # Mo2 MOL
93 16 14 -0.370571 5.570000 16.403000 7.368000 # S1 MOL
94 16 15 -0.370571 5.570000 16.893000 10.465000 # S2 MOL
95 16 16 -0.370571 3.979000 13.313000 8.220000 # S3 MOL
96 16 17 -0.370571 3.979000 14.737000 11.014000 # S4 MOL
97 17 6 0.734000 3.979000 12.391000 10.450000 # Mo1 MOL
98 17 7 0.734000 5.570000 10.450000 12.391000 # Mo2 MOL
99 17 14 -0.370571 5.570000 10.638000 9.985000 # S1 MOL
100 17 15 -0.370571 5.570000 12.855000 12.203000 # S2 MOL
101 17 16 -0.370571 3.979000 8.639000 12.491000 # S3 MOL
102 17 17 -0.370571 3.979000 11.433000 13.915000 # S4 MOL
103 18 6 0.734000 3.979000 9.204000 14.837000 # Mo1 MOL
104 18 7 0.734000 5.570000 8.774000 17.548000 # Mo2 MOL
105 18 14 -0.370571 5.570000 7.512000 15.491000 # S1 MOL
106 18 15 -0.370571 5.570000 10.610000 15.982000 # S2 MOL
107 18 16 -0.370571 3.979000 7.368000 18.693001 # S3 MOL
108 18 17 -0.370571 3.979000 10.465000 18.202999 # S4 MOL
109 19 6 0.734000 3.979000 9.204000 20.259001 # Mo1 MOL
110 19 7 0.734000 5.570000 10.450000 22.705000 # Mo2 MOL
111 19 14 -0.370571 5.570000 8.220000 21.783001 # S1 MOL
112 19 15 -0.370571 5.570000 11.014000 20.358999 # S2 MOL
113 19 16 -0.370571 3.979000 9.985000 24.458000 # S3 MOL
114 19 17 -0.370571 3.979000 12.203000 22.240999 # S4 MOL
115 20 6 0.734000 3.979000 12.391000 24.646000 # Mo1 MOL
116 20 7 0.734000 5.570000 14.837000 25.892000 # Mo2 MOL
117 20 14 -0.370571 5.570000 12.491000 26.457001 # S1 MOL
118 20 15 -0.370571 5.570000 13.915000 23.663000 # S2 MOL
119 20 16 -0.370571 3.979000 15.491000 27.584000 # S3 MOL
120 20 17 -0.370571 3.979000 15.982000 24.486000 # S4 MOL
121 21 6 0.734000 7.162000 17.548000 26.322001 # Mo1 MOL
122 21 7 0.734000 8.753000 20.259001 25.892000 # Mo2 MOL
123 21 14 -0.370571 8.753000 18.693001 27.728001 # S1 MOL
124 21 15 -0.370571 8.753000 18.202999 24.631001 # S2 MOL
125 21 16 -0.370571 7.162000 21.783001 26.875999 # S3 MOL
126 21 17 -0.370571 7.162000 20.358999 24.082001 # S4 MOL
127 22 6 0.734000 7.162000 22.705000 24.646000 # Mo1 MOL
128 22 7 0.734000 8.753000 24.646000 22.705000 # Mo2 MOL
129 22 14 -0.370571 8.753000 24.458000 25.111000 # S1 MOL
130 22 15 -0.370571 8.753000 22.240999 22.893000 # S2 MOL
131 22 16 -0.370571 7.162000 26.457001 22.605000 # S3 MOL
132 22 17 -0.370571 7.162000 23.663000 21.181000 # S4 MOL
133 23 6 0.734000 7.162000 25.892000 20.259001 # Mo1 MOL
134 23 7 0.734000 8.753000 26.322001 17.548000 # Mo2 MOL
135 23 14 -0.370571 8.753000 27.584000 19.605000 # S1 MOL
136 23 15 -0.370571 8.753000 24.486000 19.114000 # S2 MOL
137 23 16 -0.370571 7.162000 27.728001 16.403000 # S3 MOL
138 23 17 -0.370571 7.162000 24.631001 16.893000 # S4 MOL
139 24 6 0.734000 7.162000 25.892000 14.837000 # Mo1 MOL
140 24 7 0.734000 8.753000 24.646000 12.391000 # Mo2 MOL
141 24 14 -0.370571 8.753000 26.875999 13.313000 # S1 MOL
142 24 15 -0.370571 8.753000 24.082001 14.737000 # S2 MOL
143 24 16 -0.370571 7.162000 25.111000 10.638000 # S3 MOL
144 24 17 -0.370571 7.162000 22.893000 12.855000 # S4 MOL
145 25 6 0.734000 7.162000 22.705000 10.450000 # Mo1 MOL
146 25 7 0.734000 8.753000 20.259001 9.204000 # Mo2 MOL
147 25 14 -0.370571 8.753000 22.605000 8.639000 # S1 MOL
148 25 15 -0.370571 8.753000 21.181000 11.433000 # S2 MOL
149 25 16 -0.370571 7.162000 19.605000 7.512000 # S3 MOL
150 25 17 -0.370571 7.162000 19.114000 10.610000 # S4 MOL
151 26 6 0.734000 7.162000 17.548000 8.774000 # Mo1 MOL
152 26 7 0.734000 8.753000 14.837000 9.204000 # Mo2 MOL
153 26 14 -0.370571 8.753000 16.403000 7.368000 # S1 MOL
154 26 15 -0.370571 8.753000 16.893000 10.465000 # S2 MOL
155 26 16 -0.370571 7.162000 13.313000 8.220000 # S3 MOL
156 26 17 -0.370571 7.162000 14.737000 11.014000 # S4 MOL
157 27 6 0.734000 7.162000 12.391000 10.450000 # Mo1 MOL
158 27 7 0.734000 8.753000 10.450000 12.391000 # Mo2 MOL
159 27 14 -0.370571 8.753000 10.638000 9.985000 # S1 MOL
160 27 15 -0.370571 8.753000 12.855000 12.203000 # S2 MOL
161 27 16 -0.370571 7.162000 8.639000 12.491000 # S3 MOL
162 27 17 -0.370571 7.162000 11.433000 13.915000 # S4 MOL
163 28 6 0.734000 7.162000 9.204000 14.837000 # Mo1 MOL
164 28 7 0.734000 8.753000 8.774000 17.548000 # Mo2 MOL
165 28 14 -0.370571 8.753000 7.512000 15.491000 # S1 MOL
166 28 15 -0.370571 8.753000 10.610000 15.982000 # S2 MOL
167 28 16 -0.370571 7.162000 7.368000 18.693001 # S3 MOL
168 28 17 -0.370571 7.162000 10.465000 18.202999 # S4 MOL
169 29 6 0.734000 7.162000 9.204000 20.259001 # Mo1 MOL
170 29 7 0.734000 8.753000 10.450000 22.705000 # Mo2 MOL
171 29 14 -0.370571 8.753000 8.220000 21.783001 # S1 MOL
172 29 15 -0.370571 8.753000 11.014000 20.358999 # S2 MOL
173 29 16 -0.370571 7.162000 9.985000 24.458000 # S3 MOL
174 29 17 -0.370571 7.162000 12.203000 22.240999 # S4 MOL
175 30 6 0.734000 7.162000 12.391000 24.646000 # Mo1 MOL
176 30 7 0.734000 8.753000 14.837000 25.892000 # Mo2 MOL
177 30 14 -0.370571 8.753000 12.491000 26.457001 # S1 MOL
178 30 15 -0.370571 8.753000 13.915000 23.663000 # S2 MOL
179 30 16 -0.370571 7.162000 15.491000 27.584000 # S3 MOL
180 30 17 -0.370571 7.162000 15.982000 24.486000 # S4 MOL
181 31 6 0.734000 10.344000 17.548000 26.322001 # Mo1 MOL
182 31 7 0.734000 11.936000 20.259001 25.892000 # Mo2 MOL
183 31 14 -0.370571 11.936000 18.693001 27.728001 # S1 MOL
184 31 15 -0.370571 11.936000 18.202999 24.631001 # S2 MOL
185 31 16 -0.370571 10.344000 21.783001 26.875999 # S3 MOL
186 31 17 -0.370571 10.344000 20.358999 24.082001 # S4 MOL
187 32 6 0.734000 10.344000 22.705000 24.646000 # Mo1 MOL
188 32 7 0.734000 11.936000 24.646000 22.705000 # Mo2 MOL
189 32 14 -0.370571 11.936000 24.458000 25.111000 # S1 MOL
190 32 15 -0.370571 11.936000 22.240999 22.893000 # S2 MOL
191 32 16 -0.370571 10.344000 26.457001 22.605000 # S3 MOL
192 32 17 -0.370571 10.344000 23.663000 21.181000 # S4 MOL
193 33 6 0.734000 10.344000 25.892000 20.259001 # Mo1 MOL
194 33 7 0.734000 11.936000 26.322001 17.548000 # Mo2 MOL
195 33 14 -0.370571 11.936000 27.584000 19.605000 # S1 MOL
196 33 15 -0.370571 11.936000 24.486000 19.114000 # S2 MOL
197 33 16 -0.370571 10.344000 27.728001 16.403000 # S3 MOL
198 33 17 -0.370571 10.344000 24.631001 16.893000 # S4 MOL
199 34 6 0.734000 10.344000 25.892000 14.837000 # Mo1 MOL
200 34 7 0.734000 11.936000 24.646000 12.391000 # Mo2 MOL
201 34 14 -0.370571 11.936000 26.875999 13.313000 # S1 MOL
202 34 15 -0.370571 11.936000 24.082001 14.737000 # S2 MOL
203 34 16 -0.370571 10.344000 25.111000 10.638000 # S3 MOL
204 34 17 -0.370571 10.344000 22.893000 12.855000 # S4 MOL
205 35 6 0.734000 10.344000 22.705000 10.450000 # Mo1 MOL
206 35 7 0.734000 11.936000 20.259001 9.204000 # Mo2 MOL
207 35 14 -0.370571 11.936000 22.605000 8.639000 # S1 MOL
208 35 15 -0.370571 11.936000 21.181000 11.433000 # S2 MOL
209 35 16 -0.370571 10.344000 19.605000 7.512000 # S3 MOL
210 35 17 -0.370571 10.344000 19.114000 10.610000 # S4 MOL
211 36 6 0.734000 10.344000 17.548000 8.774000 # Mo1 MOL
212 36 7 0.734000 11.936000 14.837000 9.204000 # Mo2 MOL
213 36 14 -0.370571 11.936000 16.403000 7.368000 # S1 MOL
214 36 15 -0.370571 11.936000 16.893000 10.465000 # S2 MOL
215 36 16 -0.370571 10.344000 13.313000 8.220000 # S3 MOL
216 36 17 -0.370571 10.344000 14.737000 11.014000 # S4 MOL
217 37 6 0.734000 10.344000 12.391000 10.450000 # Mo1 MOL
218 37 7 0.734000 11.936000 10.450000 12.391000 # Mo2 MOL
219 37 14 -0.370571 11.936000 10.638000 9.985000 # S1 MOL
220 37 15 -0.370571 11.936000 12.855000 12.203000 # S2 MOL
221 37 16 -0.370571 10.344000 8.639000 12.491000 # S3 MOL
222 37 17 -0.370571 10.344000 11.433000 13.915000 # S4 MOL
223 38 6 0.734000 10.344000 9.204000 14.837000 # Mo1 MOL
224 38 7 0.734000 11.936000 8.774000 17.548000 # Mo2 MOL
225 38 14 -0.370571 11.936000 7.512000 15.491000 # S1 MOL
226 38 15 -0.370571 11.936000 10.610000 15.982000 # S2 MOL
227 38 16 -0.370571 10.344000 7.368000 18.693001 # S3 MOL
228 38 17 -0.370571 10.344000 10.465000 18.202999 # S4 MOL
229 39 6 0.734000 10.344000 9.204000 20.259001 # Mo1 MOL
230 39 7 0.734000 11.936000 10.450000 22.705000 # Mo2 MOL
231 39 14 -0.370571 11.936000 8.220000 21.783001 # S1 MOL
232 39 15 -0.370571 11.936000 11.014000 20.358999 # S2 MOL
233 39 16 -0.370571 10.344000 9.985000 24.458000 # S3 MOL
234 39 17 -0.370571 10.344000 12.203000 22.240999 # S4 MOL
235 40 6 0.734000 10.344000 12.391000 24.646000 # Mo1 MOL
236 40 7 0.734000 11.936000 14.837000 25.892000 # Mo2 MOL
237 40 14 -0.370571 11.936000 12.491000 26.457001 # S1 MOL
238 40 15 -0.370571 11.936000 13.915000 23.663000 # S2 MOL
239 40 16 -0.370571 10.344000 15.491000 27.584000 # S3 MOL
240 40 17 -0.370571 10.344000 15.982000 24.486000 # S4 MOL
241 41 6 0.734000 13.527000 17.548000 26.322001 # Mo1 MOL
242 41 7 0.734000 15.119000 20.259001 25.892000 # Mo2 MOL
243 41 14 -0.370571 15.119000 18.693001 27.728001 # S1 MOL
244 41 15 -0.370571 15.119000 18.202999 24.631001 # S2 MOL
245 41 16 -0.370571 13.527000 21.783001 26.875999 # S3 MOL
246 41 17 -0.370571 13.527000 20.358999 24.082001 # S4 MOL
247 42 6 0.734000 13.527000 22.705000 24.646000 # Mo1 MOL
248 42 7 0.734000 15.119000 24.646000 22.705000 # Mo2 MOL
249 42 14 -0.370571 15.119000 24.458000 25.111000 # S1 MOL
250 42 15 -0.370571 15.119000 22.240999 22.893000 # S2 MOL
251 42 16 -0.370571 13.527000 26.457001 22.605000 # S3 MOL
252 42 17 -0.370571 13.527000 23.663000 21.181000 # S4 MOL
253 43 6 0.734000 13.527000 25.892000 20.259001 # Mo1 MOL
254 43 7 0.734000 15.119000 26.322001 17.548000 # Mo2 MOL
255 43 14 -0.370571 15.119000 27.584000 19.605000 # S1 MOL
256 43 15 -0.370571 15.119000 24.486000 19.114000 # S2 MOL
257 43 16 -0.370571 13.527000 27.728001 16.403000 # S3 MOL
258 43 17 -0.370571 13.527000 24.631001 16.893000 # S4 MOL
259 44 6 0.734000 13.527000 25.892000 14.837000 # Mo1 MOL
260 44 7 0.734000 15.119000 24.646000 12.391000 # Mo2 MOL
261 44 14 -0.370571 15.119000 26.875999 13.313000 # S1 MOL
262 44 15 -0.370571 15.119000 24.082001 14.737000 # S2 MOL
263 44 16 -0.370571 13.527000 25.111000 10.638000 # S3 MOL
264 44 17 -0.370571 13.527000 22.893000 12.855000 # S4 MOL
265 45 6 0.734000 13.527000 22.705000 10.450000 # Mo1 MOL
266 45 7 0.734000 15.119000 20.259001 9.204000 # Mo2 MOL
267 45 14 -0.370571 15.119000 22.605000 8.639000 # S1 MOL
268 45 15 -0.370571 15.119000 21.181000 11.433000 # S2 MOL
269 45 16 -0.370571 13.527000 19.605000 7.512000 # S3 MOL
270 45 17 -0.370571 13.527000 19.114000 10.610000 # S4 MOL
271 46 6 0.734000 13.527000 17.548000 8.774000 # Mo1 MOL
272 46 7 0.734000 15.119000 14.837000 9.204000 # Mo2 MOL
273 46 14 -0.370571 15.119000 16.403000 7.368000 # S1 MOL
274 46 15 -0.370571 15.119000 16.893000 10.465000 # S2 MOL
275 46 16 -0.370571 13.527000 13.313000 8.220000 # S3 MOL
276 46 17 -0.370571 13.527000 14.737000 11.014000 # S4 MOL
277 47 6 0.734000 13.527000 12.391000 10.450000 # Mo1 MOL
278 47 7 0.734000 15.119000 10.450000 12.391000 # Mo2 MOL
279 47 14 -0.370571 15.119000 10.638000 9.985000 # S1 MOL
280 47 15 -0.370571 15.119000 12.855000 12.203000 # S2 MOL
281 47 16 -0.370571 13.527000 8.639000 12.491000 # S3 MOL
282 47 17 -0.370571 13.527000 11.433000 13.915000 # S4 MOL
283 48 6 0.734000 13.527000 9.204000 14.837000 # Mo1 MOL
284 48 7 0.734000 15.119000 8.774000 17.548000 # Mo2 MOL
285 48 14 -0.370571 15.119000 7.512000 15.491000 # S1 MOL
286 48 15 -0.370571 15.119000 10.610000 15.982000 # S2 MOL
287 48 16 -0.370571 13.527000 7.368000 18.693001 # S3 MOL
288 48 17 -0.370571 13.527000 10.465000 18.202999 # S4 MOL
289 49 6 0.734000 13.527000 9.204000 20.259001 # Mo1 MOL
290 49 7 0.734000 15.119000 10.450000 22.705000 # Mo2 MOL
291 49 14 -0.370571 15.119000 8.220000 21.783001 # S1 MOL
292 49 15 -0.370571 15.119000 11.014000 20.358999 # S2 MOL
293 49 16 -0.370571 13.527000 9.985000 24.458000 # S3 MOL
294 49 17 -0.370571 13.527000 12.203000 22.240999 # S4 MOL
295 50 6 0.734000 13.527000 12.391000 24.646000 # Mo1 MOL
296 50 7 0.734000 15.119000 14.837000 25.892000 # Mo2 MOL
297 50 14 -0.370571 15.119000 12.491000 26.457001 # S1 MOL
298 50 15 -0.370571 15.119000 13.915000 23.663000 # S2 MOL
299 50 16 -0.370571 13.527000 15.491000 27.584000 # S3 MOL
300 50 17 -0.370571 13.527000 15.982000 24.486000 # S4 MOL
301 51 6 0.734000 16.709999 17.548000 26.322001 # Mo1 MOL
302 51 7 0.734000 18.301001 20.259001 25.892000 # Mo2 MOL
303 51 14 -0.370571 18.301001 18.693001 27.728001 # S1 MOL
304 51 15 -0.370571 18.301001 18.202999 24.631001 # S2 MOL
305 51 16 -0.370571 16.709999 21.783001 26.875999 # S3 MOL
306 51 17 -0.370571 16.709999 20.358999 24.082001 # S4 MOL
307 52 6 0.734000 16.709999 22.705000 24.646000 # Mo1 MOL
308 52 7 0.734000 18.301001 24.646000 22.705000 # Mo2 MOL
309 52 14 -0.370571 18.301001 24.458000 25.111000 # S1 MOL
310 52 15 -0.370571 18.301001 22.240999 22.893000 # S2 MOL
311 52 16 -0.370571 16.709999 26.457001 22.605000 # S3 MOL
312 52 17 -0.370571 16.709999 23.663000 21.181000 # S4 MOL
313 53 6 0.734000 16.709999 25.892000 20.259001 # Mo1 MOL
314 53 7 0.734000 18.301001 26.322001 17.548000 # Mo2 MOL
315 53 14 -0.370571 18.301001 27.584000 19.605000 # S1 MOL
316 53 15 -0.370571 18.301001 24.486000 19.114000 # S2 MOL
317 53 16 -0.370571 16.709999 27.728001 16.403000 # S3 MOL
318 53 17 -0.370571 16.709999 24.631001 16.893000 # S4 MOL
319 54 6 0.734000 16.709999 25.892000 14.837000 # Mo1 MOL
320 54 7 0.734000 18.301001 24.646000 12.391000 # Mo2 MOL
321 54 14 -0.370571 18.301001 26.875999 13.313000 # S1 MOL
322 54 15 -0.370571 18.301001 24.082001 14.737000 # S2 MOL
323 54 16 -0.370571 16.709999 25.111000 10.638000 # S3 MOL
324 54 17 -0.370571 16.709999 22.893000 12.855000 # S4 MOL
325 55 6 0.734000 16.709999 22.705000 10.450000 # Mo1 MOL
326 55 7 0.734000 18.301001 20.259001 9.204000 # Mo2 MOL
327 55 14 -0.370571 18.301001 22.605000 8.639000 # S1 MOL
328 55 15 -0.370571 18.301001 21.181000 11.433000 # S2 MOL
329 55 16 -0.370571 16.709999 19.605000 7.512000 # S3 MOL
330 55 17 -0.370571 16.709999 19.114000 10.610000 # S4 MOL
331 56 6 0.734000 16.709999 17.548000 8.774000 # Mo1 MOL
332 56 7 0.734000 18.301001 14.837000 9.204000 # Mo2 MOL
333 56 14 -0.370571 18.301001 16.403000 7.368000 # S1 MOL
334 56 15 -0.370571 18.301001 16.893000 10.465000 # S2 MOL
335 56 16 -0.370571 16.709999 13.313000 8.220000 # S3 MOL
336 56 17 -0.370571 16.709999 14.737000 11.014000 # S4 MOL
337 57 6 0.734000 16.709999 12.391000 10.450000 # Mo1 MOL
338 57 7 0.734000 18.301001 10.450000 12.391000 # Mo2 MOL
339 57 14 -0.370571 18.301001 10.638000 9.985000 # S1 MOL
340 57 15 -0.370571 18.301001 12.855000 12.203000 # S2 MOL
341 57 16 -0.370571 16.709999 8.639000 12.491000 # S3 MOL
342 57 17 -0.370571 16.709999 11.433000 13.915000 # S4 MOL
343 58 6 0.734000 16.709999 9.204000 14.837000 # Mo1 MOL
344 58 7 0.734000 18.301001 8.774000 17.548000 # Mo2 MOL
345 58 14 -0.370571 18.301001 7.512000 15.491000 # S1 MOL
346 58 15 -0.370571 18.301001 10.610000 15.982000 # S2 MOL
347 58 16 -0.370571 16.709999 7.368000 18.693001 # S3 MOL
348 58 17 -0.370571 16.709999 10.465000 18.202999 # S4 MOL
349 59 6 0.734000 16.709999 9.204000 20.259001 # Mo1 MOL
350 59 7 0.734000 18.301001 10.450000 22.705000 # Mo2 MOL
351 59 14 -0.370571 18.301001 8.220000 21.783001 # S1 MOL
352 59 15 -0.370571 18.301001 11.014000 20.358999 # S2 MOL
353 59 16 -0.370571 16.709999 9.985000 24.458000 # S3 MOL
354 59 17 -0.370571 16.709999 12.203000 22.240999 # S4 MOL
355 60 6 0.734000 16.709999 12.391000 24.646000 # Mo1 MOL
356 60 7 0.734000 18.301001 14.837000 25.892000 # Mo2 MOL
357 60 14 -0.370571 18.301001 12.491000 26.457001 # S1 MOL
358 60 15 -0.370571 18.301001 13.915000 23.663000 # S2 MOL
359 60 16 -0.370571 16.709999 15.491000 27.584000 # S3 MOL
360 60 17 -0.370571 16.709999 15.982000 24.486000 # S4 MOL
361 61 6 0.734000 19.893000 17.548000 26.322001 # Mo1 MOL
362 61 7 0.734000 21.483999 20.259001 25.892000 # Mo2 MOL
363 61 14 -0.370571 21.483999 18.693001 27.728001 # S1 MOL
364 61 15 -0.370571 21.483999 18.202999 24.631001 # S2 MOL
365 61 16 -0.370571 19.893000 21.783001 26.875999 # S3 MOL
366 61 17 -0.370571 19.893000 20.358999 24.082001 # S4 MOL
367 62 6 0.734000 19.893000 22.705000 24.646000 # Mo1 MOL
368 62 7 0.734000 21.483999 24.646000 22.705000 # Mo2 MOL
369 62 14 -0.370571 21.483999 24.458000 25.111000 # S1 MOL
370 62 15 -0.370571 21.483999 22.240999 22.893000 # S2 MOL
371 62 16 -0.370571 19.893000 26.457001 22.605000 # S3 MOL
372 62 17 -0.370571 19.893000 23.663000 21.181000 # S4 MOL
373 63 6 0.734000 19.893000 25.892000 20.259001 # Mo1 MOL
374 63 7 0.734000 21.483999 26.322001 17.548000 # Mo2 MOL
375 63 14 -0.370571 21.483999 27.584000 19.605000 # S1 MOL
376 63 15 -0.370571 21.483999 24.486000 19.114000 # S2 MOL
377 63 16 -0.370571 19.893000 27.728001 16.403000 # S3 MOL
378 63 17 -0.370571 19.893000 24.631001 16.893000 # S4 MOL
379 64 6 0.734000 19.893000 25.892000 14.837000 # Mo1 MOL
380 64 7 0.734000 21.483999 24.646000 12.391000 # Mo2 MOL
381 64 14 -0.370571 21.483999 26.875999 13.313000 # S1 MOL
382 64 15 -0.370571 21.483999 24.082001 14.737000 # S2 MOL
383 64 16 -0.370571 19.893000 25.111000 10.638000 # S3 MOL
384 64 17 -0.370571 19.893000 22.893000 12.855000 # S4 MOL
385 65 6 0.734000 19.893000 22.705000 10.450000 # Mo1 MOL
386 65 7 0.734000 21.483999 20.259001 9.204000 # Mo2 MOL
387 65 14 -0.370571 21.483999 22.605000 8.639000 # S1 MOL
388 65 15 -0.370571 21.483999 21.181000 11.433000 # S2 MOL
389 65 16 -0.370571 19.893000 19.605000 7.512000 # S3 MOL
390 65 17 -0.370571 19.893000 19.114000 10.610000 # S4 MOL
391 66 6 0.734000 19.893000 17.548000 8.774000 # Mo1 MOL
392 66 7 0.734000 21.483999 14.837000 9.204000 # Mo2 MOL
393 66 14 -0.370571 21.483999 16.403000 7.368000 # S1 MOL
394 66 15 -0.370571 21.483999 16.893000 10.465000 # S2 MOL
395 66 16 -0.370571 19.893000 13.313000 8.220000 # S3 MOL
396 66 17 -0.370571 19.893000 14.737000 11.014000 # S4 MOL
397 67 6 0.734000 19.893000 12.391000 10.450000 # Mo1 MOL
398 67 7 0.734000 21.483999 10.450000 12.391000 # Mo2 MOL
399 67 14 -0.370571 21.483999 10.638000 9.985000 # S1 MOL
400 67 15 -0.370571 21.483999 12.855000 12.203000 # S2 MOL
401 67 16 -0.370571 19.893000 8.639000 12.491000 # S3 MOL
402 67 17 -0.370571 19.893000 11.433000 13.915000 # S4 MOL
403 68 6 0.734000 19.893000 9.204000 14.837000 # Mo1 MOL
404 68 7 0.734000 21.483999 8.774000 17.548000 # Mo2 MOL
405 68 14 -0.370571 21.483999 7.512000 15.491000 # S1 MOL
406 68 15 -0.370571 21.483999 10.610000 15.982000 # S2 MOL
407 68 16 -0.370571 19.893000 7.368000 18.693001 # S3 MOL
408 68 17 -0.370571 19.893000 10.465000 18.202999 # S4 MOL
409 69 6 0.734000 19.893000 9.204000 20.259001 # Mo1 MOL
410 69 7 0.734000 21.483999 10.450000 22.705000 # Mo2 MOL
411 69 14 -0.370571 21.483999 8.220000 21.783001 # S1 MOL
412 69 15 -0.370571 21.483999 11.014000 20.358999 # S2 MOL
413 69 16 -0.370571 19.893000 9.985000 24.458000 # S3 MOL
414 69 17 -0.370571 19.893000 12.203000 22.240999 # S4 MOL
415 70 6 0.734000 19.893000 12.391000 24.646000 # Mo1 MOL
416 70 7 0.734000 21.483999 14.837000 25.892000 # Mo2 MOL
417 70 14 -0.370571 21.483999 12.491000 26.457001 # S1 MOL
418 70 15 -0.370571 21.483999 13.915000 23.663000 # S2 MOL
419 70 16 -0.370571 19.893000 15.491000 27.584000 # S3 MOL
420 70 17 -0.370571 19.893000 15.982000 24.486000 # S4 MOL
421 2 2 0.812000 1.555000 14.837000 19.556999 # CR HCR
422 2 10 -0.703000 2.865000 15.683000 19.915001 # O1 HCR
423 2 11 -0.703000 1.884000 13.265000 19.686001 # O2 HCR
424 2 12 -0.703000 1.097000 15.172000 18.055000 # O3 HCR
425 2 13 -0.703000 0.374000 15.227000 20.573000 # O4 HCR
426 2 3 1.000000 3.356000 16.000999 20.049000 # H HCR
427 3 2 0.812000 16.872999 18.860001 20.733000 # CR HCR
428 3 10 -0.703000 16.184999 20.240999 20.308001 # O1 HCR
429 3 11 -0.703000 17.159000 17.979000 19.416000 # O2 HCR
430 3 12 -0.703000 15.891000 18.056999 21.718000 # O3 HCR
431 3 13 -0.703000 18.254999 19.165001 21.492001 # O4 HCR
432 3 3 1.000000 15.927000 20.759001 20.148001 # H HCR
433 4 2 0.812000 1.725000 16.245001 21.190001 # CR HCR
434 4 10 -0.703000 3.027000 17.070999 21.615000 # O1 HCR
435 4 11 -0.703000 2.036000 14.668000 21.295000 # O2 HCR
436 4 12 -0.703000 1.326000 16.618000 19.680000 # O3 HCR
437 4 13 -0.703000 0.511000 16.622999 22.170000 # O4 HCR
438 4 3 1.000000 3.516000 17.381001 21.774000 # H HCR
439 5 2 0.812000 17.610001 16.243999 20.552000 # CR HCR
440 5 10 -0.703000 16.047001 16.584999 20.587999 # O1 HCR
441 5 11 -0.703000 17.951000 15.452000 19.191999 # O2 HCR
442 5 12 -0.703000 17.986000 15.331000 21.818001 # O3 HCR
443 5 13 -0.703000 18.454000 17.608000 20.610001 # O4 HCR
444 5 3 1.000000 15.461000 16.712999 20.601999 # H HCR
445 6 2 0.812000 8.092000 20.306999 20.172001 # CR HCR
446 6 10 -0.703000 7.753000 20.319000 21.736000 # O1 HCR
447 6 11 -0.703000 7.449000 18.993000 19.497000 # O2 HCR
448 6 12 -0.703000 9.685000 20.294001 19.972000 # O3 HCR
449 6 13 -0.703000 7.480000 21.622999 19.483999 # O4 HCR
450 6 3 1.000000 7.626000 20.323000 22.322001 # H HCR
451 7 9 -0.834000 8.784000 15.865000 21.082001 # O TIP
452 7 4 0.417000 8.152000 15.160000 20.941000 # H1 TIP
453 7 5 0.417000 9.623000 15.417000 21.191999 # H2 TIP
454 8 9 -0.834000 10.089000 15.845000 17.580000 # O TIP
455 8 4 0.417000 10.193000 15.668000 18.514999 # H1 TIP
456 8 5 0.417000 9.224000 15.494000 17.364000 # H2 TIP
457 9 9 -0.834000 16.257999 22.438999 15.601000 # O TIP
458 9 4 0.417000 16.504999 23.363001 15.632000 # H1 TIP
459 9 5 0.417000 15.301000 22.445999 15.583000 # H2 TIP
460 10 9 -0.834000 2.390000 20.263000 16.448000 # O TIP
461 10 4 0.417000 1.916000 20.320999 17.277000 # H1 TIP
462 10 5 0.417000 2.913000 19.465000 16.525000 # H2 TIP
463 11 9 -0.834000 16.173000 15.727000 18.254000 # O TIP
464 11 4 0.417000 16.471001 16.416000 18.847000 # H1 TIP
465 11 5 0.417000 16.766001 15.783000 17.504000 # H2 TIP
466 12 9 -0.834000 2.125000 22.771000 16.014999 # O TIP
467 12 4 0.417000 1.336000 22.538000 16.503000 # H1 TIP
468 12 5 0.417000 2.481000 21.933001 15.719000 # H2 TIP
469 13 9 -0.834000 12.819000 18.448000 22.226999 # O TIP
470 13 4 0.417000 13.064000 19.083000 22.900000 # H1 TIP
471 13 5 0.417000 12.039000 18.822001 21.816000 # H2 TIP
472 14 9 -0.834000 3.879000 20.938000 18.018999 # O TIP
473 14 4 0.417000 3.295000 20.304001 18.434000 # H1 TIP
474 14 5 0.417000 3.310000 21.447001 17.441999 # H2 TIP
475 15 9 -0.834000 12.229000 20.577000 22.273001 # O TIP
476 15 4 0.417000 11.885000 20.451000 23.158001 # H1 TIP
477 15 5 0.417000 11.484000 20.908001 21.771000 # H2 TIP
478 16 9 -0.834000 9.964000 17.431999 13.886000 # O TIP
479 16 4 0.417000 10.251000 18.330999 14.049000 # H1 TIP
480 16 5 0.417000 9.223000 17.523001 13.287000 # H2 TIP
481 17 9 -0.834000 0.096000 13.127000 20.362000 # O TIP
482 17 4 0.417000 0.144000 13.720000 19.612000 # H1 TIP
483 17 5 0.417000 0.688000 13.511000 21.010000 # H2 TIP
484 18 9 -0.834000 6.483000 17.959000 17.306999 # O TIP
485 18 4 0.417000 6.551000 17.796000 18.247000 # H1 TIP
486 18 5 0.417000 6.427000 18.912001 17.232000 # H2 TIP
487 19 9 -0.834000 3.652000 16.493999 12.253000 # O TIP
488 19 4 0.417000 4.366000 16.573999 12.884000 # H1 TIP
489 19 5 0.417000 4.085000 16.492001 11.399000 # H2 TIP
490 20 9 -0.834000 0.421000 14.628000 23.028000 # O TIP
491 20 4 0.417000 0.658000 13.718000 23.202999 # H1 TIP
492 20 5 0.417000 1.257000 15.067000 22.867001 # H2 TIP
493 21 9 -0.834000 0.073000 20.350000 15.641000 # O TIP
494 21 4 0.417000 0.522000 20.313000 14.797000 # H1 TIP
495 21 5 0.417000 0.621000 20.920000 16.181000 # H2 TIP
496 22 9 -0.834000 3.289000 14.953000 14.368000 # O TIP
497 22 4 0.417000 4.208000 15.159000 14.196000 # H1 TIP
498 22 5 0.417000 2.821000 15.289000 13.604000 # H2 TIP
499 23 9 -0.834000 8.253000 14.689000 13.685000 # O TIP
500 23 4 0.417000 7.516000 14.537000 14.277000 # H1 TIP
501 23 5 0.417000 8.355000 15.641000 13.669000 # H2 TIP
502 24 9 -0.834000 22.274000 15.601000 18.142000 # O TIP
503 24 4 0.417000 21.920000 15.186000 17.356001 # H1 TIP
504 24 5 0.417000 22.049999 16.527000 18.046000 # H2 TIP
505 25 9 -0.834000 12.497000 19.211000 15.055000 # O TIP
506 25 4 0.417000 13.127000 19.576000 15.676000 # H1 TIP