LAMMPS data file. CGCMM style. atom_style full generated by VMD/TopoTools v1.8 on Sun May 25 16:08:16 EDT 2025
 2096 atoms
 1068 bonds
 548 angles
 0 dihedrals
 0 impropers
 13 atom types
 3 bond types
 2 angle types
 0 dihedral types
 0 improper types
 -0.000001 49.999999  xlo xhi
 0.000001 50.000001  ylo yhi
 -0.258500 12.241500  zlo zhi

# Pair Coeffs
#
# 1  CL
# 2  CR
# 3  H
# 4  H1
# 5  H2
# 6  Mo
# 7  NA
# 8  O
# 9  O1
# 10  O2
# 11  O3
# 12  O4
# 13  S

# Bond Coeffs
#
# 1  1
# 2  2
# 3  3

# Angle Coeffs
#
# 1  1
# 2  2

 Masses

 1 35.452999 # CL
 2 12.011000 # CR
 3 1.008000 # H
 4 1.008000 # H1
 5 1.008000 # H2
 6 95.940002 # Mo
 7 22.989771 # NA
 8 15.999000 # O
 9 15.999000 # O1
 10 15.999000 # O2
 11 15.999000 # O3
 12 15.999000 # O4
 13 32.064999 # S

 Atoms # full

1 1 6 0.734000 45.161999 25.000000 3.120000 # Mo MOL
2 1 13 -0.374350 45.140999 25.917999 4.685000 # S MOL
3 1 13 -0.374350 45.140999 25.917999 1.555000 # S MOL
4 1 6 0.734000 45.161999 25.000000 6.250000 # Mo MOL
5 1 13 -0.374350 45.140999 25.917999 7.815000 # S MOL
6 1 13 -0.374350 45.140999 25.917999 4.685000 # S MOL
7 1 6 0.734000 45.161999 25.000000 9.380000 # Mo MOL
8 1 13 -0.374350 45.140999 25.917999 10.945000 # S MOL
9 1 13 -0.374350 45.140999 25.917999 7.815000 # S MOL
10 1 6 0.734000 44.973999 27.745001 3.120000 # Mo MOL
11 1 13 -0.374350 44.828999 28.652000 4.685000 # S MOL
12 1 13 -0.374350 44.828999 28.652000 1.555000 # S MOL
13 1 6 0.734000 44.973999 27.745001 6.250000 # Mo MOL
14 1 13 -0.374350 44.828999 28.652000 7.815000 # S MOL
15 1 13 -0.374350 44.828999 28.652000 4.685000 # S MOL
16 1 6 0.734000 44.973999 27.745001 9.380000 # Mo MOL
17 1 13 -0.374350 44.828999 28.652000 10.945000 # S MOL
18 1 13 -0.374350 44.828999 28.652000 7.815000 # S MOL
19 1 6 0.734000 44.414001 30.440001 3.120000 # Mo MOL
20 1 13 -0.374350 44.146999 31.318001 4.685000 # S MOL
21 1 13 -0.374350 44.146999 31.318001 1.555000 # S MOL
22 1 6 0.734000 44.414001 30.440001 6.250000 # Mo MOL
23 1 13 -0.374350 44.146999 31.318001 7.815000 # S MOL
24 1 13 -0.374350 44.146999 31.318001 4.685000 # S MOL
25 1 6 0.734000 44.414001 30.440001 9.380000 # Mo MOL
26 1 13 -0.374350 44.146999 31.318001 10.945000 # S MOL
27 1 13 -0.374350 44.146999 31.318001 7.815000 # S MOL
28 1 6 0.734000 43.493000 33.033001 3.120000 # Mo MOL
29 1 13 -0.374350 43.108002 33.866001 4.685000 # S MOL
30 1 13 -0.374350 43.108002 33.866001 1.555000 # S MOL
31 1 6 0.734000 43.493000 33.033001 6.250000 # Mo MOL
32 1 13 -0.374350 43.108002 33.866001 7.815000 # S MOL
33 1 13 -0.374350 43.108002 33.866001 4.685000 # S MOL
34 1 6 0.734000 43.493000 33.033001 9.380000 # Mo MOL
35 1 13 -0.374350 43.108002 33.866001 10.945000 # S MOL
36 1 13 -0.374350 43.108002 33.866001 7.815000 # S MOL
37 1 6 0.734000 42.227001 35.476002 3.120000 # Mo MOL
38 1 13 -0.374350 41.731998 36.249001 4.685000 # S MOL
39 1 13 -0.374350 41.731998 36.249001 1.555000 # S MOL
40 1 6 0.734000 42.227001 35.476002 6.250000 # Mo MOL
41 1 13 -0.374350 41.731998 36.249001 7.815000 # S MOL
42 1 13 -0.374350 41.731998 36.249001 4.685000 # S MOL
43 1 6 0.734000 42.227001 35.476002 9.380000 # Mo MOL
44 1 13 -0.374350 41.731998 36.249001 10.945000 # S MOL
45 1 13 -0.374350 41.731998 36.249001 7.815000 # S MOL
46 1 6 0.734000 40.639999 37.723999 3.120000 # Mo MOL
47 1 13 -0.374350 40.044998 38.423000 4.685000 # S MOL
48 1 13 -0.374350 40.044998 38.423000 1.555000 # S MOL
49 1 6 0.734000 40.639999 37.723999 6.250000 # Mo MOL
50 1 13 -0.374350 40.044998 38.423000 7.815000 # S MOL
51 1 13 -0.374350 40.044998 38.423000 4.685000 # S MOL
52 1 6 0.734000 40.639999 37.723999 9.380000 # Mo MOL
53 1 13 -0.374350 40.044998 38.423000 10.945000 # S MOL
54 1 13 -0.374350 40.044998 38.423000 7.815000 # S MOL
55 1 6 0.734000 38.762001 39.735001 3.120000 # Mo MOL
56 1 13 -0.374350 38.077000 40.346001 4.685000 # S MOL
57 1 13 -0.374350 38.077000 40.346001 1.555000 # S MOL
58 1 6 0.734000 38.762001 39.735001 6.250000 # Mo MOL
59 1 13 -0.374350 38.077000 40.346001 7.815000 # S MOL
60 1 13 -0.374350 38.077000 40.346001 4.685000 # S MOL
61 1 6 0.734000 38.762001 39.735001 9.380000 # Mo MOL
62 1 13 -0.374350 38.077000 40.346001 10.945000 # S MOL
63 1 13 -0.374350 38.077000 40.346001 7.815000 # S MOL
64 1 6 0.734000 36.626999 41.472000 3.120000 # Mo MOL
65 1 13 -0.374350 35.865002 41.984001 4.685000 # S MOL
66 1 13 -0.374350 35.865002 41.984001 1.555000 # S MOL
67 1 6 0.734000 36.626999 41.472000 6.250000 # Mo MOL
68 1 13 -0.374350 35.865002 41.984001 7.815000 # S MOL
69 1 13 -0.374350 35.865002 41.984001 4.685000 # S MOL
70 1 6 0.734000 36.626999 41.472000 9.380000 # Mo MOL
71 1 13 -0.374350 35.865002 41.984001 10.945000 # S MOL
72 1 13 -0.374350 35.865002 41.984001 7.815000 # S MOL
73 1 6 0.734000 34.276001 42.902000 3.120000 # Mo MOL
74 1 13 -0.374350 33.451000 43.305000 4.685000 # S MOL
75 1 13 -0.374350 33.451000 43.305000 1.555000 # S MOL
76 1 6 0.734000 34.276001 42.902000 6.250000 # Mo MOL
77 1 13 -0.374350 33.451000 43.305000 7.815000 # S MOL
78 1 13 -0.374350 33.451000 43.305000 4.685000 # S MOL
79 1 6 0.734000 34.276001 42.902000 9.380000 # Mo MOL
80 1 13 -0.374350 33.451000 43.305000 10.945000 # S MOL
81 1 13 -0.374350 33.451000 43.305000 7.815000 # S MOL
82 1 6 0.734000 31.752001 43.998001 3.120000 # Mo MOL
83 1 13 -0.374350 30.879999 44.285999 4.685000 # S MOL
84 1 13 -0.374350 30.879999 44.285999 1.555000 # S MOL
85 1 6 0.734000 31.752001 43.998001 6.250000 # Mo MOL
86 1 13 -0.374350 30.879999 44.285999 7.815000 # S MOL
87 1 13 -0.374350 30.879999 44.285999 4.685000 # S MOL
88 1 6 0.734000 31.752001 43.998001 9.380000 # Mo MOL
89 1 13 -0.374350 30.879999 44.285999 10.945000 # S MOL
90 1 13 -0.374350 30.879999 44.285999 7.815000 # S MOL
91 1 6 0.734000 29.101999 44.740002 3.120000 # Mo MOL
92 1 13 -0.374350 28.198999 44.907001 4.685000 # S MOL
93 1 13 -0.374350 28.198999 44.907001 1.555000 # S MOL
94 1 6 0.734000 29.101999 44.740002 6.250000 # Mo MOL
95 1 13 -0.374350 28.198999 44.907001 7.815000 # S MOL
96 1 13 -0.374350 28.198999 44.907001 4.685000 # S MOL
97 1 6 0.734000 29.101999 44.740002 9.380000 # Mo MOL
98 1 13 -0.374350 28.198999 44.907001 10.945000 # S MOL
99 1 13 -0.374350 28.198999 44.907001 7.815000 # S MOL
100 1 6 0.734000 26.375999 45.115002 3.120000 # Mo MOL
101 1 13 -0.374350 25.459000 45.157001 4.685000 # S MOL
102 1 13 -0.374350 25.459000 45.157001 1.555000 # S MOL
103 1 6 0.734000 26.375999 45.115002 6.250000 # Mo MOL
104 1 13 -0.374350 25.459000 45.157001 7.815000 # S MOL
105 1 13 -0.374350 25.459000 45.157001 4.685000 # S MOL
106 1 6 0.734000 26.375999 45.115002 9.380000 # Mo MOL
107 1 13 -0.374350 25.459000 45.157001 10.945000 # S MOL
108 1 13 -0.374350 25.459000 45.157001 7.815000 # S MOL
109 1 6 0.734000 23.624001 45.115002 3.120000 # Mo MOL
110 1 13 -0.374350 22.709999 45.032001 4.685000 # S MOL
111 1 13 -0.374350 22.709999 45.032001 1.555000 # S MOL
112 1 6 0.734000 23.624001 45.115002 6.250000 # Mo MOL
113 1 13 -0.374350 22.709999 45.032001 7.815000 # S MOL
114 1 13 -0.374350 22.709999 45.032001 4.685000 # S MOL
115 1 6 0.734000 23.624001 45.115002 9.380000 # Mo MOL
116 1 13 -0.374350 22.709999 45.032001 10.945000 # S MOL
117 1 13 -0.374350 22.709999 45.032001 7.815000 # S MOL
118 1 6 0.734000 20.898001 44.740002 3.120000 # Mo MOL
119 1 13 -0.374350 20.004000 44.533001 4.685000 # S MOL
120 1 13 -0.374350 20.004000 44.533001 1.555000 # S MOL
121 1 6 0.734000 20.898001 44.740002 6.250000 # Mo MOL
122 1 13 -0.374350 20.004000 44.533001 7.815000 # S MOL
123 1 13 -0.374350 20.004000 44.533001 4.685000 # S MOL
124 1 6 0.734000 20.898001 44.740002 9.380000 # Mo MOL
125 1 13 -0.374350 20.004000 44.533001 10.945000 # S MOL
126 1 13 -0.374350 20.004000 44.533001 7.815000 # S MOL
127 1 6 0.734000 18.247999 43.998001 3.120000 # Mo MOL
128 1 13 -0.374350 17.389999 43.671001 4.685000 # S MOL
129 1 13 -0.374350 17.389999 43.671001 1.555000 # S MOL
130 1 6 0.734000 18.247999 43.998001 6.250000 # Mo MOL
131 1 13 -0.374350 17.389999 43.671001 7.815000 # S MOL
132 1 13 -0.374350 17.389999 43.671001 4.685000 # S MOL
133 1 6 0.734000 18.247999 43.998001 9.380000 # Mo MOL
134 1 13 -0.374350 17.389999 43.671001 10.945000 # S MOL
135 1 13 -0.374350 17.389999 43.671001 7.815000 # S MOL
136 1 6 0.734000 15.724000 42.902000 3.120000 # Mo MOL
137 1 13 -0.374350 14.919000 42.460999 4.685000 # S MOL
138 1 13 -0.374350 14.919000 42.460999 1.555000 # S MOL
139 1 6 0.734000 15.724000 42.902000 6.250000 # Mo MOL
140 1 13 -0.374350 14.919000 42.460999 7.815000 # S MOL
141 1 13 -0.374350 14.919000 42.460999 4.685000 # S MOL
142 1 6 0.734000 15.724000 42.902000 9.380000 # Mo MOL
143 1 13 -0.374350 14.919000 42.460999 10.945000 # S MOL
144 1 13 -0.374350 14.919000 42.460999 7.815000 # S MOL
145 1 6 0.734000 13.373000 41.472000 3.120000 # Mo MOL
146 1 13 -0.374350 12.635000 40.925999 4.685000 # S MOL
147 1 13 -0.374350 12.635000 40.925999 1.555000 # S MOL
148 1 6 0.734000 13.373000 41.472000 6.250000 # Mo MOL
149 1 13 -0.374350 12.635000 40.925999 7.815000 # S MOL
150 1 13 -0.374350 12.635000 40.925999 4.685000 # S MOL
151 1 6 0.734000 13.373000 41.472000 9.380000 # Mo MOL
152 1 13 -0.374350 12.635000 40.925999 10.945000 # S MOL
153 1 13 -0.374350 12.635000 40.925999 7.815000 # S MOL
154 1 6 0.734000 11.238000 39.735001 3.120000 # Mo MOL
155 1 13 -0.374350 10.582000 39.094002 4.685000 # S MOL
156 1 13 -0.374350 10.582000 39.094002 1.555000 # S MOL
157 1 6 0.734000 11.238000 39.735001 6.250000 # Mo MOL
158 1 13 -0.374350 10.582000 39.094002 7.815000 # S MOL
159 1 13 -0.374350 10.582000 39.094002 4.685000 # S MOL
160 1 6 0.734000 11.238000 39.735001 9.380000 # Mo MOL
161 1 13 -0.374350 10.582000 39.094002 10.945000 # S MOL
162 1 13 -0.374350 10.582000 39.094002 7.815000 # S MOL
163 1 6 0.734000 9.360000 37.723999 3.120000 # Mo MOL
164 1 13 -0.374350 8.797000 36.999001 4.685000 # S MOL
165 1 13 -0.374350 8.797000 36.999001 1.555000 # S MOL
166 1 6 0.734000 9.360000 37.723999 6.250000 # Mo MOL
167 1 13 -0.374350 8.797000 36.999001 7.815000 # S MOL
168 1 13 -0.374350 8.797000 36.999001 4.685000 # S MOL
169 1 6 0.734000 9.360000 37.723999 9.380000 # Mo MOL
170 1 13 -0.374350 8.797000 36.999001 10.945000 # S MOL
171 1 13 -0.374350 8.797000 36.999001 7.815000 # S MOL
172 1 6 0.734000 7.773000 35.476002 3.120000 # Mo MOL
173 1 13 -0.374350 7.314000 34.681000 4.685000 # S MOL
174 1 13 -0.374350 7.314000 34.681000 1.555000 # S MOL
175 1 6 0.734000 7.773000 35.476002 6.250000 # Mo MOL
176 1 13 -0.374350 7.314000 34.681000 7.815000 # S MOL
177 1 13 -0.374350 7.314000 34.681000 4.685000 # S MOL
178 1 6 0.734000 7.773000 35.476002 9.380000 # Mo MOL
179 1 13 -0.374350 7.314000 34.681000 10.945000 # S MOL
180 1 13 -0.374350 7.314000 34.681000 7.815000 # S MOL
181 1 6 0.734000 6.507000 33.033001 3.120000 # Mo MOL
182 1 13 -0.374350 6.161000 32.182999 4.685000 # S MOL
183 1 13 -0.374350 6.161000 32.182999 1.555000 # S MOL
184 1 6 0.734000 6.507000 33.033001 6.250000 # Mo MOL
185 1 13 -0.374350 6.161000 32.182999 7.815000 # S MOL
186 1 13 -0.374350 6.161000 32.182999 4.685000 # S MOL
187 1 6 0.734000 6.507000 33.033001 9.380000 # Mo MOL
188 1 13 -0.374350 6.161000 32.182999 10.945000 # S MOL
189 1 13 -0.374350 6.161000 32.182999 7.815000 # S MOL
190 1 6 0.734000 5.586000 30.440001 3.120000 # Mo MOL
191 1 13 -0.374350 5.358000 29.549999 4.685000 # S MOL
192 1 13 -0.374350 5.358000 29.549999 1.555000 # S MOL
193 1 6 0.734000 5.586000 30.440001 6.250000 # Mo MOL
194 1 13 -0.374350 5.358000 29.549999 7.815000 # S MOL
195 1 13 -0.374350 5.358000 29.549999 4.685000 # S MOL
196 1 6 0.734000 5.586000 30.440001 9.380000 # Mo MOL
197 1 13 -0.374350 5.358000 29.549999 10.945000 # S MOL
198 1 13 -0.374350 5.358000 29.549999 7.815000 # S MOL
199 1 6 0.734000 5.026000 27.745001 3.120000 # Mo MOL
200 1 13 -0.374350 4.921000 26.833000 4.685000 # S MOL
201 1 13 -0.374350 4.921000 26.833000 1.555000 # S MOL
202 1 6 0.734000 5.026000 27.745001 6.250000 # Mo MOL
203 1 13 -0.374350 4.921000 26.833000 7.815000 # S MOL
204 1 13 -0.374350 4.921000 26.833000 4.685000 # S MOL
205 1 6 0.734000 5.026000 27.745001 9.380000 # Mo MOL
206 1 13 -0.374350 4.921000 26.833000 10.945000 # S MOL
207 1 13 -0.374350 4.921000 26.833000 7.815000 # S MOL
208 1 6 0.734000 4.838000 25.000000 3.120000 # Mo MOL
209 1 13 -0.374350 4.859000 24.082001 4.685000 # S MOL
210 1 13 -0.374350 4.859000 24.082001 1.555000 # S MOL
211 1 6 0.734000 4.838000 25.000000 6.250000 # Mo MOL
212 1 13 -0.374350 4.859000 24.082001 7.815000 # S MOL
213 1 13 -0.374350 4.859000 24.082001 4.685000 # S MOL
214 1 6 0.734000 4.838000 25.000000 9.380000 # Mo MOL
215 1 13 -0.374350 4.859000 24.082001 10.945000 # S MOL
216 1 13 -0.374350 4.859000 24.082001 7.815000 # S MOL
217 1 6 0.734000 5.026000 22.254999 3.120000 # Mo MOL
218 1 13 -0.374350 5.171000 21.348000 4.685000 # S MOL
219 1 13 -0.374350 5.171000 21.348000 1.555000 # S MOL
220 1 6 0.734000 5.026000 22.254999 6.250000 # Mo MOL
221 1 13 -0.374350 5.171000 21.348000 7.815000 # S MOL
222 1 13 -0.374350 5.171000 21.348000 4.685000 # S MOL
223 1 6 0.734000 5.026000 22.254999 9.380000 # Mo MOL
224 1 13 -0.374350 5.171000 21.348000 10.945000 # S MOL
225 1 13 -0.374350 5.171000 21.348000 7.815000 # S MOL
226 1 6 0.734000 5.586000 19.559999 3.120000 # Mo MOL
227 1 13 -0.374350 5.853000 18.681999 4.685000 # S MOL
228 1 13 -0.374350 5.853000 18.681999 1.555000 # S MOL
229 1 6 0.734000 5.586000 19.559999 6.250000 # Mo MOL
230 1 13 -0.374350 5.853000 18.681999 7.815000 # S MOL
231 1 13 -0.374350 5.853000 18.681999 4.685000 # S MOL
232 1 6 0.734000 5.586000 19.559999 9.380000 # Mo MOL
233 1 13 -0.374350 5.853000 18.681999 10.945000 # S MOL
234 1 13 -0.374350 5.853000 18.681999 7.815000 # S MOL
235 1 6 0.734000 6.507000 16.966999 3.120000 # Mo MOL
236 1 13 -0.374350 6.892000 16.134001 4.685000 # S MOL
237 1 13 -0.374350 6.892000 16.134001 1.555000 # S MOL
238 1 6 0.734000 6.507000 16.966999 6.250000 # Mo MOL
239 1 13 -0.374350 6.892000 16.134001 7.815000 # S MOL
240 1 13 -0.374350 6.892000 16.134001 4.685000 # S MOL
241 1 6 0.734000 6.507000 16.966999 9.380000 # Mo MOL
242 1 13 -0.374350 6.892000 16.134001 10.945000 # S MOL
243 1 13 -0.374350 6.892000 16.134001 7.815000 # S MOL
244 1 6 0.734000 7.773000 14.524000 3.120000 # Mo MOL
245 1 13 -0.374350 8.268000 13.751000 4.685000 # S MOL
246 1 13 -0.374350 8.268000 13.751000 1.555000 # S MOL
247 1 6 0.734000 7.773000 14.524000 6.250000 # Mo MOL
248 1 13 -0.374350 8.268000 13.751000 7.815000 # S MOL
249 1 13 -0.374350 8.268000 13.751000 4.685000 # S MOL
250 1 6 0.734000 7.773000 14.524000 9.380000 # Mo MOL
251 1 13 -0.374350 8.268000 13.751000 10.945000 # S MOL
252 1 13 -0.374350 8.268000 13.751000 7.815000 # S MOL
253 1 6 0.734000 9.360000 12.276000 3.120000 # Mo MOL
254 1 13 -0.374350 9.955000 11.577000 4.685000 # S MOL
255 1 13 -0.374350 9.955000 11.577000 1.555000 # S MOL
256 1 6 0.734000 9.360000 12.276000 6.250000 # Mo MOL
257 1 13 -0.374350 9.955000 11.577000 7.815000 # S MOL
258 1 13 -0.374350 9.955000 11.577000 4.685000 # S MOL
259 1 6 0.734000 9.360000 12.276000 9.380000 # Mo MOL
260 1 13 -0.374350 9.955000 11.577000 10.945000 # S MOL
261 1 13 -0.374350 9.955000 11.577000 7.815000 # S MOL
262 1 6 0.734000 11.238000 10.265000 3.120000 # Mo MOL
263 1 13 -0.374350 11.923000 9.654000 4.685000 # S MOL
264 1 13 -0.374350 11.923000 9.654000 1.555000 # S MOL
265 1 6 0.734000 11.238000 10.265000 6.250000 # Mo MOL
266 1 13 -0.374350 11.923000 9.654000 7.815000 # S MOL
267 1 13 -0.374350 11.923000 9.654000 4.685000 # S MOL
268 1 6 0.734000 11.238000 10.265000 9.380000 # Mo MOL
269 1 13 -0.374350 11.923000 9.654000 10.945000 # S MOL
270 1 13 -0.374350 11.923000 9.654000 7.815000 # S MOL
271 1 6 0.734000 13.373000 8.528000 3.120000 # Mo MOL
272 1 13 -0.374350 14.135000 8.016000 4.685000 # S MOL
273 1 13 -0.374350 14.135000 8.016000 1.555000 # S MOL
274 1 6 0.734000 13.373000 8.528000 6.250000 # Mo MOL
275 1 13 -0.374350 14.135000 8.016000 7.815000 # S MOL
276 1 13 -0.374350 14.135000 8.016000 4.685000 # S MOL
277 1 6 0.734000 13.373000 8.528000 9.380000 # Mo MOL
278 1 13 -0.374350 14.135000 8.016000 10.945000 # S MOL
279 1 13 -0.374350 14.135000 8.016000 7.815000 # S MOL
280 1 6 0.734000 15.724000 7.098000 3.120000 # Mo MOL
281 1 13 -0.374350 16.549000 6.695000 4.685000 # S MOL
282 1 13 -0.374350 16.549000 6.695000 1.555000 # S MOL
283 1 6 0.734000 15.724000 7.098000 6.250000 # Mo MOL
284 1 13 -0.374350 16.549000 6.695000 7.815000 # S MOL
285 1 13 -0.374350 16.549000 6.695000 4.685000 # S MOL
286 1 6 0.734000 15.724000 7.098000 9.380000 # Mo MOL
287 1 13 -0.374350 16.549000 6.695000 10.945000 # S MOL
288 1 13 -0.374350 16.549000 6.695000 7.815000 # S MOL
289 1 6 0.734000 18.247999 6.002000 3.120000 # Mo MOL
290 1 13 -0.374350 19.120001 5.714000 4.685000 # S MOL
291 1 13 -0.374350 19.120001 5.714000 1.555000 # S MOL
292 1 6 0.734000 18.247999 6.002000 6.250000 # Mo MOL
293 1 13 -0.374350 19.120001 5.714000 7.815000 # S MOL
294 1 13 -0.374350 19.120001 5.714000 4.685000 # S MOL
295 1 6 0.734000 18.247999 6.002000 9.380000 # Mo MOL
296 1 13 -0.374350 19.120001 5.714000 10.945000 # S MOL
297 1 13 -0.374350 19.120001 5.714000 7.815000 # S MOL
298 1 6 0.734000 20.898001 5.260000 3.120000 # Mo MOL
299 1 13 -0.374350 21.801001 5.093000 4.685000 # S MOL
300 1 13 -0.374350 21.801001 5.093000 1.555000 # S MOL
301 1 6 0.734000 20.898001 5.260000 6.250000 # Mo MOL
302 1 13 -0.374350 21.801001 5.093000 7.815000 # S MOL
303 1 13 -0.374350 21.801001 5.093000 4.685000 # S MOL
304 1 6 0.734000 20.898001 5.260000 9.380000 # Mo MOL
305 1 13 -0.374350 21.801001 5.093000 10.945000 # S MOL
306 1 13 -0.374350 21.801001 5.093000 7.815000 # S MOL
307 1 6 0.734000 23.624001 4.885000 3.120000 # Mo MOL
308 1 13 -0.374350 24.541000 4.843000 4.685000 # S MOL
309 1 13 -0.374350 24.541000 4.843000 1.555000 # S MOL
310 1 6 0.734000 23.624001 4.885000 6.250000 # Mo MOL
311 1 13 -0.374350 24.541000 4.843000 7.815000 # S MOL
312 1 13 -0.374350 24.541000 4.843000 4.685000 # S MOL
313 1 6 0.734000 23.624001 4.885000 9.380000 # Mo MOL
314 1 13 -0.374350 24.541000 4.843000 10.945000 # S MOL
315 1 13 -0.374350 24.541000 4.843000 7.815000 # S MOL
316 1 6 0.734000 26.375999 4.885000 3.120000 # Mo MOL
317 1 13 -0.374350 27.290001 4.968000 4.685000 # S MOL
318 1 13 -0.374350 27.290001 4.968000 1.555000 # S MOL
319 1 6 0.734000 26.375999 4.885000 6.250000 # Mo MOL
320 1 13 -0.374350 27.290001 4.968000 7.815000 # S MOL
321 1 13 -0.374350 27.290001 4.968000 4.685000 # S MOL
322 1 6 0.734000 26.375999 4.885000 9.380000 # Mo MOL
323 1 13 -0.374350 27.290001 4.968000 10.945000 # S MOL
324 1 13 -0.374350 27.290001 4.968000 7.815000 # S MOL
325 1 6 0.734000 29.101999 5.260000 3.120000 # Mo MOL
326 1 13 -0.374350 29.996000 5.467000 4.685000 # S MOL
327 1 13 -0.374350 29.996000 5.467000 1.555000 # S MOL
328 1 6 0.734000 29.101999 5.260000 6.250000 # Mo MOL
329 1 13 -0.374350 29.996000 5.467000 7.815000 # S MOL
330 1 13 -0.374350 29.996000 5.467000 4.685000 # S MOL
331 1 6 0.734000 29.101999 5.260000 9.380000 # Mo MOL
332 1 13 -0.374350 29.996000 5.467000 10.945000 # S MOL
333 1 13 -0.374350 29.996000 5.467000 7.815000 # S MOL
334 1 6 0.734000 31.752001 6.002000 3.120000 # Mo MOL
335 1 13 -0.374350 32.610001 6.329000 4.685000 # S MOL
336 1 13 -0.374350 32.610001 6.329000 1.555000 # S MOL
337 1 6 0.734000 31.752001 6.002000 6.250000 # Mo MOL
338 1 13 -0.374350 32.610001 6.329000 7.815000 # S MOL
339 1 13 -0.374350 32.610001 6.329000 4.685000 # S MOL
340 1 6 0.734000 31.752001 6.002000 9.380000 # Mo MOL
341 1 13 -0.374350 32.610001 6.329000 10.945000 # S MOL
342 1 13 -0.374350 32.610001 6.329000 7.815000 # S MOL
343 1 6 0.734000 34.276001 7.098000 3.120000 # Mo MOL
344 1 13 -0.374350 35.081001 7.539000 4.685000 # S MOL
345 1 13 -0.374350 35.081001 7.539000 1.555000 # S MOL
346 1 6 0.734000 34.276001 7.098000 6.250000 # Mo MOL
347 1 13 -0.374350 35.081001 7.539000 7.815000 # S MOL
348 1 13 -0.374350 35.081001 7.539000 4.685000 # S MOL
349 1 6 0.734000 34.276001 7.098000 9.380000 # Mo MOL
350 1 13 -0.374350 35.081001 7.539000 10.945000 # S MOL
351 1 13 -0.374350 35.081001 7.539000 7.815000 # S MOL
352 1 6 0.734000 36.626999 8.528000 3.120000 # Mo MOL
353 1 13 -0.374350 37.365002 9.074000 4.685000 # S MOL
354 1 13 -0.374350 37.365002 9.074000 1.555000 # S MOL
355 1 6 0.734000 36.626999 8.528000 6.250000 # Mo MOL
356 1 13 -0.374350 37.365002 9.074000 7.815000 # S MOL
357 1 13 -0.374350 37.365002 9.074000 4.685000 # S MOL
358 1 6 0.734000 36.626999 8.528000 9.380000 # Mo MOL
359 1 13 -0.374350 37.365002 9.074000 10.945000 # S MOL
360 1 13 -0.374350 37.365002 9.074000 7.815000 # S MOL
361 1 6 0.734000 38.762001 10.265000 3.120000 # Mo MOL
362 1 13 -0.374350 39.417999 10.906000 4.685000 # S MOL
363 1 13 -0.374350 39.417999 10.906000 1.555000 # S MOL
364 1 6 0.734000 38.762001 10.265000 6.250000 # Mo MOL
365 1 13 -0.374350 39.417999 10.906000 7.815000 # S MOL
366 1 13 -0.374350 39.417999 10.906000 4.685000 # S MOL
367 1 6 0.734000 38.762001 10.265000 9.380000 # Mo MOL
368 1 13 -0.374350 39.417999 10.906000 10.945000 # S MOL
369 1 13 -0.374350 39.417999 10.906000 7.815000 # S MOL
370 1 6 0.734000 40.639999 12.276000 3.120000 # Mo MOL
371 1 13 -0.374350 41.202999 13.001000 4.685000 # S MOL
372 1 13 -0.374350 41.202999 13.001000 1.555000 # S MOL
373 1 6 0.734000 40.639999 12.276000 6.250000 # Mo MOL
374 1 13 -0.374350 41.202999 13.001000 7.815000 # S MOL
375 1 13 -0.374350 41.202999 13.001000 4.685000 # S MOL
376 1 6 0.734000 40.639999 12.276000 9.380000 # Mo MOL
377 1 13 -0.374350 41.202999 13.001000 10.945000 # S MOL
378 1 13 -0.374350 41.202999 13.001000 7.815000 # S MOL
379 1 6 0.734000 42.227001 14.524000 3.120000 # Mo MOL
380 1 13 -0.374350 42.686001 15.319000 4.685000 # S MOL
381 1 13 -0.374350 42.686001 15.319000 1.555000 # S MOL
382 1 6 0.734000 42.227001 14.524000 6.250000 # Mo MOL
383 1 13 -0.374350 42.686001 15.319000 7.815000 # S MOL
384 1 13 -0.374350 42.686001 15.319000 4.685000 # S MOL
385 1 6 0.734000 42.227001 14.524000 9.380000 # Mo MOL
386 1 13 -0.374350 42.686001 15.319000 10.945000 # S MOL
387 1 13 -0.374350 42.686001 15.319000 7.815000 # S MOL
388 1 6 0.734000 43.493000 16.966999 3.120000 # Mo MOL
389 1 13 -0.374350 43.839001 17.816999 4.685000 # S MOL
390 1 13 -0.374350 43.839001 17.816999 1.555000 # S MOL
391 1 6 0.734000 43.493000 16.966999 6.250000 # Mo MOL
392 1 13 -0.374350 43.839001 17.816999 7.815000 # S MOL
393 1 13 -0.374350 43.839001 17.816999 4.685000 # S MOL
394 1 6 0.734000 43.493000 16.966999 9.380000 # Mo MOL
395 1 13 -0.374350 43.839001 17.816999 10.945000 # S MOL
396 1 13 -0.374350 43.839001 17.816999 7.815000 # S MOL
397 1 6 0.734000 44.414001 19.559999 3.120000 # Mo MOL
398 1 13 -0.374350 44.641998 20.450001 4.685000 # S MOL
399 1 13 -0.374350 44.641998 20.450001 1.555000 # S MOL
400 1 6 0.734000 44.414001 19.559999 6.250000 # Mo MOL
401 1 13 -0.374350 44.641998 20.450001 7.815000 # S MOL
402 1 13 -0.374350 44.641998 20.450001 4.685000 # S MOL
403 1 6 0.734000 44.414001 19.559999 9.380000 # Mo MOL
404 1 13 -0.374350 44.641998 20.450001 10.945000 # S MOL
405 1 13 -0.374350 44.641998 20.450001 7.815000 # S MOL
406 1 6 0.734000 44.973999 22.254999 3.120000 # Mo MOL
407 1 13 -0.374350 45.078999 23.167000 4.685000 # S MOL
408 1 13 -0.374350 45.078999 23.167000 1.555000 # S MOL
409 1 6 0.734000 44.973999 22.254999 6.250000 # Mo MOL
410 1 13 -0.374350 45.078999 23.167000 7.815000 # S MOL
411 1 13 -0.374350 45.078999 23.167000 4.685000 # S MOL
412 1 6 0.734000 44.973999 22.254999 9.380000 # Mo MOL
413 1 13 -0.374350 45.078999 23.167000 10.945000 # S MOL
414 1 13 -0.374350 45.078999 23.167000 7.815000 # S MOL
415 2 2 0.813000 26.445000 36.370998 2.044000 # CR HCR
416 2 9 -0.703000 26.325001 35.926998 0.512000 # O1 HCR
417 2 10 -0.703000 27.825001 35.806999 2.656000 # O2 HCR
418 2 11 -0.703000 25.204000 35.775002 2.870000 # O3 HCR
419 2 12 -0.703000 26.427000 37.973000 2.139000 # O4 HCR
420 2 3 1.000000 26.280001 35.761002 -0.063000 # H HCR
421 3 2 0.813000 17.323000 40.453999 1.124000 # CR HCR
422 3 9 -0.703000 17.184000 41.769001 0.223000 # O1 HCR
423 3 10 -0.703000 16.559000 39.231998 0.405000 # O2 HCR
424 3 11 -0.703000 16.671000 40.724998 2.566000 # O3 HCR
425 3 12 -0.703000 18.877001 40.091999 1.302000 # O4 HCR
426 3 3 1.000000 17.132000 42.262001 -0.115000 # H HCR
427 4 2 0.813000 17.790001 29.238001 -0.199000 # CR HCR
428 4 9 -0.703000 19.306999 29.606001 -0.551000 # O1 HCR
429 4 10 -0.703000 16.832001 30.461000 -0.624000 # O2 HCR
430 4 11 -0.703000 17.659000 28.972000 1.379000 # O3 HCR
431 4 12 -0.703000 17.364000 27.913000 -0.999000 # O4 HCR
432 4 3 1.000000 19.875999 29.743999 -0.683000 # H HCR
433 5 2 0.813000 18.950001 32.462002 1.545000 # CR HCR
434 5 9 -0.703000 20.544001 32.562000 1.443000 # O1 HCR
435 5 10 -0.703000 18.292999 33.819000 0.978000 # O2 HCR
436 5 11 -0.703000 18.525999 32.256001 3.080000 # O3 HCR
437 5 12 -0.703000 18.438000 31.209999 0.679000 # O4 HCR
438 5 3 1.000000 21.141001 32.599998 1.405000 # H HCR
439 6 8 -0.834000 16.888000 18.924999 -0.026000 # O TIP
440 6 4 0.417000 16.167999 18.296000 0.019000 # H1 TIP
441 6 5 0.417000 16.459000 19.780001 -0.053000 # H2 TIP
442 7 8 -0.834000 26.601000 31.365999 7.454000 # O TIP
443 7 4 0.417000 25.660999 31.398001 7.276000 # H1 TIP
444 7 5 0.417000 26.816999 30.434000 7.432000 # H2 TIP
445 8 8 -0.834000 31.283001 14.224000 7.327000 # O TIP
446 8 4 0.417000 31.829000 14.320000 8.107000 # H1 TIP
447 8 5 0.417000 31.709999 14.770000 6.666000 # H2 TIP
448 9 8 -0.834000 25.138000 38.518002 0.016000 # O TIP
449 9 4 0.417000 25.580999 39.362999 0.099000 # H1 TIP
450 9 5 0.417000 25.822001 37.917000 -0.280000 # H2 TIP
451 10 8 -0.834000 25.162001 16.375000 5.444000 # O TIP
452 10 4 0.417000 25.612000 17.190001 5.662000 # H1 TIP
453 10 5 0.417000 25.313999 16.260000 4.506000 # H2 TIP
454 11 8 -0.834000 39.030998 18.014999 5.453000 # O TIP
455 11 4 0.417000 38.571999 17.712999 4.670000 # H1 TIP
456 11 5 0.417000 38.337002 18.165001 6.095000 # H2 TIP
457 12 8 -0.834000 11.461000 22.681999 1.842000 # O TIP
458 12 4 0.417000 11.536000 23.625000 1.987000 # H1 TIP
459 12 5 0.417000 11.389000 22.590000 0.891000 # H2 TIP
460 13 8 -0.834000 33.987999 23.066999 4.331000 # O TIP
461 13 4 0.417000 34.727001 22.469000 4.219000 # H1 TIP
462 13 5 0.417000 33.233002 22.493999 4.465000 # H2 TIP
463 14 8 -0.834000 25.771000 35.464001 9.536000 # O TIP
464 14 4 0.417000 25.957001 34.525002 9.545000 # H1 TIP
465 14 5 0.417000 24.837000 35.526001 9.739000 # H2 TIP
466 15 8 -0.834000 30.929001 34.553001 2.054000 # O TIP
467 15 4 0.417000 31.834000 34.726002 1.795000 # H1 TIP
468 15 5 0.417000 30.827999 33.605999 1.957000 # H2 TIP
469 16 8 -0.834000 13.651000 15.938000 5.064000 # O TIP
470 16 4 0.417000 14.345000 15.279000 5.079000 # H1 TIP
471 16 5 0.417000 14.077000 16.726000 4.725000 # H2 TIP
472 17 8 -0.834000 23.240999 38.026001 11.025000 # O TIP
473 17 4 0.417000 22.330000 37.737999 10.982000 # H1 TIP
474 17 5 0.417000 23.750999 37.216000 11.003000 # H2 TIP
475 18 8 -0.834000 8.477000 24.858000 12.493000 # O TIP
476 18 4 0.417000 8.760000 23.945999 12.564000 # H1 TIP
477 18 5 0.417000 9.289000 25.364000 12.532000 # H2 TIP
478 19 8 -0.834000 32.997002 28.077000 3.853000 # O TIP
479 19 4 0.417000 32.362000 28.483999 4.442000 # H1 TIP
480 19 5 0.417000 33.720001 27.815001 4.424000 # H2 TIP
481 20 8 -0.834000 29.014999 9.438000 7.892000 # O TIP
482 20 4 0.417000 29.415001 8.599000 8.118000 # H1 TIP
483 20 5 0.417000 28.134001 9.212000 7.595000 # H2 TIP
484 21 8 -0.834000 30.743000 14.800000 4.548000 # O TIP
485 21 4 0.417000 30.254000 13.990000 4.693000 # H1 TIP
486 21 5 0.417000 31.065001 14.729000 3.649000 # H2 TIP
487 22 8 -0.834000 26.027000 29.400000 12.258000 # O TIP
488 22 4 0.417000 25.365999 28.771000 12.544000 # H1 TIP
489 22 5 0.417000 26.770000 28.861000 11.985000 # H2 TIP
490 23 8 -0.834000 19.545000 27.497999 4.808000 # O TIP
491 23 4 0.417000 19.370001 28.110001 5.522000 # H1 TIP
492 23 5 0.417000 19.396999 26.632999 5.191000 # H2 TIP
493 24 8 -0.834000 16.158001 26.566000 1.802000 # O TIP
494 24 4 0.417000 16.011000 27.198999 2.505000 # H1 TIP
495 24 5 0.417000 16.580000 27.073999 1.108000 # H2 TIP
496 25 8 -0.834000 13.476000 34.653999 7.332000 # O TIP
497 25 4 0.417000 13.448000 35.611000 7.329000 # H1 TIP
498 25 5 0.417000 14.409000 34.441002 7.336000 # H2 TIP
499 26 8 -0.834000 18.658001 12.555000 2.811000 # O TIP
500 26 4 0.417000 19.139000 13.382000 2.820000 # H1 TIP
501 26 5 0.417000 17.893999 12.715000 3.366000 # H2 TIP
502 27 8 -0.834000 37.988998 26.785999 9.911000 # O TIP
503 27 4 0.417000 37.132999 26.395000 9.738000 # H1 TIP
504 27 5 0.417000 38.537998 26.496000 9.181000 # H2 TIP
505 28 8 -0.834000 20.711000 15.163000 10.231000 # O TIP
506 28 4 0.417000 21.184000 14.333000 10.291000 # H1 TIP
507 28 5 0.417000 21.393000 15.833000 10.299000 # H2 TIP
508 29 8 -0.834000 22.341999 35.196999 3.974000 # O TIP
509 29 4 0.417000 22.233999 36.053001 4.387000 # H1 TIP
510 29 5 0.417000 23.141001 35.280998 3.453000 # H2 TIP
511 30 8 -0.834000 19.924000 9.930000 5.670000 # O TIP
512 30 4 0.417000 20.295000 9.787000 4.799000 # H1 TIP
513 30 5 0.417000 19.750000 9.049000 6.004000 # H2 TIP
514 31 8 -0.834000 18.642000 19.771000 8.812000 # O TIP
515 31 4 0.417000 18.915001 19.354000 9.628000 # H1 TIP
516 31 5 0.417000 18.378000 20.655001 9.071000 # H2 TIP
517 32 8 -0.834000 17.825001 13.349000 11.211000 # O TIP
518 32 4 0.417000 17.620001 13.327000 12.146000 # H1 TIP
519 32 5 0.417000 16.989000 13.542000 10.787000 # H2 TIP
520 33 8 -0.834000 20.867001 32.919998 9.659000 # O TIP
521 33 4 0.417000 21.424000 33.685001 9.801000 # H1 TIP
522 33 5 0.417000 21.472000 32.229000 9.388000 # H2 TIP
523 34 8 -0.834000 15.648000 32.087002 1.053000 # O TIP
524 34 4 0.417000 15.799000 32.254002 0.123000 # H1 TIP
525 34 5 0.417000 15.698000 31.134001 1.136000 # H2 TIP
526 35 8 -0.834000 19.260000 34.157001 8.075000 # O TIP
527 35 4 0.417000 19.783001 33.470001 7.663000 # H1 TIP
528 35 5 0.417000 18.757000 34.540001 7.356000 # H2 TIP