LAMMPS data file. CGCMM style. atom_style full generated by VMD/TopoTools v1.8 on Sat May 03 13:37:09 EDT 2025
 624 atoms
 262 bonds
 131 angles
 0 dihedrals
 0 impropers
 13 atom types
 1 bond types
 1 angle types
 0 dihedral types
 0 improper types
 -150.000000 150.000000  xlo xhi
 -150.000000 150.000000  ylo yhi
 -6.269500 6.230500  zlo zhi

# Pair Coeffs
#
# 1  CL
# 2  CR
# 3  H
# 4  H1
# 5  H2
# 6  Mo
# 7  NA
# 8  O
# 9  O1
# 10  O2
# 11  O3
# 12  O4
# 13  S

# Bond Coeffs
#
# 1  

# Angle Coeffs
#
# 1  unknown

 Masses

 1 35.452999 # CL
 2 12.011000 # CR
 3 1.008000 # H
 4 1.008000 # H1
 5 1.008000 # H2
 6 95.940002 # Mo
 7 22.989771 # NA
 8 15.999000 # O
 9 15.999000 # O1
 10 15.999000 # O2
 11 15.999000 # O3
 12 15.999000 # O4
 13 32.064999 # S

 Atoms # full

1 1 6 0.734000 9.643000 0.000000 -3.130000 # Mo MOL
2 1 13 -0.370000 9.599000 0.917000 -1.565000 # S MOL
3 1 13 -0.370000 9.599000 0.917000 -4.695000 # S MOL
4 1 6 0.734000 9.643000 0.000000 0.000000 # Mo MOL
5 1 13 -0.370000 9.599000 0.917000 1.565000 # S MOL
6 1 13 -0.370000 9.599000 0.917000 -1.565000 # S MOL
7 1 6 0.734000 9.643000 0.000000 3.130000 # Mo MOL
8 1 13 -0.370000 9.599000 0.917000 4.695000 # S MOL
9 1 13 -0.370000 9.599000 0.917000 1.565000 # S MOL
10 1 6 0.734000 9.252000 2.717000 -3.130000 # Mo MOL
11 1 13 -0.370000 8.952000 3.584000 -1.565000 # S MOL
12 1 13 -0.370000 8.952000 3.584000 -4.695000 # S MOL
13 1 6 0.734000 9.252000 2.717000 0.000000 # Mo MOL
14 1 13 -0.370000 8.952000 3.584000 1.565000 # S MOL
15 1 13 -0.370000 8.952000 3.584000 -1.565000 # S MOL
16 1 6 0.734000 9.252000 2.717000 3.130000 # Mo MOL
17 1 13 -0.370000 8.952000 3.584000 4.695000 # S MOL
18 1 13 -0.370000 8.952000 3.584000 1.565000 # S MOL
19 1 6 0.734000 8.112000 5.213000 -3.130000 # Mo MOL
20 1 13 -0.370000 7.580000 5.961000 -1.565000 # S MOL
21 1 13 -0.370000 7.580000 5.961000 -4.695000 # S MOL
22 1 6 0.734000 8.112000 5.213000 0.000000 # Mo MOL
23 1 13 -0.370000 7.580000 5.961000 1.565000 # S MOL
24 1 13 -0.370000 7.580000 5.961000 -1.565000 # S MOL
25 1 6 0.734000 8.112000 5.213000 3.130000 # Mo MOL
26 1 13 -0.370000 7.580000 5.961000 4.695000 # S MOL
27 1 13 -0.370000 7.580000 5.961000 1.565000 # S MOL
28 1 6 0.734000 6.315000 7.287000 -3.130000 # Mo MOL
29 1 13 -0.370000 5.593000 7.855000 -1.565000 # S MOL
30 1 13 -0.370000 5.593000 7.855000 -4.695000 # S MOL
31 1 6 0.734000 6.315000 7.287000 0.000000 # Mo MOL
32 1 13 -0.370000 5.593000 7.855000 1.565000 # S MOL
33 1 13 -0.370000 5.593000 7.855000 -1.565000 # S MOL
34 1 6 0.734000 6.315000 7.287000 3.130000 # Mo MOL
35 1 13 -0.370000 5.593000 7.855000 4.695000 # S MOL
36 1 13 -0.370000 5.593000 7.855000 1.565000 # S MOL
37 1 6 0.734000 4.006000 8.771000 -3.130000 # Mo MOL
38 1 13 -0.370000 3.154000 9.112000 -1.565000 # S MOL
39 1 13 -0.370000 3.154000 9.112000 -4.695000 # S MOL
40 1 6 0.734000 4.006000 8.771000 0.000000 # Mo MOL
41 1 13 -0.370000 3.154000 9.112000 1.565000 # S MOL
42 1 13 -0.370000 3.154000 9.112000 -1.565000 # S MOL
43 1 6 0.734000 4.006000 8.771000 3.130000 # Mo MOL
44 1 13 -0.370000 3.154000 9.112000 4.695000 # S MOL
45 1 13 -0.370000 3.154000 9.112000 1.565000 # S MOL
46 1 6 0.734000 1.372000 9.545000 -3.130000 # Mo MOL
47 1 13 -0.370000 0.459000 9.632000 -1.565000 # S MOL
48 1 13 -0.370000 0.459000 9.632000 -4.695000 # S MOL
49 1 6 0.734000 1.372000 9.545000 0.000000 # Mo MOL
50 1 13 -0.370000 0.459000 9.632000 1.565000 # S MOL
51 1 13 -0.370000 0.459000 9.632000 -1.565000 # S MOL
52 1 6 0.734000 1.372000 9.545000 3.130000 # Mo MOL
53 1 13 -0.370000 0.459000 9.632000 4.695000 # S MOL
54 1 13 -0.370000 0.459000 9.632000 1.565000 # S MOL
55 1 6 0.734000 -1.372000 9.545000 -3.130000 # Mo MOL
56 1 13 -0.370000 -2.273000 9.371000 -1.565000 # S MOL
57 1 13 -0.370000 -2.273000 9.371000 -4.695000 # S MOL
58 1 6 0.734000 -1.372000 9.545000 0.000000 # Mo MOL
59 1 13 -0.370000 -2.273000 9.371000 1.565000 # S MOL
60 1 13 -0.370000 -2.273000 9.371000 -1.565000 # S MOL
61 1 6 0.734000 -1.372000 9.545000 3.130000 # Mo MOL
62 1 13 -0.370000 -2.273000 9.371000 4.695000 # S MOL
63 1 13 -0.370000 -2.273000 9.371000 1.565000 # S MOL
64 1 6 0.734000 -4.006000 8.771000 -3.130000 # Mo MOL
65 1 13 -0.370000 -4.821000 8.351000 -1.565000 # S MOL
66 1 13 -0.370000 -4.821000 8.351000 -4.695000 # S MOL
67 1 6 0.734000 -4.006000 8.771000 0.000000 # Mo MOL
68 1 13 -0.370000 -4.821000 8.351000 1.565000 # S MOL
69 1 13 -0.370000 -4.821000 8.351000 -1.565000 # S MOL
70 1 6 0.734000 -4.006000 8.771000 3.130000 # Mo MOL
71 1 13 -0.370000 -4.821000 8.351000 4.695000 # S MOL
72 1 13 -0.370000 -4.821000 8.351000 1.565000 # S MOL
73 1 6 0.734000 -6.315000 7.287000 -3.130000 # Mo MOL
74 1 13 -0.370000 -6.979000 6.654000 -1.565000 # S MOL
75 1 13 -0.370000 -6.979000 6.654000 -4.695000 # S MOL
76 1 6 0.734000 -6.315000 7.287000 0.000000 # Mo MOL
77 1 13 -0.370000 -6.979000 6.654000 1.565000 # S MOL
78 1 13 -0.370000 -6.979000 6.654000 -1.565000 # S MOL
79 1 6 0.734000 -6.315000 7.287000 3.130000 # Mo MOL
80 1 13 -0.370000 -6.979000 6.654000 4.695000 # S MOL
81 1 13 -0.370000 -6.979000 6.654000 1.565000 # S MOL
82 1 6 0.734000 -8.112000 5.213000 -3.130000 # Mo MOL
83 1 13 -0.370000 -8.571000 4.419000 -1.565000 # S MOL
84 1 13 -0.370000 -8.571000 4.419000 -4.695000 # S MOL
85 1 6 0.734000 -8.112000 5.213000 0.000000 # Mo MOL
86 1 13 -0.370000 -8.571000 4.419000 1.565000 # S MOL
87 1 13 -0.370000 -8.571000 4.419000 -1.565000 # S MOL
88 1 6 0.734000 -8.112000 5.213000 3.130000 # Mo MOL
89 1 13 -0.370000 -8.571000 4.419000 4.695000 # S MOL
90 1 13 -0.370000 -8.571000 4.419000 1.565000 # S MOL
91 1 6 0.734000 -9.252000 2.717000 -3.130000 # Mo MOL
92 1 13 -0.370000 -9.468000 1.825000 -1.565000 # S MOL
93 1 13 -0.370000 -9.468000 1.825000 -4.695000 # S MOL
94 1 6 0.734000 -9.252000 2.717000 0.000000 # Mo MOL
95 1 13 -0.370000 -9.468000 1.825000 1.565000 # S MOL
96 1 13 -0.370000 -9.468000 1.825000 -1.565000 # S MOL
97 1 6 0.734000 -9.252000 2.717000 3.130000 # Mo MOL
98 1 13 -0.370000 -9.468000 1.825000 4.695000 # S MOL
99 1 13 -0.370000 -9.468000 1.825000 1.565000 # S MOL
100 1 6 0.734000 -9.643000 0.000000 -3.130000 # Mo MOL
101 1 13 -0.370000 -9.599000 -0.917000 -1.565000 # S MOL
102 1 13 -0.370000 -9.599000 -0.917000 -4.695000 # S MOL
103 1 6 0.734000 -9.643000 0.000000 0.000000 # Mo MOL
104 1 13 -0.370000 -9.599000 -0.917000 1.565000 # S MOL
105 1 13 -0.370000 -9.599000 -0.917000 -1.565000 # S MOL
106 1 6 0.734000 -9.643000 0.000000 3.130000 # Mo MOL
107 1 13 -0.370000 -9.599000 -0.917000 4.695000 # S MOL
108 1 13 -0.370000 -9.599000 -0.917000 1.565000 # S MOL
109 1 6 0.734000 -9.252000 -2.717000 -3.130000 # Mo MOL
110 1 13 -0.370000 -8.952000 -3.584000 -1.565000 # S MOL
111 1 13 -0.370000 -8.952000 -3.584000 -4.695000 # S MOL
112 1 6 0.734000 -9.252000 -2.717000 0.000000 # Mo MOL
113 1 13 -0.370000 -8.952000 -3.584000 1.565000 # S MOL
114 1 13 -0.370000 -8.952000 -3.584000 -1.565000 # S MOL
115 1 6 0.734000 -9.252000 -2.717000 3.130000 # Mo MOL
116 1 13 -0.370000 -8.952000 -3.584000 4.695000 # S MOL
117 1 13 -0.370000 -8.952000 -3.584000 1.565000 # S MOL
118 1 6 0.734000 -8.112000 -5.213000 -3.130000 # Mo MOL
119 1 13 -0.370000 -7.580000 -5.961000 -1.565000 # S MOL
120 1 13 -0.370000 -7.580000 -5.961000 -4.695000 # S MOL
121 1 6 0.734000 -8.112000 -5.213000 0.000000 # Mo MOL
122 1 13 -0.370000 -7.580000 -5.961000 1.565000 # S MOL
123 1 13 -0.370000 -7.580000 -5.961000 -1.565000 # S MOL
124 1 6 0.734000 -8.112000 -5.213000 3.130000 # Mo MOL
125 1 13 -0.370000 -7.580000 -5.961000 4.695000 # S MOL
126 1 13 -0.370000 -7.580000 -5.961000 1.565000 # S MOL
127 1 6 0.734000 -6.315000 -7.287000 -3.130000 # Mo MOL
128 1 13 -0.370000 -5.593000 -7.855000 -1.565000 # S MOL
129 1 13 -0.370000 -5.593000 -7.855000 -4.695000 # S MOL
130 1 6 0.734000 -6.315000 -7.287000 0.000000 # Mo MOL
131 1 13 -0.370000 -5.593000 -7.855000 1.565000 # S MOL
132 1 13 -0.370000 -5.593000 -7.855000 -1.565000 # S MOL
133 1 6 0.734000 -6.315000 -7.287000 3.130000 # Mo MOL
134 1 13 -0.370000 -5.593000 -7.855000 4.695000 # S MOL
135 1 13 -0.370000 -5.593000 -7.855000 1.565000 # S MOL
136 1 6 0.734000 -4.006000 -8.771000 -3.130000 # Mo MOL
137 1 13 -0.370000 -3.154000 -9.112000 -1.565000 # S MOL
138 1 13 -0.370000 -3.154000 -9.112000 -4.695000 # S MOL
139 1 6 0.734000 -4.006000 -8.771000 0.000000 # Mo MOL
140 1 13 -0.370000 -3.154000 -9.112000 1.565000 # S MOL
141 1 13 -0.370000 -3.154000 -9.112000 -1.565000 # S MOL
142 1 6 0.734000 -4.006000 -8.771000 3.130000 # Mo MOL
143 1 13 -0.370000 -3.154000 -9.112000 4.695000 # S MOL
144 1 13 -0.370000 -3.154000 -9.112000 1.565000 # S MOL
145 1 6 0.734000 -1.372000 -9.545000 -3.130000 # Mo MOL
146 1 13 -0.370000 -0.459000 -9.632000 -1.565000 # S MOL
147 1 13 -0.370000 -0.459000 -9.632000 -4.695000 # S MOL
148 1 6 0.734000 -1.372000 -9.545000 0.000000 # Mo MOL
149 1 13 -0.370000 -0.459000 -9.632000 1.565000 # S MOL
150 1 13 -0.370000 -0.459000 -9.632000 -1.565000 # S MOL
151 1 6 0.734000 -1.372000 -9.545000 3.130000 # Mo MOL
152 1 13 -0.370000 -0.459000 -9.632000 4.695000 # S MOL
153 1 13 -0.370000 -0.459000 -9.632000 1.565000 # S MOL
154 1 6 0.734000 1.372000 -9.545000 -3.130000 # Mo MOL
155 1 13 -0.370000 2.273000 -9.371000 -1.565000 # S MOL
156 1 13 -0.370000 2.273000 -9.371000 -4.695000 # S MOL
157 1 6 0.734000 1.372000 -9.545000 0.000000 # Mo MOL
158 1 13 -0.370000 2.273000 -9.371000 1.565000 # S MOL
159 1 13 -0.370000 2.273000 -9.371000 -1.565000 # S MOL
160 1 6 0.734000 1.372000 -9.545000 3.130000 # Mo MOL
161 1 13 -0.370000 2.273000 -9.371000 4.695000 # S MOL
162 1 13 -0.370000 2.273000 -9.371000 1.565000 # S MOL
163 1 6 0.734000 4.006000 -8.771000 -3.130000 # Mo MOL
164 1 13 -0.370000 4.821000 -8.351000 -1.565000 # S MOL
165 1 13 -0.370000 4.821000 -8.351000 -4.695000 # S MOL
166 1 6 0.734000 4.006000 -8.771000 0.000000 # Mo MOL
167 1 13 -0.370000 4.821000 -8.351000 1.565000 # S MOL
168 1 13 -0.370000 4.821000 -8.351000 -1.565000 # S MOL
169 1 6 0.734000 4.006000 -8.771000 3.130000 # Mo MOL
170 1 13 -0.370000 4.821000 -8.351000 4.695000 # S MOL
171 1 13 -0.370000 4.821000 -8.351000 1.565000 # S MOL
172 1 6 0.734000 6.315000 -7.287000 -3.130000 # Mo MOL
173 1 13 -0.370000 6.979000 -6.654000 -1.565000 # S MOL
174 1 13 -0.370000 6.979000 -6.654000 -4.695000 # S MOL
175 1 6 0.734000 6.315000 -7.287000 0.000000 # Mo MOL
176 1 13 -0.370000 6.979000 -6.654000 1.565000 # S MOL
177 1 13 -0.370000 6.979000 -6.654000 -1.565000 # S MOL
178 1 6 0.734000 6.315000 -7.287000 3.130000 # Mo MOL
179 1 13 -0.370000 6.979000 -6.654000 4.695000 # S MOL
180 1 13 -0.370000 6.979000 -6.654000 1.565000 # S MOL
181 1 6 0.734000 8.112000 -5.213000 -3.130000 # Mo MOL
182 1 13 -0.370000 8.571000 -4.419000 -1.565000 # S MOL
183 1 13 -0.370000 8.571000 -4.419000 -4.695000 # S MOL
184 1 6 0.734000 8.112000 -5.213000 0.000000 # Mo MOL
185 1 13 -0.370000 8.571000 -4.419000 1.565000 # S MOL
186 1 13 -0.370000 8.571000 -4.419000 -1.565000 # S MOL
187 1 6 0.734000 8.112000 -5.213000 3.130000 # Mo MOL
188 1 13 -0.370000 8.571000 -4.419000 4.695000 # S MOL
189 1 13 -0.370000 8.571000 -4.419000 1.565000 # S MOL
190 1 6 0.734000 9.252000 -2.717000 -3.130000 # Mo MOL
191 1 13 -0.370000 9.468000 -1.825000 -1.565000 # S MOL
192 1 13 -0.370000 9.468000 -1.825000 -4.695000 # S MOL
193 1 6 0.734000 9.252000 -2.717000 0.000000 # Mo MOL
194 1 13 -0.370000 9.468000 -1.825000 1.565000 # S MOL
195 1 13 -0.370000 9.468000 -1.825000 -1.565000 # S MOL
196 1 6 0.734000 9.252000 -2.717000 3.130000 # Mo MOL
197 1 13 -0.370000 9.468000 -1.825000 4.695000 # S MOL
198 1 13 -0.370000 9.468000 -1.825000 1.565000 # S MOL
199 2 2 0.813000 1.024000 3.314000 -4.945000 # CR HCR
200 2 9 -0.703000 2.441000 2.614000 -4.697000 # O1 HCR
201 2 10 -0.703000 -0.131000 2.191000 -4.962000 # O2 HCR
202 2 11 -0.703000 1.049000 4.085000 -6.354000 # O3 HCR
203 2 12 -0.703000 0.736000 4.368000 -3.768000 # O4 HCR
204 2 3 1.000000 2.972000 2.351000 -4.604000 # H HCR
205 3 8 -0.834000 -4.314000 -2.510000 -4.129000 # O TIP
206 3 4 0.417000 -4.658000 -3.006000 -4.872000 # H1 TIP
207 3 5 0.417000 -3.694000 -3.106000 -3.708000 # H2 TIP
208 4 8 -0.834000 -0.059000 -1.104000 3.614000 # O TIP
209 4 4 0.417000 -0.612000 -0.569000 3.045000 # H1 TIP
210 4 5 0.417000 0.139000 -1.883000 3.093000 # H2 TIP
211 5 8 -0.834000 0.497000 -5.128000 -2.327000 # O TIP
212 5 4 0.417000 0.529000 -5.214000 -3.280000 # H1 TIP
213 5 5 0.417000 -0.118000 -4.411000 -2.172000 # H2 TIP
214 6 8 -0.834000 6.036000 2.043000 5.251000 # O TIP
215 6 4 0.417000 5.164000 2.434000 5.287000 # H1 TIP
216 6 5 0.417000 6.291000 1.940000 6.168000 # H2 TIP
217 7 8 -0.834000 2.481000 -6.942000 5.179000 # O TIP
218 7 4 0.417000 2.441000 -5.986000 5.169000 # H1 TIP
219 7 5 0.417000 3.416000 -7.143000 5.134000 # H2 TIP
220 8 8 -0.834000 -3.660000 -2.942000 -6.047000 # O TIP
221 8 4 0.417000 -4.525000 -2.585000 -6.248000 # H1 TIP
222 8 5 0.417000 -3.805000 -3.884000 -5.951000 # H2 TIP
223 9 8 -0.834000 -0.464000 -3.921000 5.363000 # O TIP
224 9 4 0.417000 -0.293000 -2.984000 5.451000 # H1 TIP
225 9 5 0.417000 0.404000 -4.325000 5.367000 # H2 TIP
226 10 8 -0.834000 -0.380000 4.325000 2.440000 # O TIP
227 10 4 0.417000 0.142000 5.126000 2.469000 # H1 TIP
228 10 5 0.417000 0.260000 3.618000 2.525000 # H2 TIP
229 11 8 -0.834000 -2.691000 -7.137000 -3.792000 # O TIP
230 11 4 0.417000 -1.962000 -7.542000 -3.322000 # H1 TIP
231 11 5 0.417000 -3.267000 -7.868000 -4.017000 # H2 TIP
232 12 8 -0.834000 -2.343000 3.090000 5.278000 # O TIP
233 12 4 0.417000 -3.270000 2.864000 5.362000 # H1 TIP
234 12 5 0.417000 -1.891000 2.246000 5.268000 # H2 TIP
235 13 8 -0.834000 -2.021000 -6.476000 -5.189000 # O TIP
236 13 4 0.417000 -1.551000 -7.300000 -5.062000 # H1 TIP
237 13 5 0.417000 -2.888000 -6.739000 -5.499000 # H2 TIP
238 14 8 -0.834000 -1.526000 -2.691000 1.282000 # O TIP
239 14 4 0.417000 -0.576000 -2.577000 1.312000 # H1 TIP
240 14 5 0.417000 -1.878000 -1.812000 1.425000 # H2 TIP
241 15 8 -0.834000 0.385000 -1.788000 -0.150000 # O TIP
242 15 4 0.417000 -0.111000 -2.602000 -0.069000 # H1 TIP
243 15 5 0.417000 -0.283000 -1.104000 -0.194000 # H2 TIP
244 16 8 -0.834000 -2.502000 5.820000 0.693000 # O TIP
245 16 4 0.417000 -3.343000 6.188000 0.421000 # H1 TIP
246 16 5 0.417000 -1.927000 6.580000 0.790000 # H2 TIP
247 17 8 -0.834000 6.277000 -0.719000 -0.025000 # O TIP
248 17 4 0.417000 7.158000 -1.078000 -0.136000 # H1 TIP
249 17 5 0.417000 6.400000 0.230000 -0.052000 # H2 TIP
250 18 8 -0.834000 -0.708000 -7.493000 0.564000 # O TIP
251 18 4 0.417000 -1.506000 -7.218000 1.015000 # H1 TIP
252 18 5 0.417000 -0.221000 -7.993000 1.220000 # H2 TIP
253 19 8 -0.834000 -0.462000 -4.048000 -0.493000 # O TIP
254 19 4 0.417000 -0.726000 -4.953000 -0.664000 # H1 TIP
255 19 5 0.417000 0.488000 -4.049000 -0.611000 # H2 TIP
256 20 8 -0.834000 -5.690000 -4.552000 -2.119000 # O TIP
257 20 4 0.417000 -5.996000 -5.443000 -1.953000 # H1 TIP
258 20 5 0.417000 -4.958000 -4.658000 -2.727000 # H2 TIP
259 21 8 -0.834000 -3.127000 1.960000 -5.048000 # O TIP
260 21 4 0.417000 -2.370000 2.536000 -4.946000 # H1 TIP
261 21 5 0.417000 -3.883000 2.534000 -4.927000 # H2 TIP
262 22 8 -0.834000 4.948000 -3.989000 5.397000 # O TIP
263 22 4 0.417000 5.693000 -3.399000 5.282000 # H1 TIP
264 22 5 0.417000 4.545000 -4.038000 4.530000 # H2 TIP
265 23 8 -0.834000 2.848000 -2.376000 -1.251000 # O TIP
266 23 4 0.417000 3.701000 -2.159000 -0.874000 # H1 TIP
267 23 5 0.417000 2.626000 -3.225000 -0.868000 # H2 TIP
268 24 8 -0.834000 0.013000 0.036000 1.477000 # O TIP
269 24 4 0.417000 -0.169000 0.484000 2.303000 # H1 TIP
270 24 5 0.417000 0.910000 -0.286000 1.571000 # H2 TIP
271 25 8 -0.834000 0.710000 6.421000 -4.508000 # O TIP
272 25 4 0.417000 1.336000 7.112000 -4.292000 # H1 TIP
273 25 5 0.417000 0.951000 5.692000 -3.936000 # H2 TIP
274 26 8 -0.834000 1.564000 -3.024000 -1.887000 # O TIP
275 26 4 0.417000 2.498000 -3.070000 -2.092000 # H1 TIP
276 26 5 0.417000 1.386000 -2.089000 -1.787000 # H2 TIP
277 27 8 -0.834000 0.608000 -2.470000 0.938000 # O TIP
278 27 4 0.417000 1.433000 -2.012000 0.775000 # H1 TIP
279 27 5 0.417000 0.872000 -3.327000 1.274000 # H2 TIP
280 28 8 -0.834000 -3.237000 -6.192000 0.746000 # O TIP
281 28 4 0.417000 -2.926000 -7.095000 0.808000 # H1 TIP
282 28 5 0.417000 -3.321000 -6.031000 -0.195000 # H2 TIP
283 29 8 -0.834000 -0.538000 2.083000 -1.682000 # O TIP
284 29 4 0.417000 0.399000 2.247000 -1.576000 # H1 TIP
285 29 5 0.417000 -0.732000 1.383000 -1.057000 # H2 TIP
286 30 8 -0.834000 2.806000 -4.540000 2.005000 # O TIP
287 30 4 0.417000 2.302000 -4.278000 1.235000 # H1 TIP
288 30 5 0.417000 2.169000 -4.536000 2.721000 # H2 TIP
289 31 8 -0.834000 3.342000 -7.830000 -3.020000 # O TIP
290 31 4 0.417000 2.471000 -8.110000 -2.741000 # H1 TIP
291 31 5 0.417000 3.208000 -7.462000 -3.894000 # H2 TIP
292 32 8 -0.834000 -1.942000 7.571000 -1.254000 # O TIP
293 32 4 0.417000 -1.937000 7.982000 -0.390000 # H1 TIP
294 32 5 0.417000 -2.808000 7.169000 -1.323000 # H2 TIP
295 33 8 -0.834000 6.073000 -4.388000 -4.680000 # O TIP
296 33 4 0.417000 6.765000 -4.696000 -4.094000 # H1 TIP
297 33 5 0.417000 6.186000 -3.438000 -4.706000 # H2 TIP
298 34 8 -0.834000 -0.567000 -7.004000 -2.352000 # O TIP
299 34 4 0.417000 -0.534000 -7.937000 -2.564000 # H1 TIP
300 34 5 0.417000 -0.127000 -6.575000 -3.085000 # H2 TIP
301 35 8 -0.834000 -6.931000 -0.358000 -1.131000 # O TIP
302 35 4 0.417000 -6.088000 0.063000 -0.966000 # H1 TIP
303 35 5 0.417000 -6.710000 -1.267000 -1.335000 # H2 TIP
304 36 8 -0.834000 -1.536000 -2.101000 -1.420000 # O TIP
305 36 4 0.417000 -2.307000 -1.544000 -1.525000 # H1 TIP
306 36 5 0.417000 -0.968000 -1.865000 -2.153000 # H2 TIP
307 37 8 -0.834000 1.625000 -2.717000 -3.667000 # O TIP
308 37 4 0.417000 0.725000 -3.041000 -3.640000 # H1 TIP
309 37 5 0.417000 1.535000 -1.766000 -3.736000 # H2 TIP
310 38 8 -0.834000 -3.150000 6.564000 4.898000 # O TIP
311 38 4 0.417000 -2.544000 6.036000 5.419000 # H1 TIP
312 38 5 0.417000 -2.747000 7.432000 4.868000 # H2 TIP
313 39 8 -0.834000 5.267000 4.053000 5.530000 # O TIP
314 39 4 0.417000 4.482000 3.616000 5.202000 # H1 TIP
315 39 5 0.417000 5.992000 3.515000 5.212000 # H2 TIP
316 40 8 -0.834000 -5.940000 -2.596000 -3.104000 # O TIP
317 40 4 0.417000 -5.795000 -1.650000 -3.105000 # H1 TIP
318 40 5 0.417000 -6.893000 -2.693000 -3.103000 # H2 TIP
319 41 8 -0.834000 -4.482000 -1.080000 -4.239000 # O TIP
320 41 4 0.417000 -3.612000 -0.682000 -4.201000 # H1 TIP
321 41 5 0.417000 -5.083000 -0.336000 -4.298000 # H2 TIP
322 42 8 -0.834000 0.711000 -4.738000 3.829000 # O TIP
323 42 4 0.417000 1.245000 -5.483000 4.106000 # H1 TIP
324 42 5 0.417000 0.645000 -4.831000 2.878000 # H2 TIP
325 43 8 -0.834000 5.651000 2.287000 -1.389000 # O TIP
326 43 4 0.417000 5.314000 3.182000 -1.362000 # H1 TIP
327 43 5 0.417000 5.058000 1.824000 -1.981000 # H2 TIP
328 44 8 -0.834000 -4.132000 -0.923000 5.298000 # O TIP
329 44 4 0.417000 -4.236000 -1.073000 4.358000 # H1 TIP
330 44 5 0.417000 -3.742000 -0.051000 5.359000 # H2 TIP
331 45 8 -0.834000 -2.522000 -0.547000 0.122000 # O TIP
332 45 4 0.417000 -3.010000 -1.355000 -0.034000 # H1 TIP
333 45 5 0.417000 -3.167000 0.151000 0.004000 # H2 TIP
334 46 8 -0.834000 -4.745000 2.083000 1.261000 # O TIP
335 46 4 0.417000 -4.049000 2.154000 1.915000 # H1 TIP
336 46 5 0.417000 -5.255000 2.887000 1.366000 # H2 TIP
337 47 8 -0.834000 4.588000 4.565000 3.796000 # O TIP
338 47 4 0.417000 4.917000 5.341000 3.344000 # H1 TIP
339 47 5 0.417000 5.207000 3.872000 3.564000 # H2 TIP
340 48 8 -0.834000 1.743000 -5.489000 -3.003000 # O TIP
341 48 4 0.417000 1.933000 -4.645000 -3.412000 # H1 TIP
342 48 5 0.417000 2.555000 -5.988000 -3.095000 # H2 TIP
343 49 8 -0.834000 1.646000 -5.842000 -5.477000 # O TIP
344 49 4 0.417000 1.433000 -6.771000 -5.557000 # H1 TIP
345 49 5 0.417000 1.133000 -5.542000 -4.726000 # H2 TIP
346 50 8 -0.834000 -3.564000 -7.034000 -1.784000 # O TIP
347 50 4 0.417000 -4.190000 -6.729000 -2.441000 # H1 TIP
348 50 5 0.417000 -3.987000 -7.796000 -1.386000 # H2 TIP
349 51 8 -0.834000 -3.676000 3.823000 2.690000 # O TIP
350 51 4 0.417000 -2.937000 3.216000 2.683000 # H1 TIP
351 51 5 0.417000 -4.450000 3.260000 2.694000 # H2 TIP
352 52 8 -0.834000 3.433000 -6.034000 -0.916000 # O TIP
353 52 4 0.417000 2.764000 -5.443000 -0.572000 # H1 TIP
354 52 5 0.417000 4.001000 -5.473000 -1.444000 # H2 TIP
355 53 8 -0.834000 0.968000 -5.462000 0.149000 # O TIP
356 53 4 0.417000 1.482000 -6.211000 0.449000 # H1 TIP
357 53 5 0.417000 1.114000 -5.434000 -0.797000 # H2 TIP
358 54 8 -0.834000 -3.051000 4.547000 1.280000 # O TIP
359 54 4 0.417000 -4.001000 4.527000 1.166000 # H1 TIP
360 54 5 0.417000 -2.793000 3.625000 1.307000 # H2 TIP
361 55 8 -0.834000 -7.217000 -0.567000 -5.903000 # O TIP
362 55 4 0.417000 -6.705000 0.146000 -6.283000 # H1 TIP
363 55 5 0.417000 -7.417000 -0.272000 -5.014000 # H2 TIP
364 56 8 -0.834000 -3.493000 -5.884000 3.668000 # O TIP
365 56 4 0.417000 -3.446000 -6.283000 4.537000 # H1 TIP
366 56 5 0.417000 -2.765000 -5.262000 3.651000 # H2 TIP
367 57 8 -0.834000 -6.546000 -3.434000 -4.806000 # O TIP
368 57 4 0.417000 -6.330000 -2.502000 -4.765000 # H1 TIP
369 57 5 0.417000 -5.706000 -3.880000 -4.695000 # H2 TIP
370 58 8 -0.834000 -5.398000 -2.377000 6.207000 # O TIP
371 58 4 0.417000 -5.101000 -1.574000 5.779000 # H1 TIP
372 58 5 0.417000 -6.351000 -2.295000 6.237000 # H2 TIP
373 59 8 -0.834000 -0.473000 7.556000 -1.621000 # O TIP
374 59 4 0.417000 0.334000 7.858000 -2.036000 # H1 TIP
375 59 5 0.417000 -0.754000 6.812000 -2.156000 # H2 TIP
376 60 8 -0.834000 3.218000 3.336000 1.941000 # O TIP
377 60 4 0.417000 2.321000 3.558000 1.693000 # H1 TIP
378 60 5 0.417000 3.764000 3.922000 1.418000 # H2 TIP
379 61 8 -0.834000 -5.105000 -6.159000 0.434000 # O TIP
380 61 4 0.417000 -4.430000 -6.769000 0.139000 # H1 TIP
381 61 5 0.417000 -4.640000 -5.541000 0.999000 # H2 TIP
382 62 8 -0.834000 3.857000 6.276000 2.567000 # O TIP
383 62 4 0.417000 4.592000 6.558000 2.022000 # H1 TIP
384 62 5 0.417000 3.508000 7.087000 2.938000 # H2 TIP
385 63 8 -0.834000 2.736000 3.267000 5.004000 # O TIP
386 63 4 0.417000 1.832000 3.535000 5.164000 # H1 TIP
387 63 5 0.417000 3.263000 4.007000 5.307000 # H2 TIP
388 64 8 -0.834000 -2.643000 1.273000 -1.673000 # O TIP
389 64 4 0.417000 -3.316000 1.805000 -2.097000 # H1 TIP
390 64 5 0.417000 -2.136000 1.897000 -1.153000 # H2 TIP
391 65 8 -0.834000 -5.027000 3.748000 -4.058000 # O TIP
392 65 4 0.417000 -4.240000 3.703000 -4.602000 # H1 TIP
393 65 5 0.417000 -4.702000 3.969000 -3.185000 # H2 TIP
394 66 8 -0.834000 4.392000 0.280000 4.669000 # O TIP
395 66 4 0.417000 4.333000 0.508000 3.741000 # H1 TIP
396 66 5 0.417000 3.517000 -0.038000 4.894000 # H2 TIP
397 67 8 -0.834000 -1.622000 -4.020000 -0.163000 # O TIP
398 67 4 0.417000 -2.237000 -4.285000 0.521000 # H1 TIP
399 67 5 0.417000 -2.101000 -3.370000 -0.678000 # H2 TIP
400 68 8 -0.834000 -0.016000 4.898000 4.355000 # O TIP
401 68 4 0.417000 0.707000 4.277000 4.448000 # H1 TIP
402 68 5 0.417000 -0.805000 4.365000 4.461000 # H2 TIP
403 69 8 -0.834000 4.067000 1.334000 1.400000 # O TIP
404 69 4 0.417000 3.614000 2.172000 1.305000 # H1 TIP
405 69 5 0.417000 4.427000 1.156000 0.531000 # H2 TIP
406 70 8 -0.834000 5.049000 3.623000 -4.164000 # O TIP
407 70 4 0.417000 5.691000 4.332000 -4.157000 # H1 TIP
408 70 5 0.417000 4.264000 4.014000 -4.549000 # H2 TIP
409 71 8 -0.834000 -4.782000 1.784000 -0.194000 # O TIP
410 71 4 0.417000 -4.191000 2.531000 -0.284000 # H1 TIP
411 71 5 0.417000 -4.202000 1.037000 -0.042000 # H2 TIP
412 72 8 -0.834000 -0.290000 -7.679000 -4.778000 # O TIP
413 72 4 0.417000 -0.451000 -7.352000 -3.894000 # H1 TIP
414 72 5 0.417000 -0.074000 -6.898000 -5.288000 # H2 TIP
415 73 8 -0.834000 2.733000 0.850000 4.984000 # O TIP
416 73 4 0.417000 2.275000 1.253000 5.722000 # H1 TIP
417 73 5 0.417000 3.628000 1.184000 5.047000 # H2 TIP
418 74 8 -0.834000 -4.045000 -0.396000 2.250000 # O TIP
419 74 4 0.417000 -4.541000 0.202000 2.809000 # H1 TIP
420 74 5 0.417000 -4.464000 -1.247000 2.377000 # H2 TIP
421 75 8 -0.834000 2.156000 -0.656000 4.793000 # O TIP
422 75 4 0.417000 1.214000 -0.494000 4.753000 # H1 TIP
423 75 5 0.417000 2.234000 -1.514000 5.212000 # H2 TIP
424 76 8 -0.834000 3.614000 -2.483000 0.824000 # O TIP
425 76 4 0.417000 3.542000 -2.922000 -0.024000 # H1 TIP
426 76 5 0.417000 3.719000 -3.196000 1.455000 # H2 TIP
427 77 8 -0.834000 1.632000 -6.029000 1.949000 # O TIP
428 77 4 0.417000 2.402000 -5.942000 2.511000 # H1 TIP
429 77 5 0.417000 1.593000 -5.204000 1.465000 # H2 TIP
430 78 8 -0.834000 -4.103000 -3.539000 0.663000 # O TIP
431 78 4 0.417000 -3.275000 -3.072000 0.554000 # H1 TIP
432 78 5 0.417000 -3.919000 -4.429000 0.362000 # H2 TIP
433 79 8 -0.834000 -0.550000 3.879000 6.031000 # O TIP
434 79 4 0.417000 -1.465000 4.149000 6.102000 # H1 TIP
435 79 5 0.417000 -0.588000 2.998000 5.659000 # H2 TIP
436 80 8 -0.834000 -3.069000 -0.405000 4.014000 # O TIP
437 80 4 0.417000 -3.390000 -0.596000 3.133000 # H1 TIP
438 80 5 0.417000 -3.087000 -1.250000 4.464000 # H2 TIP
439 81 8 -0.834000 0.468000 -2.453000 4.686000 # O TIP
440 81 4 0.417000 1.331000 -2.040000 4.676000 # H1 TIP
441 81 5 0.417000 -0.148000 -1.723000 4.747000 # H2 TIP
442 82 8 -0.834000 1.896000 6.317000 0.002000 # O TIP
443 82 4 0.417000 1.523000 5.465000 -0.221000 # H1 TIP
444 82 5 0.417000 1.423000 6.587000 0.790000 # H2 TIP
445 83 8 -0.834000 0.460000 -0.153000 6.292000 # O TIP
446 83 4 0.417000 1.255000 0.283000 5.988000 # H1 TIP
447 83 5 0.417000 -0.183000 0.010000 5.601000 # H2 TIP
448 84 8 -0.834000 -4.599000 -1.213000 -0.881000 # O TIP
449 84 4 0.417000 -3.733000 -0.997000 -1.225000 # H1 TIP
450 84 5 0.417000 -5.162000 -0.500000 -1.184000 # H2 TIP
451 85 8 -0.834000 -5.279000 -0.815000 -5.366000 # O TIP
452 85 4 0.417000 -5.602000 -0.946000 -6.258000 # H1 TIP
453 85 5 0.417000 -6.047000 -0.955000 -4.811000 # H2 TIP
454 86 8 -0.834000 -0.860000 2.405000 3.867000 # O TIP
455 86 4 0.417000 0.019000 2.784000 3.859000 # H1 TIP
456 86 5 0.417000 -1.447000 3.159000 3.816000 # H2 TIP
457 87 8 -0.834000 -1.537000 -2.846000 -3.253000 # O TIP
458 87 4 0.417000 -2.191000 -2.165000 -3.094000 # H1 TIP
459 87 5 0.417000 -0.697000 -2.413000 -3.101000 # H2 TIP
460 88 8 -0.834000 2.166000 -1.232000 0.520000 # O TIP
461 88 4 0.417000 2.707000 -1.392000 1.293000 # H1 TIP
462 88 5 0.417000 1.957000 -0.299000 0.562000 # H2 TIP
463 89 8 -0.834000 2.008000 7.118000 -1.151000 # O TIP
464 89 4 0.417000 2.534000 6.325000 -1.246000 # H1 TIP
465 89 5 0.417000 1.763000 7.352000 -2.047000 # H2 TIP
466 90 8 -0.834000 0.815000 -7.803000 4.903000 # O TIP
467 90 4 0.417000 -0.033000 -8.184000 4.675000 # H1 TIP
468 90 5 0.417000 0.599000 -7.052000 5.457000 # H2 TIP
469 91 8 -0.834000 -3.535000 -4.551000 -2.365000 # O TIP
470 91 4 0.417000 -2.689000 -4.174000 -2.606000 # H1 TIP
471 91 5 0.417000 -4.150000 -3.819000 -2.424000 # H2 TIP
472 92 8 -0.834000 -5.950000 3.876000 -3.125000 # O TIP
473 92 4 0.417000 -6.299000 4.258000 -3.930000 # H1 TIP
474 92 5 0.417000 -6.300000 2.985000 -3.110000 # H2 TIP
475 93 8 -0.834000 -2.013000 7.195000 -3.974000 # O TIP
476 93 4 0.417000 -2.673000 6.899000 -3.348000 # H1 TIP
477 93 5 0.417000 -1.702000 8.029000 -3.619000 # H2 TIP
478 94 8 -0.834000 -0.838000 5.387000 -5.882000 # O TIP
479 94 4 0.417000 -1.695000 5.783000 -6.036000 # H1 TIP
480 94 5 0.417000 -0.224000 6.120000 -5.927000 # H2 TIP
481 95 8 -0.834000 3.228000 -5.608000 1.865000 # O TIP
482 95 4 0.417000 4.021000 -5.075000 1.818000 # H1 TIP
483 95 5 0.417000 3.543000 -6.511000 1.817000 # H2 TIP
484 96 8 -0.834000 1.300000 -0.358000 -3.732000 # O TIP
485 96 4 0.417000 1.960000 -0.855000 -3.249000 # H1 TIP
486 96 5 0.417000 0.775000 -1.025000 -4.177000 # H2 TIP
487 97 8 -0.834000 -0.724000 5.561000 -3.776000 # O TIP
488 97 4 0.417000 -0.104000 6.237000 -3.500000 # H1 TIP
489 97 5 0.417000 -1.583000 5.915000 -3.543000 # H2 TIP
490 98 8 -0.834000 -5.771000 -1.202000 0.183000 # O TIP
491 98 4 0.417000 -6.703000 -1.110000 -0.014000 # H1 TIP
492 98 5 0.417000 -5.633000 -2.146000 0.255000 # H2 TIP
493 99 8 -0.834000 3.295000 7.544000 -5.484000 # O TIP
494 99 4 0.417000 2.631000 7.112000 -6.020000 # H1 TIP
495 99 5 0.417000 2.878000 7.656000 -4.629000 # H2 TIP
496 100 8 -0.834000 7.436000 1.409000 -4.149000 # O TIP
497 100 4 0.417000 7.255000 1.943000 -3.375000 # H1 TIP
498 100 5 0.417000 6.741000 0.750000 -4.153000 # H2 TIP
499 101 8 -0.834000 6.208000 -4.105000 3.224000 # O TIP
500 101 4 0.417000 6.187000 -3.687000 2.363000 # H1 TIP
501 101 5 0.417000 6.391000 -3.390000 3.834000 # H2 TIP
502 102 8 -0.834000 -2.253000 0.713000 2.698000 # O TIP
503 102 4 0.417000 -2.163000 0.277000 3.545000 # H1 TIP
504 102 5 0.417000 -3.002000 1.300000 2.808000 # H2 TIP
505 103 8 -0.834000 1.894000 -7.162000 -0.205000 # O TIP
506 103 4 0.417000 1.386000 -7.857000 0.213000 # H1 TIP
507 103 5 0.417000 1.237000 -6.583000 -0.592000 # H2 TIP
508 104 8 -0.834000 -4.416000 2.645000 -2.247000 # O TIP
509 104 4 0.417000 -4.062000 3.470000 -1.917000 # H1 TIP
510 104 5 0.417000 -5.115000 2.906000 -2.847000 # H2 TIP
511 105 8 -0.834000 -0.139000 7.065000 6.010000 # O TIP
512 105 4 0.417000 -0.377000 6.140000 6.060000 # H1 TIP
513 105 5 0.417000 0.786000 7.088000 6.255000 # H2 TIP
514 106 8 -0.834000 -2.561000 0.680000 -5.527000 # O TIP
515 106 4 0.417000 -2.628000 0.096000 -6.282000 # H1 TIP
516 106 5 0.417000 -3.332000 0.478000 -4.998000 # H2 TIP
517 107 8 -0.834000 -1.218000 -3.695000 3.934000 # O TIP
518 107 4 0.417000 -0.822000 -4.388000 3.404000 # H1 TIP
519 107 5 0.417000 -2.161000 -3.836000 3.847000 # H2 TIP
520 108 8 -0.834000 3.008000 2.140000 5.317000 # O TIP
521 108 4 0.417000 3.377000 1.836000 6.146000 # H1 TIP
522 108 5 0.417000 3.770000 2.384000 4.790000 # H2 TIP
523 109 8 -0.834000 -5.641000 -4.756000 2.148000 # O TIP
524 109 4 0.417000 -5.159000 -5.573000 2.021000 # H1 TIP
525 109 5 0.417000 -6.562000 -5.005000 2.067000 # H2 TIP
526 110 8 -0.834000 -1.129000 6.869000 3.825000 # O TIP
527 110 4 0.417000 -1.177000 7.065000 4.761000 # H1 TIP
528 110 5 0.417000 -2.029000 6.967000 3.514000 # H2 TIP