LAMMPS data file. CGCMM style. atom_style full generated by VMD/TopoTools v1.8 on Sat May 03 18:11:25 EDT 2025
 619 atoms
 262 bonds
 131 angles
 0 dihedrals
 0 impropers
 13 atom types
 1 bond types
 1 angle types
 0 dihedral types
 0 improper types
 -0.000000 25.000000  xlo xhi
 0.000000 25.000000  ylo yhi
 0.038000 12.538000  zlo zhi

# Pair Coeffs
#
# 1  CL
# 2  CR
# 3  H
# 4  H1
# 5  H2
# 6  Mo
# 7  NA
# 8  O
# 9  O1
# 10  O2
# 11  O3
# 12  O4
# 13  S

# Bond Coeffs
#
# 1  

# Angle Coeffs
#
# 1  unknown

 Masses

 1 35.452999 # CL
 2 12.011000 # CR
 3 1.008000 # H
 4 1.008000 # H1
 5 1.008000 # H2
 6 95.940002 # Mo
 7 22.989771 # NA
 8 15.999000 # O
 9 15.999000 # O1
 10 15.999000 # O2
 11 15.999000 # O3
 12 15.999000 # O4
 13 32.064999 # S

 Atoms # full

1 1 6 0.734000 22.143000 12.500000 3.120000 # Mo MOL
2 1 13 -0.374600 22.099001 13.417000 4.685000 # S MOL
3 1 13 -0.374600 22.099001 13.417000 1.555000 # S MOL
4 1 6 0.734000 22.143000 12.500000 6.250000 # Mo MOL
5 1 13 -0.374600 22.099001 13.417000 7.815000 # S MOL
6 1 13 -0.374600 22.099001 13.417000 4.685000 # S MOL
7 1 6 0.734000 22.143000 12.500000 9.380000 # Mo MOL
8 1 13 -0.374600 22.099001 13.417000 10.945000 # S MOL
9 1 13 -0.374600 22.099001 13.417000 7.815000 # S MOL
10 1 6 0.734000 21.752001 15.217000 3.120000 # Mo MOL
11 1 13 -0.374600 21.452000 16.084000 4.685000 # S MOL
12 1 13 -0.374600 21.452000 16.084000 1.555000 # S MOL
13 1 6 0.734000 21.752001 15.217000 6.250000 # Mo MOL
14 1 13 -0.374600 21.452000 16.084000 7.815000 # S MOL
15 1 13 -0.374600 21.452000 16.084000 4.685000 # S MOL
16 1 6 0.734000 21.752001 15.217000 9.380000 # Mo MOL
17 1 13 -0.374600 21.452000 16.084000 10.945000 # S MOL
18 1 13 -0.374600 21.452000 16.084000 7.815000 # S MOL
19 1 6 0.734000 20.612000 17.712999 3.120000 # Mo MOL
20 1 13 -0.374600 20.080000 18.461000 4.685000 # S MOL
21 1 13 -0.374600 20.080000 18.461000 1.555000 # S MOL
22 1 6 0.734000 20.612000 17.712999 6.250000 # Mo MOL
23 1 13 -0.374600 20.080000 18.461000 7.815000 # S MOL
24 1 13 -0.374600 20.080000 18.461000 4.685000 # S MOL
25 1 6 0.734000 20.612000 17.712999 9.380000 # Mo MOL
26 1 13 -0.374600 20.080000 18.461000 10.945000 # S MOL
27 1 13 -0.374600 20.080000 18.461000 7.815000 # S MOL
28 1 6 0.734000 18.815001 19.787001 3.120000 # Mo MOL
29 1 13 -0.374600 18.093000 20.355000 4.685000 # S MOL
30 1 13 -0.374600 18.093000 20.355000 1.555000 # S MOL
31 1 6 0.734000 18.815001 19.787001 6.250000 # Mo MOL
32 1 13 -0.374600 18.093000 20.355000 7.815000 # S MOL
33 1 13 -0.374600 18.093000 20.355000 4.685000 # S MOL
34 1 6 0.734000 18.815001 19.787001 9.380000 # Mo MOL
35 1 13 -0.374600 18.093000 20.355000 10.945000 # S MOL
36 1 13 -0.374600 18.093000 20.355000 7.815000 # S MOL
37 1 6 0.734000 16.506001 21.271000 3.120000 # Mo MOL
38 1 13 -0.374600 15.654000 21.612000 4.685000 # S MOL
39 1 13 -0.374600 15.654000 21.612000 1.555000 # S MOL
40 1 6 0.734000 16.506001 21.271000 6.250000 # Mo MOL
41 1 13 -0.374600 15.654000 21.612000 7.815000 # S MOL
42 1 13 -0.374600 15.654000 21.612000 4.685000 # S MOL
43 1 6 0.734000 16.506001 21.271000 9.380000 # Mo MOL
44 1 13 -0.374600 15.654000 21.612000 10.945000 # S MOL
45 1 13 -0.374600 15.654000 21.612000 7.815000 # S MOL
46 1 6 0.734000 13.872000 22.045000 3.120000 # Mo MOL
47 1 13 -0.374600 12.959000 22.132000 4.685000 # S MOL
48 1 13 -0.374600 12.959000 22.132000 1.555000 # S MOL
49 1 6 0.734000 13.872000 22.045000 6.250000 # Mo MOL
50 1 13 -0.374600 12.959000 22.132000 7.815000 # S MOL
51 1 13 -0.374600 12.959000 22.132000 4.685000 # S MOL
52 1 6 0.734000 13.872000 22.045000 9.380000 # Mo MOL
53 1 13 -0.374600 12.959000 22.132000 10.945000 # S MOL
54 1 13 -0.374600 12.959000 22.132000 7.815000 # S MOL
55 1 6 0.734000 11.128000 22.045000 3.120000 # Mo MOL
56 1 13 -0.374600 10.227000 21.871000 4.685000 # S MOL
57 1 13 -0.374600 10.227000 21.871000 1.555000 # S MOL
58 1 6 0.734000 11.128000 22.045000 6.250000 # Mo MOL
59 1 13 -0.374600 10.227000 21.871000 7.815000 # S MOL
60 1 13 -0.374600 10.227000 21.871000 4.685000 # S MOL
61 1 6 0.734000 11.128000 22.045000 9.380000 # Mo MOL
62 1 13 -0.374600 10.227000 21.871000 10.945000 # S MOL
63 1 13 -0.374600 10.227000 21.871000 7.815000 # S MOL
64 1 6 0.734000 8.494000 21.271000 3.120000 # Mo MOL
65 1 13 -0.374600 7.679000 20.851000 4.685000 # S MOL
66 1 13 -0.374600 7.679000 20.851000 1.555000 # S MOL
67 1 6 0.734000 8.494000 21.271000 6.250000 # Mo MOL
68 1 13 -0.374600 7.679000 20.851000 7.815000 # S MOL
69 1 13 -0.374600 7.679000 20.851000 4.685000 # S MOL
70 1 6 0.734000 8.494000 21.271000 9.380000 # Mo MOL
71 1 13 -0.374600 7.679000 20.851000 10.945000 # S MOL
72 1 13 -0.374600 7.679000 20.851000 7.815000 # S MOL
73 1 6 0.734000 6.185000 19.787001 3.120000 # Mo MOL
74 1 13 -0.374600 5.521000 19.153999 4.685000 # S MOL
75 1 13 -0.374600 5.521000 19.153999 1.555000 # S MOL
76 1 6 0.734000 6.185000 19.787001 6.250000 # Mo MOL
77 1 13 -0.374600 5.521000 19.153999 7.815000 # S MOL
78 1 13 -0.374600 5.521000 19.153999 4.685000 # S MOL
79 1 6 0.734000 6.185000 19.787001 9.380000 # Mo MOL
80 1 13 -0.374600 5.521000 19.153999 10.945000 # S MOL
81 1 13 -0.374600 5.521000 19.153999 7.815000 # S MOL
82 1 6 0.734000 4.388000 17.712999 3.120000 # Mo MOL
83 1 13 -0.374600 3.929000 16.919001 4.685000 # S MOL
84 1 13 -0.374600 3.929000 16.919001 1.555000 # S MOL
85 1 6 0.734000 4.388000 17.712999 6.250000 # Mo MOL
86 1 13 -0.374600 3.929000 16.919001 7.815000 # S MOL
87 1 13 -0.374600 3.929000 16.919001 4.685000 # S MOL
88 1 6 0.734000 4.388000 17.712999 9.380000 # Mo MOL
89 1 13 -0.374600 3.929000 16.919001 10.945000 # S MOL
90 1 13 -0.374600 3.929000 16.919001 7.815000 # S MOL
91 1 6 0.734000 3.248000 15.217000 3.120000 # Mo MOL
92 1 13 -0.374600 3.032000 14.325000 4.685000 # S MOL
93 1 13 -0.374600 3.032000 14.325000 1.555000 # S MOL
94 1 6 0.734000 3.248000 15.217000 6.250000 # Mo MOL
95 1 13 -0.374600 3.032000 14.325000 7.815000 # S MOL
96 1 13 -0.374600 3.032000 14.325000 4.685000 # S MOL
97 1 6 0.734000 3.248000 15.217000 9.380000 # Mo MOL
98 1 13 -0.374600 3.032000 14.325000 10.945000 # S MOL
99 1 13 -0.374600 3.032000 14.325000 7.815000 # S MOL
100 1 6 0.734000 2.857000 12.500000 3.120000 # Mo MOL
101 1 13 -0.374600 2.901000 11.583000 4.685000 # S MOL
102 1 13 -0.374600 2.901000 11.583000 1.555000 # S MOL
103 1 6 0.734000 2.857000 12.500000 6.250000 # Mo MOL
104 1 13 -0.374600 2.901000 11.583000 7.815000 # S MOL
105 1 13 -0.374600 2.901000 11.583000 4.685000 # S MOL
106 1 6 0.734000 2.857000 12.500000 9.380000 # Mo MOL
107 1 13 -0.374600 2.901000 11.583000 10.945000 # S MOL
108 1 13 -0.374600 2.901000 11.583000 7.815000 # S MOL
109 1 6 0.734000 3.248000 9.783000 3.120000 # Mo MOL
110 1 13 -0.374600 3.548000 8.916000 4.685000 # S MOL
111 1 13 -0.374600 3.548000 8.916000 1.555000 # S MOL
112 1 6 0.734000 3.248000 9.783000 6.250000 # Mo MOL
113 1 13 -0.374600 3.548000 8.916000 7.815000 # S MOL
114 1 13 -0.374600 3.548000 8.916000 4.685000 # S MOL
115 1 6 0.734000 3.248000 9.783000 9.380000 # Mo MOL
116 1 13 -0.374600 3.548000 8.916000 10.945000 # S MOL
117 1 13 -0.374600 3.548000 8.916000 7.815000 # S MOL
118 1 6 0.734000 4.388000 7.287000 3.120000 # Mo MOL
119 1 13 -0.374600 4.920000 6.539000 4.685000 # S MOL
120 1 13 -0.374600 4.920000 6.539000 1.555000 # S MOL
121 1 6 0.734000 4.388000 7.287000 6.250000 # Mo MOL
122 1 13 -0.374600 4.920000 6.539000 7.815000 # S MOL
123 1 13 -0.374600 4.920000 6.539000 4.685000 # S MOL
124 1 6 0.734000 4.388000 7.287000 9.380000 # Mo MOL
125 1 13 -0.374600 4.920000 6.539000 10.945000 # S MOL
126 1 13 -0.374600 4.920000 6.539000 7.815000 # S MOL
127 1 6 0.734000 6.185000 5.213000 3.120000 # Mo MOL
128 1 13 -0.374600 6.907000 4.645000 4.685000 # S MOL
129 1 13 -0.374600 6.907000 4.645000 1.555000 # S MOL
130 1 6 0.734000 6.185000 5.213000 6.250000 # Mo MOL
131 1 13 -0.374600 6.907000 4.645000 7.815000 # S MOL
132 1 13 -0.374600 6.907000 4.645000 4.685000 # S MOL
133 1 6 0.734000 6.185000 5.213000 9.380000 # Mo MOL
134 1 13 -0.374600 6.907000 4.645000 10.945000 # S MOL
135 1 13 -0.374600 6.907000 4.645000 7.815000 # S MOL
136 1 6 0.734000 8.494000 3.729000 3.120000 # Mo MOL
137 1 13 -0.374600 9.346000 3.388000 4.685000 # S MOL
138 1 13 -0.374600 9.346000 3.388000 1.555000 # S MOL
139 1 6 0.734000 8.494000 3.729000 6.250000 # Mo MOL
140 1 13 -0.374600 9.346000 3.388000 7.815000 # S MOL
141 1 13 -0.374600 9.346000 3.388000 4.685000 # S MOL
142 1 6 0.734000 8.494000 3.729000 9.380000 # Mo MOL
143 1 13 -0.374600 9.346000 3.388000 10.945000 # S MOL
144 1 13 -0.374600 9.346000 3.388000 7.815000 # S MOL
145 1 6 0.734000 11.128000 2.955000 3.120000 # Mo MOL
146 1 13 -0.374600 12.041000 2.868000 4.685000 # S MOL
147 1 13 -0.374600 12.041000 2.868000 1.555000 # S MOL
148 1 6 0.734000 11.128000 2.955000 6.250000 # Mo MOL
149 1 13 -0.374600 12.041000 2.868000 7.815000 # S MOL
150 1 13 -0.374600 12.041000 2.868000 4.685000 # S MOL
151 1 6 0.734000 11.128000 2.955000 9.380000 # Mo MOL
152 1 13 -0.374600 12.041000 2.868000 10.945000 # S MOL
153 1 13 -0.374600 12.041000 2.868000 7.815000 # S MOL
154 1 6 0.734000 13.872000 2.955000 3.120000 # Mo MOL
155 1 13 -0.374600 14.773000 3.129000 4.685000 # S MOL
156 1 13 -0.374600 14.773000 3.129000 1.555000 # S MOL
157 1 6 0.734000 13.872000 2.955000 6.250000 # Mo MOL
158 1 13 -0.374600 14.773000 3.129000 7.815000 # S MOL
159 1 13 -0.374600 14.773000 3.129000 4.685000 # S MOL
160 1 6 0.734000 13.872000 2.955000 9.380000 # Mo MOL
161 1 13 -0.374600 14.773000 3.129000 10.945000 # S MOL
162 1 13 -0.374600 14.773000 3.129000 7.815000 # S MOL
163 1 6 0.734000 16.506001 3.729000 3.120000 # Mo MOL
164 1 13 -0.374600 17.320999 4.149000 4.685000 # S MOL
165 1 13 -0.374600 17.320999 4.149000 1.555000 # S MOL
166 1 6 0.734000 16.506001 3.729000 6.250000 # Mo MOL
167 1 13 -0.374600 17.320999 4.149000 7.815000 # S MOL
168 1 13 -0.374600 17.320999 4.149000 4.685000 # S MOL
169 1 6 0.734000 16.506001 3.729000 9.380000 # Mo MOL
170 1 13 -0.374600 17.320999 4.149000 10.945000 # S MOL
171 1 13 -0.374600 17.320999 4.149000 7.815000 # S MOL
172 1 6 0.734000 18.815001 5.213000 3.120000 # Mo MOL
173 1 13 -0.374600 19.479000 5.846000 4.685000 # S MOL
174 1 13 -0.374600 19.479000 5.846000 1.555000 # S MOL
175 1 6 0.734000 18.815001 5.213000 6.250000 # Mo MOL
176 1 13 -0.374600 19.479000 5.846000 7.815000 # S MOL
177 1 13 -0.374600 19.479000 5.846000 4.685000 # S MOL
178 1 6 0.734000 18.815001 5.213000 9.380000 # Mo MOL
179 1 13 -0.374600 19.479000 5.846000 10.945000 # S MOL
180 1 13 -0.374600 19.479000 5.846000 7.815000 # S MOL
181 1 6 0.734000 20.612000 7.287000 3.120000 # Mo MOL
182 1 13 -0.374600 21.070999 8.081000 4.685000 # S MOL
183 1 13 -0.374600 21.070999 8.081000 1.555000 # S MOL
184 1 6 0.734000 20.612000 7.287000 6.250000 # Mo MOL
185 1 13 -0.374600 21.070999 8.081000 7.815000 # S MOL
186 1 13 -0.374600 21.070999 8.081000 4.685000 # S MOL
187 1 6 0.734000 20.612000 7.287000 9.380000 # Mo MOL
188 1 13 -0.374600 21.070999 8.081000 10.945000 # S MOL
189 1 13 -0.374600 21.070999 8.081000 7.815000 # S MOL
190 1 6 0.734000 21.752001 9.783000 3.120000 # Mo MOL
191 1 13 -0.374600 21.968000 10.675000 4.685000 # S MOL
192 1 13 -0.374600 21.968000 10.675000 1.555000 # S MOL
193 1 6 0.734000 21.752001 9.783000 6.250000 # Mo MOL
194 1 13 -0.374600 21.968000 10.675000 7.815000 # S MOL
195 1 13 -0.374600 21.968000 10.675000 4.685000 # S MOL
196 1 6 0.734000 21.752001 9.783000 9.380000 # Mo MOL
197 1 13 -0.374600 21.968000 10.675000 10.945000 # S MOL
198 1 13 -0.374600 21.968000 10.675000 7.815000 # S MOL
199 2 2 0.813000 12.435000 15.633000 1.773000 # CR HCR
200 2 9 -0.703000 11.983000 14.125000 2.065000 # O1 HCR
201 2 10 -0.703000 13.986000 15.810000 2.167000 # O2 HCR
202 2 11 -0.703000 11.536000 16.636999 2.646000 # O3 HCR
203 2 12 -0.703000 12.232000 15.957000 0.213000 # O4 HCR
204 2 3 1.000000 11.814000 13.560000 2.174000 # H HCR
205 3 8 -0.834000 16.139999 15.489000 5.079000 # O TIP
206 3 4 0.417000 17.059999 15.284000 5.247000 # H1 TIP
207 3 5 0.417000 15.690000 15.250000 5.890000 # H2 TIP
208 4 8 -0.834000 10.044000 7.057000 5.300000 # O TIP
209 4 4 0.417000 10.586000 6.899000 6.073000 # H1 TIP
210 4 5 0.417000 10.672000 7.227000 4.597000 # H2 TIP
211 5 8 -0.834000 7.664000 9.902000 2.432000 # O TIP
212 5 4 0.417000 7.213000 10.741000 2.529000 # H1 TIP
213 5 5 0.417000 6.962000 9.252000 2.412000 # H2 TIP
214 6 8 -0.834000 11.577000 6.117000 12.318000 # O TIP
215 6 4 0.417000 11.660000 6.499000 11.444000 # H1 TIP
216 6 5 0.417000 10.737000 6.441000 12.643000 # H2 TIP
217 7 8 -0.834000 8.243000 9.902000 1.109000 # O TIP
218 7 4 0.417000 9.067000 10.377000 1.007000 # H1 TIP
219 7 5 0.417000 8.506000 8.988000 1.222000 # H2 TIP
220 8 8 -0.834000 11.959000 11.033000 9.324000 # O TIP
221 8 4 0.417000 12.912000 10.953000 9.290000 # H1 TIP
222 8 5 0.417000 11.799000 11.977000 9.343000 # H2 TIP
223 9 8 -0.834000 12.328000 7.508000 4.012000 # O TIP
224 9 4 0.417000 12.765000 8.241000 4.445000 # H1 TIP
225 9 5 0.417000 12.570000 7.596000 3.089000 # H2 TIP
226 10 8 -0.834000 18.271999 13.864000 12.120000 # O TIP
227 10 4 0.417000 18.261000 13.588000 11.203000 # H1 TIP
228 10 5 0.417000 17.379000 14.164000 12.291000 # H2 TIP
229 11 8 -0.834000 15.043000 5.739000 11.081000 # O TIP
230 11 4 0.417000 14.795000 5.939000 11.983000 # H1 TIP
231 11 5 0.417000 16.000999 5.753000 11.087000 # H2 TIP
232 12 8 -0.834000 7.894000 8.668000 -0.319000 # O TIP
233 12 4 0.417000 7.274000 9.396000 -0.368000 # H1 TIP
234 12 5 0.417000 8.682000 8.995000 -0.753000 # H2 TIP
235 13 8 -0.834000 12.348000 8.296000 11.555000 # O TIP
236 13 4 0.417000 12.076000 9.062000 11.050000 # H1 TIP
237 13 5 0.417000 12.967000 7.841000 10.984000 # H2 TIP
238 14 8 -0.834000 11.964000 16.853001 8.286000 # O TIP
239 14 4 0.417000 11.034000 16.625999 8.266000 # H1 TIP
240 14 5 0.417000 12.416000 16.009001 8.298000 # H2 TIP
241 15 8 -0.834000 9.858000 5.264000 2.415000 # O TIP
242 15 4 0.417000 10.496000 4.592000 2.177000 # H1 TIP
243 15 5 0.417000 9.025000 4.796000 2.468000 # H2 TIP
244 16 8 -0.834000 10.020000 15.702000 11.248000 # O TIP
245 16 4 0.417000 9.829000 15.270000 10.415000 # H1 TIP
246 16 5 0.417000 10.580000 15.083000 11.716000 # H2 TIP
247 17 8 -0.834000 10.004000 6.255000 0.390000 # O TIP
248 17 4 0.417000 9.423000 6.360000 -0.363000 # H1 TIP
249 17 5 0.417000 10.593000 5.542000 0.140000 # H2 TIP
250 18 8 -0.834000 10.983000 9.655000 6.935000 # O TIP
251 18 4 0.417000 10.984000 9.682000 5.979000 # H1 TIP
252 18 5 0.417000 10.381000 10.353000 7.195000 # H2 TIP
253 19 8 -0.834000 12.389000 10.855000 6.013000 # O TIP
254 19 4 0.417000 11.435000 10.842000 6.092000 # H1 TIP
255 19 5 0.417000 12.699000 11.108000 6.883000 # H2 TIP
256 20 8 -0.834000 9.611000 18.444000 6.764000 # O TIP
257 20 4 0.417000 9.571000 19.400000 6.754000 # H1 TIP
258 20 5 0.417000 10.546000 18.243000 6.718000 # H2 TIP
259 21 8 -0.834000 19.481001 12.157000 6.051000 # O TIP
260 21 4 0.417000 18.660000 12.548000 5.755000 # H1 TIP
261 21 5 0.417000 19.271999 11.232000 6.184000 # H2 TIP
262 22 8 -0.834000 12.004000 6.393000 7.061000 # O TIP
263 22 4 0.417000 12.933000 6.317000 6.843000 # H1 TIP
264 22 5 0.417000 11.722000 5.492000 7.225000 # H2 TIP
265 23 8 -0.834000 12.458000 8.732000 5.864000 # O TIP
266 23 4 0.417000 13.397000 8.625000 6.014000 # H1 TIP
267 23 5 0.417000 12.098000 7.850000 5.956000 # H2 TIP
268 24 8 -0.834000 7.310000 8.757000 3.595000 # O TIP
269 24 4 0.417000 7.956000 8.481000 2.945000 # H1 TIP
270 24 5 0.417000 6.823000 7.960000 3.804000 # H2 TIP
271 25 8 -0.834000 8.915000 13.915000 2.190000 # O TIP
272 25 4 0.417000 7.987000 13.695000 2.272000 # H1 TIP
273 25 5 0.417000 9.362000 13.068000 2.180000 # H2 TIP
274 26 8 -0.834000 17.775999 9.008000 11.373000 # O TIP
275 26 4 0.417000 18.028999 8.089000 11.465000 # H1 TIP
276 26 5 0.417000 16.882000 8.977000 11.032000 # H2 TIP
277 27 8 -0.834000 15.475000 9.873000 4.807000 # O TIP
278 27 4 0.417000 16.333000 9.456000 4.728000 # H1 TIP
279 27 5 0.417000 15.662000 10.738000 5.172000 # H2 TIP
280 28 8 -0.834000 13.320000 13.457000 7.686000 # O TIP
281 28 4 0.417000 12.924000 12.586000 7.683000 # H1 TIP
282 28 5 0.417000 12.576000 14.060000 7.688000 # H2 TIP
283 29 8 -0.834000 13.551000 18.551001 1.590000 # O TIP
284 29 4 0.417000 12.710000 18.920000 1.318000 # H1 TIP
285 29 5 0.417000 14.126000 19.311001 1.687000 # H2 TIP
286 30 8 -0.834000 13.543000 10.287000 4.722000 # O TIP
287 30 4 0.417000 13.054000 9.466000 4.678000 # H1 TIP
288 30 5 0.417000 14.431000 10.052000 4.453000 # H2 TIP
289 31 8 -0.834000 13.840000 9.615000 6.879000 # O TIP
290 31 4 0.417000 13.181000 10.113000 7.362000 # H1 TIP
291 31 5 0.417000 13.994000 8.837000 7.415000 # H2 TIP
292 32 8 -0.834000 8.061000 7.019000 8.175000 # O TIP
293 32 4 0.417000 8.360000 6.116000 8.071000 # H1 TIP
294 32 5 0.417000 8.864000 7.542000 8.154000 # H2 TIP
295 33 8 -0.834000 11.708000 13.305000 6.648000 # O TIP
296 33 4 0.417000 11.999000 12.406000 6.797000 # H1 TIP
297 33 5 0.417000 12.137000 13.564000 5.832000 # H2 TIP
298 34 8 -0.834000 15.716000 7.616000 7.986000 # O TIP
299 34 4 0.417000 15.385000 8.202000 8.666000 # H1 TIP
300 34 5 0.417000 14.990000 7.017000 7.810000 # H2 TIP
301 35 8 -0.834000 15.586000 4.480000 3.355000 # O TIP
302 35 4 0.417000 16.341000 5.057000 3.242000 # H1 TIP
303 35 5 0.417000 15.042000 4.643000 2.584000 # H2 TIP
304 36 8 -0.834000 18.702000 8.570000 1.218000 # O TIP
305 36 4 0.417000 19.527000 8.639000 1.698000 # H1 TIP
306 36 5 0.417000 18.296000 7.770000 1.552000 # H2 TIP
307 37 8 -0.834000 11.380000 5.057000 3.075000 # O TIP
308 37 4 0.417000 11.443000 5.839000 3.623000 # H1 TIP
309 37 5 0.417000 12.249000 4.658000 3.126000 # H2 TIP
310 38 8 -0.834000 7.005000 13.928000 3.459000 # O TIP
311 38 4 0.417000 7.862000 13.672000 3.799000 # H1 TIP
312 38 5 0.417000 6.427000 13.906000 4.222000 # H2 TIP
313 39 8 -0.834000 11.067000 11.926000 2.547000 # O TIP
314 39 4 0.417000 11.810000 12.528000 2.509000 # H1 TIP
315 39 5 0.417000 10.298000 12.496000 2.584000 # H2 TIP
316 40 8 -0.834000 13.998000 9.983000 1.818000 # O TIP
317 40 4 0.417000 14.483000 10.735000 1.478000 # H1 TIP
318 40 5 0.417000 14.665000 9.436000 2.235000 # H2 TIP
319 41 8 -0.834000 9.578000 19.465000 11.523000 # O TIP
320 41 4 0.417000 9.921000 18.601999 11.757000 # H1 TIP
321 41 5 0.417000 9.560000 19.465000 10.566000 # H2 TIP
322 42 8 -0.834000 17.761999 16.332001 10.972000 # O TIP
323 42 4 0.417000 18.569000 15.954000 11.322000 # H1 TIP
324 42 5 0.417000 17.096001 16.125999 11.628000 # H2 TIP
325 43 8 -0.834000 6.018000 11.347000 3.365000 # O TIP
326 43 4 0.417000 5.636000 11.571000 2.517000 # H1 TIP
327 43 5 0.417000 5.271000 11.076000 3.901000 # H2 TIP
328 44 8 -0.834000 8.949000 11.679000 2.074000 # O TIP
329 44 4 0.417000 8.124000 12.041000 2.397000 # H1 TIP
330 44 5 0.417000 8.892000 11.763000 1.122000 # H2 TIP
331 45 8 -0.834000 14.058000 7.958000 9.800000 # O TIP
332 45 4 0.417000 14.383000 8.309000 10.628000 # H1 TIP
333 45 5 0.417000 13.141000 7.742000 9.974000 # H2 TIP
334 46 8 -0.834000 17.643999 14.654000 4.448000 # O TIP
335 46 4 0.417000 18.334999 14.347000 5.034000 # H1 TIP
336 46 5 0.417000 17.756001 15.605000 4.422000 # H2 TIP
337 47 8 -0.834000 8.093000 11.975000 11.927000 # O TIP
338 47 4 0.417000 8.200000 11.074000 11.622000 # H1 TIP
339 47 5 0.417000 8.382000 12.514000 11.190000 # H2 TIP
340 48 8 -0.834000 9.030000 11.575000 5.817000 # O TIP
341 48 4 0.417000 8.625000 12.340000 6.227000 # H1 TIP
342 48 5 0.417000 9.939000 11.837000 5.668000 # H2 TIP
343 49 8 -0.834000 8.036000 14.896000 8.465000 # O TIP
344 49 4 0.417000 7.152000 15.259000 8.420000 # H1 TIP
345 49 5 0.417000 8.432000 15.125000 7.624000 # H2 TIP
346 50 8 -0.834000 17.643000 16.851000 9.952000 # O TIP
347 50 4 0.417000 16.729000 16.591000 9.839000 # H1 TIP
348 50 5 0.417000 17.600000 17.761000 10.246000 # H2 TIP
349 51 8 -0.834000 14.526000 7.871000 2.595000 # O TIP
350 51 4 0.417000 14.666000 7.250000 3.310000 # H1 TIP
351 51 5 0.417000 15.193000 8.545000 2.728000 # H2 TIP
352 52 8 -0.834000 13.894000 6.770000 0.932000 # O TIP
353 52 4 0.417000 13.154000 6.298000 0.551000 # H1 TIP
354 52 5 0.417000 14.664000 6.277000 0.649000 # H2 TIP
355 53 8 -0.834000 9.258000 5.497000 4.142000 # O TIP
356 53 4 0.417000 9.447000 6.042000 4.906000 # H1 TIP
357 53 5 0.417000 8.855000 6.096000 3.513000 # H2 TIP
358 54 8 -0.834000 8.906000 15.489000 9.050000 # O TIP
359 54 4 0.417000 9.813000 15.790000 9.107000 # H1 TIP
360 54 5 0.417000 8.391000 16.292000 8.969000 # H2 TIP
361 55 8 -0.834000 15.916000 7.635000 5.277000 # O TIP
362 55 4 0.417000 16.334999 6.976000 5.831000 # H1 TIP
363 55 5 0.417000 16.146000 7.379000 4.384000 # H2 TIP
364 56 8 -0.834000 14.789000 6.643000 5.538000 # O TIP
365 56 4 0.417000 14.552000 7.570000 5.518000 # H1 TIP
366 56 5 0.417000 13.970000 6.182000 5.356000 # H2 TIP
367 57 8 -0.834000 8.845000 16.552000 7.594000 # O TIP
368 57 4 0.417000 8.809000 16.399000 6.650000 # H1 TIP
369 57 5 0.417000 9.280000 17.400999 7.682000 # H2 TIP
370 58 8 -0.834000 5.446000 11.962000 0.240000 # O TIP
371 58 4 0.417000 4.778000 11.504000 -0.270000 # H1 TIP
372 58 5 0.417000 5.243000 12.890000 0.122000 # H2 TIP
373 59 8 -0.834000 9.115000 5.479000 9.715000 # O TIP
374 59 4 0.417000 9.139000 6.375000 10.052000 # H1 TIP
375 59 5 0.417000 8.183000 5.281000 9.626000 # H2 TIP
376 60 8 -0.834000 6.239000 8.828000 1.535000 # O TIP
377 60 4 0.417000 6.579000 9.500000 0.945000 # H1 TIP
378 60 5 0.417000 6.797000 8.066000 1.378000 # H2 TIP
379 61 8 -0.834000 6.682000 10.131000 11.916000 # O TIP
380 61 4 0.417000 6.489000 11.018000 11.613000 # H1 TIP
381 61 5 0.417000 7.620000 10.021000 11.756000 # H2 TIP
382 62 8 -0.834000 12.444000 20.118999 3.885000 # O TIP
383 62 4 0.417000 12.231000 19.188999 3.805000 # H1 TIP
384 62 5 0.417000 11.931000 20.417999 4.636000 # H2 TIP
385 63 8 -0.834000 16.271000 15.865000 7.827000 # O TIP
386 63 4 0.417000 15.621000 16.093000 7.163000 # H1 TIP
387 63 5 0.417000 15.817000 15.255000 8.409000 # H2 TIP
388 64 8 -0.834000 8.847000 5.692000 6.146000 # O TIP
389 64 4 0.417000 8.713000 4.793000 6.446000 # H1 TIP
390 64 5 0.417000 8.001000 5.951000 5.779000 # H2 TIP
391 65 8 -0.834000 16.521000 18.754999 8.724000 # O TIP
392 65 4 0.417000 15.846000 19.339001 9.069000 # H1 TIP
393 65 5 0.417000 17.089001 19.325001 8.205000 # H2 TIP
394 66 8 -0.834000 15.672000 18.124001 11.157000 # O TIP
395 66 4 0.417000 16.455999 17.641001 10.898000 # H1 TIP
396 66 5 0.417000 15.291000 18.424000 10.331000 # H2 TIP
397 67 8 -0.834000 9.985000 14.329000 3.903000 # O TIP
398 67 4 0.417000 9.123000 14.642000 3.632000 # H1 TIP
399 67 5 0.417000 9.897000 13.375000 3.926000 # H2 TIP
400 68 8 -0.834000 7.678000 16.077999 1.728000 # O TIP
401 68 4 0.417000 8.354000 16.466999 1.173000 # H1 TIP
402 68 5 0.417000 7.565000 16.705000 2.443000 # H2 TIP
403 69 8 -0.834000 16.577999 11.833000 9.617000 # O TIP
404 69 4 0.417000 16.377001 11.631000 10.531000 # H1 TIP
405 69 5 0.417000 17.461000 12.202000 9.643000 # H2 TIP
406 70 8 -0.834000 10.397000 8.099000 6.034000 # O TIP
407 70 4 0.417000 10.061000 8.995000 6.032000 # H1 TIP
408 70 5 0.417000 11.140000 8.122000 6.638000 # H2 TIP
409 71 8 -0.834000 12.954000 16.707001 10.677000 # O TIP
410 71 4 0.417000 13.748000 16.903000 10.180000 # H1 TIP
411 71 5 0.417000 12.374000 17.450001 10.506000 # H2 TIP
412 72 8 -0.834000 16.486000 14.608000 7.562000 # O TIP
413 72 4 0.417000 17.271999 14.969000 7.154000 # H1 TIP
414 72 5 0.417000 16.256001 13.855000 7.016000 # H2 TIP
415 73 8 -0.834000 17.612000 16.188999 1.921000 # O TIP
416 73 4 0.417000 16.719999 16.465000 1.712000 # H1 TIP
417 73 5 0.417000 18.171000 16.815001 1.460000 # H2 TIP
418 74 8 -0.834000 7.994000 14.573000 5.331000 # O TIP
419 74 4 0.417000 7.235000 13.998000 5.418000 # H1 TIP
420 74 5 0.417000 8.744000 13.978000 5.298000 # H2 TIP
421 75 8 -0.834000 12.120000 5.111000 1.618000 # O TIP
422 75 4 0.417000 12.826000 4.887000 1.012000 # H1 TIP
423 75 5 0.417000 12.261000 6.036000 1.819000 # H2 TIP
424 76 8 -0.834000 14.913000 13.081000 11.307000 # O TIP
425 76 4 0.417000 14.914000 14.036000 11.354000 # H1 TIP
426 76 5 0.417000 15.839000 12.838000 11.319000 # H2 TIP
427 77 8 -0.834000 7.995000 12.311000 8.229000 # O TIP
428 77 4 0.417000 7.439000 13.083000 8.120000 # H1 TIP
429 77 5 0.417000 8.864000 12.666000 8.419000 # H2 TIP
430 78 8 -0.834000 13.014000 12.441000 11.706000 # O TIP
431 78 4 0.417000 13.480000 11.828000 11.137000 # H1 TIP
432 78 5 0.417000 13.686000 12.777000 12.299000 # H2 TIP
433 79 8 -0.834000 17.275000 10.062000 6.950000 # O TIP
434 79 4 0.417000 17.295000 10.167000 5.999000 # H1 TIP
435 79 5 0.417000 16.343000 10.007000 7.166000 # H2 TIP
436 80 8 -0.834000 13.443000 7.652000 8.063000 # O TIP
437 80 4 0.417000 13.789000 7.306000 8.886000 # H1 TIP
438 80 5 0.417000 12.517000 7.408000 8.070000 # H2 TIP
439 81 8 -0.834000 8.737000 7.681000 5.824000 # O TIP
440 81 4 0.417000 8.994000 6.779000 6.016000 # H1 TIP
441 81 5 0.417000 7.791000 7.697000 5.970000 # H2 TIP
442 82 8 -0.834000 11.794000 15.955000 12.579000 # O TIP
443 82 4 0.417000 11.195000 16.698999 12.518000 # H1 TIP
444 82 5 0.417000 12.491000 16.155001 11.954000 # H2 TIP
445 83 8 -0.834000 9.647000 11.124000 10.387000 # O TIP
446 83 4 0.417000 10.272000 11.849000 10.399000 # H1 TIP
447 83 5 0.417000 8.852000 11.499000 10.008000 # H2 TIP
448 84 8 -0.834000 12.601000 10.410000 10.906000 # O TIP
449 84 4 0.417000 12.423000 11.291000 10.579000 # H1 TIP
450 84 5 0.417000 13.521000 10.432000 11.169000 # H2 TIP
451 85 8 -0.834000 14.109000 18.257999 6.149000 # O TIP
452 85 4 0.417000 13.902000 18.546000 7.038000 # H1 TIP
453 85 5 0.417000 14.331000 19.063999 5.682000 # H2 TIP
454 86 8 -0.834000 13.993000 11.144000 11.911000 # O TIP
455 86 4 0.417000 13.269000 11.344000 12.504000 # H1 TIP
456 86 5 0.417000 14.667000 11.789000 12.127000 # H2 TIP
457 87 8 -0.834000 9.032000 9.551000 5.490000 # O TIP
458 87 4 0.417000 8.913000 9.699000 6.428000 # H1 TIP
459 87 5 0.417000 8.552000 8.742000 5.313000 # H2 TIP
460 88 8 -0.834000 7.447000 11.746000 0.075000 # O TIP
461 88 4 0.417000 7.033000 12.397000 -0.491000 # H1 TIP
462 88 5 0.417000 6.748000 11.462000 0.665000 # H2 TIP
463 89 8 -0.834000 11.276000 15.500000 10.244000 # O TIP
464 89 4 0.417000 11.117000 15.042000 9.419000 # H1 TIP
465 89 5 0.417000 11.448000 14.803000 10.877000 # H2 TIP
466 90 8 -0.834000 10.897000 9.800000 2.941000 # O TIP
467 90 4 0.417000 11.561000 9.781000 3.630000 # H1 TIP
468 90 5 0.417000 11.114000 10.574000 2.420000 # H2 TIP
469 91 8 -0.834000 14.528000 11.709000 7.148000 # O TIP
470 91 4 0.417000 15.268000 11.882000 6.566000 # H1 TIP
471 91 5 0.417000 14.248000 10.821000 6.924000 # H2 TIP
472 92 8 -0.834000 14.908000 19.612000 4.738000 # O TIP
473 92 4 0.417000 13.980000 19.805000 4.869000 # H1 TIP
474 92 5 0.417000 14.916000 18.879000 4.122000 # H2 TIP
475 93 8 -0.834000 13.105000 5.585000 11.019000 # O TIP
476 93 4 0.417000 12.701000 5.413000 10.168000 # H1 TIP
477 93 5 0.417000 13.147000 4.727000 11.442000 # H2 TIP
478 94 8 -0.834000 9.550000 8.527000 4.497000 # O TIP
479 94 4 0.417000 9.523000 9.480000 4.412000 # H1 TIP
480 94 5 0.417000 8.653000 8.244000 4.322000 # H2 TIP
481 95 8 -0.834000 6.324000 16.340000 2.512000 # O TIP
482 95 4 0.417000 5.976000 15.479000 2.280000 # H1 TIP
483 95 5 0.417000 5.856000 16.580000 3.312000 # H2 TIP
484 96 8 -0.834000 10.335000 19.704000 2.836000 # O TIP
485 96 4 0.417000 10.959000 20.357000 2.518000 # H1 TIP
486 96 5 0.417000 9.841000 19.447001 2.057000 # H2 TIP
487 97 8 -0.834000 11.932000 18.042000 0.317000 # O TIP
488 97 4 0.417000 12.673000 18.510000 -0.067000 # H1 TIP
489 97 5 0.417000 11.160000 18.444000 -0.084000 # H2 TIP
490 98 8 -0.834000 16.577000 6.764000 8.050000 # O TIP
491 98 4 0.417000 16.122000 6.769000 7.208000 # H1 TIP
492 98 5 0.417000 15.908000 6.504000 8.684000 # H2 TIP
493 99 8 -0.834000 14.097000 11.561000 2.215000 # O TIP
494 99 4 0.417000 14.517000 12.420000 2.257000 # H1 TIP
495 99 5 0.417000 13.160000 11.749000 2.282000 # H2 TIP
496 100 8 -0.834000 11.686000 18.068001 2.119000 # O TIP
497 100 4 0.417000 11.162000 18.844999 2.311000 # H1 TIP
498 100 5 0.417000 12.591000 18.347000 2.261000 # H2 TIP
499 101 8 -0.834000 5.426000 10.271000 5.140000 # O TIP
500 101 4 0.417000 5.191000 9.507000 5.666000 # H1 TIP
501 101 5 0.417000 5.845000 10.869000 5.759000 # H2 TIP
502 102 8 -0.834000 15.199000 20.153999 0.855000 # O TIP
503 102 4 0.417000 15.725000 19.360001 0.758000 # H1 TIP
504 102 5 0.417000 14.953000 20.389000 -0.040000 # H2 TIP
505 103 8 -0.834000 19.993000 13.737000 1.988000 # O TIP
506 103 4 0.417000 19.132999 13.364000 1.795000 # H1 TIP
507 103 5 0.417000 19.806000 14.502000 2.533000 # H2 TIP
508 104 8 -0.834000 16.738001 8.405000 9.029000 # O TIP
509 104 4 0.417000 17.646999 8.414000 8.730000 # H1 TIP
510 104 5 0.417000 16.434000 9.304000 8.901000 # H2 TIP
511 105 8 -0.834000 10.342000 13.703000 9.376000 # O TIP
512 105 4 0.417000 9.979000 14.062000 8.567000 # H1 TIP
513 105 5 0.417000 10.023000 12.800000 9.402000 # H2 TIP
514 106 8 -0.834000 15.365000 4.118000 5.845000 # O TIP
515 106 4 0.417000 14.751000 4.568000 6.425000 # H1 TIP
516 106 5 0.417000 16.125999 4.697000 5.806000 # H2 TIP
517 107 8 -0.834000 8.584000 15.786000 3.726000 # O TIP
518 107 4 0.417000 7.634000 15.675000 3.714000 # H1 TIP
519 107 5 0.417000 8.715000 16.735001 3.717000 # H2 TIP
520 108 8 -0.834000 12.220000 19.386000 12.429000 # O TIP
521 108 4 0.417000 13.010000 19.923000 12.381000 # H1 TIP
522 108 5 0.417000 12.539000 18.483999 12.380000 # H2 TIP
523 109 8 -0.834000 9.582000 13.988000 0.407000 # O TIP
524 109 4 0.417000 10.207000 13.432000 0.873000 # H1 TIP
525 109 5 0.417000 9.011000 13.372000 -0.053000 # H2 TIP
526 110 8 -0.834000 11.031000 7.615000 9.338000 # O TIP
527 110 4 0.417000 11.917000 7.887000 9.575000 # H1 TIP
528 110 5 0.417000 10.461000 8.265000 9.751000 # H2 TIP
529 111 8 -0.834000 15.068000 14.654000 12.850000 # O TIP
530 111 4 0.417000 14.811000 13.753000 12.658000 # H1 TIP