LAMMPS data file. CGCMM style. atom_style full generated by VMD/TopoTools v1.8 on Sat May 03 07:10:25 EDT 2025
 2106 atoms
 1803 bonds
 0 angles
 0 dihedrals
 0 impropers
 13 atom types
 1 bond types
 0 angle types
 0 dihedral types
 0 improper types
 -150.000000 150.000000  xlo xhi
 -150.000000 150.000000  ylo yhi
 -6.219000 6.281000  zlo zhi

# Pair Coeffs
#
# 1  CL
# 2  CR
# 3  H
# 4  H1
# 5  H2
# 6  Mo
# 7  NA
# 8  O
# 9  O1
# 10  O2
# 11  O3
# 12  O4
# 13  S

# Bond Coeffs
#
# 1  

 Masses

 1 35.452999 # CL
 2 12.011000 # CR
 3 1.008000 # H
 4 1.008000 # H1
 5 1.008000 # H2
 6 95.940002 # Mo
 7 22.989771 # NA
 8 15.999000 # O
 9 15.999000 # O1
 10 15.999000 # O2
 11 15.999000 # O3
 12 15.999000 # O4
 13 32.064999 # S

 Atoms # full

1 1 6 0.734000 20.162001 0.000000 -3.130000 # Mo MOL
2 1 13 -0.370000 20.141001 0.918000 -1.565000 # S MOL
3 1 13 -0.370000 20.141001 0.918000 -4.695000 # S MOL
4 1 6 0.734000 20.162001 0.000000 0.000000 # Mo MOL
5 1 13 -0.370000 20.141001 0.918000 1.565000 # S MOL
6 1 13 -0.370000 20.141001 0.918000 -1.565000 # S MOL
7 1 6 0.734000 20.162001 0.000000 3.130000 # Mo MOL
8 1 13 -0.370000 20.141001 0.918000 4.695000 # S MOL
9 1 13 -0.370000 20.141001 0.918000 1.565000 # S MOL
10 1 6 0.734000 19.974001 2.745000 -3.130000 # Mo MOL
11 1 13 -0.370000 19.829000 3.652000 -1.565000 # S MOL
12 1 13 -0.370000 19.829000 3.652000 -4.695000 # S MOL
13 1 6 0.734000 19.974001 2.745000 0.000000 # Mo MOL
14 1 13 -0.370000 19.829000 3.652000 1.565000 # S MOL
15 1 13 -0.370000 19.829000 3.652000 -1.565000 # S MOL
16 1 6 0.734000 19.974001 2.745000 3.130000 # Mo MOL
17 1 13 -0.370000 19.829000 3.652000 4.695000 # S MOL
18 1 13 -0.370000 19.829000 3.652000 1.565000 # S MOL
19 1 6 0.734000 19.414000 5.440000 -3.130000 # Mo MOL
20 1 13 -0.370000 19.146999 6.318000 -1.565000 # S MOL
21 1 13 -0.370000 19.146999 6.318000 -4.695000 # S MOL
22 1 6 0.734000 19.414000 5.440000 0.000000 # Mo MOL
23 1 13 -0.370000 19.146999 6.318000 1.565000 # S MOL
24 1 13 -0.370000 19.146999 6.318000 -1.565000 # S MOL
25 1 6 0.734000 19.414000 5.440000 3.130000 # Mo MOL
26 1 13 -0.370000 19.146999 6.318000 4.695000 # S MOL
27 1 13 -0.370000 19.146999 6.318000 1.565000 # S MOL
28 1 6 0.734000 18.493000 8.033000 -3.130000 # Mo MOL
29 1 13 -0.370000 18.108000 8.866000 -1.565000 # S MOL
30 1 13 -0.370000 18.108000 8.866000 -4.695000 # S MOL
31 1 6 0.734000 18.493000 8.033000 0.000000 # Mo MOL
32 1 13 -0.370000 18.108000 8.866000 1.565000 # S MOL
33 1 13 -0.370000 18.108000 8.866000 -1.565000 # S MOL
34 1 6 0.734000 18.493000 8.033000 3.130000 # Mo MOL
35 1 13 -0.370000 18.108000 8.866000 4.695000 # S MOL
36 1 13 -0.370000 18.108000 8.866000 1.565000 # S MOL
37 1 6 0.734000 17.226999 10.476000 -3.130000 # Mo MOL
38 1 13 -0.370000 16.732000 11.249000 -1.565000 # S MOL
39 1 13 -0.370000 16.732000 11.249000 -4.695000 # S MOL
40 1 6 0.734000 17.226999 10.476000 0.000000 # Mo MOL
41 1 13 -0.370000 16.732000 11.249000 1.565000 # S MOL
42 1 13 -0.370000 16.732000 11.249000 -1.565000 # S MOL
43 1 6 0.734000 17.226999 10.476000 3.130000 # Mo MOL
44 1 13 -0.370000 16.732000 11.249000 4.695000 # S MOL
45 1 13 -0.370000 16.732000 11.249000 1.565000 # S MOL
46 1 6 0.734000 15.640000 12.724000 -3.130000 # Mo MOL
47 1 13 -0.370000 15.045000 13.423000 -1.565000 # S MOL
48 1 13 -0.370000 15.045000 13.423000 -4.695000 # S MOL
49 1 6 0.734000 15.640000 12.724000 0.000000 # Mo MOL
50 1 13 -0.370000 15.045000 13.423000 1.565000 # S MOL
51 1 13 -0.370000 15.045000 13.423000 -1.565000 # S MOL
52 1 6 0.734000 15.640000 12.724000 3.130000 # Mo MOL
53 1 13 -0.370000 15.045000 13.423000 4.695000 # S MOL
54 1 13 -0.370000 15.045000 13.423000 1.565000 # S MOL
55 1 6 0.734000 13.762000 14.735000 -3.130000 # Mo MOL
56 1 13 -0.370000 13.077000 15.346000 -1.565000 # S MOL
57 1 13 -0.370000 13.077000 15.346000 -4.695000 # S MOL
58 1 6 0.734000 13.762000 14.735000 0.000000 # Mo MOL
59 1 13 -0.370000 13.077000 15.346000 1.565000 # S MOL
60 1 13 -0.370000 13.077000 15.346000 -1.565000 # S MOL
61 1 6 0.734000 13.762000 14.735000 3.130000 # Mo MOL
62 1 13 -0.370000 13.077000 15.346000 4.695000 # S MOL
63 1 13 -0.370000 13.077000 15.346000 1.565000 # S MOL
64 1 6 0.734000 11.627000 16.472000 -3.130000 # Mo MOL
65 1 13 -0.370000 10.865000 16.983999 -1.565000 # S MOL
66 1 13 -0.370000 10.865000 16.983999 -4.695000 # S MOL
67 1 6 0.734000 11.627000 16.472000 0.000000 # Mo MOL
68 1 13 -0.370000 10.865000 16.983999 1.565000 # S MOL
69 1 13 -0.370000 10.865000 16.983999 -1.565000 # S MOL
70 1 6 0.734000 11.627000 16.472000 3.130000 # Mo MOL
71 1 13 -0.370000 10.865000 16.983999 4.695000 # S MOL
72 1 13 -0.370000 10.865000 16.983999 1.565000 # S MOL
73 1 6 0.734000 9.276000 17.902000 -3.130000 # Mo MOL
74 1 13 -0.370000 8.451000 18.305000 -1.565000 # S MOL
75 1 13 -0.370000 8.451000 18.305000 -4.695000 # S MOL
76 1 6 0.734000 9.276000 17.902000 0.000000 # Mo MOL
77 1 13 -0.370000 8.451000 18.305000 1.565000 # S MOL
78 1 13 -0.370000 8.451000 18.305000 -1.565000 # S MOL
79 1 6 0.734000 9.276000 17.902000 3.130000 # Mo MOL
80 1 13 -0.370000 8.451000 18.305000 4.695000 # S MOL
81 1 13 -0.370000 8.451000 18.305000 1.565000 # S MOL
82 1 6 0.734000 6.752000 18.997999 -3.130000 # Mo MOL
83 1 13 -0.370000 5.880000 19.285999 -1.565000 # S MOL
84 1 13 -0.370000 5.880000 19.285999 -4.695000 # S MOL
85 1 6 0.734000 6.752000 18.997999 0.000000 # Mo MOL
86 1 13 -0.370000 5.880000 19.285999 1.565000 # S MOL
87 1 13 -0.370000 5.880000 19.285999 -1.565000 # S MOL
88 1 6 0.734000 6.752000 18.997999 3.130000 # Mo MOL
89 1 13 -0.370000 5.880000 19.285999 4.695000 # S MOL
90 1 13 -0.370000 5.880000 19.285999 1.565000 # S MOL
91 1 6 0.734000 4.102000 19.740000 -3.130000 # Mo MOL
92 1 13 -0.370000 3.199000 19.907000 -1.565000 # S MOL
93 1 13 -0.370000 3.199000 19.907000 -4.695000 # S MOL
94 1 6 0.734000 4.102000 19.740000 0.000000 # Mo MOL
95 1 13 -0.370000 3.199000 19.907000 1.565000 # S MOL
96 1 13 -0.370000 3.199000 19.907000 -1.565000 # S MOL
97 1 6 0.734000 4.102000 19.740000 3.130000 # Mo MOL
98 1 13 -0.370000 3.199000 19.907000 4.695000 # S MOL
99 1 13 -0.370000 3.199000 19.907000 1.565000 # S MOL
100 1 6 0.734000 1.376000 20.115000 -3.130000 # Mo MOL
101 1 13 -0.370000 0.459000 20.157000 -1.565000 # S MOL
102 1 13 -0.370000 0.459000 20.157000 -4.695000 # S MOL
103 1 6 0.734000 1.376000 20.115000 0.000000 # Mo MOL
104 1 13 -0.370000 0.459000 20.157000 1.565000 # S MOL
105 1 13 -0.370000 0.459000 20.157000 -1.565000 # S MOL
106 1 6 0.734000 1.376000 20.115000 3.130000 # Mo MOL
107 1 13 -0.370000 0.459000 20.157000 4.695000 # S MOL
108 1 13 -0.370000 0.459000 20.157000 1.565000 # S MOL
109 1 6 0.734000 -1.376000 20.115000 -3.130000 # Mo MOL
110 1 13 -0.370000 -2.290000 20.032000 -1.565000 # S MOL
111 1 13 -0.370000 -2.290000 20.032000 -4.695000 # S MOL
112 1 6 0.734000 -1.376000 20.115000 0.000000 # Mo MOL
113 1 13 -0.370000 -2.290000 20.032000 1.565000 # S MOL
114 1 13 -0.370000 -2.290000 20.032000 -1.565000 # S MOL
115 1 6 0.734000 -1.376000 20.115000 3.130000 # Mo MOL
116 1 13 -0.370000 -2.290000 20.032000 4.695000 # S MOL
117 1 13 -0.370000 -2.290000 20.032000 1.565000 # S MOL
118 1 6 0.734000 -4.102000 19.740000 -3.130000 # Mo MOL
119 1 13 -0.370000 -4.996000 19.533001 -1.565000 # S MOL
120 1 13 -0.370000 -4.996000 19.533001 -4.695000 # S MOL
121 1 6 0.734000 -4.102000 19.740000 0.000000 # Mo MOL
122 1 13 -0.370000 -4.996000 19.533001 1.565000 # S MOL
123 1 13 -0.370000 -4.996000 19.533001 -1.565000 # S MOL
124 1 6 0.734000 -4.102000 19.740000 3.130000 # Mo MOL
125 1 13 -0.370000 -4.996000 19.533001 4.695000 # S MOL
126 1 13 -0.370000 -4.996000 19.533001 1.565000 # S MOL
127 1 6 0.734000 -6.752000 18.997999 -3.130000 # Mo MOL
128 1 13 -0.370000 -7.610000 18.671000 -1.565000 # S MOL
129 1 13 -0.370000 -7.610000 18.671000 -4.695000 # S MOL
130 1 6 0.734000 -6.752000 18.997999 0.000000 # Mo MOL
131 1 13 -0.370000 -7.610000 18.671000 1.565000 # S MOL
132 1 13 -0.370000 -7.610000 18.671000 -1.565000 # S MOL
133 1 6 0.734000 -6.752000 18.997999 3.130000 # Mo MOL
134 1 13 -0.370000 -7.610000 18.671000 4.695000 # S MOL
135 1 13 -0.370000 -7.610000 18.671000 1.565000 # S MOL
136 1 6 0.734000 -9.276000 17.902000 -3.130000 # Mo MOL
137 1 13 -0.370000 -10.081000 17.461000 -1.565000 # S MOL
138 1 13 -0.370000 -10.081000 17.461000 -4.695000 # S MOL
139 1 6 0.734000 -9.276000 17.902000 0.000000 # Mo MOL
140 1 13 -0.370000 -10.081000 17.461000 1.565000 # S MOL
141 1 13 -0.370000 -10.081000 17.461000 -1.565000 # S MOL
142 1 6 0.734000 -9.276000 17.902000 3.130000 # Mo MOL
143 1 13 -0.370000 -10.081000 17.461000 4.695000 # S MOL
144 1 13 -0.370000 -10.081000 17.461000 1.565000 # S MOL
145 1 6 0.734000 -11.627000 16.472000 -3.130000 # Mo MOL
146 1 13 -0.370000 -12.365000 15.926000 -1.565000 # S MOL
147 1 13 -0.370000 -12.365000 15.926000 -4.695000 # S MOL
148 1 6 0.734000 -11.627000 16.472000 0.000000 # Mo MOL
149 1 13 -0.370000 -12.365000 15.926000 1.565000 # S MOL
150 1 13 -0.370000 -12.365000 15.926000 -1.565000 # S MOL
151 1 6 0.734000 -11.627000 16.472000 3.130000 # Mo MOL
152 1 13 -0.370000 -12.365000 15.926000 4.695000 # S MOL
153 1 13 -0.370000 -12.365000 15.926000 1.565000 # S MOL
154 1 6 0.734000 -13.762000 14.735000 -3.130000 # Mo MOL
155 1 13 -0.370000 -14.418000 14.094000 -1.565000 # S MOL
156 1 13 -0.370000 -14.418000 14.094000 -4.695000 # S MOL
157 1 6 0.734000 -13.762000 14.735000 0.000000 # Mo MOL
158 1 13 -0.370000 -14.418000 14.094000 1.565000 # S MOL
159 1 13 -0.370000 -14.418000 14.094000 -1.565000 # S MOL
160 1 6 0.734000 -13.762000 14.735000 3.130000 # Mo MOL
161 1 13 -0.370000 -14.418000 14.094000 4.695000 # S MOL
162 1 13 -0.370000 -14.418000 14.094000 1.565000 # S MOL
163 1 6 0.734000 -15.640000 12.724000 -3.130000 # Mo MOL
164 1 13 -0.370000 -16.202999 11.999000 -1.565000 # S MOL
165 1 13 -0.370000 -16.202999 11.999000 -4.695000 # S MOL
166 1 6 0.734000 -15.640000 12.724000 0.000000 # Mo MOL
167 1 13 -0.370000 -16.202999 11.999000 1.565000 # S MOL
168 1 13 -0.370000 -16.202999 11.999000 -1.565000 # S MOL
169 1 6 0.734000 -15.640000 12.724000 3.130000 # Mo MOL
170 1 13 -0.370000 -16.202999 11.999000 4.695000 # S MOL
171 1 13 -0.370000 -16.202999 11.999000 1.565000 # S MOL
172 1 6 0.734000 -17.226999 10.476000 -3.130000 # Mo MOL
173 1 13 -0.370000 -17.686001 9.681000 -1.565000 # S MOL
174 1 13 -0.370000 -17.686001 9.681000 -4.695000 # S MOL
175 1 6 0.734000 -17.226999 10.476000 0.000000 # Mo MOL
176 1 13 -0.370000 -17.686001 9.681000 1.565000 # S MOL
177 1 13 -0.370000 -17.686001 9.681000 -1.565000 # S MOL
178 1 6 0.734000 -17.226999 10.476000 3.130000 # Mo MOL
179 1 13 -0.370000 -17.686001 9.681000 4.695000 # S MOL
180 1 13 -0.370000 -17.686001 9.681000 1.565000 # S MOL
181 1 6 0.734000 -18.493000 8.033000 -3.130000 # Mo MOL
182 1 13 -0.370000 -18.839001 7.183000 -1.565000 # S MOL
183 1 13 -0.370000 -18.839001 7.183000 -4.695000 # S MOL
184 1 6 0.734000 -18.493000 8.033000 0.000000 # Mo MOL
185 1 13 -0.370000 -18.839001 7.183000 1.565000 # S MOL
186 1 13 -0.370000 -18.839001 7.183000 -1.565000 # S MOL
187 1 6 0.734000 -18.493000 8.033000 3.130000 # Mo MOL
188 1 13 -0.370000 -18.839001 7.183000 4.695000 # S MOL
189 1 13 -0.370000 -18.839001 7.183000 1.565000 # S MOL
190 1 6 0.734000 -19.414000 5.440000 -3.130000 # Mo MOL
191 1 13 -0.370000 -19.642000 4.550000 -1.565000 # S MOL
192 1 13 -0.370000 -19.642000 4.550000 -4.695000 # S MOL
193 1 6 0.734000 -19.414000 5.440000 0.000000 # Mo MOL
194 1 13 -0.370000 -19.642000 4.550000 1.565000 # S MOL
195 1 13 -0.370000 -19.642000 4.550000 -1.565000 # S MOL
196 1 6 0.734000 -19.414000 5.440000 3.130000 # Mo MOL
197 1 13 -0.370000 -19.642000 4.550000 4.695000 # S MOL
198 1 13 -0.370000 -19.642000 4.550000 1.565000 # S MOL
199 1 6 0.734000 -19.974001 2.745000 -3.130000 # Mo MOL
200 1 13 -0.370000 -20.079000 1.833000 -1.565000 # S MOL
201 1 13 -0.370000 -20.079000 1.833000 -4.695000 # S MOL
202 1 6 0.734000 -19.974001 2.745000 0.000000 # Mo MOL
203 1 13 -0.370000 -20.079000 1.833000 1.565000 # S MOL
204 1 13 -0.370000 -20.079000 1.833000 -1.565000 # S MOL
205 1 6 0.734000 -19.974001 2.745000 3.130000 # Mo MOL
206 1 13 -0.370000 -20.079000 1.833000 4.695000 # S MOL
207 1 13 -0.370000 -20.079000 1.833000 1.565000 # S MOL
208 1 6 0.734000 -20.162001 0.000000 -3.130000 # Mo MOL
209 1 13 -0.370000 -20.141001 -0.918000 -1.565000 # S MOL
210 1 13 -0.370000 -20.141001 -0.918000 -4.695000 # S MOL
211 1 6 0.734000 -20.162001 0.000000 0.000000 # Mo MOL
212 1 13 -0.370000 -20.141001 -0.918000 1.565000 # S MOL
213 1 13 -0.370000 -20.141001 -0.918000 -1.565000 # S MOL
214 1 6 0.734000 -20.162001 0.000000 3.130000 # Mo MOL
215 1 13 -0.370000 -20.141001 -0.918000 4.695000 # S MOL
216 1 13 -0.370000 -20.141001 -0.918000 1.565000 # S MOL
217 1 6 0.734000 -19.974001 -2.745000 -3.130000 # Mo MOL
218 1 13 -0.370000 -19.829000 -3.652000 -1.565000 # S MOL
219 1 13 -0.370000 -19.829000 -3.652000 -4.695000 # S MOL
220 1 6 0.734000 -19.974001 -2.745000 0.000000 # Mo MOL
221 1 13 -0.370000 -19.829000 -3.652000 1.565000 # S MOL
222 1 13 -0.370000 -19.829000 -3.652000 -1.565000 # S MOL
223 1 6 0.734000 -19.974001 -2.745000 3.130000 # Mo MOL
224 1 13 -0.370000 -19.829000 -3.652000 4.695000 # S MOL
225 1 13 -0.370000 -19.829000 -3.652000 1.565000 # S MOL
226 1 6 0.734000 -19.414000 -5.440000 -3.130000 # Mo MOL
227 1 13 -0.370000 -19.146999 -6.318000 -1.565000 # S MOL
228 1 13 -0.370000 -19.146999 -6.318000 -4.695000 # S MOL
229 1 6 0.734000 -19.414000 -5.440000 0.000000 # Mo MOL
230 1 13 -0.370000 -19.146999 -6.318000 1.565000 # S MOL
231 1 13 -0.370000 -19.146999 -6.318000 -1.565000 # S MOL
232 1 6 0.734000 -19.414000 -5.440000 3.130000 # Mo MOL
233 1 13 -0.370000 -19.146999 -6.318000 4.695000 # S MOL
234 1 13 -0.370000 -19.146999 -6.318000 1.565000 # S MOL
235 1 6 0.734000 -18.493000 -8.033000 -3.130000 # Mo MOL
236 1 13 -0.370000 -18.108000 -8.866000 -1.565000 # S MOL
237 1 13 -0.370000 -18.108000 -8.866000 -4.695000 # S MOL
238 1 6 0.734000 -18.493000 -8.033000 0.000000 # Mo MOL
239 1 13 -0.370000 -18.108000 -8.866000 1.565000 # S MOL
240 1 13 -0.370000 -18.108000 -8.866000 -1.565000 # S MOL
241 1 6 0.734000 -18.493000 -8.033000 3.130000 # Mo MOL
242 1 13 -0.370000 -18.108000 -8.866000 4.695000 # S MOL
243 1 13 -0.370000 -18.108000 -8.866000 1.565000 # S MOL
244 1 6 0.734000 -17.226999 -10.476000 -3.130000 # Mo MOL
245 1 13 -0.370000 -16.732000 -11.249000 -1.565000 # S MOL
246 1 13 -0.370000 -16.732000 -11.249000 -4.695000 # S MOL
247 1 6 0.734000 -17.226999 -10.476000 0.000000 # Mo MOL
248 1 13 -0.370000 -16.732000 -11.249000 1.565000 # S MOL
249 1 13 -0.370000 -16.732000 -11.249000 -1.565000 # S MOL
250 1 6 0.734000 -17.226999 -10.476000 3.130000 # Mo MOL
251 1 13 -0.370000 -16.732000 -11.249000 4.695000 # S MOL
252 1 13 -0.370000 -16.732000 -11.249000 1.565000 # S MOL
253 1 6 0.734000 -15.640000 -12.724000 -3.130000 # Mo MOL
254 1 13 -0.370000 -15.045000 -13.423000 -1.565000 # S MOL
255 1 13 -0.370000 -15.045000 -13.423000 -4.695000 # S MOL
256 1 6 0.734000 -15.640000 -12.724000 0.000000 # Mo MOL
257 1 13 -0.370000 -15.045000 -13.423000 1.565000 # S MOL
258 1 13 -0.370000 -15.045000 -13.423000 -1.565000 # S MOL
259 1 6 0.734000 -15.640000 -12.724000 3.130000 # Mo MOL
260 1 13 -0.370000 -15.045000 -13.423000 4.695000 # S MOL
261 1 13 -0.370000 -15.045000 -13.423000 1.565000 # S MOL
262 1 6 0.734000 -13.762000 -14.735000 -3.130000 # Mo MOL
263 1 13 -0.370000 -13.077000 -15.346000 -1.565000 # S MOL
264 1 13 -0.370000 -13.077000 -15.346000 -4.695000 # S MOL
265 1 6 0.734000 -13.762000 -14.735000 0.000000 # Mo MOL
266 1 13 -0.370000 -13.077000 -15.346000 1.565000 # S MOL
267 1 13 -0.370000 -13.077000 -15.346000 -1.565000 # S MOL
268 1 6 0.734000 -13.762000 -14.735000 3.130000 # Mo MOL
269 1 13 -0.370000 -13.077000 -15.346000 4.695000 # S MOL
270 1 13 -0.370000 -13.077000 -15.346000 1.565000 # S MOL
271 1 6 0.734000 -11.627000 -16.472000 -3.130000 # Mo MOL
272 1 13 -0.370000 -10.865000 -16.983999 -1.565000 # S MOL
273 1 13 -0.370000 -10.865000 -16.983999 -4.695000 # S MOL
274 1 6 0.734000 -11.627000 -16.472000 0.000000 # Mo MOL
275 1 13 -0.370000 -10.865000 -16.983999 1.565000 # S MOL
276 1 13 -0.370000 -10.865000 -16.983999 -1.565000 # S MOL
277 1 6 0.734000 -11.627000 -16.472000 3.130000 # Mo MOL
278 1 13 -0.370000 -10.865000 -16.983999 4.695000 # S MOL
279 1 13 -0.370000 -10.865000 -16.983999 1.565000 # S MOL
280 1 6 0.734000 -9.276000 -17.902000 -3.130000 # Mo MOL
281 1 13 -0.370000 -8.451000 -18.305000 -1.565000 # S MOL
282 1 13 -0.370000 -8.451000 -18.305000 -4.695000 # S MOL
283 1 6 0.734000 -9.276000 -17.902000 0.000000 # Mo MOL
284 1 13 -0.370000 -8.451000 -18.305000 1.565000 # S MOL
285 1 13 -0.370000 -8.451000 -18.305000 -1.565000 # S MOL
286 1 6 0.734000 -9.276000 -17.902000 3.130000 # Mo MOL
287 1 13 -0.370000 -8.451000 -18.305000 4.695000 # S MOL
288 1 13 -0.370000 -8.451000 -18.305000 1.565000 # S MOL
289 1 6 0.734000 -6.752000 -18.997999 -3.130000 # Mo MOL
290 1 13 -0.370000 -5.880000 -19.285999 -1.565000 # S MOL
291 1 13 -0.370000 -5.880000 -19.285999 -4.695000 # S MOL
292 1 6 0.734000 -6.752000 -18.997999 0.000000 # Mo MOL
293 1 13 -0.370000 -5.880000 -19.285999 1.565000 # S MOL
294 1 13 -0.370000 -5.880000 -19.285999 -1.565000 # S MOL
295 1 6 0.734000 -6.752000 -18.997999 3.130000 # Mo MOL
296 1 13 -0.370000 -5.880000 -19.285999 4.695000 # S MOL
297 1 13 -0.370000 -5.880000 -19.285999 1.565000 # S MOL
298 1 6 0.734000 -4.102000 -19.740000 -3.130000 # Mo MOL
299 1 13 -0.370000 -3.199000 -19.907000 -1.565000 # S MOL
300 1 13 -0.370000 -3.199000 -19.907000 -4.695000 # S MOL
301 1 6 0.734000 -4.102000 -19.740000 0.000000 # Mo MOL
302 1 13 -0.370000 -3.199000 -19.907000 1.565000 # S MOL
303 1 13 -0.370000 -3.199000 -19.907000 -1.565000 # S MOL
304 1 6 0.734000 -4.102000 -19.740000 3.130000 # Mo MOL
305 1 13 -0.370000 -3.199000 -19.907000 4.695000 # S MOL
306 1 13 -0.370000 -3.199000 -19.907000 1.565000 # S MOL
307 1 6 0.734000 -1.376000 -20.115000 -3.130000 # Mo MOL
308 1 13 -0.370000 -0.459000 -20.157000 -1.565000 # S MOL
309 1 13 -0.370000 -0.459000 -20.157000 -4.695000 # S MOL
310 1 6 0.734000 -1.376000 -20.115000 0.000000 # Mo MOL
311 1 13 -0.370000 -0.459000 -20.157000 1.565000 # S MOL
312 1 13 -0.370000 -0.459000 -20.157000 -1.565000 # S MOL
313 1 6 0.734000 -1.376000 -20.115000 3.130000 # Mo MOL
314 1 13 -0.370000 -0.459000 -20.157000 4.695000 # S MOL
315 1 13 -0.370000 -0.459000 -20.157000 1.565000 # S MOL
316 1 6 0.734000 1.376000 -20.115000 -3.130000 # Mo MOL
317 1 13 -0.370000 2.290000 -20.032000 -1.565000 # S MOL
318 1 13 -0.370000 2.290000 -20.032000 -4.695000 # S MOL
319 1 6 0.734000 1.376000 -20.115000 0.000000 # Mo MOL
320 1 13 -0.370000 2.290000 -20.032000 1.565000 # S MOL
321 1 13 -0.370000 2.290000 -20.032000 -1.565000 # S MOL
322 1 6 0.734000 1.376000 -20.115000 3.130000 # Mo MOL
323 1 13 -0.370000 2.290000 -20.032000 4.695000 # S MOL
324 1 13 -0.370000 2.290000 -20.032000 1.565000 # S MOL
325 1 6 0.734000 4.102000 -19.740000 -3.130000 # Mo MOL
326 1 13 -0.370000 4.996000 -19.533001 -1.565000 # S MOL
327 1 13 -0.370000 4.996000 -19.533001 -4.695000 # S MOL
328 1 6 0.734000 4.102000 -19.740000 0.000000 # Mo MOL
329 1 13 -0.370000 4.996000 -19.533001 1.565000 # S MOL
330 1 13 -0.370000 4.996000 -19.533001 -1.565000 # S MOL
331 1 6 0.734000 4.102000 -19.740000 3.130000 # Mo MOL
332 1 13 -0.370000 4.996000 -19.533001 4.695000 # S MOL
333 1 13 -0.370000 4.996000 -19.533001 1.565000 # S MOL
334 1 6 0.734000 6.752000 -18.997999 -3.130000 # Mo MOL
335 1 13 -0.370000 7.610000 -18.671000 -1.565000 # S MOL
336 1 13 -0.370000 7.610000 -18.671000 -4.695000 # S MOL
337 1 6 0.734000 6.752000 -18.997999 0.000000 # Mo MOL
338 1 13 -0.370000 7.610000 -18.671000 1.565000 # S MOL
339 1 13 -0.370000 7.610000 -18.671000 -1.565000 # S MOL
340 1 6 0.734000 6.752000 -18.997999 3.130000 # Mo MOL
341 1 13 -0.370000 7.610000 -18.671000 4.695000 # S MOL
342 1 13 -0.370000 7.610000 -18.671000 1.565000 # S MOL
343 1 6 0.734000 9.276000 -17.902000 -3.130000 # Mo MOL
344 1 13 -0.370000 10.081000 -17.461000 -1.565000 # S MOL
345 1 13 -0.370000 10.081000 -17.461000 -4.695000 # S MOL
346 1 6 0.734000 9.276000 -17.902000 0.000000 # Mo MOL
347 1 13 -0.370000 10.081000 -17.461000 1.565000 # S MOL
348 1 13 -0.370000 10.081000 -17.461000 -1.565000 # S MOL
349 1 6 0.734000 9.276000 -17.902000 3.130000 # Mo MOL
350 1 13 -0.370000 10.081000 -17.461000 4.695000 # S MOL
351 1 13 -0.370000 10.081000 -17.461000 1.565000 # S MOL
352 1 6 0.734000 11.627000 -16.472000 -3.130000 # Mo MOL
353 1 13 -0.370000 12.365000 -15.926000 -1.565000 # S MOL
354 1 13 -0.370000 12.365000 -15.926000 -4.695000 # S MOL
355 1 6 0.734000 11.627000 -16.472000 0.000000 # Mo MOL
356 1 13 -0.370000 12.365000 -15.926000 1.565000 # S MOL
357 1 13 -0.370000 12.365000 -15.926000 -1.565000 # S MOL
358 1 6 0.734000 11.627000 -16.472000 3.130000 # Mo MOL
359 1 13 -0.370000 12.365000 -15.926000 4.695000 # S MOL
360 1 13 -0.370000 12.365000 -15.926000 1.565000 # S MOL
361 1 6 0.734000 13.762000 -14.735000 -3.130000 # Mo MOL
362 1 13 -0.370000 14.418000 -14.094000 -1.565000 # S MOL
363 1 13 -0.370000 14.418000 -14.094000 -4.695000 # S MOL
364 1 6 0.734000 13.762000 -14.735000 0.000000 # Mo MOL
365 1 13 -0.370000 14.418000 -14.094000 1.565000 # S MOL
366 1 13 -0.370000 14.418000 -14.094000 -1.565000 # S MOL
367 1 6 0.734000 13.762000 -14.735000 3.130000 # Mo MOL
368 1 13 -0.370000 14.418000 -14.094000 4.695000 # S MOL
369 1 13 -0.370000 14.418000 -14.094000 1.565000 # S MOL
370 1 6 0.734000 15.640000 -12.724000 -3.130000 # Mo MOL
371 1 13 -0.370000 16.202999 -11.999000 -1.565000 # S MOL
372 1 13 -0.370000 16.202999 -11.999000 -4.695000 # S MOL
373 1 6 0.734000 15.640000 -12.724000 0.000000 # Mo MOL
374 1 13 -0.370000 16.202999 -11.999000 1.565000 # S MOL
375 1 13 -0.370000 16.202999 -11.999000 -1.565000 # S MOL
376 1 6 0.734000 15.640000 -12.724000 3.130000 # Mo MOL
377 1 13 -0.370000 16.202999 -11.999000 4.695000 # S MOL
378 1 13 -0.370000 16.202999 -11.999000 1.565000 # S MOL
379 1 6 0.734000 17.226999 -10.476000 -3.130000 # Mo MOL
380 1 13 -0.370000 17.686001 -9.681000 -1.565000 # S MOL
381 1 13 -0.370000 17.686001 -9.681000 -4.695000 # S MOL
382 1 6 0.734000 17.226999 -10.476000 0.000000 # Mo MOL
383 1 13 -0.370000 17.686001 -9.681000 1.565000 # S MOL
384 1 13 -0.370000 17.686001 -9.681000 -1.565000 # S MOL
385 1 6 0.734000 17.226999 -10.476000 3.130000 # Mo MOL
386 1 13 -0.370000 17.686001 -9.681000 4.695000 # S MOL
387 1 13 -0.370000 17.686001 -9.681000 1.565000 # S MOL
388 1 6 0.734000 18.493000 -8.033000 -3.130000 # Mo MOL
389 1 13 -0.370000 18.839001 -7.183000 -1.565000 # S MOL
390 1 13 -0.370000 18.839001 -7.183000 -4.695000 # S MOL
391 1 6 0.734000 18.493000 -8.033000 0.000000 # Mo MOL
392 1 13 -0.370000 18.839001 -7.183000 1.565000 # S MOL
393 1 13 -0.370000 18.839001 -7.183000 -1.565000 # S MOL
394 1 6 0.734000 18.493000 -8.033000 3.130000 # Mo MOL
395 1 13 -0.370000 18.839001 -7.183000 4.695000 # S MOL
396 1 13 -0.370000 18.839001 -7.183000 1.565000 # S MOL
397 1 6 0.734000 19.414000 -5.440000 -3.130000 # Mo MOL
398 1 13 -0.370000 19.642000 -4.550000 -1.565000 # S MOL
399 1 13 -0.370000 19.642000 -4.550000 -4.695000 # S MOL
400 1 6 0.734000 19.414000 -5.440000 0.000000 # Mo MOL
401 1 13 -0.370000 19.642000 -4.550000 1.565000 # S MOL
402 1 13 -0.370000 19.642000 -4.550000 -1.565000 # S MOL
403 1 6 0.734000 19.414000 -5.440000 3.130000 # Mo MOL
404 1 13 -0.370000 19.642000 -4.550000 4.695000 # S MOL
405 1 13 -0.370000 19.642000 -4.550000 1.565000 # S MOL
406 1 6 0.734000 19.974001 -2.745000 -3.130000 # Mo MOL
407 1 13 -0.370000 20.079000 -1.833000 -1.565000 # S MOL
408 1 13 -0.370000 20.079000 -1.833000 -4.695000 # S MOL
409 1 6 0.734000 19.974001 -2.745000 0.000000 # Mo MOL
410 1 13 -0.370000 20.079000 -1.833000 1.565000 # S MOL
411 1 13 -0.370000 20.079000 -1.833000 -1.565000 # S MOL
412 1 6 0.734000 19.974001 -2.745000 3.130000 # Mo MOL
413 1 13 -0.370000 20.079000 -1.833000 4.695000 # S MOL
414 1 13 -0.370000 20.079000 -1.833000 1.565000 # S MOL
415 2 2 0.813000 -3.097000 4.493000 -4.822000 # CR HCR
416 2 9 -0.703000 -3.292000 5.686000 -3.773000 # O1 HCR
417 2 10 -0.703000 -1.530000 4.329000 -5.157000 # O2 HCR
418 2 11 -0.703000 -3.906000 4.829000 -6.167000 # O3 HCR
419 2 12 -0.703000 -3.660000 3.130000 -4.188000 # O4 HCR
420 2 3 1.000000 -3.365000 6.134000 -3.380000 # H HCR
421 3 2 0.813000 -2.650000 14.781000 -4.658000 # CR HCR
422 3 9 -0.703000 -2.784000 14.175000 -3.183000 # O1 HCR
423 3 10 -0.703000 -2.943000 13.623000 -5.739000 # O2 HCR
424 3 11 -0.703000 -1.164000 15.353000 -4.867000 # O3 HCR
425 3 12 -0.703000 -3.710000 15.973000 -4.843000 # O4 HCR
426 3 3 1.000000 -2.834000 13.948000 -2.630000 # H HCR
427 4 2 0.813000 -5.869000 8.059000 -3.844000 # CR HCR
428 4 9 -0.703000 -5.834000 7.795000 -5.421000 # O1 HCR
429 4 10 -0.703000 -6.418000 9.548000 -3.565000 # O2 HCR
430 4 11 -0.703000 -4.387000 7.909000 -3.245000 # O3 HCR
431 4 12 -0.703000 -6.837000 6.986000 -3.145000 # O4 HCR
432 4 3 1.000000 -5.821000 7.695000 -6.013000 # H HCR
433 5 2 0.813000 -0.170000 9.289000 -5.374000 # CR HCR
434 5 9 -0.703000 0.135000 9.351000 -3.805000 # O1 HCR
435 5 10 -0.703000 -0.417000 10.780000 -5.929000 # O2 HCR
436 5 11 -0.703000 -1.479000 8.393000 -5.627000 # O3 HCR
437 5 12 -0.703000 1.081000 8.629000 -6.135000 # O4 HCR
438 5 3 1.000000 0.250000 9.375000 -3.216000 # H HCR
439 6 8 -0.834000 3.804000 -15.065000 0.764000 # O TIP
440 6 4 0.417000 3.614000 -14.206000 1.139000 # H1 TIP
441 6 5 0.417000 4.552000 -15.387000 1.268000 # H2 TIP
442 7 8 -0.834000 17.455000 -4.095000 -3.516000 # O TIP
443 7 4 0.417000 16.569000 -3.980000 -3.172000 # H1 TIP
444 7 5 0.417000 17.344999 -4.668000 -4.275000 # H2 TIP
445 8 8 -0.834000 6.493000 -10.522000 -2.306000 # O TIP
446 8 4 0.417000 6.390000 -9.796000 -2.922000 # H1 TIP
447 8 5 0.417000 7.283000 -10.305000 -1.810000 # H2 TIP
448 9 8 -0.834000 0.300000 2.884000 5.219000 # O TIP
449 9 4 0.417000 0.904000 3.460000 5.687000 # H1 TIP
450 9 5 0.417000 0.670000 2.813000 4.338000 # H2 TIP
451 10 8 -0.834000 16.879000 0.122000 0.355000 # O TIP
452 10 4 0.417000 16.330000 0.125000 -0.428000 # H1 TIP
453 10 5 0.417000 16.434000 0.715000 0.962000 # H2 TIP
454 11 8 -0.834000 -5.724000 1.225000 -2.298000 # O TIP
455 11 4 0.417000 -4.807000 1.496000 -2.254000 # H1 TIP
456 11 5 0.417000 -5.690000 0.269000 -2.338000 # H2 TIP
457 12 8 -0.834000 -10.210000 3.801000 -4.182000 # O TIP
458 12 4 0.417000 -10.057000 3.677000 -5.118000 # H1 TIP
459 12 5 0.417000 -10.155000 2.920000 -3.811000 # H2 TIP
460 13 8 -0.834000 -10.592000 9.828000 1.932000 # O TIP
461 13 4 0.417000 -11.192000 9.747000 1.191000 # H1 TIP
462 13 5 0.417000 -10.052000 9.039000 1.892000 # H2 TIP
463 14 8 -0.834000 -6.204000 -11.586000 -4.229000 # O TIP
464 14 4 0.417000 -5.753000 -11.508000 -3.389000 # H1 TIP
465 14 5 0.417000 -6.029000 -12.483000 -4.513000 # H2 TIP
466 15 8 -0.834000 10.935000 1.756000 2.448000 # O TIP
467 15 4 0.417000 10.051000 1.393000 2.488000 # H1 TIP
468 15 5 0.417000 11.511000 0.996000 2.538000 # H2 TIP
469 16 8 -0.834000 -0.811000 17.823999 -1.991000 # O TIP
470 16 4 0.417000 -1.768000 17.829000 -1.990000 # H1 TIP
471 16 5 0.417000 -0.576000 16.896000 -1.992000 # H2 TIP
472 17 8 -0.834000 -3.863000 -10.619000 2.384000 # O TIP
473 17 4 0.417000 -4.292000 -9.792000 2.602000 # H1 TIP
474 17 5 0.417000 -2.963000 -10.372000 2.170000 # H2 TIP
475 18 8 -0.834000 -3.080000 7.920000 -2.257000 # O TIP
476 18 4 0.417000 -2.327000 7.983000 -2.844000 # H1 TIP
477 18 5 0.417000 -2.697000 7.831000 -1.384000 # H2 TIP
478 19 8 -0.834000 -4.685000 -14.793000 -1.058000 # O TIP
479 19 4 0.417000 -5.640000 -14.762000 -1.095000 # H1 TIP
480 19 5 0.417000 -4.478000 -15.727000 -1.004000 # H2 TIP
481 20 8 -0.834000 -5.431000 -3.832000 3.108000 # O TIP
482 20 4 0.417000 -5.541000 -2.894000 2.951000 # H1 TIP
483 20 5 0.417000 -5.146000 -4.185000 2.265000 # H2 TIP
484 21 8 -0.834000 -6.726000 -12.172000 4.618000 # O TIP
485 21 4 0.417000 -6.071000 -12.451000 5.257000 # H1 TIP
486 21 5 0.417000 -7.036000 -12.987000 4.221000 # H2 TIP
487 22 8 -0.834000 -3.845000 7.752000 4.629000 # O TIP
488 22 4 0.417000 -4.040000 8.339000 5.360000 # H1 TIP
489 22 5 0.417000 -4.620000 7.801000 4.069000 # H2 TIP
490 23 8 -0.834000 -9.326000 6.316000 -4.842000 # O TIP
491 23 4 0.417000 -8.548000 5.766000 -4.753000 # H1 TIP
492 23 5 0.417000 -9.001000 7.210000 -4.735000 # H2 TIP
493 24 8 -0.834000 -5.554000 9.151000 -0.023000 # O TIP
494 24 4 0.417000 -5.562000 8.195000 0.004000 # H1 TIP
495 24 5 0.417000 -4.627000 9.385000 0.030000 # H2 TIP
496 25 8 -0.834000 -11.711000 11.174000 -6.124000 # O TIP
497 25 4 0.417000 -11.483000 12.081000 -6.328000 # H1 TIP
498 25 5 0.417000 -12.639000 11.206000 -5.892000 # H2 TIP
499 26 8 -0.834000 4.771000 -5.231000 2.601000 # O TIP
500 26 4 0.417000 5.667000 -5.420000 2.879000 # H1 TIP
501 26 5 0.417000 4.825000 -4.373000 2.181000 # H2 TIP
502 27 8 -0.834000 -2.461000 -15.142000 -5.405000 # O TIP
503 27 4 0.417000 -1.542000 -15.391000 -5.311000 # H1 TIP
504 27 5 0.417000 -2.468000 -14.520000 -6.133000 # H2 TIP
505 28 8 -0.834000 13.815000 8.812000 5.055000 # O TIP
506 28 4 0.417000 14.630000 9.234000 5.326000 # H1 TIP
507 28 5 0.417000 13.284000 8.782000 5.851000 # H2 TIP
508 29 8 -0.834000 -8.423000 14.462000 6.170000 # O TIP
509 29 4 0.417000 -7.703000 13.832000 6.185000 # H1 TIP
510 29 5 0.417000 -9.168000 13.985000 6.538000 # H2 TIP
511 30 8 -0.834000 -6.228000 9.550000 3.563000 # O TIP
512 30 4 0.417000 -6.940000 10.134000 3.304000 # H1 TIP
513 30 5 0.417000 -6.428000 9.315000 4.470000 # H2 TIP
514 31 8 -0.834000 4.851000 -17.330000 -4.593000 # O TIP
515 31 4 0.417000 4.217000 -17.007000 -3.954000 # H1 TIP
516 31 5 0.417000 5.694000 -17.283001 -4.140000 # H2 TIP
517 32 8 -0.834000 5.677000 3.234000 0.008000 # O TIP
518 32 4 0.417000 5.146000 2.973000 -0.744000 # H1 TIP
519 32 5 0.417000 5.562000 2.523000 0.640000 # H2 TIP
520 33 8 -0.834000 0.948000 8.397000 -1.019000 # O TIP