  55  55   0   0
  0.2301251E+02  0.1218282E-08  0.7661564E-09  0.1373046E-08  0.0000000E+00
   1.0000000000000000E-004
  CAR 
 NEB                                     
      9.38211358    -23.51775637  301      1.26797628      1.00000000
    -23.518  0.0000E+00  0.0000E+00
    -23.408  0.0000E+00  0.0000E+00
    -23.298  0.0000E+00  0.0000E+00
    -23.189 -0.1733E-30 -0.1900E-31
    -23.079 -0.1298E-26 -0.1424E-27
    -22.969 -0.5030E-23 -0.5517E-24
    -22.860 -0.1069E-19 -0.1172E-20
    -22.750 -0.1244E-16 -0.1366E-17
    -22.640 -0.7702E-14 -0.8460E-15
    -22.531 -0.2673E-11 -0.2940E-12
    -22.421 -0.5062E-09 -0.5581E-10
    -22.311 -0.5216E-07 -0.5776E-08
    -22.202 -0.2908E-05 -0.3247E-06
    -22.092 -0.8682E-04 -0.9846E-05
    -21.982 -0.1360E-02 -0.1590E-03
    -21.873 -0.1065E-01 -0.1327E-02
    -21.763 -0.3546E-01 -0.5215E-02
    -21.653 -0.1499E-02 -0.5380E-02
    -21.544  0.2923E+00  0.2668E-01
    -21.434  0.8132E+00  0.1159E+00
    -21.324  0.1153E+01  0.2423E+00
    -21.215  0.1062E+01  0.3588E+00
    -21.105  0.6209E+00  0.4269E+00
    -20.995  0.1675E+00  0.4453E+00
    -20.886 -0.2113E-01  0.4430E+00
    -20.776 -0.4425E-02  0.4425E+00
    -20.666  0.6142E-01  0.4492E+00
    -20.557  0.7382E-01  0.4573E+00
    -20.447  0.2952E-01  0.4606E+00
    -20.337 -0.8102E-03  0.4605E+00
    -20.228 -0.3347E-02  0.4601E+00
    -20.118 -0.8308E-03  0.4600E+00
    -20.008 -0.8680E-04  0.4600E+00
    -19.899 -0.4472E-05  0.4600E+00
    -19.789 -0.1196E-06  0.4600E+00
    -19.679 -0.1698E-08  0.4600E+00
    -19.570 -0.1295E-10  0.4600E+00
    -19.460 -0.5340E-13  0.4600E+00
    -19.350 -0.1215E-15  0.4600E+00
    -19.241  0.0000E+00  0.4600E+00
    -19.131  0.0000E+00  0.4600E+00
    -19.021  0.0000E+00  0.4600E+00
    -18.912  0.0000E+00  0.4600E+00
    -18.802  0.0000E+00  0.4600E+00
    -18.692  0.0000E+00  0.4600E+00
    -18.583  0.0000E+00  0.4600E+00
    -18.473  0.0000E+00  0.4600E+00
    -18.363  0.0000E+00  0.4600E+00
    -18.254  0.0000E+00  0.4600E+00
    -18.144  0.0000E+00  0.4600E+00
    -18.034  0.0000E+00  0.4600E+00
    -17.925  0.0000E+00  0.4600E+00
    -17.815  0.0000E+00  0.4600E+00
    -17.705  0.0000E+00  0.4600E+00
    -17.596  0.0000E+00  0.4600E+00
    -17.486  0.0000E+00  0.4600E+00
    -17.376  0.0000E+00  0.4600E+00
    -17.267  0.0000E+00  0.4600E+00
    -17.157  0.0000E+00  0.4600E+00
    -17.047  0.0000E+00  0.4600E+00
    -16.938  0.0000E+00  0.4600E+00
    -16.828  0.0000E+00  0.4600E+00
    -16.718  0.0000E+00  0.4600E+00
    -16.609  0.0000E+00  0.4600E+00
    -16.499  0.0000E+00  0.4600E+00
    -16.389  0.0000E+00  0.4600E+00
    -16.280  0.0000E+00  0.4600E+00
    -16.170  0.0000E+00  0.4600E+00
    -16.060  0.0000E+00  0.4600E+00
    -15.951  0.0000E+00  0.4600E+00
    -15.841  0.0000E+00  0.4600E+00
    -15.731  0.0000E+00  0.4600E+00
    -15.622  0.0000E+00  0.4600E+00
    -15.512  0.0000E+00  0.4600E+00
    -15.402  0.0000E+00  0.4600E+00
    -15.293  0.0000E+00  0.4600E+00
    -15.183  0.0000E+00  0.4600E+00
    -15.073  0.0000E+00  0.4600E+00
    -14.964  0.0000E+00  0.4600E+00
    -14.854  0.0000E+00  0.4600E+00
    -14.744  0.0000E+00  0.4600E+00
    -14.635  0.0000E+00  0.4600E+00
    -14.525  0.0000E+00  0.4600E+00
    -14.415  0.0000E+00  0.4600E+00
    -14.306  0.0000E+00  0.4600E+00
    -14.196  0.0000E+00  0.4600E+00
    -14.086  0.0000E+00  0.4600E+00
    -13.977  0.0000E+00  0.4600E+00
    -13.867  0.0000E+00  0.4600E+00
    -13.757  0.0000E+00  0.4600E+00
    -13.648  0.0000E+00  0.4600E+00
    -13.538  0.0000E+00  0.4600E+00
    -13.428  0.0000E+00  0.4600E+00
    -13.319  0.0000E+00  0.4600E+00
    -13.209  0.0000E+00  0.4600E+00
    -13.099  0.0000E+00  0.4600E+00
    -12.990  0.0000E+00  0.4600E+00
    -12.880  0.0000E+00  0.4600E+00
    -12.770  0.0000E+00  0.4600E+00
    -12.661  0.0000E+00  0.4600E+00
    -12.551 -0.5616E-30  0.4600E+00
    -12.441 -0.3218E-26  0.4600E+00
    -12.332 -0.1005E-22  0.4600E+00
    -12.222 -0.1711E-19  0.4600E+00
    -12.112 -0.1585E-16  0.4600E+00
    -12.003 -0.7718E-14  0.4600E+00
    -11.893 -0.2091E-11  0.4600E+00
    -11.783 -0.3056E-09  0.4600E+00
    -11.674 -0.2395E-07  0.4600E+00
    -11.564 -0.9983E-06  0.4600E+00
    -11.454 -0.2178E-04  0.4600E+00
    -11.345 -0.2410E-03  0.4600E+00
    -11.235 -0.1246E-02  0.4598E+00
    -11.125 -0.2027E-02  0.4596E+00
    -11.016  0.5634E-02  0.4602E+00
    -10.906  0.2987E-01  0.4635E+00
    -10.796  0.5942E-01  0.4700E+00
    -10.687  0.7175E-01  0.4779E+00
    -10.577  0.5595E-01  0.4840E+00
    -10.467  0.2437E-01  0.4867E+00
    -10.358  0.1319E-02  0.4868E+00
    -10.248 -0.4193E-02  0.4864E+00
    -10.138  0.5097E-02  0.4869E+00
    -10.029  0.2825E-01  0.4900E+00
     -9.919  0.6304E-01  0.4970E+00
     -9.809  0.1122E+00  0.5093E+00
     -9.700  0.1567E+00  0.5264E+00
     -9.590  0.1657E+00  0.5446E+00
     -9.480  0.1691E+00  0.5632E+00
     -9.371  0.1951E+00  0.5846E+00
     -9.261  0.1895E+00  0.6053E+00
     -9.151  0.1152E+00  0.6180E+00
     -9.042  0.2973E-01  0.6212E+00
     -8.932 -0.5082E-02  0.6207E+00
     -8.822 -0.4876E-02  0.6201E+00
     -8.713 -0.1110E-02  0.6200E+00
     -8.603 -0.1160E-03  0.6200E+00
     -8.493 -0.6174E-05  0.6200E+00
     -8.384 -0.1735E-06  0.6200E+00
     -8.274 -0.2615E-08  0.6200E+00
     -8.164 -0.2133E-10  0.6200E+00
     -8.055 -0.9450E-13  0.6200E+00
     -7.945 -0.2295E-15  0.6200E+00
     -7.835  0.0000E+00  0.6200E+00
     -7.726  0.0000E+00  0.6200E+00
     -7.616  0.0000E+00  0.6200E+00
     -7.506  0.0000E+00  0.6200E+00
     -7.397  0.0000E+00  0.6200E+00
     -7.287  0.0000E+00  0.6200E+00
     -7.177  0.0000E+00  0.6200E+00
     -7.068  0.0000E+00  0.6200E+00
     -6.958  0.0000E+00  0.6200E+00
     -6.848  0.0000E+00  0.6200E+00
     -6.739  0.0000E+00  0.6200E+00
     -6.629  0.0000E+00  0.6200E+00
     -6.519  0.0000E+00  0.6200E+00
     -6.410  0.0000E+00  0.6200E+00
     -6.300  0.0000E+00  0.6200E+00
     -6.190  0.0000E+00  0.6200E+00
     -6.081  0.0000E+00  0.6200E+00
     -5.971  0.0000E+00  0.6200E+00
     -5.861  0.0000E+00  0.6200E+00
     -5.752  0.0000E+00  0.6200E+00
     -5.642  0.0000E+00  0.6200E+00
     -5.532  0.0000E+00  0.6200E+00
     -5.423  0.0000E+00  0.6200E+00
     -5.313  0.0000E+00  0.6200E+00
     -5.203  0.0000E+00  0.6200E+00
     -5.094  0.0000E+00  0.6200E+00
     -4.984  0.0000E+00  0.6200E+00
     -4.874 -0.1258E-30  0.6200E+00
     -4.765 -0.8053E-27  0.6200E+00
     -4.655 -0.2793E-23  0.6200E+00
     -4.545 -0.5287E-20  0.6200E+00
     -4.436 -0.5457E-17  0.6200E+00
     -4.326 -0.2972E-14  0.6200E+00
     -4.216 -0.9040E-12  0.6200E+00
     -4.107 -0.1490E-09  0.6200E+00
     -3.997 -0.1327E-07  0.6200E+00
     -3.888 -0.6343E-06  0.6200E+00
     -3.778 -0.1607E-04  0.6200E+00
     -3.668 -0.2107E-03  0.6200E+00
     -3.559 -0.1344E-02  0.6198E+00
     -3.449 -0.3331E-02  0.6195E+00
     -3.339  0.2788E-02  0.6198E+00
     -3.230  0.3242E-01  0.6233E+00
     -3.120  0.8086E-01  0.6322E+00
     -3.010  0.1220E+00  0.6456E+00
     -2.901  0.1242E+00  0.6592E+00
     -2.791  0.8392E-01  0.6684E+00
     -2.681  0.3857E-01  0.6726E+00
     -2.572  0.1005E-01  0.6737E+00
     -2.462 -0.1242E-02  0.6736E+00
     -2.352 -0.1851E-02  0.6734E+00
     -2.243 -0.9316E-03  0.6733E+00
     -2.133 -0.1975E-02  0.6731E+00
     -2.023 -0.2388E-02  0.6728E+00
     -1.914  0.9458E-02  0.6738E+00
     -1.804  0.4444E-01  0.6787E+00
     -1.694  0.8947E-01  0.6885E+00
     -1.585  0.1129E+00  0.7009E+00
     -1.475  0.1095E+00  0.7129E+00
     -1.365  0.1095E+00  0.7249E+00
     -1.256  0.1132E+00  0.7373E+00
     -1.146  0.9797E-01  0.7481E+00
     -1.036  0.8209E-01  0.7571E+00
     -0.927  0.8113E-01  0.7660E+00
     -0.817  0.7915E-01  0.7747E+00
     -0.707  0.6846E-01  0.7822E+00
     -0.598  0.6722E-01  0.7895E+00
     -0.488  0.1086E+00  0.8015E+00
     -0.378  0.1775E+00  0.8209E+00
     -0.269  0.2124E+00  0.8442E+00
     -0.159  0.1993E+00  0.8661E+00
     -0.049  0.1631E+00  0.8840E+00
      0.060  0.1346E+00  0.8987E+00
      0.170  0.1303E+00  0.9130E+00
      0.280  0.1233E+00  0.9265E+00
      0.389  0.1071E+00  0.9383E+00
      0.499  0.1111E+00  0.9505E+00
      0.609  0.1589E+00  0.9679E+00
      0.718  0.2135E+00  0.9913E+00
      0.828  0.2333E+00  0.1017E+01
      0.938  0.2259E+00  0.1042E+01
      1.047  0.2076E+00  0.1064E+01
      1.157  0.1774E+00  0.1084E+01
      1.267  0.1158E+00  0.1097E+01
      1.376  0.3931E-01  0.1101E+01
      1.486 -0.1230E-02  0.1101E+01
      1.596 -0.5173E-02  0.1100E+01
      1.705 -0.1515E-02  0.1100E+01
      1.815 -0.1941E-03  0.1100E+01
      1.925 -0.1257E-04  0.1100E+01
      2.034 -0.4305E-06  0.1100E+01
      2.144 -0.7926E-08  0.1100E+01
      2.254 -0.7907E-10  0.1100E+01
      2.363 -0.4290E-12  0.1100E+01
      2.473 -0.1269E-14  0.1100E+01
      2.583 -0.5648E-29  0.1100E+01
      2.692 -0.2764E-25  0.1100E+01
      2.802 -0.7373E-22  0.1100E+01
      2.912 -0.1071E-18  0.1100E+01
      3.021 -0.8130E-16  0.1100E+01
      3.131 -0.3509E-13  0.1100E+01
      3.241 -0.8092E-11  0.1100E+01
      3.350 -0.1004E-08  0.1100E+01
      3.460 -0.6653E-07  0.1100E+01
      3.570 -0.2324E-05  0.1100E+01
      3.679 -0.4173E-04  0.1100E+01
      3.789 -0.3631E-03  0.1100E+01
      3.899 -0.1260E-02  0.1100E+01
      4.008  0.4475E-03  0.1100E+01
      4.118  0.1241E-01  0.1101E+01
      4.228  0.2631E-01  0.1104E+01
      4.337  0.2059E-01  0.1106E+01
      4.447  0.4850E-02  0.1107E+01
      4.557 -0.1241E-02  0.1107E+01
      4.666 -0.7723E-03  0.1107E+01
      4.776 -0.1815E-03  0.1107E+01
      4.886 -0.4857E-03  0.1107E+01
      4.995 -0.2152E-02  0.1106E+01
      5.105 -0.2556E-02  0.1106E+01
      5.215  0.1235E-01  0.1107E+01
      5.324  0.5105E-01  0.1113E+01
      5.434  0.8613E-01  0.1122E+01
      5.544  0.9464E-01  0.1133E+01
      5.653  0.9592E-01  0.1143E+01
      5.763  0.9576E-01  0.1154E+01
      5.873  0.8400E-01  0.1163E+01
      5.982  0.7326E-01  0.1171E+01
      6.092  0.7072E-01  0.1179E+01
      6.202  0.8657E-01  0.1188E+01
      6.311  0.1216E+00  0.1202E+01
      6.421  0.1482E+00  0.1218E+01
      6.531  0.1438E+00  0.1234E+01
      6.640  0.1099E+00  0.1246E+01
      6.750  0.8457E-01  0.1255E+01
      6.860  0.8282E-01  0.1264E+01
      6.969  0.7550E-01  0.1272E+01
      7.079  0.7772E-01  0.1281E+01
      7.189  0.1016E+00  0.1292E+01
      7.298  0.1134E+00  0.1305E+01
      7.408  0.9535E-01  0.1315E+01
      7.518  0.4672E-01  0.1320E+01
      7.627  0.5388E-02  0.1321E+01
      7.737 -0.4356E-02  0.1320E+01
      7.847 -0.1763E-02  0.1320E+01
      7.956 -0.2631E-03  0.1320E+01
      8.066 -0.1886E-04  0.1320E+01
      8.176 -0.6956E-06  0.1320E+01
      8.285 -0.1359E-07  0.1320E+01
      8.395 -0.1424E-09  0.1320E+01
      8.505 -0.8075E-12  0.1320E+01
      8.614 -0.2497E-14  0.1320E+01
      8.724  0.0000E+00  0.1320E+01
      8.834  0.0000E+00  0.1320E+01
      8.943  0.0000E+00  0.1320E+01
      9.053  0.0000E+00  0.1320E+01
      9.163  0.0000E+00  0.1320E+01
      9.272  0.0000E+00  0.1320E+01
      9.382  0.0000E+00  0.1320E+01
