 vasp.6.3.2 27Jun22 (build Jun 14 2024 17:29:11) complex                         
 POSCAR found type information on POSCAR NaAlS 
 03/POSCAR found :  3 types and      55 ions
 -----------------------------------------------------------------------------
|                                                                             |
|           W    W    AA    RRRRR   N    N  II  N    N   GGGG   !!!           |
|           W    W   A  A   R    R  NN   N  II  NN   N  G    G  !!!           |
|           W    W  A    A  R    R  N N  N  II  N N  N  G       !!!           |
|           W WW W  AAAAAA  RRRRR   N  N N  II  N  N N  G  GGG   !            |
|           WW  WW  A    A  R   R   N   NN  II  N   NN  G    G                |
|           W    W  A    A  R    R  N    N  II  N    N   GGGG   !!!           |
|                                                                             |
|     The value NPAR = 5 specified in the INCAR file was overwritten,         |
|     because it was not compatible with the 6 processes available:           |
|     NPAR = 6                                                                |
|     was used instead, please check that this makes sense for your           |
|     machine.                                                                |
|                                                                             |
 -----------------------------------------------------------------------------

 -----------------------------------------------------------------------------
|                                                                             |
|           W    W    AA    RRRRR   N    N  II  N    N   GGGG   !!!           |
|           W    W   A  A   R    R  NN   N  II  NN   N  G    G  !!!           |
|           W    W  A    A  R    R  N N  N  II  N N  N  G       !!!           |
|           W WW W  AAAAAA  RRRRR   N  N N  II  N  N N  G  GGG   !            |
|           WW  WW  A    A  R   R   N   NN  II  N   NN  G    G                |
|           W    W  A    A  R    R  N    N  II  N    N   GGGG   !!!           |
|                                                                             |
|     For optimal performance we recommend to set                             |
|       NCORE = 2 up to number-of-cores-per-socket                            |
|     NCORE specifies how many cores store one orbital (NPAR=cpu/NCORE).      |
|     This setting can greatly improve the performance of VASP for DFT.       |
|     The default, NCORE=1 might be grossly inefficient on modern             |
|     multi-core architectures or massively parallel machines. Do your        |
|     own testing! More info at https://www.vasp.at/wiki/index.php/NCORE      |
|     Unfortunately you need to use the default for GW and RPA                |
|     calculations (for HF NCORE is supported but not extensively tested      |
|     yet).                                                                   |
|                                                                             |
 -----------------------------------------------------------------------------

 LDA part: xc-table for Pade appr. of Perdew
 POSCAR found type information on POSCAR NaAlS 
 00/POSCAR found :  3 types and      55 ions
 POSCAR found type information on POSCAR NaAlS 
 06/POSCAR found :  3 types and      55 ions
 POSCAR, INCAR and KPOINTS ok, starting setup
 FFT: planning ... GRIDC
 FFT: planning ... GRID_SOFT
 FFT: planning ... GRID
 WAVECAR not read
 entering main loop
       N       E                     dE             d eps       ncg     rms          rms(c)
DAV:   1     0.295346146262E+04    0.29535E+04   -0.13325E+05   432   0.137E+03
DAV:   2     0.174218672133E+03   -0.27792E+04   -0.26783E+04   444   0.380E+02
DAV:   3    -0.214713443212E+03   -0.38893E+03   -0.38564E+03   486   0.156E+02
DAV:   4    -0.233515657751E+03   -0.18802E+02   -0.18704E+02   456   0.337E+01
DAV:   5    -0.234370728885E+03   -0.85507E+00   -0.85437E+00   552   0.739E+00    0.249E+01
RMM:   6    -0.222828682755E+03    0.11542E+02   -0.20910E+01   422   0.599E+00    0.165E+01
RMM:   7    -0.222244965857E+03    0.58372E+00   -0.25558E+01   409   0.578E+00    0.918E+00
RMM:   8    -0.222086231738E+03    0.15873E+00   -0.20222E+00   497   0.301E+00    0.577E+00
RMM:   9    -0.221999563047E+03    0.86669E-01   -0.12233E+00   425   0.174E+00    0.195E+00
RMM:  10    -0.221905090438E+03    0.94473E-01   -0.28070E-01   525   0.105E+00    0.165E+00
RMM:  11    -0.221861340815E+03    0.43750E-01   -0.62682E-02   460   0.446E-01    0.915E-01
RMM:  12    -0.221856032470E+03    0.53083E-02   -0.41040E-02   519   0.283E-01    0.533E-01
RMM:  13    -0.221857514027E+03   -0.14816E-02   -0.54680E-03   492   0.139E-01    0.335E-01
RMM:  14    -0.221859675191E+03   -0.21612E-02   -0.48337E-03   417   0.121E-01    0.223E-01
RMM:  15    -0.221859149452E+03    0.52574E-03   -0.14254E-03   481   0.763E-02    0.126E-01
RMM:  16    -0.221859080774E+03    0.68679E-04   -0.35154E-04   385   0.384E-02    0.869E-02
RMM:  17    -0.221859337031E+03   -0.25626E-03   -0.87543E-04   444   0.423E-02    0.125E-01
RMM:  18    -0.221859164088E+03    0.17294E-03   -0.21303E-04   347   0.235E-02    0.210E-02
RMM:  19    -0.221859161642E+03    0.24461E-05   -0.64041E-05   412   0.140E-02
   1 F= -.22185916E+03 E0= -.22187347E+03  d E =-.221859E+03
quench:  g(F)=  0.000E+00 g(S)=  0.000E+00 dE (1.order)= 0.000E+00
 bond charge predicted
       N       E                     dE             d eps       ncg     rms          rms(c)
DAV:   1    -0.221859162153E+03    0.19352E-05   -0.87023E-06   258   0.792E-03    0.657E-03
RMM:   2    -0.221859162714E+03   -0.56054E-06   -0.30604E-06   231   0.440E-03
   2 F= -.22185916E+03 E0= -.22187347E+03  d E =-.107150E-05
quench:  g(F)=  0.000E+00 g(S)=  0.000E+00 dE (1.order)= 0.000E+00
 bond charge predicted
       N       E                     dE             d eps       ncg     rms          rms(c)
DAV:   1    -0.221859162744E+03   -0.59098E-06   -0.31147E-06   288   0.361E-03    0.435E-03
RMM:   2    -0.221859162885E+03   -0.14078E-06   -0.17801E-07   131   0.189E-03
   3 F= -.22185916E+03 E0= -.22187347E+03  d E =-.171221E-06
quench:  g(F)=  0.000E+00 g(S)=  0.000E+00 dE (1.order)= 0.000E+00
 bond charge predicted
       N       E                     dE             d eps       ncg     rms          rms(c)
DAV:   1    -0.221859162728E+03    0.16207E-07   -0.23709E-06   288   0.220E-03    0.262E-03
RMM:   2    -0.221859162707E+03    0.20649E-07   -0.97820E-10    51   0.120E-03
   4 F= -.22185916E+03 E0= -.22187347E+03  d E =0.177639E-06
quench:  g(F)=  0.000E+00 g(S)=  0.000E+00 dE (1.order)= 0.000E+00
 bond charge predicted
       N       E                     dE             d eps       ncg     rms          rms(c)
DAV:   1    -0.221859162688E+03    0.40080E-07   -0.81927E-07   264   0.143E-03    0.168E-03
RMM:   2    -0.221859162667E+03    0.20587E-07    0.25243-184    36   0.930E-04
   5 F= -.22185916E+03 E0= -.22187347E+03  d E =0.400178E-07
quench:  g(F)=  0.000E+00 g(S)=  0.000E+00 dE (1.order)= 0.000E+00
 bond charge predicted
       N       E                     dE             d eps       ncg     rms          rms(c)
DAV:   1    -0.221859162618E+03    0.70075E-07   -0.48594E-07   252   0.111E-03    0.917E-04
RMM:   2    -0.221859162592E+03    0.25793E-07    0.28118-191    25   0.605E-04
   6 F= -.22185916E+03 E0= -.22187347E+03  d E =0.752807E-07
quench:  g(F)=  0.000E+00 g(S)=  0.000E+00 dE (1.order)= 0.000E+00
 bond charge predicted
       N       E                     dE             d eps       ncg     rms          rms(c)
DAV:   1    -0.221859162586E+03    0.31985E-07   -0.12661E-07   252   0.662E-04    0.759E-04
RMM:   2    -0.221859162584E+03    0.14807E-08    0.77917-269    20   0.453E-04
   7 F= -.22185916E+03 E0= -.22187347E+03  d E =0.767250E-08
quench:  g(F)=  0.000E+00 g(S)=  0.000E+00 dE (1.order)= 0.000E+00
 bond charge predicted
       N       E                     dE             d eps       ncg     rms          rms(c)
DAV:   1    -0.221859162578E+03    0.76361E-08   -0.81644E-08   252   0.534E-04    0.366E-04
RMM:   2    -0.221859162573E+03    0.55370E-08    0.30132-278    16   0.260E-04
   8 F= -.22185916E+03 E0= -.22187347E+03  d E =0.116925E-07
quench:  g(F)=  0.000E+00 g(S)=  0.000E+00 dE (1.order)= 0.000E+00
 bond charge predicted
       N       E                     dE             d eps       ncg     rms          rms(c)
DAV:   1    -0.221859162571E+03    0.67921E-08   -0.19267E-08   252   0.289E-04    0.257E-04
RMM:   2    -0.221859162568E+03    0.31578E-08    0.20223-278    15   0.197E-04
   9 F= -.22185916E+03 E0= -.22187347E+03  d E =0.441287E-08
quench:  g(F)=  0.000E+00 g(S)=  0.000E+00 dE (1.order)= 0.000E+00
 bond charge predicted
       N       E                     dE             d eps       ncg     rms          rms(c)
DAV:   1    -0.221859162568E+03    0.34379E-08   -0.93697E-09   252   0.225E-04    0.157E-04
RMM:   2    -0.221859162565E+03    0.34270E-08    0.00000E+00    13   0.135E-04
  10 F= -.22185916E+03 E0= -.22187347E+03  d E =0.370710E-08
quench:  g(F)=  0.000E+00 g(S)=  0.000E+00 dE (1.order)= 0.000E+00
 bond charge predicted
       N       E                     dE             d eps       ncg     rms          rms(c)
DAV:   1    -0.221859162563E+03    0.48094E-08   -0.41119E-09   216   0.150E-04    0.111E-04
RMM:   2    -0.221859162563E+03    0.34561E-09    0.00000E+00    12   0.106E-04
  11 F= -.22185916E+03 E0= -.22187347E+03  d E =0.172804E-08
quench:  g(F)=  0.000E+00 g(S)=  0.000E+00 dE (1.order)= 0.000E+00
 bond charge predicted
       N       E                     dE             d eps       ncg     rms          rms(c)
DAV:   1    -0.221859162562E+03    0.72032E-09   -0.20081E-09   216   0.119E-04    0.683E-05
RMM:   2    -0.221859162562E+03    0.73851E-09    0.00000E+00    12   0.751E-05
  12 F= -.22185916E+03 E0= -.22187347E+03  d E =0.111322E-08
quench:  g(F)=  0.000E+00 g(S)=  0.000E+00 dE (1.order)= 0.000E+00
 bond charge predicted
       N       E                     dE             d eps       ncg     rms          rms(c)
DAV:   1    -0.221859162563E+03   -0.76398E-10   -0.97175E-10   216   0.825E-05    0.438E-05
RMM:   2    -0.221859162561E+03    0.15716E-08    0.00000E+00    12   0.580E-05
  13 F= -.22185916E+03 E0= -.22187347E+03  d E =0.756700E-09
quench:  g(F)=  0.000E+00 g(S)=  0.000E+00 dE (1.order)= 0.000E+00
 bond charge predicted
       N       E                     dE             d eps       ncg     rms          rms(c)
DAV:   1    -0.221859162562E+03    0.94951E-09   -0.47906E-10   216   0.637E-05    0.324E-05
RMM:   2    -0.221859162561E+03    0.94951E-09    0.00000E+00    10   0.429E-05
  14 F= -.22185916E+03 E0= -.22187347E+03  d E =0.327418E-09
quench:  g(F)=  0.000E+00 g(S)=  0.000E+00 dE (1.order)= 0.000E+00
 bond charge predicted
       N       E                     dE             d eps       ncg     rms          rms(c)
DAV:   1    -0.221859162560E+03    0.15061E-08   -0.32924E-10   216   0.467E-05    0.193E-05
RMM:   2    -0.221859162561E+03   -0.50932E-09    0.00000E+00     9   0.314E-05
  15 F= -.22185916E+03 E0= -.22187347E+03  d E =0.472937E-10
quench:  g(F)=  0.000E+00 g(S)=  0.000E+00 dE (1.order)= 0.000E+00
 bond charge predicted
       N       E                     dE             d eps       ncg     rms          rms(c)
DAV:   1    -0.221859162561E+03   -0.84037E-09   -0.17712E-10   216   0.343E-05    0.148E-05
RMM:   2    -0.221859162560E+03    0.62573E-09    0.00000E+00     9   0.242E-05
  16 F= -.22185916E+03 E0= -.22187347E+03  d E =0.294676E-09
quench:  g(F)=  0.000E+00 g(S)=  0.000E+00 dE (1.order)= 0.000E+00
 bond charge predicted
       N       E                     dE             d eps       ncg     rms          rms(c)
DAV:   1    -0.221859162561E+03    0.26557E-09   -0.25108E-10   216   0.263E-05    0.906E-06
RMM:   2    -0.221859162560E+03    0.41109E-09    0.00000E+00     8   0.177E-05
  17 F= -.22185916E+03 E0= -.22187347E+03  d E =0.509317E-10
quench:  g(F)=  0.000E+00 g(S)=  0.000E+00 dE (1.order)= 0.000E+00
 bond charge predicted
       N       E                     dE             d eps       ncg     rms          rms(c)
DAV:   1    -0.221859162561E+03   -0.14552E-09   -0.52720E-11   216   0.193E-05    0.642E-06
RMM:   2    -0.221859162560E+03    0.80763E-09    0.00000E+00     8   0.136E-05
  18 F= -.22185916E+03 E0= -.22187347E+03  d E =0.251021E-09
quench:  g(F)=  0.000E+00 g(S)=  0.000E+00 dE (1.order)= 0.000E+00
 bond charge predicted
       N       E                     dE             d eps       ncg     rms          rms(c)
DAV:   1    -0.221859162560E+03    0.46566E-09    0.20215E-11   216   0.149E-05    0.448E-06
RMM:   2    -0.221859162560E+03    0.46566E-09    0.00000E+00     7   0.104E-05
  19 F= -.22185916E+03 E0= -.22187347E+03  d E =0.123691E-09
quench:  g(F)=  0.000E+00 g(S)=  0.000E+00 dE (1.order)= 0.000E+00
 bond charge predicted
       N       E                     dE             d eps       ncg     rms          rms(c)
DAV:   1    -0.221859162559E+03    0.12151E-08   -0.95651E-11   216   0.114E-05    0.273E-06
RMM:   2    -0.221859162560E+03   -0.92768E-09    0.00000E+00     7   0.779E-06
  20 F= -.22185916E+03 E0= -.22187347E+03  d E =-.178261E-09
quench:  g(F)=  0.000E+00 g(S)=  0.000E+00 dE (1.order)= 0.000E+00
 bond charge predicted
       N       E                     dE             d eps       ncg     rms          rms(c)
DAV:   1    -0.221859162561E+03   -0.22483E-08   -0.11917E-10   216   0.853E-06    0.247E-06
RMM:   2    -0.221859162560E+03    0.13242E-08    0.00000E+00     6   0.626E-06
  21 F= -.22185916E+03 E0= -.22187347E+03  d E =0.363798E-11
quench:  g(F)=  0.000E+00 g(S)=  0.000E+00 dE (1.order)= 0.000E+00
 bond charge predicted
       N       E                     dE             d eps       ncg     rms          rms(c)
DAV:   1    -0.221859162560E+03    0.90222E-09   -0.13139E-10   216   0.686E-06    0.140E-06
RMM:   2    -0.221859162560E+03    0.64756E-09    0.00000E+00     6   0.452E-06
  22 F= -.22185916E+03 E0= -.22187347E+03  d E =0.225555E-09
quench:  g(F)=  0.000E+00 g(S)=  0.000E+00 dE (1.order)= 0.000E+00
 bond charge predicted
       N       E                     dE             d eps       ncg     rms          rms(c)
DAV:   1    -0.221859162559E+03    0.11387E-08   -0.28861E-11   216   0.489E-06    0.116E-06
RMM:   2    -0.221859162560E+03   -0.48385E-09    0.00000E+00     6   0.366E-06
  23 F= -.22185916E+03 E0= -.22187347E+03  d E =0.727596E-11
quench:  g(F)=  0.000E+00 g(S)=  0.000E+00 dE (1.order)= 0.000E+00
 bond charge predicted
       N       E                     dE             d eps       ncg     rms          rms(c)
DAV:   1    -0.221859162559E+03    0.11278E-09    0.14237E-10   216   0.404E-06    0.751E-07
RMM:   2    -0.221859162560E+03   -0.69849E-09    0.00000E+00     5   0.270E-06
  24 F= -.22185916E+03 E0= -.22187347E+03  d E =-.101863E-09
quench:  g(F)=  0.000E+00 g(S)=  0.000E+00 dE (1.order)= 0.000E+00
 bond charge predicted
       N       E                     dE             d eps       ncg     rms          rms(c)
DAV:   1    -0.221859162559E+03   -0.12733E-09   -0.16908E-11   216   0.293E-06    0.521E-07
RMM:   2    -0.221859162560E+03   -0.55661E-09    0.00000E+00     6   0.215E-06
  25 F= -.22185916E+03 E0= -.22187347E+03  d E =0.145519E-10
quench:  g(F)=  0.000E+00 g(S)=  0.000E+00 dE (1.order)= 0.000E+00
 bond charge predicted
       N       E                     dE             d eps       ncg     rms          rms(c)
DAV:   1    -0.221859162560E+03   -0.59663E-09   -0.28110E-11   216   0.237E-06    0.419E-07
RMM:   2    -0.221859162560E+03   -0.40018E-10    0.00000E+00     5   0.166E-06
  26 F= -.22185916E+03 E0= -.22187347E+03  d E =-.800355E-10
quench:  g(F)=  0.000E+00 g(S)=  0.000E+00 dE (1.order)= 0.000E+00
 bond charge predicted
       N       E                     dE             d eps       ncg     rms          rms(c)
DAV:   1    -0.221859162559E+03    0.78217E-09    0.13559E-11   216   0.181E-06    0.287E-07
RMM:   2    -0.221859162560E+03   -0.90949E-09    0.00000E+00     5   0.128E-06
  27 F= -.22185916E+03 E0= -.22187347E+03  d E =-.873115E-10
quench:  g(F)=  0.000E+00 g(S)=  0.000E+00 dE (1.order)= 0.000E+00
 bond charge predicted
       N       E                     dE             d eps       ncg     rms          rms(c)
DAV:   1    -0.221859162560E+03   -0.60754E-09   -0.12352E-10   216   0.141E-06    0.242E-07
RMM:   2    -0.221859162560E+03   -0.24374E-09    0.00000E+00     4   0.101E-06
  28 F= -.22185916E+03 E0= -.22187347E+03  d E =0.582077E-10
quench:  g(F)=  0.000E+00 g(S)=  0.000E+00 dE (1.order)= 0.000E+00
 bond charge predicted
       N       E                     dE             d eps       ncg     rms          rms(c)
DAV:   1    -0.221859162561E+03   -0.15752E-08    0.76279E-11   216   0.111E-06    0.174E-07
RMM:   2    -0.221859162560E+03    0.13679E-08    0.00000E+00     4   0.776E-07
  29 F= -.22185916E+03 E0= -.22187347E+03  d E =0.363798E-10
quench:  g(F)=  0.000E+00 g(S)=  0.000E+00 dE (1.order)= 0.000E+00
 bond charge predicted
       N       E                     dE             d eps       ncg     rms          rms(c)
DAV:   1    -0.221859162560E+03    0.16771E-08    0.67938E-11   216   0.852E-07    0.133E-07
RMM:   2    -0.221859162560E+03   -0.21828E-09    0.00000E+00     4   0.610E-07
  30 F= -.22185916E+03 E0= -.22187347E+03  d E =0.909495E-10
quench:  g(F)=  0.000E+00 g(S)=  0.000E+00 dE (1.order)= 0.000E+00
 bond charge predicted
       N       E                     dE             d eps       ncg     rms          rms(c)
DAV:   1    -0.221859162560E+03   -0.31650E-09   -0.51417E-11   216   0.674E-07    0.105E-07
RMM:   2    -0.221859162560E+03    0.43656E-10    0.00000E+00     4   0.477E-07
  31 F= -.22185916E+03 E0= -.22187347E+03  d E =-.545697E-10
quench:  g(F)=  0.000E+00 g(S)=  0.000E+00 dE (1.order)= 0.000E+00
 bond charge predicted
       N       E                     dE             d eps       ncg     rms          rms(c)
DAV:   1    -0.221859162560E+03    0.36380E-09   -0.61036E-11   216   0.526E-07    0.765E-08
RMM:   2    -0.221859162560E+03   -0.32378E-09    0.00000E+00     3   0.370E-07
  32 F= -.22185916E+03 E0= -.22187347E+03  d E =-.363798E-11
quench:  g(F)=  0.000E+00 g(S)=  0.000E+00 dE (1.order)= 0.000E+00
 bond charge predicted
       N       E                     dE             d eps       ncg     rms          rms(c)
DAV:   1    -0.221859162560E+03   -0.25830E-09    0.40070E-11   216   0.408E-07    0.634E-08
RMM:   2    -0.221859162560E+03   -0.10186E-09    0.00000E+00     3   0.294E-07
  33 F= -.22185916E+03 E0= -.22187347E+03  d E =-.363798E-10
quench:  g(F)=  0.000E+00 g(S)=  0.000E+00 dE (1.order)= 0.000E+00
 bond charge predicted
       N       E                     dE             d eps       ncg     rms          rms(c)
DAV:   1    -0.221859162561E+03   -0.82218E-09    0.84372E-11   216   0.325E-07    0.468E-08
RMM:   2    -0.221859162560E+03    0.73487E-09    0.00000E+00     3   0.226E-07
  34 F= -.22185916E+03 E0= -.22187347E+03  d E =0.145519E-10
quench:  g(F)=  0.000E+00 g(S)=  0.000E+00 dE (1.order)= 0.000E+00
 bond charge predicted
       N       E                     dE             d eps       ncg     rms          rms(c)
DAV:   1    -0.221859162560E+03    0.96406E-09    0.24635E-11   216   0.249E-07    0.383E-08
RMM:   2    -0.221859162560E+03   -0.17099E-09    0.00000E+00     3   0.180E-07
  35 F= -.22185916E+03 E0= -.22187347E+03  d E =0.582077E-10
quench:  g(F)=  0.000E+00 g(S)=  0.000E+00 dE (1.order)= 0.000E+00
 bond charge predicted
       N       E                     dE             d eps       ncg     rms          rms(c)
DAV:   1    -0.221859162560E+03   -0.72760E-09    0.50502E-11   216   0.200E-07    0.293E-08
RMM:   2    -0.221859162560E+03    0.50932E-09    0.00000E+00     3   0.139E-07
  36 F= -.22185916E+03 E0= -.22187347E+03  d E =-.472937E-10
quench:  g(F)=  0.000E+00 g(S)=  0.000E+00 dE (1.order)= 0.000E+00
 bond charge predicted
       N       E                     dE             d eps       ncg     rms          rms(c)
DAV:   1    -0.221859162559E+03    0.15061E-08    0.13617E-10   216   0.153E-07    0.225E-08
RMM:   2    -0.221859162560E+03   -0.11423E-08    0.00000E+00     3   0.110E-07
  37 F= -.22185916E+03 E0= -.22187347E+03  d E =-.145519E-09
quench:  g(F)=  0.000E+00 g(S)=  0.000E+00 dE (1.order)= 0.000E+00
 bond charge predicted
       N       E                     dE             d eps       ncg     rms          rms(c)
DAV:   1    -0.221859162560E+03   -0.77853E-09   -0.13179E-11   216   0.122E-07    0.181E-08
RMM:   2    -0.221859162560E+03   -0.22919E-09    0.00000E+00     3   0.859E-08
  38 F= -.22185916E+03 E0= -.22187347E+03  d E =0.134605E-09
quench:  g(F)=  0.000E+00 g(S)=  0.000E+00 dE (1.order)= 0.000E+00
 bond charge predicted
       N       E                     dE             d eps       ncg     rms          rms(c)
DAV:   1    -0.221859162559E+03    0.50568E-09    0.14148E-10   216   0.948E-08    0.135E-08
RMM:   2    -0.221859162560E+03   -0.70577E-09    0.00000E+00     3   0.672E-08
  39 F= -.22185916E+03 E0= -.22187347E+03  d E =0.291038E-10
quench:  g(F)=  0.000E+00 g(S)=  0.000E+00 dE (1.order)= 0.000E+00
 bond charge predicted
       N       E                     dE             d eps       ncg     rms          rms(c)
DAV:   1    -0.221859162560E+03   -0.66211E-09    0.78111E-11   204   0.747E-08    0.111E-08
RMM:   2    -0.221859162560E+03   -0.12733E-09    0.00000E+00     2   0.531E-08
  40 F= -.22185916E+03 E0= -.22187347E+03  d E =-.836735E-10
quench:  g(F)=  0.000E+00 g(S)=  0.000E+00 dE (1.order)= 0.000E+00
 bond charge predicted
       N       E                     dE             d eps       ncg     rms          rms(c)
DAV:   1    -0.221859162560E+03   -0.19645E-09    0.14211E-10   198   0.588E-08    0.846E-09
RMM:   2    -0.221859162560E+03    0.21464E-09    0.00000E+00     1   0.414E-08
  41 F= -.22185916E+03 E0= -.22187347E+03  d E =0.145519E-09
quench:  g(F)=  0.000E+00 g(S)=  0.000E+00 dE (1.order)= 0.000E+00
 bond charge predicted
       N       E                     dE             d eps       ncg     rms          rms(c)
DAV:   1    -0.221859162560E+03   -0.26921E-09    0.14082E-10   198   0.463E-08    0.682E-09
RMM:   2    -0.221859162560E+03    0.36016E-09    0.00000E+00     2   0.327E-08
  42 F= -.22185916E+03 E0= -.22187347E+03  d E =-.123691E-09
quench:  g(F)=  0.000E+00 g(S)=  0.000E+00 dE (1.order)= 0.000E+00
 bond charge predicted
       N       E                     dE             d eps       ncg     rms          rms(c)
DAV:   1    -0.221859162560E+03    0.60754E-09    0.13732E-10   198   0.364E-08    0.525E-09
RMM:   2    -0.221859162560E+03   -0.26921E-09    0.00000E+00     1   0.256E-08
  43 F= -.22185916E+03 E0= -.22187347E+03  d E =-.218279E-10
quench:  g(F)=  0.000E+00 g(S)=  0.000E+00 dE (1.order)= 0.000E+00
 bond charge predicted
       N       E                     dE             d eps       ncg     rms          rms(c)
DAV:   1    -0.221859162560E+03   -0.24011E-09    0.19375E-10   198   0.286E-08    0.415E-09
RMM:   2    -0.221859162560E+03    0.94587E-10    0.00000E+00     2   0.202E-08
  44 F= -.22185916E+03 E0= -.22187347E+03  d E =0.123691E-09
quench:  g(F)=  0.000E+00 g(S)=  0.000E+00 dE (1.order)= 0.000E+00
 bond charge predicted
       N       E                     dE             d eps       ncg     rms          rms(c)
DAV:   1    -0.221859162559E+03    0.66575E-09    0.82162E-11   198   0.226E-08    0.336E-09
RMM:   2    -0.221859162560E+03   -0.48021E-09    0.00000E+00     1   0.159E-08
  45 F= -.22185916E+03 E0= -.22187347E+03  d E =0.909495E-10
quench:  g(F)=  0.000E+00 g(S)=  0.000E+00 dE (1.order)= 0.000E+00
 bond charge predicted
       N       E                     dE             d eps       ncg     rms          rms(c)
DAV:   1    -0.221859162560E+03   -0.41837E-09    0.44299E-11   198   0.178E-08    0.255E-09
RMM:   2    -0.221859162560E+03   -0.27285E-09    0.00000E+00     2   0.124E-08
  46 F= -.22185916E+03 E0= -.22187347E+03  d E =-.211003E-09
quench:  g(F)=  0.000E+00 g(S)=  0.000E+00 dE (1.order)= 0.000E+00
 bond charge predicted
       N       E                     dE             d eps       ncg     rms          rms(c)
DAV:   1    -0.221859162559E+03    0.46566E-09   -0.35869E-11   198   0.136E-08    0.202E-09
RMM:   2    -0.221859162560E+03   -0.64756E-09    0.00000E+00     1   0.986E-09
  47 F= -.22185916E+03 E0= -.22187347E+03  d E =0.909495E-10
quench:  g(F)=  0.000E+00 g(S)=  0.000E+00 dE (1.order)= 0.000E+00
 bond charge predicted
       N       E                     dE             d eps       ncg     rms          rms(c)
DAV:   1    -0.221859162560E+03   -0.93132E-09    0.51505E-11   198   0.116E-08    0.189E-09
RMM:   2    -0.221859162560E+03    0.35288E-09    0.00000E+00     2   0.781E-09
  48 F= -.22185916E+03 E0= -.22187347E+03  d E =0.691216E-10
quench:  g(F)=  0.000E+00 g(S)=  0.000E+00 dE (1.order)= 0.000E+00
 bond charge predicted
       N       E                     dE             d eps       ncg     rms          rms(c)
DAV:   1    -0.221859162561E+03   -0.86220E-09    0.99456E-11   198   0.861E-09    0.113E-09
RMM:   2    -0.221859162560E+03    0.10914E-08    0.00000E+00     1   0.602E-09
  49 F= -.22185916E+03 E0= -.22187347E+03  d E =-.123691E-09
quench:  g(F)=  0.000E+00 g(S)=  0.000E+00 dE (1.order)= 0.000E+00
 bond charge predicted
       N       E                     dE             d eps       ncg     rms          rms(c)
DAV:   1    -0.221859162560E+03    0.68394E-09    0.20932E-10   198   0.665E-09    0.113E-09
RMM:   2    -0.221859162560E+03    0.54206E-09    0.00000E+00     2   0.490E-09
  50 F= -.22185916E+03 E0= -.22187347E+03  d E =0.134605E-09
quench:  g(F)=  0.000E+00 g(S)=  0.000E+00 dE (1.order)= 0.000E+00
 bond charge predicted
       N       E                     dE             d eps       ncg     rms          rms(c)
DAV:   1    -0.221859162561E+03   -0.25466E-09    0.16354E-10   198   0.556E-09    0.820E-10
RMM:   2    -0.221859162560E+03    0.57844E-09    0.00000E+00     1   0.372E-09
  51 F= -.22185916E+03 E0= -.22187347E+03  d E =-.218279E-09
quench:  g(F)=  0.000E+00 g(S)=  0.000E+00 dE (1.order)= 0.000E+00
 bond charge predicted
       N       E                     dE             d eps       ncg     rms          rms(c)
DAV:   1    -0.221859162560E+03    0.86584E-09    0.10680E-10   198   0.427E-09    0.753E-10
RMM:   2    -0.221859162560E+03   -0.13824E-09    0.00000E+00     2   0.299E-09
  52 F= -.22185916E+03 E0= -.22187347E+03  d E =0.149157E-09
quench:  g(F)=  0.000E+00 g(S)=  0.000E+00 dE (1.order)= 0.000E+00
 bond charge predicted
       N       E                     dE             d eps       ncg     rms          rms(c)
DAV:   1    -0.221859162560E+03    0.12005E-09    0.72263E-11   198   0.327E-09    0.482E-10
RMM:   2    -0.221859162560E+03   -0.29104E-09    0.00000E+00     1   0.231E-09
  53 F= -.22185916E+03 E0= -.22187347E+03  d E =-.327418E-10
quench:  g(F)=  0.000E+00 g(S)=  0.000E+00 dE (1.order)= 0.000E+00
 bond charge predicted
       N       E                     dE             d eps       ncg     rms          rms(c)
DAV:   1    -0.221859162561E+03   -0.11169E-08    0.15586E-10   198   0.287E-09    0.561E-10
RMM:   2    -0.221859162560E+03    0.78944E-09    0.00000E+00     2   0.194E-09
  54 F= -.22185916E+03 E0= -.22187347E+03  d E =-.363798E-10
quench:  g(F)=  0.000E+00 g(S)=  0.000E+00 dE (1.order)= 0.000E+00
 bond charge predicted
       N       E                     dE             d eps       ncg     rms          rms(c)
DAV:   1    -0.221859162560E+03    0.70213E-09    0.20047E-10   198   0.216E-09    0.311E-10
RMM:   2    -0.221859162560E+03    0.50932E-10    0.00000E+00     1   0.145E-09
  55 F= -.22185916E+03 E0= -.22187347E+03  d E =-.363798E-10
quench:  g(F)=  0.000E+00 g(S)=  0.000E+00 dE (1.order)= 0.000E+00
 bond charge predicted
       N       E                     dE             d eps       ncg     rms          rms(c)
DAV:   1    -0.221859162561E+03   -0.46202E-09    0.73982E-11   198   0.157E-09    0.348E-10
RMM:   2    -0.221859162560E+03    0.65847E-09    0.00000E+00     1   0.120E-09
  56 F= -.22185916E+03 E0= -.22187347E+03  d E =0.145519E-09
quench:  g(F)=  0.000E+00 g(S)=  0.000E+00 dE (1.order)= 0.000E+00
 bond charge predicted
       N       E                     dE             d eps       ncg     rms          rms(c)
DAV:   1    -0.221859162561E+03   -0.11278E-09   -0.25895E-11   198   0.137E-09    0.329E-10
RMM:   2    -0.221859162560E+03    0.70577E-09    0.00000E+00     1   0.918E-10
  57 F= -.22185916E+03 E0= -.22187347E+03  d E =-.654836E-10
quench:  g(F)=  0.000E+00 g(S)=  0.000E+00 dE (1.order)= 0.000E+00
 bond charge predicted
       N       E                     dE             d eps       ncg     rms          rms(c)
DAV:   1    -0.221859162560E+03    0.29831E-09    0.18346E-12   198   0.101E-09    0.391E-10
RMM:   2    -0.221859162560E+03    0.43292E-09    0.00000E+00     1   0.751E-10
  58 F= -.22185916E+03 E0= -.22187347E+03  d E =0.254659E-10
quench:  g(F)=  0.000E+00 g(S)=  0.000E+00 dE (1.order)= 0.000E+00
 bond charge predicted
       N       E                     dE             d eps       ncg     rms          rms(c)
DAV:   1    -0.221859162560E+03    0.65120E-09   -0.12953E-11   198   0.843E-10    0.238E-10
RMM:   2    -0.221859162560E+03   -0.31287E-09    0.00000E+00     1   0.595E-10
  59 F= -.22185916E+03 E0= -.22187347E+03  d E =-.945874E-10
quench:  g(F)=  0.000E+00 g(S)=  0.000E+00 dE (1.order)= 0.000E+00
 bond charge predicted
       N       E                     dE             d eps       ncg     rms          rms(c)
DAV:   1    -0.221859162559E+03    0.48385E-09    0.14832E-10   198   0.665E-10    0.274E-10
RMM:   2    -0.221859162560E+03   -0.77125E-09    0.00000E+00     1   0.492E-10
  60 F= -.22185916E+03 E0= -.22187347E+03  d E =0.254659E-10
quench:  g(F)=  0.000E+00 g(S)=  0.000E+00 dE (1.order)= 0.000E+00
 bond charge predicted
       N       E                     dE             d eps       ncg     rms          rms(c)
DAV:   1    -0.221859162561E+03   -0.17753E-08    0.14721E-10   198   0.545E-10    0.243E-10
RMM:   2    -0.221859162560E+03    0.91313E-09    0.00000E+00     1   0.396E-10
  61 F= -.22185916E+03 E0= -.22187347E+03  d E =-.909495E-10
quench:  g(F)=  0.000E+00 g(S)=  0.000E+00 dE (1.order)= 0.000E+00
 bond charge predicted
       N       E                     dE             d eps       ncg     rms          rms(c)
DAV:   1    -0.221859162560E+03    0.65484E-09    0.14648E-10   198   0.450E-10    0.228E-10
RMM:   2    -0.221859162560E+03    0.32378E-09    0.00000E+00     1   0.329E-10
  62 F= -.22185916E+03 E0= -.22187347E+03  d E =0.654836E-10
quench:  g(F)=  0.000E+00 g(S)=  0.000E+00 dE (1.order)= 0.000E+00
 bond charge predicted
       N       E                     dE             d eps       ncg     rms          rms(c)
DAV:   1    -0.221859162560E+03    0.32014E-09    0.82953E-11   198   0.369E-10    0.291E-10
RMM:   2    -0.221859162560E+03   -0.21828E-10    0.00000E+00     1   0.275E-10
  63 F= -.22185916E+03 E0= -.22187347E+03  d E =-.254659E-10
quench:  g(F)=  0.000E+00 g(S)=  0.000E+00 dE (1.order)= 0.000E+00
 bond charge predicted
       N       E                     dE             d eps       ncg     rms          rms(c)
DAV:   1    -0.221859162560E+03    0.24374E-09    0.18307E-11   198   0.316E-10    0.270E-10
RMM:   2    -0.221859162560E+03   -0.20373E-09    0.00000E+00     1   0.237E-10
  64 F= -.22185916E+03 E0= -.22187347E+03  d E =0.618456E-10
quench:  g(F)=  0.000E+00 g(S)=  0.000E+00 dE (1.order)= 0.000E+00
 bond charge predicted
       N       E                     dE             d eps       ncg     rms          rms(c)
DAV:   1    -0.221859162561E+03   -0.75670E-09    0.81018E-11   198   0.293E-10    0.338E-10
RMM:   2    -0.221859162560E+03    0.51296E-09    0.00000E+00     1   0.223E-10
  65 F= -.22185916E+03 E0= -.22187347E+03  d E =-.400178E-10
quench:  g(F)=  0.000E+00 g(S)=  0.000E+00 dE (1.order)= 0.000E+00
 bond charge predicted
       N       E                     dE             d eps       ncg     rms          rms(c)
DAV:   1    -0.221859162559E+03    0.15352E-08   -0.20310E-12   198   0.305E-10    0.324E-10
RMM:   2    -0.221859162560E+03   -0.84765E-09    0.00000E+00     1   0.205E-10
  66 F= -.22185916E+03 E0= -.22187347E+03  d E =0.174623E-09
quench:  g(F)=  0.000E+00 g(S)=  0.000E+00 dE (1.order)= 0.000E+00
 bond charge predicted
       N       E                     dE             d eps       ncg     rms          rms(c)
DAV:   1    -0.221859162560E+03   -0.11023E-08    0.15059E-11   198   0.250E-10    0.301E-10
RMM:   2    -0.221859162560E+03    0.18917E-09    0.00000E+00     1   0.165E-10
  67 F= -.22185916E+03 E0= -.22187347E+03  d E =-.654836E-10
quench:  g(F)=  0.000E+00 g(S)=  0.000E+00 dE (1.order)= 0.000E+00
 bond charge predicted
       N       E                     dE             d eps       ncg     rms          rms(c)
DAV:   1    -0.221859162559E+03    0.89494E-09    0.45746E-11   198   0.213E-10    0.283E-10
RMM:   2    -0.221859162560E+03   -0.69849E-09    0.00000E+00     1   0.150E-10
  68 F= -.22185916E+03 E0= -.22187347E+03  d E =0.727596E-11
quench:  g(F)=  0.000E+00 g(S)=  0.000E+00 dE (1.order)= 0.000E+00
 bond charge predicted
       N       E                     dE             d eps       ncg     rms          rms(c)
DAV:   1    -0.221859162560E+03   -0.12842E-08   -0.24944E-11   198   0.195E-10    0.303E-10
RMM:   2    -0.221859162560E+03    0.66211E-09    0.00000E+00     1   0.157E-10
  69 F= -.22185916E+03 E0= -.22187347E+03  d E =0.763976E-10
quench:  g(F)=  0.000E+00 g(S)=  0.000E+00 dE (1.order)= 0.000E+00
 bond charge predicted
       N       E                     dE             d eps       ncg     rms          rms(c)
DAV:   1    -0.221859162561E+03   -0.20736E-09    0.81463E-11   198   0.217E-10    0.328E-10
RMM:   2    -0.221859162560E+03    0.78217E-09    0.00000E+00     1   0.150E-10
  70 F= -.22185916E+03 E0= -.22187347E+03  d E =-.873115E-10
quench:  g(F)=  0.000E+00 g(S)=  0.000E+00 dE (1.order)= 0.000E+00
 bond charge predicted
       N       E                     dE             d eps       ncg     rms          rms(c)
DAV:   1    -0.221859162560E+03    0.96043E-09    0.13862E-10   198   0.205E-10    0.271E-10
RMM:   2    -0.221859162560E+03   -0.19281E-09    0.00000E+00     1   0.128E-10
  71 F= -.22185916E+03 E0= -.22187347E+03  d E =-.145519E-10
quench:  g(F)=  0.000E+00 g(S)=  0.000E+00 dE (1.order)= 0.000E+00
 bond charge predicted
       N       E                     dE             d eps       ncg     rms          rms(c)
DAV:   1    -0.221859162559E+03    0.67303E-09    0.53314E-11   198   0.158E-10    0.246E-10
RMM:   2    -0.221859162560E+03   -0.89494E-09    0.00000E+00     1   0.118E-10
  72 F= -.22185916E+03 E0= -.22187347E+03  d E =-.291038E-10
quench:  g(F)=  0.000E+00 g(S)=  0.000E+00 dE (1.order)= 0.000E+00
 bond charge predicted
       N       E                     dE             d eps       ncg     rms          rms(c)
DAV:   1    -0.221859162560E+03   -0.92405E-09    0.10975E-10   198   0.140E-10    0.337E-10
RMM:   2    -0.221859162560E+03    0.94587E-10    0.00000E+00     1   0.113E-10
  73 F= -.22185916E+03 E0= -.22187347E+03  d E =0.654836E-10
quench:  g(F)=  0.000E+00 g(S)=  0.000E+00 dE (1.order)= 0.000E+00
 bond charge predicted
       N       E                     dE             d eps       ncg     rms          rms(c)
DAV:   1    -0.221859162561E+03   -0.62209E-09    0.46655E-11   198   0.190E-10    0.226E-10
RMM:   2    -0.221859162560E+03    0.77489E-09    0.00000E+00     1   0.937E-11
  74 F= -.22185916E+03 E0= -.22187347E+03  d E =0.582077E-10
quench:  g(F)=  0.000E+00 g(S)=  0.000E+00 dE (1.order)= 0.000E+00
 bond charge predicted
       N       E                     dE             d eps       ncg     rms          rms(c)
DAV:   1    -0.221859162560E+03    0.88767E-09    0.36821E-11   198   0.119E-10    0.390E-10
RMM:   2    -0.221859162560E+03   -0.27285E-09    0.00000E+00     1   0.142E-10
  75 F= -.22185916E+03 E0= -.22187347E+03  d E =-.160071E-09
quench:  g(F)=  0.000E+00 g(S)=  0.000E+00 dE (1.order)= 0.000E+00
 bond charge predicted
       N       E                     dE             d eps       ncg     rms          rms(c)
DAV:   1    -0.221859162560E+03    0.90949E-10   -0.17582E-11   198   0.221E-10    0.350E-10
RMM:   2    -0.221859162560E+03   -0.39654E-09    0.00000E+00     1   0.115E-10
  76 F= -.22185916E+03 E0= -.22187347E+03  d E =-.327418E-10
quench:  g(F)=  0.000E+00 g(S)=  0.000E+00 dE (1.order)= 0.000E+00
 bond charge predicted
       N       E                     dE             d eps       ncg     rms          rms(c)
DAV:   1    -0.221859162560E+03   -0.30923E-09    0.15855E-10   198   0.188E-10    0.380E-10
RMM:   2    -0.221859162560E+03    0.14552E-10    0.00000E+00     1   0.155E-10
  77 F= -.22185916E+03 E0= -.22187347E+03  d E =0.101863E-09
quench:  g(F)=  0.000E+00 g(S)=  0.000E+00 dE (1.order)= 0.000E+00
 bond charge predicted
       N       E                     dE             d eps       ncg     rms          rms(c)
DAV:   1    -0.221859162560E+03    0.38926E-09    0.11210E-10   198   0.227E-10    0.304E-10
RMM:   2    -0.221859162560E+03   -0.47294E-09    0.00000E+00     1   0.110E-10
  78 F= -.22185916E+03 E0= -.22187347E+03  d E =-.982254E-10
quench:  g(F)=  0.000E+00 g(S)=  0.000E+00 dE (1.order)= 0.000E+00
 bond charge predicted
       N       E                     dE             d eps       ncg     rms          rms(c)
DAV:   1    -0.221859162560E+03   -0.68758E-09    0.91816E-11   198   0.169E-10    0.343E-10
RMM:   2    -0.221859162560E+03    0.30559E-09    0.00000E+00     1   0.115E-10
  79 F= -.22185916E+03 E0= -.22187347E+03  d E =0.909495E-10
quench:  g(F)=  0.000E+00 g(S)=  0.000E+00 dE (1.order)= 0.000E+00
 bond charge predicted
       N       E                     dE             d eps       ncg     rms          rms(c)
DAV:   1    -0.221859162559E+03    0.87675E-09    0.19398E-10   198   0.184E-10    0.351E-10
RMM:   2    -0.221859162560E+03   -0.65484E-09    0.00000E+00     1   0.122E-10
  80 F= -.22185916E+03 E0= -.22187347E+03  d E =-.836735E-10
quench:  g(F)=  0.000E+00 g(S)=  0.000E+00 dE (1.order)= 0.000E+00
 bond charge predicted
       N       E                     dE             d eps       ncg     rms          rms(c)
DAV:   1    -0.221859162560E+03   -0.82218E-09    0.26375E-11   198   0.182E-10    0.437E-10
RMM:   2    -0.221859162560E+03    0.21464E-09    0.00000E+00     1   0.174E-10
  81 F= -.22185916E+03 E0= -.22187347E+03  d E =0.472937E-10
quench:  g(F)=  0.000E+00 g(S)=  0.000E+00 dE (1.order)= 0.000E+00
 bond charge predicted
       N       E                     dE             d eps       ncg     rms          rms(c)
DAV:   1    -0.221859162560E+03   -0.76398E-10    0.23235E-10   198   0.278E-10    0.378E-10
RMM:   2    -0.221859162560E+03    0.39654E-09    0.00000E+00     1   0.151E-10
  82 F= -.22185916E+03 E0= -.22187347E+03  d E =0.105501E-09
quench:  g(F)=  0.000E+00 g(S)=  0.000E+00 dE (1.order)= 0.000E+00
 bond charge predicted
       N       E                     dE             d eps       ncg     rms          rms(c)
DAV:   1    -0.221859162559E+03    0.85129E-09   -0.15264E-12   198   0.223E-10    0.235E-10
RMM:   2    -0.221859162560E+03   -0.62937E-09    0.00000E+00     1   0.102E-10
  83 F= -.22185916E+03 E0= -.22187347E+03  d E =-.174623E-09
quench:  g(F)=  0.000E+00 g(S)=  0.000E+00 dE (1.order)= 0.000E+00
 bond charge predicted
       N       E                     dE             d eps       ncg     rms          rms(c)
DAV:   1    -0.221859162560E+03   -0.10696E-08    0.71669E-11   198   0.128E-10    0.301E-10
RMM:   2    -0.221859162560E+03    0.50932E-09    0.00000E+00     1   0.101E-10
  84 F= -.22185916E+03 E0= -.22187347E+03  d E =0.691216E-10
quench:  g(F)=  0.000E+00 g(S)=  0.000E+00 dE (1.order)= 0.000E+00
 bond charge predicted
       N       E                     dE             d eps       ncg     rms          rms(c)
DAV:   1    -0.221859162559E+03    0.13024E-08    0.15563E-10   198   0.148E-10    0.298E-10
RMM:   2    -0.221859162560E+03   -0.72760E-09    0.00000E+00     1   0.110E-10
  85 F= -.22185916E+03 E0= -.22187347E+03  d E =0.654836E-10
quench:  g(F)=  0.000E+00 g(S)=  0.000E+00 dE (1.order)= 0.000E+00
 bond charge predicted
       N       E                     dE             d eps       ncg     rms          rms(c)
DAV:   1    -0.221859162559E+03    0.13097E-09    0.60022E-11   198   0.155E-10    0.220E-10
RMM:   2    -0.221859162560E+03   -0.90586E-09    0.00000E+00     1   0.866E-11
  86 F= -.22185916E+03 E0= -.22187347E+03  d E =-.472937E-10
quench:  g(F)=  0.000E+00 g(S)=  0.000E+00 dE (1.order)= 0.000E+00
 bond charge predicted
       N       E                     dE             d eps       ncg     rms          rms(c)
DAV:   1    -0.221859162560E+03   -0.13788E-08    0.12933E-11   198   0.104E-10    0.261E-10
RMM:   2    -0.221859162560E+03    0.42201E-09    0.00000E+00     1   0.109E-10
  87 F= -.22185916E+03 E0= -.22187347E+03  d E =-.509317E-10
quench:  g(F)=  0.000E+00 g(S)=  0.000E+00 dE (1.order)= 0.000E+00
 bond charge predicted
       N       E                     dE             d eps       ncg     rms          rms(c)
DAV:   1    -0.221859162560E+03    0.74942E-09    0.75905E-11   198   0.161E-10    0.296E-10
RMM:   2    -0.221859162560E+03   -0.39290E-09    0.00000E+00     1   0.106E-10
  88 F= -.22185916E+03 E0= -.22187347E+03  d E =-.654836E-10
quench:  g(F)=  0.000E+00 g(S)=  0.000E+00 dE (1.order)= 0.000E+00
 bond charge predicted
       N       E                     dE             d eps       ncg     rms          rms(c)
DAV:   1    -0.221859162560E+03   -0.29831E-09    0.96945E-11   198   0.166E-10    0.207E-10
RMM:   2    -0.221859162560E+03   -0.36380E-10    0.00000E+00     0   0.720E-11
  89 F= -.22185916E+03 E0= -.22187347E+03  d E =0.582077E-10
quench:  g(F)=  0.000E+00 g(S)=  0.000E+00 dE (1.order)= 0.000E+00
 bond charge predicted
       N       E                     dE             d eps       ncg     rms          rms(c)
DAV:   1    -0.221859162560E+03    0.38199E-09    0.11622E-10   198   0.924E-11    0.219E-10
RMM:   2    -0.221859162560E+03   -0.41837E-09    0.00000E+00     0   0.738E-11
  90 F= -.22185916E+03 E0= -.22187347E+03  d E =0.000000E+00
quench:  g(F)=  0.000E+00 g(S)=  0.000E+00 dE (1.order)= 0.000E+00
 bond charge predicted
       N       E                     dE             d eps       ncg     rms          rms(c)
DAV:   1    -0.221859162560E+03   -0.77489E-09    0.68696E-11   198   0.851E-11    0.246E-10
RMM:   2    -0.221859162560E+03    0.48021E-09    0.00000E+00     1   0.891E-11
  91 F= -.22185916E+03 E0= -.22187347E+03  d E =0.123691E-09
quench:  g(F)=  0.000E+00 g(S)=  0.000E+00 dE (1.order)= 0.000E+00
 bond charge predicted
       N       E                     dE             d eps       ncg     rms          rms(c)
DAV:   1    -0.221859162560E+03    0.11278E-09    0.43543E-11   198   0.125E-10    0.324E-10
RMM:   2    -0.221859162560E+03    0.25466E-09    0.00000E+00     1   0.130E-10
  92 F= -.22185916E+03 E0= -.22187347E+03  d E =-.112777E-09
quench:  g(F)=  0.000E+00 g(S)=  0.000E+00 dE (1.order)= 0.000E+00
 bond charge predicted
       N       E                     dE             d eps       ncg     rms          rms(c)
DAV:   1    -0.221859162561E+03   -0.72396E-09   -0.27517E-11   198   0.202E-10    0.348E-10
RMM:   2    -0.221859162560E+03    0.11387E-08    0.00000E+00     0   0.133E-10
  93 F= -.22185916E+03 E0= -.22187347E+03  d E =0.160071E-09
quench:  g(F)=  0.000E+00 g(S)=  0.000E+00 dE (1.order)= 0.000E+00
 bond charge predicted
       N       E                     dE             d eps       ncg     rms          rms(c)
DAV:   1    -0.221859162559E+03    0.17353E-08    0.35785E-11   198   0.185E-10    0.297E-10
RMM:   2    -0.221859162560E+03   -0.80763E-09    0.00000E+00     0   0.107E-10
  94 F= -.22185916E+03 E0= -.22187347E+03  d E =-.211003E-09
quench:  g(F)=  0.000E+00 g(S)=  0.000E+00 dE (1.order)= 0.000E+00
 bond charge predicted
       N       E                     dE             d eps       ncg     rms          rms(c)
DAV:   1    -0.221859162561E+03   -0.13024E-08    0.15756E-11   198   0.173E-10    0.297E-10
RMM:   2    -0.221859162560E+03    0.69122E-09    0.00000E+00     0   0.121E-10
  95 F= -.22185916E+03 E0= -.22187347E+03  d E =0.196451E-09
quench:  g(F)=  0.000E+00 g(S)=  0.000E+00 dE (1.order)= 0.000E+00
 bond charge predicted
       N       E                     dE             d eps       ncg     rms          rms(c)
DAV:   1    -0.221859162559E+03    0.12697E-08    0.17500E-11   198   0.206E-10    0.360E-10
RMM:   2    -0.221859162560E+03   -0.66211E-09    0.00000E+00     0   0.132E-10
  96 F= -.22185916E+03 E0= -.22187347E+03  d E =-.836735E-10
quench:  g(F)=  0.000E+00 g(S)=  0.000E+00 dE (1.order)= 0.000E+00
 bond charge predicted
       N       E                     dE             d eps       ncg     rms          rms(c)
DAV:   1    -0.221859162560E+03   -0.11714E-08    0.18425E-10   198   0.205E-10    0.241E-10
RMM:   2    -0.221859162560E+03    0.47658E-09    0.00000E+00     0   0.950E-11
  97 F= -.22185916E+03 E0= -.22187347E+03  d E =-.327418E-10
quench:  g(F)=  0.000E+00 g(S)=  0.000E+00 dE (1.order)= 0.000E+00
 bond charge predicted
       N       E                     dE             d eps       ncg     rms          rms(c)
DAV:   1    -0.221859162560E+03    0.79672E-09    0.26924E-11   198   0.140E-10    0.302E-10
RMM:   2    -0.221859162560E+03   -0.38563E-09    0.00000E+00     0   0.133E-10
  98 F= -.22185916E+03 E0= -.22187347E+03  d E =-.654836E-10
quench:  g(F)=  0.000E+00 g(S)=  0.000E+00 dE (1.order)= 0.000E+00
 bond charge predicted
       N       E                     dE             d eps       ncg     rms          rms(c)
DAV:   1    -0.221859162559E+03    0.45839E-09    0.19279E-10   198   0.168E-10    0.233E-10
RMM:   2    -0.221859162560E+03   -0.78580E-09    0.00000E+00     0   0.821E-11
  99 F= -.22185916E+03 E0= -.22187347E+03  d E =0.582077E-10
quench:  g(F)=  0.000E+00 g(S)=  0.000E+00 dE (1.order)= 0.000E+00
 bond charge predicted
       N       E                     dE             d eps       ncg     rms          rms(c)
DAV:   1    -0.221859162560E+03   -0.11059E-08    0.30489E-12   198   0.125E-10    0.338E-10
RMM:   2    -0.221859162560E+03    0.35652E-09    0.00000E+00     0   0.103E-10
 100 F= -.22185916E+03 E0= -.22187347E+03  d E =0.363798E-10
quench:  g(F)=  0.000E+00 g(S)=  0.000E+00 dE (1.order)= 0.000E+00
 bond charge predicted
       N       E                     dE             d eps       ncg     rms          rms(c)
DAV:   1    -0.221859162560E+03    0.18190E-10    0.20045E-10   198   0.164E-10    0.294E-10
RMM:   2    -0.221859162560E+03    0.40382E-09    0.00000E+00     0   0.105E-10
 101 F= -.22185916E+03 E0= -.22187347E+03  d E =0.654836E-10
quench:  g(F)=  0.000E+00 g(S)=  0.000E+00 dE (1.order)= 0.000E+00
 bond charge predicted
       N       E                     dE             d eps       ncg     rms          rms(c)
DAV:   1    -0.221859162560E+03    0.45839E-09    0.16622E-10   198   0.183E-10    0.241E-10
RMM:   2    -0.221859162560E+03   -0.26193E-09    0.00000E+00     0   0.988E-11
 102 F= -.22185916E+03 E0= -.22187347E+03  d E =-.207365E-09
quench:  g(F)=  0.000E+00 g(S)=  0.000E+00 dE (1.order)= 0.000E+00
 bond charge predicted
       N       E                     dE             d eps       ncg     rms          rms(c)
DAV:   1    -0.221859162559E+03    0.82218E-09    0.70684E-11   198   0.142E-10    0.171E-10
RMM:   2    -0.221859162560E+03   -0.86948E-09    0.00000E+00     0   0.802E-11
 103 F= -.22185916E+03 E0= -.22187347E+03  d E =0.214641E-09
quench:  g(F)=  0.000E+00 g(S)=  0.000E+00 dE (1.order)= 0.000E+00
 bond charge predicted
       N       E                     dE             d eps       ncg     rms          rms(c)
DAV:   1    -0.221859162560E+03   -0.11132E-08    0.40366E-11   198   0.952E-11    0.365E-10
RMM:   2    -0.221859162560E+03    0.98225E-10    0.00000E+00     0   0.105E-10
 104 F= -.22185916E+03 E0= -.22187347E+03  d E =-.145519E-09
quench:  g(F)=  0.000E+00 g(S)=  0.000E+00 dE (1.order)= 0.000E+00
 bond charge predicted
       N       E                     dE             d eps       ncg     rms          rms(c)
DAV:   1    -0.221859162560E+03    0.34561E-09    0.59494E-11   198   0.151E-10    0.319E-10
RMM:   2    -0.221859162560E+03   -0.90949E-10    0.00000E+00     0   0.961E-11
 105 F= -.22185916E+03 E0= -.22187347E+03  d E =0.156433E-09
quench:  g(F)=  0.000E+00 g(S)=  0.000E+00 dE (1.order)= 0.000E+00
 bond charge predicted
       N       E                     dE             d eps       ncg     rms          rms(c)
DAV:   1    -0.221859162561E+03   -0.11896E-08    0.34808E-11   198   0.133E-10    0.265E-10
RMM:   2    -0.221859162560E+03    0.10259E-08    0.00000E+00     0   0.948E-11
 106 F= -.22185916E+03 E0= -.22187347E+03  d E =-.727596E-10
quench:  g(F)=  0.000E+00 g(S)=  0.000E+00 dE (1.order)= 0.000E+00
 bond charge predicted
       N       E                     dE             d eps       ncg     rms          rms(c)
DAV:   1    -0.221859162559E+03    0.17353E-08    0.11057E-11   198   0.152E-10    0.371E-10
RMM:   2    -0.221859162560E+03   -0.82946E-09    0.00000E+00     0   0.114E-10
 107 F= -.22185916E+03 E0= -.22187347E+03  d E =-.120053E-09
quench:  g(F)=  0.000E+00 g(S)=  0.000E+00 dE (1.order)= 0.000E+00
 bond charge predicted
       N       E                     dE             d eps       ncg     rms          rms(c)
DAV:   1    -0.221859162560E+03   -0.56389E-09    0.17504E-10   198   0.172E-10    0.323E-10
RMM:   2    -0.221859162560E+03   -0.16007E-09    0.00000E+00     0   0.134E-10
 108 F= -.22185916E+03 E0= -.22187347E+03  d E =0.105501E-09
quench:  g(F)=  0.000E+00 g(S)=  0.000E+00 dE (1.order)= 0.000E+00
 bond charge predicted
       N       E                     dE             d eps       ncg     rms          rms(c)
DAV:   1    -0.221859162561E+03   -0.81127E-09    0.14673E-10   198   0.176E-10    0.312E-10
RMM:   2    -0.221859162560E+03    0.61846E-09    0.00000E+00     0   0.124E-10
 109 F= -.22185916E+03 E0= -.22187347E+03  d E =-.327418E-10
quench:  g(F)=  0.000E+00 g(S)=  0.000E+00 dE (1.order)= 0.000E+00
 bond charge predicted
       N       E                     dE             d eps       ncg     rms          rms(c)
DAV:   1    -0.221859162560E+03    0.10514E-08    0.15664E-10   198   0.179E-10    0.314E-10
RMM:   2    -0.221859162560E+03   -0.32742E-09    0.00000E+00     0   0.975E-11
 110 F= -.22185916E+03 E0= -.22187347E+03  d E =0.105501E-09
quench:  g(F)=  0.000E+00 g(S)=  0.000E+00 dE (1.order)= 0.000E+00
 bond charge predicted
       N       E                     dE             d eps       ncg     rms          rms(c)
DAV:   1    -0.221859162560E+03   -0.12733E-09   -0.73719E-11   198   0.165E-10    0.483E-10
RMM:   2    -0.221859162560E+03   -0.28740E-09    0.00000E+00     0   0.176E-10
 111 F= -.22185916E+03 E0= -.22187347E+03  d E =-.873115E-10
quench:  g(F)=  0.000E+00 g(S)=  0.000E+00 dE (1.order)= 0.000E+00
 bond charge predicted
       N       E                     dE             d eps       ncg     rms          rms(c)
DAV:   1    -0.221859162560E+03   -0.56025E-09    0.13282E-10   198   0.286E-10    0.366E-10
RMM:   2    -0.221859162560E+03    0.26193E-09    0.00000E+00     0   0.142E-10
 112 F= -.22185916E+03 E0= -.22187347E+03  d E =-.109139E-10
quench:  g(F)=  0.000E+00 g(S)=  0.000E+00 dE (1.order)= 0.000E+00
 bond charge predicted
       N       E                     dE             d eps       ncg     rms          rms(c)
DAV:   1    -0.221859162561E+03   -0.98225E-09    0.13610E-10   198   0.199E-10    0.237E-10
RMM:   2    -0.221859162560E+03    0.11496E-08    0.00000E+00     0   0.876E-11
 113 F= -.22185916E+03 E0= -.22187347E+03  d E =-.945874E-10
quench:  g(F)=  0.000E+00 g(S)=  0.000E+00 dE (1.order)= 0.000E+00
 bond charge predicted
       N       E                     dE             d eps       ncg     rms          rms(c)
DAV:   1    -0.221859162559E+03    0.18917E-08   -0.23280E-11   198   0.124E-10    0.268E-10
RMM:   2    -0.221859162560E+03   -0.76761E-09    0.00000E+00     0   0.976E-11
 114 F= -.22185916E+03 E0= -.22187347E+03  d E =-.254659E-10
quench:  g(F)=  0.000E+00 g(S)=  0.000E+00 dE (1.order)= 0.000E+00
 bond charge predicted
       N       E                     dE             d eps       ncg     rms          rms(c)
DAV:   1    -0.221859162560E+03   -0.40745E-09    0.99501E-11   198   0.148E-10    0.529E-10
RMM:   2    -0.221859162560E+03   -0.26557E-09    0.00000E+00     0   0.200E-10
 115 F= -.22185916E+03 E0= -.22187347E+03  d E =0.945874E-10
quench:  g(F)=  0.000E+00 g(S)=  0.000E+00 dE (1.order)= 0.000E+00
 bond charge predicted
       N       E                     dE             d eps       ncg     rms          rms(c)
DAV:   1    -0.221859162560E+03    0.90949E-10    0.10610E-10   198   0.325E-10    0.315E-10
RMM:   2    -0.221859162560E+03   -0.22555E-09    0.00000E+00     0   0.114E-10
 116 F= -.22185916E+03 E0= -.22187347E+03  d E =0.130967E-09
quench:  g(F)=  0.000E+00 g(S)=  0.000E+00 dE (1.order)= 0.000E+00
 bond charge predicted
       N       E                     dE             d eps       ncg     rms          rms(c)
DAV:   1    -0.221859162561E+03   -0.90222E-09    0.29042E-11   198   0.156E-10    0.310E-10
RMM:   2    -0.221859162560E+03    0.67303E-09    0.00000E+00     0   0.121E-10
 117 F= -.22185916E+03 E0= -.22187347E+03  d E =-.363798E-11
quench:  g(F)=  0.000E+00 g(S)=  0.000E+00 dE (1.order)= 0.000E+00
 bond charge predicted
       N       E                     dE             d eps       ncg     rms          rms(c)
DAV:   1    -0.221859162561E+03   -0.59663E-09    0.52057E-11   198   0.151E-10    0.267E-10
RMM:   2    -0.221859162560E+03    0.10077E-08    0.00000E+00     0   0.120E-10
 118 F= -.22185916E+03 E0= -.22187347E+03  d E =-.261934E-09
quench:  g(F)=  0.000E+00 g(S)=  0.000E+00 dE (1.order)= 0.000E+00
 bond charge predicted
       N       E                     dE             d eps       ncg     rms          rms(c)
DAV:   1    -0.221859162560E+03    0.72760E-09    0.21326E-10   198   0.156E-10    0.312E-10
RMM:   2    -0.221859162560E+03    0.47658E-09    0.00000E+00     0   0.126E-10
 119 F= -.22185916E+03 E0= -.22187347E+03  d E =0.196451E-09
quench:  g(F)=  0.000E+00 g(S)=  0.000E+00 dE (1.order)= 0.000E+00
 bond charge predicted
       N       E                     dE             d eps       ncg     rms          rms(c)
DAV:   1    -0.221859162560E+03   -0.58208E-10    0.21934E-11   198   0.165E-10    0.335E-10
RMM:   2    -0.221859162560E+03    0.55661E-09    0.00000E+00     0   0.122E-10
 120 F= -.22185916E+03 E0= -.22187347E+03  d E =0.218279E-10
quench:  g(F)=  0.000E+00 g(S)=  0.000E+00 dE (1.order)= 0.000E+00
 bond charge predicted
       N       E                     dE             d eps       ncg     rms          rms(c)
DAV:   1    -0.221859162560E+03    0.16007E-09    0.97458E-11   198   0.184E-10    0.440E-10
RMM:   2    -0.221859162560E+03    0.23283E-09    0.00000E+00     0   0.153E-10
 121 F= -.22185916E+03 E0= -.22187347E+03  d E =-.163709E-09
quench:  g(F)=  0.000E+00 g(S)=  0.000E+00 dE (1.order)= 0.000E+00
 bond charge predicted
       N       E                     dE             d eps       ncg     rms          rms(c)
DAV:   1    -0.221859162560E+03    0.10914E-09    0.15460E-10   198   0.266E-10    0.418E-10
RMM:   2    -0.221859162560E+03    0.30559E-09    0.00000E+00     0   0.153E-10
 122 F= -.22185916E+03 E0= -.22187347E+03  d E =0.181899E-09
quench:  g(F)=  0.000E+00 g(S)=  0.000E+00 dE (1.order)= 0.000E+00
 bond charge predicted
       N       E                     dE             d eps       ncg     rms          rms(c)
DAV:   1    -0.221859162561E+03   -0.57116E-09    0.10441E-10   198   0.219E-10    0.274E-10
RMM:   2    -0.221859162560E+03    0.72032E-09    0.00000E+00     0   0.106E-10
 123 F= -.22185916E+03 E0= -.22187347E+03  d E =-.156433E-09
quench:  g(F)=  0.000E+00 g(S)=  0.000E+00 dE (1.order)= 0.000E+00
 bond charge predicted
       N       E                     dE             d eps       ncg     rms          rms(c)
DAV:   1    -0.221859162561E+03    0.10914E-09    0.95769E-11   198   0.165E-10    0.298E-10
RMM:   2    -0.221859162560E+03    0.74942E-09    0.00000E+00     0   0.120E-10
 124 F= -.22185916E+03 E0= -.22187347E+03  d E =0.138243E-09
quench:  g(F)=  0.000E+00 g(S)=  0.000E+00 dE (1.order)= 0.000E+00
 bond charge predicted
       N       E                     dE             d eps       ncg     rms          rms(c)
DAV:   1    -0.221859162559E+03    0.11569E-08    0.63729E-11   198   0.187E-10    0.280E-10
RMM:   2    -0.221859162560E+03   -0.52751E-09    0.00000E+00     0   0.108E-10
 125 F= -.22185916E+03 E0= -.22187347E+03  d E =-.120053E-09
quench:  g(F)=  0.000E+00 g(S)=  0.000E+00 dE (1.order)= 0.000E+00
 bond charge predicted
       N       E                     dE             d eps       ncg     rms          rms(c)
DAV:   1    -0.221859162560E+03   -0.63301E-09    0.40190E-11   198   0.156E-10    0.443E-10
RMM:   2    -0.221859162560E+03    0.28740E-09    0.00000E+00     0   0.184E-10
 126 F= -.22185916E+03 E0= -.22187347E+03  d E =0.181899E-09
quench:  g(F)=  0.000E+00 g(S)=  0.000E+00 dE (1.order)= 0.000E+00
 bond charge predicted
       N       E                     dE             d eps       ncg     rms          rms(c)
DAV:   1    -0.221859162560E+03   -0.69122E-10    0.94154E-11   198   0.293E-10    0.404E-10
RMM:   2    -0.221859162560E+03    0.27649E-09    0.00000E+00     0   0.153E-10
 127 F= -.22185916E+03 E0= -.22187347E+03  d E =-.800355E-10
quench:  g(F)=  0.000E+00 g(S)=  0.000E+00 dE (1.order)= 0.000E+00
 bond charge predicted
       N       E                     dE             d eps       ncg     rms          rms(c)
DAV:   1    -0.221859162561E+03   -0.33469E-09    0.19353E-11   198   0.216E-10    0.225E-10
RMM:   2    -0.221859162560E+03    0.45475E-09    0.00000E+00     0   0.942E-11
 128 F= -.22185916E+03 E0= -.22187347E+03  d E =-.156433E-09
quench:  g(F)=  0.000E+00 g(S)=  0.000E+00 dE (1.order)= 0.000E+00
 bond charge predicted
       N       E                     dE             d eps       ncg     rms          rms(c)
DAV:   1    -0.221859162559E+03    0.11387E-08    0.11915E-11   198   0.136E-10    0.267E-10
RMM:   2    -0.221859162560E+03   -0.41837E-09    0.00000E+00     0   0.955E-11
 129 F= -.22185916E+03 E0= -.22187347E+03  d E =0.265572E-09
quench:  g(F)=  0.000E+00 g(S)=  0.000E+00 dE (1.order)= 0.000E+00
 bond charge predicted
       N       E                     dE             d eps       ncg     rms          rms(c)
DAV:   1    -0.221859162560E+03   -0.13824E-09    0.61750E-12   198   0.144E-10    0.487E-10
RMM:   2    -0.221859162560E+03   -0.46566E-09    0.00000E+00     0   0.190E-10
 130 F= -.22185916E+03 E0= -.22187347E+03  d E =-.185537E-09
quench:  g(F)=  0.000E+00 g(S)=  0.000E+00 dE (1.order)= 0.000E+00
 bond charge predicted
       N       E                     dE             d eps       ncg     rms          rms(c)
DAV:   1    -0.221859162560E+03   -0.18554E-09    0.99422E-11   198   0.302E-10    0.375E-10
RMM:   2    -0.221859162560E+03   -0.28376E-09    0.00000E+00     0   0.144E-10
 131 F= -.22185916E+03 E0= -.22187347E+03  d E =-.363798E-11
quench:  g(F)=  0.000E+00 g(S)=  0.000E+00 dE (1.order)= 0.000E+00
 bond charge predicted
       N       E                     dE             d eps       ncg     rms          rms(c)
DAV:   1    -0.221859162559E+03    0.46566E-09    0.86040E-11   198   0.216E-10    0.458E-10
RMM:   2    -0.221859162560E+03   -0.81855E-09    0.00000E+00     0   0.165E-10
 132 F= -.22185916E+03 E0= -.22187347E+03  d E =-.691216E-10
quench:  g(F)=  0.000E+00 g(S)=  0.000E+00 dE (1.order)= 0.000E+00
 bond charge predicted
       N       E                     dE             d eps       ncg     rms          rms(c)
DAV:   1    -0.221859162560E+03   -0.96043E-09    0.40710E-11   198   0.237E-10    0.342E-10
RMM:   2    -0.221859162560E+03    0.33106E-09    0.00000E+00     0   0.146E-10
 133 F= -.22185916E+03 E0= -.22187347E+03  d E =0.189175E-09
quench:  g(F)=  0.000E+00 g(S)=  0.000E+00 dE (1.order)= 0.000E+00
 bond charge predicted
       N       E                     dE             d eps       ncg     rms          rms(c)
DAV:   1    -0.221859162559E+03    0.12951E-08    0.23073E-10   198   0.191E-10    0.233E-10
RMM:   2    -0.221859162560E+03   -0.10041E-08    0.00000E+00     0   0.101E-10
 134 F= -.22185916E+03 E0= -.22187347E+03  d E =-.400178E-10
quench:  g(F)=  0.000E+00 g(S)=  0.000E+00 dE (1.order)= 0.000E+00
 bond charge predicted
       N       E                     dE             d eps       ncg     rms          rms(c)
DAV:   1    -0.221859162560E+03   -0.13315E-08    0.95418E-11   198   0.139E-10    0.297E-10
RMM:   2    -0.221859162560E+03    0.29831E-09    0.00000E+00     0   0.107E-10
 135 F= -.22185916E+03 E0= -.22187347E+03  d E =-.291038E-10
quench:  g(F)=  0.000E+00 g(S)=  0.000E+00 dE (1.order)= 0.000E+00
 bond charge predicted
       N       E                     dE             d eps       ncg     rms          rms(c)
DAV:   1    -0.221859162560E+03    0.29104E-10    0.14574E-10   198   0.155E-10    0.271E-10
RMM:   2    -0.221859162560E+03    0.36744E-09    0.00000E+00     0   0.963E-11
 136 F= -.22185916E+03 E0= -.22187347E+03  d E =0.982254E-10
quench:  g(F)=  0.000E+00 g(S)=  0.000E+00 dE (1.order)= 0.000E+00
 bond charge predicted
       N       E                     dE             d eps       ncg     rms          rms(c)
DAV:   1    -0.221859162559E+03    0.83310E-09    0.96022E-11   198   0.132E-10    0.265E-10
RMM:   2    -0.221859162560E+03   -0.49840E-09    0.00000E+00     0   0.835E-11
 137 F= -.22185916E+03 E0= -.22187347E+03  d E =-.327418E-10
quench:  g(F)=  0.000E+00 g(S)=  0.000E+00 dE (1.order)= 0.000E+00
 bond charge predicted
       N       E                     dE             d eps       ncg     rms          rms(c)
DAV:   1    -0.221859162561E+03   -0.13679E-08    0.67100E-12   198   0.114E-10    0.326E-10
RMM:   2    -0.221859162560E+03    0.70213E-09    0.00000E+00     0   0.136E-10
 138 F= -.22185916E+03 E0= -.22187347E+03  d E =-.167347E-09
quench:  g(F)=  0.000E+00 g(S)=  0.000E+00 dE (1.order)= 0.000E+00
 bond charge predicted
       N       E                     dE             d eps       ncg     rms          rms(c)
DAV:   1    -0.221859162560E+03    0.10332E-08    0.43801E-11   198   0.195E-10    0.349E-10
RMM:   2    -0.221859162560E+03   -0.17826E-09    0.00000E+00     0   0.130E-10
 139 F= -.22185916E+03 E0= -.22187347E+03  d E =0.152795E-09
quench:  g(F)=  0.000E+00 g(S)=  0.000E+00 dE (1.order)= 0.000E+00
 bond charge predicted
       N       E                     dE             d eps       ncg     rms          rms(c)
DAV:   1    -0.221859162561E+03   -0.80036E-09    0.17366E-10   198   0.217E-10    0.231E-10
RMM:   2    -0.221859162560E+03    0.57480E-09    0.00000E+00     0   0.100E-10
 140 F= -.22185916E+03 E0= -.22187347E+03  d E =-.472937E-10
quench:  g(F)=  0.000E+00 g(S)=  0.000E+00 dE (1.order)= 0.000E+00
 bond charge predicted
       N       E                     dE             d eps       ncg     rms          rms(c)
DAV:   1    -0.221859162560E+03    0.62937E-09    0.10588E-11   198   0.141E-10    0.301E-10
RMM:   2    -0.221859162560E+03   -0.10186E-09    0.00000E+00     0   0.106E-10
 141 F= -.22185916E+03 E0= -.22187347E+03  d E =-.472937E-10
quench:  g(F)=  0.000E+00 g(S)=  0.000E+00 dE (1.order)= 0.000E+00
 bond charge predicted
       N       E                     dE             d eps       ncg     rms          rms(c)
DAV:   1    -0.221859162560E+03    0.36016E-09    0.61314E-11   198   0.153E-10    0.235E-10
RMM:   2    -0.221859162560E+03   -0.37471E-09    0.00000E+00     0   0.950E-11
 142 F= -.22185916E+03 E0= -.22187347E+03  d E =0.873115E-10
quench:  g(F)=  0.000E+00 g(S)=  0.000E+00 dE (1.order)= 0.000E+00
 bond charge predicted
       N       E                     dE             d eps       ncg     rms          rms(c)
DAV:   1    -0.221859162559E+03    0.12005E-09    0.38545E-11   198   0.147E-10    0.346E-10
RMM:   2    -0.221859162560E+03   -0.55297E-09    0.00000E+00     0   0.144E-10
 143 F= -.22185916E+03 E0= -.22187347E+03  d E =-.582077E-10
quench:  g(F)=  0.000E+00 g(S)=  0.000E+00 dE (1.order)= 0.000E+00
 bond charge predicted
       N       E                     dE             d eps       ncg     rms          rms(c)
DAV:   1    -0.221859162560E+03   -0.54206E-09    0.69096E-11   198   0.214E-10    0.278E-10
RMM:   2    -0.221859162560E+03   -0.65484E-10    0.00000E+00     0   0.920E-11
 144 F= -.22185916E+03 E0= -.22187347E+03  d E =-.545697E-10
quench:  g(F)=  0.000E+00 g(S)=  0.000E+00 dE (1.order)= 0.000E+00
 bond charge predicted
       N       E                     dE             d eps       ncg     rms          rms(c)
DAV:   1    -0.221859162560E+03   -0.35288E-09    0.23682E-11   198   0.146E-10    0.246E-10
RMM:   2    -0.221859162560E+03    0.30195E-09    0.00000E+00     0   0.102E-10
 145 F= -.22185916E+03 E0= -.22187347E+03  d E =0.145519E-10
quench:  g(F)=  0.000E+00 g(S)=  0.000E+00 dE (1.order)= 0.000E+00
 bond charge predicted
       N       E                     dE             d eps       ncg     rms          rms(c)
DAV:   1    -0.221859162561E+03   -0.30559E-09    0.87310E-11   198   0.133E-10    0.338E-10
RMM:   2    -0.221859162560E+03    0.59663E-09    0.00000E+00     0   0.134E-10
 146 F= -.22185916E+03 E0= -.22187347E+03  d E =-.109139E-10
quench:  g(F)=  0.000E+00 g(S)=  0.000E+00 dE (1.order)= 0.000E+00
 bond charge predicted
       N       E                     dE             d eps       ncg     rms          rms(c)
DAV:   1    -0.221859162560E+03    0.67666E-09    0.47960E-11   198   0.188E-10    0.330E-10
RMM:   2    -0.221859162560E+03   -0.10186E-09    0.00000E+00     0   0.114E-10
 147 F= -.22185916E+03 E0= -.22187347E+03  d E =-.218279E-10
quench:  g(F)=  0.000E+00 g(S)=  0.000E+00 dE (1.order)= 0.000E+00
 bond charge predicted
       N       E                     dE             d eps       ncg     rms          rms(c)
DAV:   1    -0.221859162559E+03    0.90949E-09    0.20662E-10   198   0.163E-10    0.492E-10
RMM:   2    -0.221859162560E+03   -0.10477E-08    0.00000E+00     0   0.192E-10
 148 F= -.22185916E+03 E0= -.22187347E+03  d E =-.363798E-10
quench:  g(F)=  0.000E+00 g(S)=  0.000E+00 dE (1.order)= 0.000E+00
 bond charge predicted
       N       E                     dE             d eps       ncg     rms          rms(c)
DAV:   1    -0.221859162560E+03   -0.65847E-09   -0.35163E-11   198   0.290E-10    0.288E-10
RMM:   2    -0.221859162560E+03   -0.29104E-09    0.00000E+00     0   0.110E-10
 149 F= -.22185916E+03 E0= -.22187347E+03  d E =0.982254E-10
quench:  g(F)=  0.000E+00 g(S)=  0.000E+00 dE (1.order)= 0.000E+00
 bond charge predicted
       N       E                     dE             d eps       ncg     rms          rms(c)
DAV:   1    -0.221859162560E+03   -0.36380E-11    0.13377E-10   198   0.155E-10    0.369E-10
RMM:   2    -0.221859162560E+03   -0.37471E-09    0.00000E+00     0   0.121E-10
 150 F= -.22185916E+03 E0= -.22187347E+03  d E =-.873115E-10
quench:  g(F)=  0.000E+00 g(S)=  0.000E+00 dE (1.order)= 0.000E+00
 bond charge predicted
       N       E                     dE             d eps       ncg     rms          rms(c)
DAV:   1    -0.221859162560E+03   -0.44020E-09    0.77125E-11   198   0.182E-10    0.370E-10
RMM:   2    -0.221859162560E+03    0.22919E-09    0.00000E+00     0   0.137E-10
 151 F= -.22185916E+03 E0= -.22187347E+03  d E =0.163709E-09
quench:  g(F)=  0.000E+00 g(S)=  0.000E+00 dE (1.order)= 0.000E+00
 bond charge predicted
       N       E                     dE             d eps       ncg     rms          rms(c)
DAV:   1    -0.221859162560E+03   -0.16735E-09    0.32567E-11   198   0.215E-10    0.486E-10
RMM:   2    -0.221859162560E+03    0.42928E-09    0.00000E+00     0   0.193E-10
 152 F= -.22185916E+03 E0= -.22187347E+03  d E =0.327418E-10
quench:  g(F)=  0.000E+00 g(S)=  0.000E+00 dE (1.order)= 0.000E+00
 bond charge predicted
       N       E                     dE             d eps       ncg     rms          rms(c)
DAV:   1    -0.221859162560E+03   -0.72760E-11    0.11583E-10   198   0.294E-10    0.358E-10
RMM:   2    -0.221859162560E+03    0.21464E-09    0.00000E+00     0   0.147E-10
 153 F= -.22185916E+03 E0= -.22187347E+03  d E =-.221917E-09
quench:  g(F)=  0.000E+00 g(S)=  0.000E+00 dE (1.order)= 0.000E+00
 bond charge predicted
       N       E                     dE             d eps       ncg     rms          rms(c)
DAV:   1    -0.221859162560E+03    0.49477E-09    0.16887E-10   198   0.206E-10    0.236E-10
RMM:   2    -0.221859162560E+03   -0.25466E-09    0.00000E+00     0   0.880E-11
 154 F= -.22185916E+03 E0= -.22187347E+03  d E =0.254659E-10
quench:  g(F)=  0.000E+00 g(S)=  0.000E+00 dE (1.order)= 0.000E+00
 bond charge predicted
       N       E                     dE             d eps       ncg     rms          rms(c)
DAV:   1    -0.221859162561E+03   -0.13024E-08   -0.18922E-11   198   0.112E-10    0.223E-10
RMM:   2    -0.221859162560E+03    0.11460E-08    0.00000E+00     0   0.741E-11
 155 F= -.22185916E+03 E0= -.22187347E+03  d E =0.982254E-10
quench:  g(F)=  0.000E+00 g(S)=  0.000E+00 dE (1.order)= 0.000E+00
 bond charge predicted
       N       E                     dE             d eps       ncg     rms          rms(c)
DAV:   1    -0.221859162560E+03    0.77489E-09    0.22753E-11   198   0.921E-11    0.299E-10
RMM:   2    -0.221859162560E+03    0.48749E-09    0.00000E+00     0   0.109E-10
 156 F= -.22185916E+03 E0= -.22187347E+03  d E =0.116415E-09
quench:  g(F)=  0.000E+00 g(S)=  0.000E+00 dE (1.order)= 0.000E+00
 bond charge predicted
       N       E                     dE             d eps       ncg     rms          rms(c)
DAV:   1    -0.221859162560E+03    0.61482E-09    0.75961E-11   198   0.148E-10    0.385E-10
RMM:   2    -0.221859162560E+03   -0.27285E-09    0.00000E+00     0   0.133E-10
 157 F= -.22185916E+03 E0= -.22187347E+03  d E =-.145519E-09
quench:  g(F)=  0.000E+00 g(S)=  0.000E+00 dE (1.order)= 0.000E+00
 bond charge predicted
       N       E                     dE             d eps       ncg     rms          rms(c)
DAV:   1    -0.221859162560E+03    0.20009E-09    0.20169E-10   198   0.223E-10    0.319E-10
RMM:   2    -0.221859162560E+03   -0.40382E-09    0.00000E+00     0   0.128E-10
 158 F= -.22185916E+03 E0= -.22187347E+03  d E =0.691216E-10
quench:  g(F)=  0.000E+00 g(S)=  0.000E+00 dE (1.order)= 0.000E+00
 bond charge predicted
       N       E                     dE             d eps       ncg     rms          rms(c)
DAV:   1    -0.221859162561E+03   -0.10150E-08    0.24974E-11   198   0.176E-10    0.243E-10
RMM:   2    -0.221859162560E+03    0.58935E-09    0.00000E+00     0   0.102E-10
 159 F= -.22185916E+03 E0= -.22187347E+03  d E =-.218279E-10
quench:  g(F)=  0.000E+00 g(S)=  0.000E+00 dE (1.order)= 0.000E+00
 bond charge predicted
       N       E                     dE             d eps       ncg     rms          rms(c)
DAV:   1    -0.221859162560E+03    0.90949E-09    0.11221E-10   198   0.121E-10    0.296E-10
RMM:   2    -0.221859162560E+03   -0.45475E-09    0.00000E+00     0   0.975E-11
 160 F= -.22185916E+03 E0= -.22187347E+03  d E =-.134605E-09
quench:  g(F)=  0.000E+00 g(S)=  0.000E+00 dE (1.order)= 0.000E+00
 bond charge predicted
       N       E                     dE             d eps       ncg     rms          rms(c)
DAV:   1    -0.221859162559E+03    0.10514E-08    0.11807E-10   198   0.143E-10    0.450E-10
RMM:   2    -0.221859162560E+03   -0.13315E-08    0.00000E+00     0   0.162E-10
 161 F= -.22185916E+03 E0= -.22187347E+03  d E =0.174623E-09
quench:  g(F)=  0.000E+00 g(S)=  0.000E+00 dE (1.order)= 0.000E+00
 bond charge predicted
       N       E                     dE             d eps       ncg     rms          rms(c)
DAV:   1    -0.221859162559E+03   -0.41109E-09    0.88398E-11   198   0.262E-10    0.274E-10
RMM:   2    -0.221859162560E+03   -0.85129E-09    0.00000E+00     0   0.111E-10
 162 F= -.22185916E+03 E0= -.22187347E+03  d E =0.691216E-10
quench:  g(F)=  0.000E+00 g(S)=  0.000E+00 dE (1.order)= 0.000E+00
 bond charge predicted
       N       E                     dE             d eps       ncg     rms          rms(c)
DAV:   1    -0.221859162560E+03   -0.91677E-09    0.12334E-11   198   0.172E-10    0.340E-10
RMM:   2    -0.221859162560E+03   -0.18190E-10    0.00000E+00     0   0.130E-10
 163 F= -.22185916E+03 E0= -.22187347E+03  d E =-.836735E-10
quench:  g(F)=  0.000E+00 g(S)=  0.000E+00 dE (1.order)= 0.000E+00
 bond charge predicted
       N       E                     dE             d eps       ncg     rms          rms(c)
DAV:   1    -0.221859162559E+03    0.51296E-09    0.16102E-10   198   0.202E-10    0.401E-10
RMM:   2    -0.221859162560E+03   -0.61482E-09    0.00000E+00     0   0.167E-10
 164 F= -.22185916E+03 E0= -.22187347E+03  d E =-.836735E-10
quench:  g(F)=  0.000E+00 g(S)=  0.000E+00 dE (1.order)= 0.000E+00
 bond charge predicted
       N       E                     dE             d eps       ncg     rms          rms(c)
DAV:   1    -0.221859162561E+03   -0.19027E-08    0.12218E-10   198   0.244E-10    0.400E-10
RMM:   2    -0.221859162560E+03    0.13424E-08    0.00000E+00     0   0.147E-10
 165 F= -.22185916E+03 E0= -.22187347E+03  d E =0.545697E-10
quench:  g(F)=  0.000E+00 g(S)=  0.000E+00 dE (1.order)= 0.000E+00
 bond charge predicted
       N       E                     dE             d eps       ncg     rms          rms(c)
DAV:   1    -0.221859162559E+03    0.24338E-08    0.12786E-10   198   0.228E-10    0.358E-10
RMM:   2    -0.221859162560E+03   -0.10732E-08    0.00000E+00     0   0.132E-10
 166 F= -.22185916E+03 E0= -.22187347E+03  d E =0.181899E-10
quench:  g(F)=  0.000E+00 g(S)=  0.000E+00 dE (1.order)= 0.000E+00
 bond charge predicted
       N       E                     dE             d eps       ncg     rms          rms(c)
DAV:   1    -0.221859162560E+03   -0.12842E-08    0.10943E-10   198   0.205E-10    0.321E-10
RMM:   2    -0.221859162560E+03    0.27285E-09    0.00000E+00     0   0.114E-10
 167 F= -.22185916E+03 E0= -.22187347E+03  d E =0.618456E-10
quench:  g(F)=  0.000E+00 g(S)=  0.000E+00 dE (1.order)= 0.000E+00
 bond charge predicted
       N       E                     dE             d eps       ncg     rms          rms(c)
DAV:   1    -0.221859162559E+03    0.73851E-09   -0.38469E-11   198   0.179E-10    0.314E-10
RMM:   2    -0.221859162560E+03   -0.47294E-09    0.00000E+00     0   0.113E-10
 168 F= -.22185916E+03 E0= -.22187347E+03  d E =-.727596E-11
quench:  g(F)=  0.000E+00 g(S)=  0.000E+00 dE (1.order)= 0.000E+00
 bond charge predicted
       N       E                     dE             d eps       ncg     rms          rms(c)
DAV:   1    -0.221859162560E+03   -0.41109E-09    0.22489E-11   198   0.154E-10    0.314E-10
RMM:   2    -0.221859162560E+03   -0.98225E-10    0.00000E+00     0   0.120E-10
 169 F= -.22185916E+03 E0= -.22187347E+03  d E =-.363798E-10
quench:  g(F)=  0.000E+00 g(S)=  0.000E+00 dE (1.order)= 0.000E+00
 bond charge predicted
       N       E                     dE             d eps       ncg     rms          rms(c)
DAV:   1    -0.221859162559E+03    0.59663E-09    0.10516E-10   198   0.166E-10    0.382E-10
RMM:   2    -0.221859162560E+03   -0.81855E-09    0.00000E+00     0   0.130E-10
 170 F= -.22185916E+03 E0= -.22187347E+03  d E =-.123691E-09
quench:  g(F)=  0.000E+00 g(S)=  0.000E+00 dE (1.order)= 0.000E+00
 bond charge predicted
       N       E                     dE             d eps       ncg     rms          rms(c)
DAV:   1    -0.221859162560E+03   -0.65847E-09   -0.42497E-12   198   0.215E-10    0.188E-10
RMM:   2    -0.221859162560E+03   -0.16007E-09    0.00000E+00     0   0.787E-11
 171 F= -.22185916E+03 E0= -.22187347E+03  d E =0.000000E+00
quench:  g(F)=  0.000E+00 g(S)=  0.000E+00 dE (1.order)= 0.000E+00
 bond charge predicted
       N       E                     dE             d eps       ncg     rms          rms(c)
DAV:   1    -0.221859162560E+03   -0.72760E-11   -0.33602E-11   198   0.984E-11    0.387E-10
RMM:   2    -0.221859162560E+03   -0.94587E-10    0.00000E+00     0   0.126E-10
 172 F= -.22185916E+03 E0= -.22187347E+03  d E =0.582077E-10
quench:  g(F)=  0.000E+00 g(S)=  0.000E+00 dE (1.order)= 0.000E+00
 bond charge predicted
       N       E                     dE             d eps       ncg     rms          rms(c)
DAV:   1    -0.221859162560E+03   -0.80036E-10    0.13516E-10   198   0.211E-10    0.341E-10
RMM:   2    -0.221859162560E+03    0.32742E-10    0.00000E+00     0   0.149E-10
 173 F= -.22185916E+03 E0= -.22187347E+03  d E =0.472937E-10
quench:  g(F)=  0.000E+00 g(S)=  0.000E+00 dE (1.order)= 0.000E+00
 bond charge predicted
       N       E                     dE             d eps       ncg     rms          rms(c)
DAV:   1    -0.221859162561E+03   -0.72032E-09    0.26130E-11   198   0.210E-10    0.319E-10
RMM:   2    -0.221859162560E+03    0.73487E-09    0.00000E+00     0   0.936E-11
 174 F= -.22185916E+03 E0= -.22187347E+03  d E =-.181899E-10
quench:  g(F)=  0.000E+00 g(S)=  0.000E+00 dE (1.order)= 0.000E+00
 bond charge predicted
       N       E                     dE             d eps       ncg     rms          rms(c)
DAV:   1    -0.221859162560E+03    0.11460E-08   -0.10465E-11   198   0.119E-10    0.227E-10
RMM:   2    -0.221859162560E+03   -0.29104E-09    0.00000E+00     0   0.910E-11
 175 F= -.22185916E+03 E0= -.22187347E+03  d E =0.120053E-09
quench:  g(F)=  0.000E+00 g(S)=  0.000E+00 dE (1.order)= 0.000E+00
 bond charge predicted
       N       E                     dE             d eps       ncg     rms          rms(c)
DAV:   1    -0.221859162561E+03   -0.13315E-08    0.99372E-11   198   0.134E-10    0.453E-10
RMM:   2    -0.221859162560E+03    0.90222E-09    0.00000E+00     0   0.145E-10
 176 F= -.22185916E+03 E0= -.22187347E+03  d E =-.138243E-09
quench:  g(F)=  0.000E+00 g(S)=  0.000E+00 dE (1.order)= 0.000E+00
 bond charge predicted
       N       E                     dE             d eps       ncg     rms          rms(c)
DAV:   1    -0.221859162560E+03    0.49840E-09    0.10511E-10   198   0.251E-10    0.228E-10
RMM:   2    -0.221859162560E+03    0.30195E-09    0.00000E+00     0   0.935E-11
 177 F= -.22185916E+03 E0= -.22187347E+03  d E =-.101863E-09
quench:  g(F)=  0.000E+00 g(S)=  0.000E+00 dE (1.order)= 0.000E+00
 bond charge predicted
       N       E                     dE             d eps       ncg     rms          rms(c)
DAV:   1    -0.221859162560E+03    0.46930E-09    0.10439E-10   198   0.115E-10    0.295E-10
RMM:   2    -0.221859162560E+03    0.21828E-10    0.00000E+00     0   0.106E-10
 178 F= -.22185916E+03 E0= -.22187347E+03  d E =0.189175E-09
quench:  g(F)=  0.000E+00 g(S)=  0.000E+00 dE (1.order)= 0.000E+00
 bond charge predicted
       N       E                     dE             d eps       ncg     rms          rms(c)
DAV:   1    -0.221859162559E+03    0.12806E-08    0.10185E-10   198   0.136E-10    0.388E-10
RMM:   2    -0.221859162560E+03   -0.13897E-08    0.00000E+00     0   0.158E-10
 179 F= -.22185916E+03 E0= -.22187347E+03  d E =-.130967E-09
quench:  g(F)=  0.000E+00 g(S)=  0.000E+00 dE (1.order)= 0.000E+00
 bond charge predicted
       N       E                     dE             d eps       ncg     rms          rms(c)
DAV:   1    -0.221859162560E+03   -0.10004E-08    0.18001E-10   198   0.227E-10    0.217E-10
RMM:   2    -0.221859162560E+03   -0.21100E-09    0.00000E+00     0   0.996E-11
 180 F= -.22185916E+03 E0= -.22187347E+03  d E =0.178261E-09
quench:  g(F)=  0.000E+00 g(S)=  0.000E+00 dE (1.order)= 0.000E+00
 bond charge predicted
[...]
 bond charge predicted
       N       E                     dE             d eps       ncg     rms          rms(c)
DAV:   1    -0.221859162560E+03   -0.60027E-09   -0.26747E-11   198   0.164E-10    0.208E-10
RMM:   2    -0.221859162560E+03   -0.90949E-10    0.00000E+00     0   0.898E-11
 253 F= -.22185916E+03 E0= -.22187347E+03  d E =0.152795E-09
quench:  g(F)=  0.000E+00 g(S)=  0.000E+00 dE (1.order)= 0.000E+00
 bond charge predicted
       N       E                     dE             d eps       ncg     rms          rms(c)
DAV:   1    -0.221859162561E+03   -0.13169E-08    0.78637E-11   198   0.122E-10    0.267E-10
RMM:   2    -0.221859162560E+03    0.12369E-08    0.00000E+00     0   0.105E-10
 254 F= -.22185916E+03 E0= -.22187347E+03  d E =0.109139E-10
quench:  g(F)=  0.000E+00 g(S)=  0.000E+00 dE (1.order)= 0.000E+00
 bond charge predicted
       N       E                     dE             d eps       ncg     rms          rms(c)
DAV:   1    -0.221859162560E+03    0.10587E-08    0.88809E-11   198   0.141E-10    0.328E-10
RMM:   2    -0.221859162560E+03    0.18554E-09    0.00000E+00     0   0.110E-10
 255 F= -.22185916E+03 E0= -.22187347E+03  d E =0.727596E-11
quench:  g(F)=  0.000E+00 g(S)=  0.000E+00 dE (1.order)= 0.000E+00
 bond charge predicted
       N       E                     dE             d eps       ncg     rms          rms(c)
DAV:   1    -0.221859162559E+03    0.65484E-09    0.38654E-11   198   0.165E-10    0.516E-10
RMM:   2    -0.221859162560E+03   -0.65120E-09    0.00000E+00     0   0.193E-10
 256 F= -.22185916E+03 E0= -.22187347E+03  d E =-.181899E-09
quench:  g(F)=  0.000E+00 g(S)=  0.000E+00 dE (1.order)= 0.000E+00
 bond charge predicted
       N       E                     dE             d eps       ncg     rms          rms(c)
DAV:   1    -0.221859162560E+03   -0.11059E-08    0.12257E-11   198   0.318E-10    0.343E-10
RMM:   2    -0.221859162560E+03    0.58571E-09    0.00000E+00     0   0.132E-10
 257 F= -.22185916E+03 E0= -.22187347E+03  d E =0.130967E-09
quench:  g(F)=  0.000E+00 g(S)=  0.000E+00 dE (1.order)= 0.000E+00
 bond charge predicted
       N       E                     dE             d eps       ncg     rms          rms(c)
DAV:   1    -0.221859162560E+03    0.67303E-09    0.16895E-11   198   0.200E-10    0.276E-10
RMM:   2    -0.221859162560E+03   -0.54570E-10    0.00000E+00     0   0.128E-10
 258 F= -.22185916E+03 E0= -.22187347E+03  d E =0.327418E-10
quench:  g(F)=  0.000E+00 g(S)=  0.000E+00 dE (1.order)= 0.000E+00
 bond charge predicted
       N       E                     dE             d eps       ncg     rms          rms(c)
DAV:   1    -0.221859162560E+03   -0.52023E-09    0.72482E-11   198   0.170E-10    0.312E-10
RMM:   2    -0.221859162560E+03    0.44020E-09    0.00000E+00     0   0.109E-10
 259 F= -.22185916E+03 E0= -.22187347E+03  d E =-.254659E-10
quench:  g(F)=  0.000E+00 g(S)=  0.000E+00 dE (1.order)= 0.000E+00
 bond charge predicted
       N       E                     dE             d eps       ncg     rms          rms(c)
DAV:   1    -0.221859162559E+03    0.90949E-09    0.94661E-11   198   0.157E-10    0.370E-10
RMM:   2    -0.221859162560E+03   -0.44020E-09    0.00000E+00     0   0.140E-10
 260 F= -.22185916E+03 E0= -.22187347E+03  d E =0.291038E-10
quench:  g(F)=  0.000E+00 g(S)=  0.000E+00 dE (1.order)= 0.000E+00
 bond charge predicted
       N       E                     dE             d eps       ncg     rms          rms(c)
DAV:   1    -0.221859162559E+03    0.43656E-10    0.57799E-11   198   0.193E-10    0.275E-10
RMM:   2    -0.221859162560E+03   -0.60754E-09    0.00000E+00     0   0.103E-10
 261 F= -.22185916E+03 E0= -.22187347E+03  d E =-.123691E-09
quench:  g(F)=  0.000E+00 g(S)=  0.000E+00 dE (1.order)= 0.000E+00
 bond charge predicted
       N       E                     dE             d eps       ncg     rms          rms(c)
DAV:   1    -0.221859162560E+03   -0.57116E-09    0.13928E-10   198   0.158E-10    0.362E-10
RMM:   2    -0.221859162560E+03    0.58208E-10    0.00000E+00     0   0.113E-10
 262 F= -.22185916E+03 E0= -.22187347E+03  d E =0.945874E-10
quench:  g(F)=  0.000E+00 g(S)=  0.000E+00 dE (1.order)= 0.000E+00
 bond charge predicted
       N       E                     dE             d eps       ncg     rms          rms(c)
DAV:   1    -0.221859162561E+03   -0.76034E-09    0.57713E-11   198   0.189E-10    0.396E-10
RMM:   2    -0.221859162560E+03    0.86948E-09    0.00000E+00     0   0.170E-10
 263 F= -.22185916E+03 E0= -.22187347E+03  d E =0.509317E-10
quench:  g(F)=  0.000E+00 g(S)=  0.000E+00 dE (1.order)= 0.000E+00
 bond charge predicted
       N       E                     dE             d eps       ncg     rms          rms(c)
DAV:   1    -0.221859162561E+03   -0.16371E-09    0.77076E-11   198   0.216E-10    0.324E-10
RMM:   2    -0.221859162560E+03    0.92041E-09    0.00000E+00     0   0.139E-10
 264 F= -.22185916E+03 E0= -.22187347E+03  d E =-.112777E-09
quench:  g(F)=  0.000E+00 g(S)=  0.000E+00 dE (1.order)= 0.000E+00
 bond charge predicted
       N       E                     dE             d eps       ncg     rms          rms(c)
DAV:   1    -0.221859162560E+03    0.73123E-09    0.49853E-11   198   0.174E-10    0.335E-10
RMM:   2    -0.221859162560E+03    0.21464E-09    0.00000E+00     0   0.137E-10
 265 F= -.22185916E+03 E0= -.22187347E+03  d E =0.254659E-10
quench:  g(F)=  0.000E+00 g(S)=  0.000E+00 dE (1.order)= 0.000E+00
 bond charge predicted
       N       E                     dE             d eps       ncg     rms          rms(c)
DAV:   1    -0.221859162560E+03    0.34561E-09    0.90114E-11   198   0.172E-10    0.254E-10
RMM:   2    -0.221859162560E+03   -0.15643E-09    0.00000E+00     0   0.840E-11
 266 F= -.22185916E+03 E0= -.22187347E+03  d E =-.254659E-10
quench:  g(F)=  0.000E+00 g(S)=  0.000E+00 dE (1.order)= 0.000E+00
 bond charge predicted
       N       E                     dE             d eps       ncg     rms          rms(c)
DAV:   1    -0.221859162560E+03   -0.61118E-09    0.10082E-10   198   0.121E-10    0.317E-10
RMM:   2    -0.221859162560E+03    0.39290E-09    0.00000E+00     0   0.133E-10
 267 F= -.22185916E+03 E0= -.22187347E+03  d E =-.618456E-10
quench:  g(F)=  0.000E+00 g(S)=  0.000E+00 dE (1.order)= 0.000E+00
 bond charge predicted
       N       E                     dE             d eps       ncg     rms          rms(c)
DAV:   1    -0.221859162559E+03    0.11569E-08    0.51652E-11   198   0.174E-10    0.435E-10
RMM:   2    -0.221859162560E+03   -0.84037E-09    0.00000E+00     0   0.158E-10
 268 F= -.22185916E+03 E0= -.22187347E+03  d E =-.763976E-10
quench:  g(F)=  0.000E+00 g(S)=  0.000E+00 dE (1.order)= 0.000E+00
 bond charge predicted
       N       E                     dE             d eps       ncg     rms          rms(c)
DAV:   1    -0.221859162561E+03   -0.15389E-08    0.14374E-10   198   0.224E-10    0.202E-10
RMM:   2    -0.221859162560E+03    0.78217E-09    0.00000E+00     0   0.912E-11
 269 F= -.22185916E+03 E0= -.22187347E+03  d E =0.836735E-10
quench:  g(F)=  0.000E+00 g(S)=  0.000E+00 dE (1.order)= 0.000E+00
 bond charge predicted
       N       E                     dE             d eps       ncg     rms          rms(c)
DAV:   1    -0.221859162561E+03    0.65484E-10    0.75118E-11   198   0.123E-10    0.326E-10
RMM:   2    -0.221859162560E+03    0.68030E-09    0.00000E+00     0   0.112E-10
 270 F= -.22185916E+03 E0= -.22187347E+03  d E =-.363798E-10
quench:  g(F)=  0.000E+00 g(S)=  0.000E+00 dE (1.order)= 0.000E+00
 bond charge predicted
       N       E                     dE             d eps       ncg     rms          rms(c)
DAV:   1    -0.221859162559E+03    0.16516E-08    0.87877E-11   198   0.175E-10    0.321E-10
RMM:   2    -0.221859162560E+03   -0.95679E-09    0.00000E+00     0   0.117E-10
 271 F= -.22185916E+03 E0= -.22187347E+03  d E =0.145519E-10
quench:  g(F)=  0.000E+00 g(S)=  0.000E+00 dE (1.order)= 0.000E+00
 bond charge predicted
       N       E                     dE             d eps       ncg     rms          rms(c)
DAV:   1    -0.221859162559E+03   -0.10914E-09   -0.53534E-11   198   0.174E-10    0.266E-10
RMM:   2    -0.221859162560E+03   -0.78217E-09    0.00000E+00     0   0.983E-11
 272 F= -.22185916E+03 E0= -.22187347E+03  d E =0.654836E-10
quench:  g(F)=  0.000E+00 g(S)=  0.000E+00 dE (1.order)= 0.000E+00
 bond charge predicted
       N       E                     dE             d eps       ncg     rms          rms(c)
DAV:   1    -0.221859162560E+03   -0.65484E-09    0.12691E-10   198   0.174E-10    0.240E-10
RMM:   2    -0.221859162560E+03   -0.90949E-10    0.00000E+00     0   0.105E-10
 273 F= -.22185916E+03 E0= -.22187347E+03  d E =0.363798E-10
quench:  g(F)=  0.000E+00 g(S)=  0.000E+00 dE (1.order)= 0.000E+00
 bond charge predicted
       N       E                     dE             d eps       ncg     rms          rms(c)
DAV:   1    -0.221859162560E+03   -0.61482E-09   -0.62624E-11   198   0.138E-10    0.303E-10
RMM:   2    -0.221859162560E+03    0.56025E-09    0.00000E+00     0   0.103E-10
 274 F= -.22185916E+03 E0= -.22187347E+03  d E =0.363798E-10
quench:  g(F)=  0.000E+00 g(S)=  0.000E+00 dE (1.order)= 0.000E+00
 bond charge predicted
       N       E                     dE             d eps       ncg     rms          rms(c)
DAV:   1    -0.221859162560E+03    0.61846E-09    0.47670E-11   198   0.175E-10    0.257E-10
RMM:   2    -0.221859162560E+03   -0.10186E-09    0.00000E+00     0   0.103E-10
 275 F= -.22185916E+03 E0= -.22187347E+03  d E =-.436557E-10
quench:  g(F)=  0.000E+00 g(S)=  0.000E+00 dE (1.order)= 0.000E+00
 bond charge predicted
       N       E                     dE             d eps       ncg     rms          rms(c)
DAV:   1    -0.221859162560E+03   -0.38926E-09    0.15252E-10   198   0.140E-10    0.260E-10
RMM:   2    -0.221859162560E+03    0.29468E-09    0.00000E+00     0   0.102E-10
 276 F= -.22185916E+03 E0= -.22187347E+03  d E =0.727596E-11
quench:  g(F)=  0.000E+00 g(S)=  0.000E+00 dE (1.order)= 0.000E+00
 bond charge predicted
       N       E                     dE             d eps       ncg     rms          rms(c)
DAV:   1    -0.221859162559E+03    0.93860E-09    0.15765E-10   198   0.168E-10    0.292E-10
RMM:   2    -0.221859162560E+03   -0.70213E-09    0.00000E+00     0   0.968E-11
 277 F= -.22185916E+03 E0= -.22187347E+03  d E =-.582077E-10
quench:  g(F)=  0.000E+00 g(S)=  0.000E+00 dE (1.order)= 0.000E+00
 bond charge predicted
       N       E                     dE             d eps       ncg     rms          rms(c)
DAV:   1    -0.221859162561E+03   -0.15243E-08    0.10523E-10   198   0.130E-10    0.301E-10
RMM:   2    -0.221859162560E+03    0.75670E-09    0.00000E+00     0   0.106E-10
 278 F= -.22185916E+03 E0= -.22187347E+03  d E =-.654836E-10
quench:  g(F)=  0.000E+00 g(S)=  0.000E+00 dE (1.order)= 0.000E+00
 bond charge predicted
       N       E                     dE             d eps       ncg     rms          rms(c)
DAV:   1    -0.221859162561E+03    0.32742E-10    0.65289E-11   198   0.163E-10    0.297E-10
RMM:   2    -0.221859162560E+03    0.80399E-09    0.00000E+00     0   0.132E-10
 279 F= -.22185916E+03 E0= -.22187347E+03  d E =0.800355E-10
quench:  g(F)=  0.000E+00 g(S)=  0.000E+00 dE (1.order)= 0.000E+00
 bond charge predicted
       N       E                     dE             d eps       ncg     rms          rms(c)
DAV:   1    -0.221859162560E+03    0.82218E-09    0.36881E-11   198   0.201E-10    0.280E-10
RMM:   2    -0.221859162560E+03    0.80036E-10    0.00000E+00     0   0.990E-11
 280 F= -.22185916E+03 E0= -.22187347E+03  d E =0.982254E-10
quench:  g(F)=  0.000E+00 g(S)=  0.000E+00 dE (1.order)= 0.000E+00
 bond charge predicted
       N       E                     dE             d eps       ncg     rms          rms(c)
DAV:   1    -0.221859162560E+03   -0.50204E-09    0.70442E-11   198   0.126E-10    0.295E-10
RMM:   2    -0.221859162560E+03    0.62573E-09    0.00000E+00     0   0.114E-10
 281 F= -.22185916E+03 E0= -.22187347E+03  d E =0.436557E-10
quench:  g(F)=  0.000E+00 g(S)=  0.000E+00 dE (1.order)= 0.000E+00
 bond charge predicted
       N       E                     dE             d eps       ncg     rms          rms(c)
DAV:   1    -0.221859162559E+03    0.12769E-08   -0.60015E-11   198   0.177E-10    0.339E-10
RMM:   2    -0.221859162560E+03   -0.69122E-09    0.00000E+00     0   0.127E-10
 282 F= -.22185916E+03 E0= -.22187347E+03  d E =-.400178E-10
quench:  g(F)=  0.000E+00 g(S)=  0.000E+00 dE (1.order)= 0.000E+00
 bond charge predicted
       N       E                     dE             d eps       ncg     rms          rms(c)
DAV:   1    -0.221859162561E+03   -0.15280E-08    0.11395E-10   198   0.168E-10    0.242E-10
RMM:   2    -0.221859162560E+03    0.65847E-09    0.00000E+00     0   0.101E-10
 283 F= -.22185916E+03 E0= -.22187347E+03  d E =-.178261E-09
quench:  g(F)=  0.000E+00 g(S)=  0.000E+00 dE (1.order)= 0.000E+00
 bond charge predicted
       N       E                     dE             d eps       ncg     rms          rms(c)
DAV:   1    -0.221859162560E+03    0.78580E-09    0.90363E-11   198   0.136E-10    0.305E-10
RMM:   2    -0.221859162560E+03    0.80036E-10    0.00000E+00     0   0.111E-10
 284 F= -.22185916E+03 E0= -.22187347E+03  d E =0.207365E-09
quench:  g(F)=  0.000E+00 g(S)=  0.000E+00 dE (1.order)= 0.000E+00
 bond charge predicted
       N       E                     dE             d eps       ncg     rms          rms(c)
DAV:   1    -0.221859162560E+03   -0.33833E-09   -0.28181E-12   198   0.187E-10    0.268E-10
RMM:   2    -0.221859162560E+03    0.26193E-09    0.00000E+00     0   0.107E-10
 285 F= -.22185916E+03 E0= -.22187347E+03  d E =-.156433E-09
quench:  g(F)=  0.000E+00 g(S)=  0.000E+00 dE (1.order)= 0.000E+00
 bond charge predicted
       N       E                     dE             d eps       ncg     rms          rms(c)
DAV:   1    -0.221859162560E+03    0.49477E-09    0.25051E-10   198   0.162E-10    0.337E-10
RMM:   2    -0.221859162560E+03   -0.20373E-09    0.00000E+00     0   0.134E-10
 286 F= -.22185916E+03 E0= -.22187347E+03  d E =0.291038E-10
quench:  g(F)=  0.000E+00 g(S)=  0.000E+00 dE (1.order)= 0.000E+00
 bond charge predicted
       N       E                     dE             d eps       ncg     rms          rms(c)
DAV:   1    -0.221859162560E+03   -0.80036E-10    0.51977E-11   198   0.208E-10    0.253E-10
RMM:   2    -0.221859162560E+03   -0.72760E-11    0.00000E+00     0   0.101E-10
 287 F= -.22185916E+03 E0= -.22187347E+03  d E =0.116415E-09
quench:  g(F)=  0.000E+00 g(S)=  0.000E+00 dE (1.order)= 0.000E+00
 bond charge predicted
       N       E                     dE             d eps       ncg     rms          rms(c)
DAV:   1    -0.221859162561E+03   -0.10550E-08    0.60310E-11   198   0.147E-10    0.377E-10
RMM:   2    -0.221859162560E+03    0.86948E-09    0.00000E+00     0   0.144E-10
 288 F= -.22185916E+03 E0= -.22187347E+03  d E =-.178261E-09
quench:  g(F)=  0.000E+00 g(S)=  0.000E+00 dE (1.order)= 0.000E+00
 bond charge predicted
       N       E                     dE             d eps       ncg     rms          rms(c)
DAV:   1    -0.221859162559E+03    0.15680E-08    0.19708E-11   198   0.225E-10    0.345E-10
RMM:   2    -0.221859162560E+03   -0.62573E-09    0.00000E+00     0   0.124E-10
 289 F= -.22185916E+03 E0= -.22187347E+03  d E =0.727596E-10
quench:  g(F)=  0.000E+00 g(S)=  0.000E+00 dE (1.order)= 0.000E+00
 bond charge predicted
       N       E                     dE             d eps       ncg     rms          rms(c)
DAV:   1    -0.221859162561E+03   -0.13897E-08    0.19074E-10   198   0.195E-10    0.425E-10
RMM:   2    -0.221859162560E+03    0.84765E-09    0.00000E+00     0   0.131E-10
 290 F= -.22185916E+03 E0= -.22187347E+03  d E =0.836735E-10
quench:  g(F)=  0.000E+00 g(S)=  0.000E+00 dE (1.order)= 0.000E+00
 bond charge predicted
       N       E                     dE             d eps       ncg     rms          rms(c)
DAV:   1    -0.221859162559E+03    0.15971E-08    0.43952E-11   198   0.227E-10    0.315E-10
RMM:   2    -0.221859162560E+03   -0.86584E-09    0.00000E+00     0   0.131E-10
 291 F= -.22185916E+03 E0= -.22187347E+03  d E =-.116415E-09
quench:  g(F)=  0.000E+00 g(S)=  0.000E+00 dE (1.order)= 0.000E+00
 bond charge predicted
       N       E                     dE             d eps       ncg     rms          rms(c)
DAV:   1    -0.221859162560E+03   -0.13315E-08    0.26327E-11   198   0.215E-10    0.246E-10
RMM:   2    -0.221859162560E+03    0.62573E-09    0.00000E+00     0   0.963E-11
 292 F= -.22185916E+03 E0= -.22187347E+03  d E =0.160071E-09
quench:  g(F)=  0.000E+00 g(S)=  0.000E+00 dE (1.order)= 0.000E+00
 bond charge predicted
       N       E                     dE             d eps       ncg     rms          rms(c)
DAV:   1    -0.221859162560E+03    0.44020E-09   -0.59004E-11   198   0.116E-10    0.336E-10
RMM:   2    -0.221859162560E+03    0.65484E-10    0.00000E+00     0   0.122E-10
 293 F= -.22185916E+03 E0= -.22187347E+03  d E =-.120053E-09
quench:  g(F)=  0.000E+00 g(S)=  0.000E+00 dE (1.order)= 0.000E+00
 bond charge predicted
       N       E                     dE             d eps       ncg     rms          rms(c)
DAV:   1    -0.221859162560E+03    0.29831E-09    0.75794E-11   198   0.198E-10    0.267E-10
RMM:   2    -0.221859162560E+03   -0.12733E-09    0.00000E+00     0   0.121E-10
 294 F= -.22185916E+03 E0= -.22187347E+03  d E =0.105501E-09
quench:  g(F)=  0.000E+00 g(S)=  0.000E+00 dE (1.order)= 0.000E+00
 bond charge predicted
       N       E                     dE             d eps       ncg     rms          rms(c)
DAV:   1    -0.221859162560E+03   -0.34197E-09    0.10972E-10   198   0.155E-10    0.280E-10
RMM:   2    -0.221859162560E+03    0.16735E-09    0.00000E+00     0   0.117E-10
 295 F= -.22185916E+03 E0= -.22187347E+03  d E =-.472937E-10
quench:  g(F)=  0.000E+00 g(S)=  0.000E+00 dE (1.order)= 0.000E+00
 bond charge predicted
       N       E                     dE             d eps       ncg     rms          rms(c)
DAV:   1    -0.221859162559E+03    0.98589E-09    0.43178E-11   198   0.147E-10    0.305E-10
RMM:   2    -0.221859162560E+03   -0.96406E-09    0.00000E+00     0   0.100E-10
 296 F= -.22185916E+03 E0= -.22187347E+03  d E =-.145519E-09
quench:  g(F)=  0.000E+00 g(S)=  0.000E+00 dE (1.order)= 0.000E+00
 bond charge predicted
       N       E                     dE             d eps       ncg     rms          rms(c)
DAV:   1    -0.221859162560E+03   -0.69849E-09    0.34911E-11   198   0.127E-10    0.236E-10
RMM:   2    -0.221859162560E+03   -0.22919E-09    0.00000E+00     0   0.916E-11
 297 F= -.22185916E+03 E0= -.22187347E+03  d E =0.363798E-10
quench:  g(F)=  0.000E+00 g(S)=  0.000E+00 dE (1.order)= 0.000E+00
 bond charge predicted
       N       E                     dE             d eps       ncg     rms          rms(c)
DAV:   1    -0.221859162560E+03   -0.53478E-09    0.62755E-11   198   0.995E-11    0.364E-10
RMM:   2    -0.221859162560E+03    0.48021E-09    0.00000E+00     0   0.118E-10
 298 F= -.22185916E+03 E0= -.22187347E+03  d E =0.174623E-09
quench:  g(F)=  0.000E+00 g(S)=  0.000E+00 dE (1.order)= 0.000E+00
 bond charge predicted
       N       E                     dE             d eps       ncg     rms          rms(c)
DAV:   1    -0.221859162559E+03    0.17353E-08    0.88699E-11   198   0.205E-10    0.369E-10
RMM:   2    -0.221859162560E+03   -0.13752E-08    0.00000E+00     0   0.115E-10
 299 F= -.22185916E+03 E0= -.22187347E+03  d E =-.120053E-09
quench:  g(F)=  0.000E+00 g(S)=  0.000E+00 dE (1.order)= 0.000E+00
 bond charge predicted
       N       E                     dE             d eps       ncg     rms          rms(c)
DAV:   1    -0.221859162560E+03   -0.12806E-08    0.50230E-11   198   0.183E-10    0.449E-10
RMM:   2    -0.221859162560E+03   -0.21828E-10    0.00000E+00     0   0.177E-10
 300 F= -.22185916E+03 E0= -.22187347E+03  d E =0.727596E-10
quench:  g(F)=  0.000E+00 g(S)=  0.000E+00 dE (1.order)= 0.000E+00
