  79  79   0   0
  0.2352942E+02  0.1210264E-08  0.7093817E-09  0.2165102E-08  0.0000000E+00
   1.0000000000000000E-004
  CAR 
 NEB                                     
      9.00161337    -23.90885668  301      0.88473475      1.00000000
    -23.909  0.0000E+00  0.0000E+00
    -23.799  0.0000E+00  0.0000E+00
    -23.689  0.0000E+00  0.0000E+00
    -23.580 -0.2381E-30 -0.2612E-31
    -23.470 -0.1681E-26 -0.1845E-27
    -23.360 -0.6358E-23 -0.6977E-24
    -23.251 -0.1315E-19 -0.1443E-20
    -23.141 -0.1487E-16 -0.1633E-17
    -23.031 -0.8898E-14 -0.9778E-15
    -22.922 -0.2984E-11 -0.3283E-12
    -22.812 -0.5437E-09 -0.5997E-10
    -22.702 -0.5368E-07 -0.5949E-08
    -22.592 -0.2856E-05 -0.3193E-06
    -22.483 -0.8101E-04 -0.9206E-05
    -22.373 -0.1201E-02 -0.1410E-03
    -22.263 -0.8914E-02 -0.1119E-02
    -22.154 -0.2914E-01 -0.4316E-02
    -22.044 -0.1295E-01 -0.5736E-02
    -21.934  0.1799E+00  0.1400E-01
    -21.825  0.6701E+00  0.8751E-01
    -21.715  0.1417E+01  0.2430E+00
    -21.605  0.1918E+01  0.4533E+00
    -21.495  0.1665E+01  0.6360E+00
    -21.386  0.9595E+00  0.7412E+00
    -21.276  0.3377E+00  0.7783E+00
    -21.166  0.4707E-01  0.7835E+00
    -21.057 -0.1390E-01  0.7819E+00
    -20.947 -0.1225E-01  0.7806E+00
    -20.837 -0.4466E-02  0.7801E+00
    -20.728 -0.8241E-03  0.7800E+00
    -20.618 -0.7731E-04  0.7800E+00
    -20.508 -0.3752E-05  0.7800E+00
    -20.398 -0.9589E-07  0.7800E+00
    -20.289 -0.1307E-08  0.7800E+00
    -20.179 -0.9580E-11  0.7800E+00
    -20.069 -0.3794E-13  0.7800E+00
    -19.960 -0.9446E-16  0.7800E+00
    -19.850  0.0000E+00  0.7800E+00
    -19.740  0.0000E+00  0.7800E+00
    -19.630  0.0000E+00  0.7800E+00
    -19.521  0.0000E+00  0.7800E+00
    -19.411  0.0000E+00  0.7800E+00
    -19.301  0.0000E+00  0.7800E+00
    -19.192  0.0000E+00  0.7800E+00
    -19.082  0.0000E+00  0.7800E+00
    -18.972  0.0000E+00  0.7800E+00
    -18.863  0.0000E+00  0.7800E+00
    -18.753  0.0000E+00  0.7800E+00
    -18.643  0.0000E+00  0.7800E+00
    -18.533  0.0000E+00  0.7800E+00
    -18.424  0.0000E+00  0.7800E+00
    -18.314  0.0000E+00  0.7800E+00
    -18.204  0.0000E+00  0.7800E+00
    -18.095  0.0000E+00  0.7800E+00
    -17.985  0.0000E+00  0.7800E+00
    -17.875  0.0000E+00  0.7800E+00
    -17.766  0.0000E+00  0.7800E+00
    -17.656  0.0000E+00  0.7800E+00
    -17.546  0.0000E+00  0.7800E+00
    -17.436  0.0000E+00  0.7800E+00
    -17.327  0.0000E+00  0.7800E+00
    -17.217  0.0000E+00  0.7800E+00
    -17.107  0.0000E+00  0.7800E+00
    -16.998  0.0000E+00  0.7800E+00
    -16.888  0.0000E+00  0.7800E+00
    -16.778  0.0000E+00  0.7800E+00
    -16.669  0.0000E+00  0.7800E+00
    -16.559  0.0000E+00  0.7800E+00
    -16.449  0.0000E+00  0.7800E+00
    -16.339  0.0000E+00  0.7800E+00
    -16.230  0.0000E+00  0.7800E+00
    -16.120  0.0000E+00  0.7800E+00
    -16.010  0.0000E+00  0.7800E+00
    -15.901  0.0000E+00  0.7800E+00
    -15.791  0.0000E+00  0.7800E+00
    -15.681  0.0000E+00  0.7800E+00
    -15.572  0.0000E+00  0.7800E+00
    -15.462  0.0000E+00  0.7800E+00
    -15.352  0.0000E+00  0.7800E+00
    -15.242  0.0000E+00  0.7800E+00
    -15.133  0.0000E+00  0.7800E+00
    -15.023  0.0000E+00  0.7800E+00
    -14.913  0.0000E+00  0.7800E+00
    -14.804  0.0000E+00  0.7800E+00
    -14.694  0.0000E+00  0.7800E+00
    -14.584  0.0000E+00  0.7800E+00
    -14.475  0.0000E+00  0.7800E+00
    -14.365  0.0000E+00  0.7800E+00
    -14.255  0.0000E+00  0.7800E+00
    -14.145  0.0000E+00  0.7800E+00
    -14.036  0.0000E+00  0.7800E+00
    -13.926  0.0000E+00  0.7800E+00
    -13.816  0.0000E+00  0.7800E+00
    -13.707  0.0000E+00  0.7800E+00
    -13.597  0.0000E+00  0.7800E+00
    -13.487  0.0000E+00  0.7800E+00
    -13.378  0.0000E+00  0.7800E+00
    -13.268  0.0000E+00  0.7800E+00
    -13.158  0.0000E+00  0.7800E+00
    -13.048  0.0000E+00  0.7800E+00
    -12.939  0.0000E+00  0.7800E+00
    -12.829  0.0000E+00  0.7800E+00
    -12.719  0.0000E+00  0.7800E+00
    -12.610  0.0000E+00  0.7800E+00
    -12.500  0.0000E+00  0.7800E+00
    -12.390  0.0000E+00  0.7800E+00
    -12.280 -0.4388E-32  0.7800E+00
    -12.171 -0.3566E-28  0.7800E+00
    -12.061 -0.1555E-24  0.7800E+00
    -11.951 -0.3703E-21  0.7800E+00
    -11.842 -0.4818E-18  0.7800E+00
    -11.732 -0.3323E-15  0.7800E+00
    -11.622 -0.1282E-12  0.7800E+00
    -11.513 -0.2695E-10  0.7800E+00
    -11.403 -0.3083E-08  0.7800E+00
    -11.293 -0.1912E-06  0.7800E+00
    -11.183 -0.6392E-05  0.7800E+00
    -11.074 -0.1135E-03  0.7800E+00
    -10.964 -0.1034E-02  0.7799E+00
    -10.854 -0.4315E-02  0.7794E+00
    -10.745 -0.3681E-02  0.7790E+00
    -10.635  0.2945E-01  0.7822E+00
    -10.525  0.1058E+00  0.7938E+00
    -10.416  0.1595E+00  0.8113E+00
    -10.306  0.1327E+00  0.8259E+00
    -10.196  0.5855E-01  0.8323E+00
    -10.086 -0.1239E-02  0.8322E+00
     -9.977  0.2018E-02  0.8324E+00
     -9.867  0.1181E+00  0.8453E+00
     -9.757  0.3289E+00  0.8814E+00
     -9.648  0.4678E+00  0.9328E+00
     -9.538  0.3854E+00  0.9750E+00
     -9.428  0.1690E+00  0.9936E+00
     -9.319  0.1969E-01  0.9957E+00
     -9.209 -0.1414E-01  0.9942E+00
     -9.099 -0.6516E-02  0.9935E+00
     -8.989 -0.1151E-02  0.9933E+00
     -8.880 -0.1009E-03  0.9933E+00
     -8.770 -0.4648E-05  0.9933E+00
     -8.660 -0.1147E-06  0.9933E+00
     -8.551 -0.1528E-08  0.9933E+00
     -8.441 -0.1104E-10  0.9933E+00
     -8.331 -0.4342E-13  0.9933E+00
     -8.222 -0.9446E-16  0.9933E+00
     -8.112  0.0000E+00  0.9933E+00
     -8.002  0.0000E+00  0.9933E+00
     -7.892  0.0000E+00  0.9933E+00
     -7.783  0.0000E+00  0.9933E+00
     -7.673  0.0000E+00  0.9933E+00
     -7.563  0.0000E+00  0.9933E+00
     -7.454  0.0000E+00  0.9933E+00
     -7.344  0.0000E+00  0.9933E+00
     -7.234  0.0000E+00  0.9933E+00
     -7.125  0.0000E+00  0.9933E+00
     -7.015  0.0000E+00  0.9933E+00
     -6.905  0.0000E+00  0.9933E+00
     -6.795  0.0000E+00  0.9933E+00
     -6.686  0.0000E+00  0.9933E+00
     -6.576  0.0000E+00  0.9933E+00
     -6.466  0.0000E+00  0.9933E+00
     -6.357  0.0000E+00  0.9933E+00
     -6.247  0.0000E+00  0.9933E+00
     -6.137  0.0000E+00  0.9933E+00
     -6.028  0.0000E+00  0.9933E+00
     -5.918  0.0000E+00  0.9933E+00
     -5.808  0.0000E+00  0.9933E+00
     -5.698  0.0000E+00  0.9933E+00
     -5.589  0.0000E+00  0.9933E+00
     -5.479  0.0000E+00  0.9933E+00
     -5.369  0.0000E+00  0.9933E+00
     -5.260  0.0000E+00  0.9933E+00
     -5.150  0.0000E+00  0.9933E+00
     -5.040  0.0000E+00  0.9933E+00
     -4.930 -0.7411E-30  0.9933E+00
     -4.821 -0.4194E-26  0.9933E+00
     -4.711 -0.1291E-22  0.9933E+00
     -4.601 -0.2168E-19  0.9933E+00
     -4.492 -0.1982E-16  0.9933E+00
     -4.382 -0.9554E-14  0.9933E+00
     -4.272 -0.2569E-11  0.9933E+00
     -4.163 -0.3749E-09  0.9933E+00
     -4.053 -0.2962E-07  0.9933E+00
     -3.943 -0.1262E-05  0.9933E+00
     -3.833 -0.2881E-04  0.9933E+00
     -3.724 -0.3464E-03  0.9933E+00
     -3.614 -0.2085E-02  0.9931E+00
     -3.504 -0.4989E-02  0.9925E+00
     -3.395  0.5422E-02  0.9931E+00
     -3.285  0.5646E-01  0.9993E+00
     -3.175  0.1287E+00  0.1013E+01
     -3.066  0.1477E+00  0.1030E+01
     -2.956  0.1033E+00  0.1041E+01
     -2.846  0.4773E-01  0.1046E+01
     -2.736  0.9966E-02  0.1047E+01
     -2.627 -0.2943E-02  0.1047E+01
     -2.517 -0.2155E-02  0.1047E+01
     -2.407 -0.4603E-03  0.1047E+01
     -2.298 -0.6707E-04  0.1047E+01
     -2.188 -0.3233E-03  0.1047E+01
     -2.078 -0.2445E-02  0.1046E+01
     -1.969 -0.8307E-02  0.1045E+01
     -1.859 -0.2143E-02  0.1045E+01
     -1.749  0.6504E-01  0.1052E+01
     -1.639  0.1967E+00  0.1074E+01
     -1.530  0.2919E+00  0.1106E+01
     -1.420  0.2926E+00  0.1138E+01
     -1.310  0.2517E+00  0.1166E+01
     -1.201  0.2073E+00  0.1188E+01
     -1.091  0.1322E+00  0.1203E+01
     -0.981  0.3648E-01  0.1207E+01
     -0.872 -0.1033E-01  0.1206E+01
     -0.762  0.3822E-01  0.1210E+01
     -0.652  0.1631E+00  0.1228E+01
     -0.542  0.2420E+00  0.1254E+01
     -0.433  0.2255E+00  0.1279E+01
     -0.323  0.2090E+00  0.1302E+01
     -0.213  0.2312E+00  0.1327E+01
     -0.104  0.2626E+00  0.1356E+01
      0.006  0.2596E+00  0.1385E+01
      0.116  0.2316E+00  0.1410E+01
      0.225  0.2476E+00  0.1437E+01
      0.335  0.2983E+00  0.1470E+01
      0.445  0.3505E+00  0.1508E+01
      0.555  0.3815E+00  0.1550E+01
      0.664  0.3430E+00  0.1588E+01
      0.774  0.2474E+00  0.1615E+01
      0.884  0.1354E+00  0.1630E+01
      0.993  0.4124E-01  0.1634E+01
      1.103 -0.2035E-02  0.1634E+01
      1.213 -0.5950E-02  0.1634E+01
      1.323 -0.1827E-02  0.1633E+01
      1.432 -0.2514E-03  0.1633E+01
      1.542 -0.1766E-04  0.1633E+01
      1.652 -0.6572E-06  0.1633E+01
      1.761 -0.1315E-07  0.1633E+01
      1.871 -0.1423E-09  0.1633E+01
      1.981 -0.8363E-12  0.1633E+01
      2.090 -0.2658E-14  0.1633E+01
      2.200 -0.2283E-20  0.1633E+01
      2.310 -0.2511E-17  0.1633E+01
      2.420 -0.1454E-14  0.1633E+01
      2.529 -0.4680E-12  0.1633E+01
      2.639 -0.8123E-10  0.1633E+01
      2.749 -0.7560E-08  0.1633E+01
      2.858 -0.3738E-06  0.1633E+01
      2.968 -0.9644E-05  0.1633E+01
      3.078 -0.1253E-03  0.1633E+01
      3.187 -0.7438E-03  0.1633E+01
      3.297 -0.1270E-02  0.1633E+01
      3.407  0.4543E-02  0.1634E+01
      3.517  0.2019E-01  0.1636E+01
      3.626  0.2646E-01  0.1639E+01
      3.736  0.1282E-01  0.1640E+01
      3.846  0.4820E-03  0.1640E+01
      3.955 -0.2123E-02  0.1640E+01
      4.065 -0.2803E-02  0.1640E+01
      4.175  0.2310E-02  0.1640E+01
      4.284  0.2666E-01  0.1643E+01
      4.394  0.5144E-01  0.1648E+01
      4.504  0.3892E-01  0.1653E+01
      4.614  0.8854E-02  0.1654E+01
      4.723 -0.4705E-02  0.1653E+01
      4.833 -0.3438E-02  0.1653E+01
      4.943  0.1755E-01  0.1655E+01
      5.052  0.5538E-01  0.1661E+01
      5.162  0.7365E-01  0.1669E+01
      5.272  0.7975E-01  0.1678E+01
      5.381  0.1064E+00  0.1689E+01
      5.491  0.1438E+00  0.1705E+01
      5.601  0.1831E+00  0.1725E+01
      5.711  0.2058E+00  0.1748E+01
      5.820  0.1890E+00  0.1768E+01
      5.930  0.1457E+00  0.1784E+01
      6.040  0.1217E+00  0.1798E+01
      6.149  0.1370E+00  0.1813E+01
      6.259  0.1560E+00  0.1830E+01
      6.369  0.1475E+00  0.1846E+01
      6.478  0.1424E+00  0.1862E+01
      6.588  0.1729E+00  0.1881E+01
      6.698  0.1962E+00  0.1902E+01
      6.808  0.1937E+00  0.1924E+01
      6.917  0.1790E+00  0.1943E+01
      7.027  0.1213E+00  0.1956E+01
      7.137  0.4053E-01  0.1961E+01
      7.246 -0.1199E-02  0.1961E+01
      7.356 -0.5143E-02  0.1960E+01
      7.466 -0.1542E-02  0.1960E+01
      7.575 -0.2068E-03  0.1960E+01
      7.685 -0.1425E-04  0.1960E+01
      7.795 -0.5222E-06  0.1960E+01
      7.905 -0.1031E-07  0.1960E+01
      8.014 -0.1103E-09  0.1960E+01
      8.124 -0.6400E-12  0.1960E+01
      8.234 -0.2024E-14  0.1960E+01
      8.343  0.0000E+00  0.1960E+01
      8.453  0.0000E+00  0.1960E+01
      8.563  0.0000E+00  0.1960E+01
      8.673  0.0000E+00  0.1960E+01
      8.782  0.0000E+00  0.1960E+01
      8.892  0.0000E+00  0.1960E+01
      9.002  0.0000E+00  0.1960E+01
