       N       E                     dE             d eps       ncg     rms          rms(c)
DAV:   1     0.464260455950E+04    0.46426E+04   -0.20040E+05   636   0.140E+03
DAV:   2     0.333032828915E+03   -0.43096E+04   -0.41590E+04   636   0.401E+02
DAV:   3    -0.285582633110E+03   -0.61862E+03   -0.61195E+03   702   0.165E+02
DAV:   4    -0.321544297087E+03   -0.35962E+02   -0.35665E+02   672   0.367E+01
DAV:   5    -0.323081450559E+03   -0.15372E+01   -0.15347E+01   828   0.800E+00    0.268E+01
RMM:   6    -0.305450463066E+03    0.17631E+02   -0.30636E+01   636   0.585E+00    0.179E+01
RMM:   7    -0.304472126913E+03    0.97834E+00   -0.36094E+01   627   0.535E+00    0.113E+01
RMM:   8    -0.304116097874E+03    0.35603E+00   -0.27653E+00   737   0.284E+00    0.660E+00
RMM:   9    -0.304111867603E+03    0.42303E-02   -0.26771E+00   627   0.182E+00    0.268E+00
RMM:  10    -0.303912532966E+03    0.19933E+00   -0.25351E-01   689   0.989E-01    0.224E+00
RMM:  11    -0.303859015498E+03    0.53517E-01   -0.12691E-01   760   0.483E-01    0.153E+00
RMM:  12    -0.303843345425E+03    0.15670E-01   -0.55631E-02   761   0.268E-01    0.870E-01
RMM:  13    -0.303843406126E+03   -0.60701E-04   -0.15841E-02   697   0.152E-01    0.605E-01
RMM:  14    -0.303858766085E+03   -0.15360E-01   -0.14436E-02   654   0.172E-01    0.604E-01
RMM:  15    -0.303848495387E+03    0.10271E-01   -0.62388E-03   681   0.109E-01    0.297E-01
RMM:  16    -0.303848451853E+03    0.43534E-04   -0.22382E-03   660   0.741E-02    0.242E-01
RMM:  17    -0.303848103221E+03    0.34863E-03   -0.17809E-03   637   0.545E-02    0.947E-02
RMM:  18    -0.303848387196E+03   -0.28398E-03   -0.71196E-04   653   0.369E-02    0.950E-02
RMM:  19    -0.303848083812E+03    0.30338E-03   -0.14493E-04   591   0.211E-02    0.423E-02
RMM:  20    -0.303848055443E+03    0.28369E-04   -0.11909E-04   522   0.134E-02    0.188E-02
RMM:  21    -0.303848049613E+03    0.58302E-05   -0.19219E-05   402   0.848E-03
   1 F= -.30384805E+03 E0= -.30389112E+03  d E =-.303848E+03
       N       E                     dE             d eps       ncg     rms          rms(c)
DAV:   1    -0.303848049331E+03    0.61120E-05   -0.80480E-06   360   0.910E-03    0.653E-03
RMM:   2    -0.303848050443E+03   -0.11120E-05   -0.58013E-06   342   0.447E-03
   2 F= -.30384805E+03 E0= -.30389107E+03  d E =-.830201E-06
       N       E                     dE             d eps       ncg     rms          rms(c)
DAV:   1    -0.303848049042E+03    0.28947E-06   -0.96710E-06   396   0.558E-03    0.373E-03
RMM:   2    -0.303848049928E+03   -0.88627E-06   -0.97155E-07   299   0.201E-03
   3 F= -.30384805E+03 E0= -.30389108E+03  d E =0.515196E-06
       N       E                     dE             d eps       ncg     rms          rms(c)
DAV:   1    -0.303848048691E+03    0.35119E-06   -0.54110E-06   420   0.379E-03    0.178E-03
RMM:   2    -0.303848048684E+03    0.69485E-08   -0.22059E-07   125   0.128E-03
   4 F= -.30384805E+03 E0= -.30389108E+03  d E =0.124441E-05
       N       E                     dE             d eps       ncg     rms          rms(c)
DAV:   1    -0.303848048670E+03    0.20147E-07   -0.66685E-07   384   0.155E-03    0.136E-03
RMM:   2    -0.303848048767E+03   -0.96465E-07   -0.24041E-08    77   0.950E-04
   5 F= -.30384805E+03 E0= -.30389108E+03  d E =-.832661E-07
       N       E                     dE             d eps       ncg     rms          rms(c)
DAV:   1    -0.303848048646E+03    0.24484E-07   -0.60799E-07   384   0.137E-03    0.666E-04
RMM:   2    -0.303848048647E+03   -0.10841E-08    0.47419-195    46   0.695E-04
   6 F= -.30384805E+03 E0= -.30389108E+03  d E =0.119864E-06
       N       E                     dE             d eps       ncg     rms          rms(c)
DAV:   1    -0.303848048654E+03   -0.75452E-08   -0.16030E-07   348   0.731E-04    0.756E-04
RMM:   2    -0.303848048668E+03   -0.14508E-07    0.23058-220    41   0.483E-04
   7 F= -.30384805E+03 E0= -.30389108E+03  d E =-.209693E-07
       N       E                     dE             d eps       ncg     rms          rms(c)
DAV:   1    -0.303848048653E+03    0.77853E-09   -0.11114E-07   348   0.695E-04    0.372E-04
RMM:   2    -0.303848048657E+03   -0.40600E-08    0.15234-220    36   0.304E-04
   8 F= -.30384805E+03 E0= -.30389108E+03  d E =0.112268E-07
       N       E                     dE             d eps       ncg     rms          rms(c)
DAV:   1    -0.303848048653E+03   -0.62573E-09   -0.35326E-08   348   0.348E-04    0.247E-04
RMM:   2    -0.303848048651E+03    0.22483E-08    0.36225-316    28   0.230E-04
   9 F= -.30384805E+03 E0= -.30389108E+03  d E =0.568252E-08
       N       E                     dE             d eps       ncg     rms          rms(c)
DAV:   1    -0.303848048650E+03    0.35943E-08   -0.14943E-08   348   0.256E-04    0.243E-04
RMM:   2    -0.303848048651E+03   -0.12587E-08    0.21188-316    27   0.164E-04
  10 F= -.30384805E+03 E0= -.30389108E+03  d E =0.873115E-10
       N       E                     dE             d eps       ncg     rms          rms(c)
DAV:   1    -0.303848048651E+03   -0.12151E-08   -0.10349E-08   348   0.207E-04    0.133E-04
RMM:   2    -0.303848048649E+03    0.19281E-08    0.44466-322    23   0.117E-04
  11 F= -.30384805E+03 E0= -.30389108E+03  d E =0.197178E-08
       N       E                     dE             d eps       ncg     rms          rms(c)
DAV:   1    -0.303848048648E+03    0.26557E-08   -0.55212E-09   348   0.136E-04    0.110E-04
RMM:   2    -0.303848048648E+03    0.39290E-09    0.00000E+00    18   0.902E-05
  12 F= -.30384805E+03 E0= -.30389108E+03  d E =0.112050E-08
       N       E                     dE             d eps       ncg     rms          rms(c)
DAV:   1    -0.303848048647E+03    0.96770E-09   -0.21628E-09   348   0.101E-04    0.990E-05
RMM:   2    -0.303848048648E+03   -0.34925E-09    0.00000E+00    17   0.630E-05
  13 F= -.30384805E+03 E0= -.30389108E+03  d E =0.225555E-09
       N       E                     dE             d eps       ncg     rms          rms(c)
DAV:   1    -0.303848048646E+03    0.13897E-08   -0.28287E-09   348   0.966E-05    0.473E-05
RMM:   2    -0.303848048647E+03   -0.11787E-08    0.00000E+00    17   0.522E-05
  14 F= -.30384805E+03 E0= -.30389108E+03  d E =0.560249E-09
       N       E                     dE             d eps       ncg     rms          rms(c)
DAV:   1    -0.303848048646E+03   -0.42928E-09   -0.35614E-10   312   0.534E-05    0.418E-05
RMM:   2    -0.303848048647E+03   -0.47294E-09    0.00000E+00    15   0.351E-05
  15 F= -.30384805E+03 E0= -.30389108E+03  d E =0.276486E-09
       N       E                     dE             d eps       ncg     rms          rms(c)
DAV:   1    -0.303848048647E+03   -0.59663E-09   -0.43421E-10   312   0.437E-05    0.232E-05
RMM:   2    -0.303848048647E+03    0.44383E-09    0.00000E+00    14   0.247E-05
  16 F= -.30384805E+03 E0= -.30389108E+03  d E =0.320142E-09
       N       E                     dE             d eps       ncg     rms          rms(c)
DAV:   1    -0.303848048646E+03    0.59663E-09   -0.58379E-12   312   0.261E-05    0.321E-05
RMM:   2    -0.303848048646E+03   -0.50932E-10    0.00000E+00    14   0.188E-05
  17 F= -.30384805E+03 E0= -.30389108E+03  d E =0.101863E-09
       N       E                     dE             d eps       ncg     rms          rms(c)
DAV:   1    -0.303848048648E+03   -0.11205E-08   -0.19304E-11   312   0.257E-05    0.199E-05
RMM:   2    -0.303848048646E+03    0.10186E-08    0.00000E+00    14   0.127E-05
  18 F= -.30384805E+03 E0= -.30389108E+03  d E =-.509317E-10
       N       E                     dE             d eps       ncg     rms          rms(c)
DAV:   1    -0.303848048646E+03    0.12878E-08   -0.45581E-10   312   0.231E-05    0.101E-05
RMM:   2    -0.303848048646E+03   -0.11642E-09    0.00000E+00    13   0.112E-05
  19 F= -.30384805E+03 E0= -.30389108E+03  d E =0.152795E-09
       N       E                     dE             d eps       ncg     rms          rms(c)
DAV:   1    -0.303848048646E+03   -0.21828E-10    0.31811E-12   312   0.119E-05    0.838E-06
RMM:   2    -0.303848048646E+03    0.14552E-10    0.00000E+00    12   0.739E-06
  20 F= -.30384805E+03 E0= -.30389108E+03  d E =0.109139E-09
       N       E                     dE             d eps       ncg     rms          rms(c)
DAV:   1    -0.303848048646E+03    0.66939E-09   -0.87850E-11   312   0.120E-05    0.292E-06
RMM:   2    -0.303848048646E+03   -0.66211E-09    0.00000E+00    13   0.598E-06
  21 F= -.30384805E+03 E0= -.30389108E+03  d E =-.727596E-11
       N       E                     dE             d eps       ncg     rms          rms(c)
DAV:   1    -0.303848048645E+03    0.25466E-09   -0.22580E-10   312   0.612E-06    0.410E-06
RMM:   2    -0.303848048646E+03   -0.10405E-08    0.00000E+00    12   0.422E-06
  22 F= -.30384805E+03 E0= -.30389108E+03  d E =-.123691E-09
       N       E                     dE             d eps       ncg     rms          rms(c)
DAV:   1    -0.303848048646E+03   -0.89494E-09   -0.70088E-11   312   0.569E-06    0.187E-06
RMM:   2    -0.303848048647E+03   -0.29831E-09    0.00000E+00    10   0.292E-06
  23 F= -.30384805E+03 E0= -.30389108E+03  d E =-.152795E-09
       N       E                     dE             d eps       ncg     rms          rms(c)
DAV:   1    -0.303848048647E+03   -0.58208E-09   -0.17753E-10   312   0.302E-06    0.286E-06
RMM:   2    -0.303848048646E+03    0.53114E-09    0.00000E+00    10   0.223E-06
  24 F= -.30384805E+03 E0= -.30389108E+03  d E =0.247383E-09
       N       E                     dE             d eps       ncg     rms          rms(c)
DAV:   1    -0.303848048645E+03    0.16516E-08    0.18333E-11   312   0.297E-06    0.167E-06
RMM:   2    -0.303848048646E+03   -0.12005E-08    0.00000E+00     8   0.156E-06
  25 F= -.30384805E+03 E0= -.30389108E+03  d E =-.800355E-10
       N       E                     dE             d eps       ncg     rms          rms(c)
DAV:   1    -0.303848048646E+03   -0.82218E-09    0.53187E-11   312   0.228E-06    0.747E-07
RMM:   2    -0.303848048646E+03   -0.37107E-09    0.00000E+00     9   0.141E-06
  26 F= -.30384805E+03 E0= -.30389108E+03  d E =0.727596E-11
       N       E                     dE             d eps       ncg     rms          rms(c)
DAV:   1    -0.303848048647E+03   -0.62573E-09    0.29458E-11   312   0.144E-06    0.102E-06
RMM:   2    -0.303848048646E+03    0.40018E-09    0.00000E+00     7   0.101E-06
  27 F= -.30384805E+03 E0= -.30389108E+03  d E =0.145519E-09
       N       E                     dE             d eps       ncg     rms          rms(c)
DAV:   1    -0.303848048646E+03    0.43656E-09    0.98553E-11   312   0.132E-06    0.515E-07
RMM:   2    -0.303848048646E+03   -0.24011E-09    0.00000E+00     6   0.722E-07
  28 F= -.30384805E+03 E0= -.30389108E+03  d E =-.203727E-09
       N       E                     dE             d eps       ncg     rms          rms(c)
DAV:   1    -0.303848048646E+03   -0.36380E-10   -0.15931E-10   312   0.787E-07    0.595E-07
RMM:   2    -0.303848048646E+03   -0.50932E-10    0.00000E+00     6   0.572E-07
  29 F= -.30384805E+03 E0= -.30389108E+03  d E =0.152795E-09
       N       E                     dE             d eps       ncg     rms          rms(c)
DAV:   1    -0.303848048645E+03    0.96770E-09   -0.84403E-11   312   0.699E-07    0.441E-07
RMM:   2    -0.303848048646E+03   -0.96043E-09    0.00000E+00     6   0.421E-07
  30 F= -.30384805E+03 E0= -.30389108E+03  d E =0.582077E-10
       N       E                     dE             d eps       ncg     rms          rms(c)
DAV:   1    -0.303848048647E+03   -0.14697E-08   -0.17483E-10   312   0.634E-07    0.247E-07
RMM:   2    -0.303848048646E+03    0.40018E-09    0.00000E+00     6   0.364E-07
  31 F= -.30384805E+03 E0= -.30389108E+03  d E =-.109139E-09
       N       E                     dE             d eps       ncg     rms          rms(c)
DAV:   1    -0.303848048647E+03   -0.24738E-09    0.23612E-11   312   0.391E-07    0.218E-07
RMM:   2    -0.303848048646E+03    0.61118E-09    0.00000E+00     5   0.253E-07
  32 F= -.30384805E+03 E0= -.30389108E+03  d E =-.363798E-10
       N       E                     dE             d eps       ncg     rms          rms(c)
DAV:   1    -0.303848048647E+03   -0.25466E-09   -0.55135E-11   312   0.355E-07    0.909E-08
RMM:   2    -0.303848048646E+03    0.82946E-09    0.00000E+00     4   0.204E-07
  33 F= -.30384805E+03 E0= -.30389108E+03  d E =-.363798E-10
       N       E                     dE             d eps       ncg     rms          rms(c)
DAV:   1    -0.303848048647E+03   -0.24738E-09   -0.20841E-10   312   0.217E-07    0.128E-07
RMM:   2    -0.303848048646E+03    0.12515E-08    0.00000E+00     4   0.158E-07
  34 F= -.30384805E+03 E0= -.30389108E+03  d E =0.174623E-09
       N       E                     dE             d eps       ncg     rms          rms(c)
DAV:   1    -0.303848048646E+03    0.96043E-09   -0.61313E-11   312   0.200E-07    0.578E-08
RMM:   2    -0.303848048646E+03    0.26193E-09    0.00000E+00     4   0.109E-07
  35 F= -.30384805E+03 E0= -.30389108E+03  d E =-.291038E-10
       N       E                     dE             d eps       ncg     rms          rms(c)
DAV:   1    -0.303848048646E+03    0.16735E-09   -0.10887E-10   312   0.113E-07    0.727E-08
RMM:   2    -0.303848048646E+03    0.16007E-09    0.00000E+00     4   0.877E-08
  36 F= -.30384805E+03 E0= -.30389108E+03  d E =0.654836E-10
       N       E                     dE             d eps       ncg     rms          rms(c)
DAV:   1    -0.303848048645E+03    0.11642E-08   -0.25214E-10   312   0.104E-07    0.382E-08
RMM:   2    -0.303848048647E+03   -0.13533E-08    0.00000E+00     3   0.589E-08
  37 F= -.30384805E+03 E0= -.30389108E+03  d E =-.349246E-09
       N       E                     dE             d eps       ncg     rms          rms(c)
DAV:   1    -0.303848048647E+03   -0.20227E-08    0.59742E-11   312   0.681E-08    0.269E-08
RMM:   2    -0.303848048646E+03    0.82946E-09    0.00000E+00     3   0.487E-08
  38 F= -.30384805E+03 E0= -.30389108E+03  d E =0.160071E-09
       N       E                     dE             d eps       ncg     rms          rms(c)
DAV:   1    -0.303848048646E+03    0.11423E-08    0.66876E-11   312   0.525E-08    0.341E-08
RMM:   2    -0.303848048646E+03   -0.46566E-09    0.00000E+00     3   0.380E-08
  39 F= -.30384805E+03 E0= -.30389108E+03  d E =-.152795E-09
       N       E                     dE             d eps       ncg     rms          rms(c)
DAV:   1    -0.303848048646E+03    0.14552E-10   -0.56351E-11   312   0.487E-08    0.155E-08
RMM:   2    -0.303848048646E+03   -0.32014E-09    0.00000E+00     3   0.281E-08
  40 F= -.30384805E+03 E0= -.30389108E+03  d E =0.160071E-09
       N       E                     dE             d eps       ncg     rms          rms(c)
DAV:   1    -0.303848048645E+03    0.60390E-09   -0.17221E-11   312   0.302E-08    0.108E-08
RMM:   2    -0.303848048646E+03   -0.79308E-09    0.00000E+00     3   0.213E-08
  41 F= -.30384805E+03 E0= -.30389108E+03  d E =0.130967E-09
       N       E                     dE             d eps       ncg     rms          rms(c)
DAV:   1    -0.303848048647E+03   -0.17244E-08   -0.72586E-11   312   0.233E-08    0.109E-08
RMM:   2    -0.303848048646E+03    0.80763E-09    0.00000E+00     3   0.163E-08
  42 F= -.30384805E+03 E0= -.30389108E+03  d E =-.123691E-09
       N       E                     dE             d eps       ncg     rms          rms(c)
DAV:   1    -0.303848048646E+03    0.82946E-09    0.40666E-11   312   0.187E-08    0.610E-09
RMM:   2    -0.303848048646E+03   -0.58208E-10    0.00000E+00     3   0.121E-08
  43 F= -.30384805E+03 E0= -.30389108E+03  d E =-.363798E-10
       N       E                     dE             d eps       ncg     rms          rms(c)
DAV:   1    -0.303848048645E+03    0.15789E-08   -0.14763E-10   312   0.133E-08    0.612E-09
RMM:   2    -0.303848048646E+03   -0.16080E-08    0.00000E+00     3   0.963E-09
  44 F= -.30384805E+03 E0= -.30389108E+03  d E =0.291038E-10
       N       E                     dE             d eps       ncg     rms          rms(c)
DAV:   1    -0.303848048646E+03   -0.10550E-08    0.34292E-11   312   0.110E-08    0.507E-09
RMM:   2    -0.303848048646E+03   -0.52387E-09    0.00000E+00     2   0.736E-09
  45 F= -.30384805E+03 E0= -.30389108E+03  d E =0.291038E-10
       N       E                     dE             d eps       ncg     rms          rms(c)
DAV:   1    -0.303848048646E+03   -0.37107E-09    0.14287E-11   312   0.975E-09    0.262E-09
RMM:   2    -0.303848048646E+03   -0.13097E-09    0.00000E+00     2   0.593E-09
  46 F= -.30384805E+03 E0= -.30389108E+03  d E =0.218279E-10
       N       E                     dE             d eps       ncg     rms          rms(c)
DAV:   1    -0.303848048648E+03   -0.16807E-08    0.16864E-10   312   0.644E-09    0.250E-09
RMM:   2    -0.303848048646E+03    0.14625E-08    0.00000E+00     2   0.438E-09
  47 F= -.30384805E+03 E0= -.30389108E+03  d E =-.873115E-10
       N       E                     dE             d eps       ncg     rms          rms(c)
DAV:   1    -0.303848048648E+03    0.30559E-09   -0.59747E-11   312   0.552E-09    0.116E-09
RMM:   2    -0.303848048646E+03    0.11714E-08    0.00000E+00     2   0.347E-09
  48 F= -.30384805E+03 E0= -.30389108E+03  d E =0.145519E-10
       N       E                     dE             d eps       ncg     rms          rms(c)
DAV:   1    -0.303848048647E+03    0.88767E-09   -0.39675E-11   312   0.363E-09    0.134E-09
RMM:   2    -0.303848048646E+03    0.26921E-09    0.00000E+00     2   0.266E-09
  49 F= -.30384805E+03 E0= -.30389108E+03  d E =-.145519E-10
       N       E                     dE             d eps       ncg     rms          rms(c)
DAV:   1    -0.303848048646E+03    0.10332E-08   -0.11352E-10   312   0.314E-09    0.717E-10
RMM:   2    -0.303848048646E+03   -0.68394E-09    0.00000E+00     2   0.195E-09
  50 F= -.30384805E+03 E0= -.30389108E+03  d E =0.800355E-10
       N       E                     dE             d eps       ncg     rms          rms(c)
DAV:   1    -0.303848048646E+03   -0.85129E-09   -0.68390E-11   312   0.208E-09    0.107E-09
RMM:   2    -0.303848048646E+03    0.16007E-09    0.00000E+00     2   0.158E-09
  51 F= -.30384805E+03 E0= -.30389108E+03  d E =-.727596E-11
       N       E                     dE             d eps       ncg     rms          rms(c)
DAV:   1    -0.303848048646E+03    0.55297E-09   -0.90364E-11   312   0.191E-09    0.610E-10
RMM:   2    -0.303848048646E+03   -0.37107E-09    0.00000E+00     2   0.116E-09
  52 F= -.30384805E+03 E0= -.30389108E+03  d E =0.218279E-10
       N       E                     dE             d eps       ncg     rms          rms(c)
DAV:   1    -0.303848048646E+03    0.29104E-10   -0.14550E-10   312   0.137E-09    0.341E-10
RMM:   2    -0.303848048646E+03   -0.38563E-09    0.00000E+00     2   0.963E-10
  53 F= -.30384805E+03 E0= -.30389108E+03  d E =0.145519E-10
       N       E                     dE             d eps       ncg     rms          rms(c)
DAV:   1    -0.303848048647E+03   -0.13461E-08    0.55165E-11   312   0.107E-09    0.580E-10
RMM:   2    -0.303848048646E+03    0.96043E-09    0.00000E+00     2   0.711E-10
  54 F= -.30384805E+03 E0= -.30389108E+03  d E =0.000000E+00
       N       E                     dE             d eps       ncg     rms          rms(c)
DAV:   1    -0.303848048647E+03    0.67666E-09    0.56245E-11   312   0.885E-10    0.448E-10
RMM:   2    -0.303848048646E+03    0.26921E-09    0.00000E+00     2   0.558E-10
  55 F= -.30384805E+03 E0= -.30389108E+03  d E =-.145519E-10
       N       E                     dE             d eps       ncg     rms          rms(c)
DAV:   1    -0.303848048645E+03    0.10914E-08    0.40850E-11   312   0.761E-10    0.319E-10
RMM:   2    -0.303848048646E+03   -0.88039E-09    0.00000E+00     2   0.477E-10
  56 F= -.30384805E+03 E0= -.30389108E+03  d E =-.582077E-10
       N       E                     dE             d eps       ncg     rms          rms(c)
DAV:   1    -0.303848048647E+03   -0.12296E-08    0.38498E-11   312   0.588E-10    0.288E-10
RMM:   2    -0.303848048646E+03    0.42928E-09    0.00000E+00     2   0.354E-10
  57 F= -.30384805E+03 E0= -.30389108E+03  d E =0.800355E-10
       N       E                     dE             d eps       ncg     rms          rms(c)
DAV:   1    -0.303848048647E+03   -0.21100E-09    0.13529E-10   312   0.401E-10    0.324E-10
RMM:   2    -0.303848048646E+03    0.64028E-09    0.00000E+00     2   0.311E-10
  58 F= -.30384805E+03 E0= -.30389108E+03  d E =0.000000E+00
       N       E                     dE             d eps       ncg     rms          rms(c)
DAV:   1    -0.303848048646E+03    0.84401E-09   -0.56472E-12   312   0.477E-10    0.386E-10
RMM:   2    -0.303848048646E+03   -0.28376E-09    0.00000E+00     2   0.271E-10
  59 F= -.30384805E+03 E0= -.30389108E+03  d E =-.800355E-10
       N       E                     dE             d eps       ncg     rms          rms(c)
DAV:   1    -0.303848048645E+03    0.10623E-08    0.17585E-10   312   0.317E-10    0.460E-10
RMM:   2    -0.303848048646E+03   -0.13679E-08    0.00000E+00     2   0.239E-10
  60 F= -.30384805E+03 E0= -.30389108E+03  d E =-.218279E-10
       N       E                     dE             d eps       ncg     rms          rms(c)
DAV:   1    -0.303848048645E+03   -0.28376E-09   -0.24330E-11   312   0.472E-10    0.247E-10
RMM:   2    -0.303848048646E+03   -0.99681E-09    0.00000E+00     2   0.193E-10
  61 F= -.30384805E+03 E0= -.30389108E+03  d E =0.873115E-10
       N       E                     dE             d eps       ncg     rms          rms(c)
DAV:   1    -0.303848048645E+03   -0.72760E-10   -0.87629E-12   312   0.249E-10    0.249E-10
RMM:   2    -0.303848048646E+03   -0.10332E-08    0.00000E+00     2   0.168E-10
  62 F= -.30384805E+03 E0= -.30389108E+03  d E =-.109139E-09
       N       E                     dE             d eps       ncg     rms          rms(c)
DAV:   1    -0.303848048645E+03    0.23283E-09    0.32345E-11   312   0.234E-10    0.266E-10
RMM:   2    -0.303848048646E+03   -0.11787E-08    0.00000E+00     2   0.140E-10
  63 F= -.30384805E+03 E0= -.30389108E+03  d E =0.873115E-10
       N       E                     dE             d eps       ncg     rms          rms(c)
DAV:   1    -0.303848048647E+03   -0.19354E-08    0.12362E-10   312   0.313E-10    0.204E-10
RMM:   2    -0.303848048646E+03    0.73487E-09    0.00000E+00     2   0.120E-10
  64 F= -.30384805E+03 E0= -.30389108E+03  d E =-.218279E-10
       N       E                     dE             d eps       ncg     rms          rms(c)
DAV:   1    -0.303848048646E+03    0.13824E-08   -0.28560E-11   312   0.191E-10    0.281E-10
RMM:   2    -0.303848048646E+03   -0.64028E-09    0.00000E+00     2   0.103E-10
  65 F= -.30384805E+03 E0= -.30389108E+03  d E =0.727596E-11
       N       E                     dE             d eps       ncg     rms          rms(c)
DAV:   1    -0.303848048646E+03   -0.36380E-09    0.40153E-12   312   0.187E-10    0.257E-10
RMM:   2    -0.303848048646E+03   -0.29104E-09    0.00000E+00     2   0.104E-10
  66 F= -.30384805E+03 E0= -.30389108E+03  d E =-.145519E-10
       N       E                     dE             d eps       ncg     rms          rms(c)
DAV:   1    -0.303848048647E+03   -0.64756E-09   -0.15682E-10   312   0.184E-10    0.426E-10
RMM:   2    -0.303848048646E+03    0.37107E-09    0.00000E+00     2   0.120E-10
  67 F= -.30384805E+03 E0= -.30389108E+03  d E =0.145519E-10
       N       E                     dE             d eps       ncg     rms          rms(c)
DAV:   1    -0.303848048646E+03    0.73487E-09   -0.13478E-10   312   0.243E-10    0.392E-10
RMM:   2    -0.303848048646E+03   -0.29831E-09    0.00000E+00     2   0.115E-10
  68 F= -.30384805E+03 E0= -.30389108E+03  d E =0.654836E-10
       N       E                     dE             d eps       ncg     rms          rms(c)
DAV:   1    -0.303848048647E+03   -0.64756E-09    0.19078E-10   312   0.289E-10    0.374E-10
RMM:   2    -0.303848048646E+03    0.27649E-09    0.00000E+00     2   0.106E-10
  69 F= -.30384805E+03 E0= -.30389108E+03  d E =-.727596E-10
       N       E                     dE             d eps       ncg     rms          rms(c)
DAV:   1    -0.303848048646E+03    0.55297E-09    0.59722E-11   312   0.155E-10    0.326E-10
RMM:   2    -0.303848048646E+03   -0.34197E-09    0.00000E+00     2   0.100E-10
  70 F= -.30384805E+03 E0= -.30389108E+03  d E =-.654836E-10
       N       E                     dE             d eps       ncg     rms          rms(c)
DAV:   1    -0.303848048646E+03   -0.29104E-09    0.85482E-11   312   0.256E-10    0.415E-10
RMM:   2    -0.303848048646E+03    0.21828E-10    0.00000E+00     2   0.115E-10
  71 F= -.30384805E+03 E0= -.30389108E+03  d E =0.727596E-10
       N       E                     dE             d eps       ncg     rms          rms(c)
DAV:   1    -0.303848048646E+03    0.29104E-10   -0.76004E-11   312   0.339E-10    0.178E-10
RMM:   2    -0.303848048646E+03   -0.21828E-10    0.00000E+00     2   0.101E-10
  72 F= -.30384805E+03 E0= -.30389108E+03  d E =-.145519E-10
       N       E                     dE             d eps       ncg     rms          rms(c)
DAV:   1    -0.303848048646E+03    0.64756E-09    0.16312E-10   312   0.111E-10    0.314E-10
RMM:   2    -0.303848048646E+03   -0.61846E-09    0.00000E+00     2   0.870E-11
  73 F= -.30384805E+03 E0= -.30389108E+03  d E =0.509317E-10
       N       E                     dE             d eps       ncg     rms          rms(c)
DAV:   1    -0.303848048646E+03    0.58208E-10   -0.57642E-11   312   0.212E-10    0.239E-10
RMM:   2    -0.303848048646E+03   -0.69122E-09    0.00000E+00     2   0.754E-11
  74 F= -.30384805E+03 E0= -.30389108E+03  d E =-.145519E-10
       N       E                     dE             d eps       ncg     rms          rms(c)
DAV:   1    -0.303848048646E+03   -0.14552E-09   -0.11752E-11   312   0.155E-10    0.296E-10
RMM:   2    -0.303848048646E+03   -0.52387E-09    0.00000E+00     2   0.933E-11
  75 F= -.30384805E+03 E0= -.30389108E+03  d E =0.218279E-10
       N       E                     dE             d eps       ncg     rms          rms(c)
DAV:   1    -0.303848048647E+03   -0.15134E-08   -0.54003E-11   312   0.236E-10    0.269E-10
RMM:   2    -0.303848048646E+03    0.86584E-09    0.00000E+00     2   0.919E-11
  76 F= -.30384805E+03 E0= -.30389108E+03  d E =-.123691E-09
       N       E                     dE             d eps       ncg     rms          rms(c)
DAV:   1    -0.303848048646E+03    0.12296E-08    0.12159E-10   312   0.212E-10    0.203E-10
RMM:   2    -0.303848048646E+03   -0.26193E-09    0.00000E+00     2   0.934E-11
  77 F= -.30384805E+03 E0= -.30389108E+03  d E =0.101863E-09
       N       E                     dE             d eps       ncg     rms          rms(c)
DAV:   1    -0.303848048646E+03    0.19645E-09   -0.17304E-11   312   0.179E-10    0.261E-10
RMM:   2    -0.303848048646E+03   -0.45111E-09    0.00000E+00     2   0.788E-11
  78 F= -.30384805E+03 E0= -.30389108E+03  d E =0.727596E-11
       N       E                     dE             d eps       ncg     rms          rms(c)
DAV:   1    -0.303848048647E+03   -0.86584E-09   -0.10564E-10   312   0.184E-10    0.228E-10
RMM:   2    -0.303848048646E+03    0.38563E-09    0.00000E+00     2   0.695E-11
  79 F= -.30384805E+03 E0= -.30389108E+03  d E =-.291038E-10
       N       E                     dE             d eps       ncg     rms          rms(c)
DAV:   1    -0.303848048647E+03    0.16735E-09    0.59034E-11   312   0.113E-10    0.283E-10
RMM:   2    -0.303848048646E+03    0.25466E-09    0.00000E+00     2   0.723E-11
  80 F= -.30384805E+03 E0= -.30389108E+03  d E =0.363798E-10
       N       E                     dE             d eps       ncg     rms          rms(c)
DAV:   1    -0.303848048646E+03    0.68394E-09    0.33712E-12   312   0.153E-10    0.313E-10
RMM:   2    -0.303848048646E+03   -0.50204E-09    0.00000E+00     2   0.911E-11
  81 F= -.30384805E+03 E0= -.30389108E+03  d E =-.727596E-10
       N       E                     dE             d eps       ncg     rms          rms(c)
DAV:   1    -0.303848048645E+03    0.47294E-09   -0.81581E-11   312   0.249E-10    0.229E-10
RMM:   2    -0.303848048646E+03   -0.92405E-09    0.00000E+00     2   0.789E-11
  82 F= -.30384805E+03 E0= -.30389108E+03  d E =0.509317E-10
       N       E                     dE             d eps       ncg     rms          rms(c)
DAV:   1    -0.303848048646E+03   -0.74942E-09    0.45849E-11   300   0.176E-10    0.281E-10
RMM:   2    -0.303848048646E+03   -0.10914E-09    0.00000E+00     1   0.898E-11
  83 F= -.30384805E+03 E0= -.30389108E+03  d E =0.654836E-10
       N       E                     dE             d eps       ncg     rms          rms(c)
DAV:   1    -0.303848048647E+03   -0.45111E-09   -0.12010E-10   294   0.207E-10    0.294E-10
RMM:   2    -0.303848048646E+03    0.32742E-09    0.00000E+00     1   0.804E-11
  84 F= -.30384805E+03 E0= -.30389108E+03  d E =-.145519E-10
       N       E                     dE             d eps       ncg     rms          rms(c)
DAV:   1    -0.303848048645E+03    0.14261E-08   -0.74197E-11   294   0.174E-10    0.251E-10
RMM:   2    -0.303848048646E+03   -0.11205E-08    0.00000E+00     2   0.769E-11
  85 F= -.30384805E+03 E0= -.30389108E+03  d E =-.218279E-10
       N       E                     dE             d eps       ncg     rms          rms(c)
DAV:   1    -0.303848048646E+03   -0.88039E-09   -0.10808E-10   294   0.244E-10    0.276E-10
RMM:   2    -0.303848048646E+03   -0.28376E-09    0.00000E+00     1   0.937E-11
  86 F= -.30384805E+03 E0= -.30389108E+03  d E =-.436557E-10
       N       E                     dE             d eps       ncg     rms          rms(c)
DAV:   1    -0.303848048647E+03   -0.11278E-08   -0.64056E-11   294   0.260E-10    0.273E-10
RMM:   2    -0.303848048646E+03    0.86584E-09    0.00000E+00     1   0.835E-11
  87 F= -.30384805E+03 E0= -.30389108E+03  d E =0.218279E-10
       N       E                     dE             d eps       ncg     rms          rms(c)
DAV:   1    -0.303848048646E+03    0.91677E-09    0.69463E-11   294   0.202E-10    0.433E-10
RMM:   2    -0.303848048646E+03   -0.11642E-09    0.00000E+00     1   0.113E-10
  88 F= -.30384805E+03 E0= -.30389108E+03  d E =-.654836E-10
       N       E                     dE             d eps       ncg     rms          rms(c)
DAV:   1    -0.303848048645E+03    0.11132E-08    0.78849E-11   294   0.283E-10    0.238E-10
RMM:   2    -0.303848048646E+03   -0.11350E-08    0.00000E+00     1   0.799E-11
  89 F= -.30384805E+03 E0= -.30389108E+03  d E =0.945874E-10
       N       E                     dE             d eps       ncg     rms          rms(c)
DAV:   1    -0.303848048645E+03    0.52387E-09    0.82670E-11   294   0.136E-10    0.204E-10
RMM:   2    -0.303848048646E+03   -0.16880E-08    0.00000E+00     1   0.673E-11
  90 F= -.30384805E+03 E0= -.30389108E+03  d E =-.291038E-10
       N       E                     dE             d eps       ncg     rms          rms(c)
DAV:   1    -0.303848048647E+03   -0.21391E-08   -0.97933E-11   294   0.167E-10    0.306E-10
RMM:   2    -0.303848048646E+03    0.43656E-09    0.00000E+00     1   0.976E-11
  91 F= -.30384805E+03 E0= -.30389108E+03  d E =-.145519E-10
       N       E                     dE             d eps       ncg     rms          rms(c)
DAV:   1    -0.303848048647E+03   -0.22555E-09   -0.54029E-11   294   0.292E-10    0.347E-10
RMM:   2    -0.303848048646E+03    0.71304E-09    0.00000E+00     1   0.103E-10
  92 F= -.30384805E+03 E0= -.30389108E+03  d E =0.509317E-10
       N       E                     dE             d eps       ncg     rms          rms(c)
DAV:   1    -0.303848048645E+03    0.15862E-08    0.28777E-11   294   0.279E-10    0.227E-10
RMM:   2    -0.303848048646E+03   -0.97498E-09    0.00000E+00     1   0.867E-11
  93 F= -.30384805E+03 E0= -.30389108E+03  d E =-.101863E-09
       N       E                     dE             d eps       ncg     rms          rms(c)
DAV:   1    -0.303848048647E+03   -0.12515E-08    0.15057E-10   294   0.166E-10    0.279E-10
RMM:   2    -0.303848048646E+03    0.38563E-09    0.00000E+00     1   0.818E-11
  94 F= -.30384805E+03 E0= -.30389108E+03  d E =0.109139E-09
       N       E                     dE             d eps       ncg     rms          rms(c)
DAV:   1    -0.303848048646E+03    0.10114E-08    0.88851E-11   294   0.183E-10    0.399E-10
RMM:   2    -0.303848048646E+03   -0.68394E-09    0.00000E+00     1   0.114E-10
  95 F= -.30384805E+03 E0= -.30389108E+03  d E =-.582077E-10
       N       E                     dE             d eps       ncg     rms          rms(c)
DAV:   1    -0.303848048645E+03    0.48021E-09    0.31454E-11   294   0.395E-10    0.315E-10
RMM:   2    -0.303848048646E+03   -0.11933E-08    0.00000E+00     1   0.992E-11
  96 F= -.30384805E+03 E0= -.30389108E+03  d E =-.291038E-10
       N       E                     dE             d eps       ncg     rms          rms(c)
DAV:   1    -0.303848048646E+03   -0.37835E-09   -0.10782E-10   294   0.176E-10    0.406E-10
RMM:   2    -0.303848048646E+03   -0.89494E-09    0.00000E+00     1   0.114E-10
  97 F= -.30384805E+03 E0= -.30389108E+03  d E =-.800355E-10
       N       E                     dE             d eps       ncg     rms          rms(c)
DAV:   1    -0.303848048646E+03   -0.59663E-09    0.59880E-11   294   0.259E-10    0.338E-10
RMM:   2    -0.303848048646E+03   -0.11642E-09    0.00000E+00     1   0.108E-10
  98 F= -.30384805E+03 E0= -.30389108E+03  d E =0.181899E-09
       N       E                     dE             d eps       ncg     rms          rms(c)
DAV:   1    -0.303848048646E+03   -0.29104E-10    0.12113E-11   294   0.358E-10    0.244E-10
RMM:   2    -0.303848048646E+03   -0.24011E-09    0.00000E+00     1   0.102E-10
  99 F= -.30384805E+03 E0= -.30389108E+03  d E =-.152795E-09
       N       E                     dE             d eps       ncg     rms          rms(c)
DAV:   1    -0.303848048646E+03   -0.29831E-09   -0.83505E-11   294   0.149E-10    0.312E-10
RMM:   2    -0.303848048646E+03    0.10186E-09    0.00000E+00     1   0.954E-11
 100 F= -.30384805E+03 E0= -.30389108E+03  d E =0.436557E-10
       N       E                     dE             d eps       ncg     rms          rms(c)
DAV:   1    -0.303848048646E+03    0.52387E-09    0.10577E-10   294   0.131E-10    0.358E-10
RMM:   2    -0.303848048646E+03   -0.39290E-09    0.00000E+00     1   0.100E-10
 101 F= -.30384805E+03 E0= -.30389108E+03  d E =0.291038E-10
       N       E                     dE             d eps       ncg     rms          rms(c)
DAV:   1    -0.303848048647E+03   -0.10696E-08   -0.34975E-11   294   0.228E-10    0.358E-10
RMM:   2    -0.303848048646E+03    0.77853E-09    0.00000E+00     1   0.103E-10
 102 F= -.30384805E+03 E0= -.30389108E+03  d E =0.101863E-09
       N       E                     dE             d eps       ncg     rms          rms(c)
DAV:   1    -0.303848048645E+03    0.23210E-08   -0.11723E-10   294   0.289E-10    0.235E-10
RMM:   2    -0.303848048646E+03   -0.16444E-08    0.00000E+00     1   0.956E-11
 103 F= -.30384805E+03 E0= -.30389108E+03  d E =-.101863E-09
       N       E                     dE             d eps       ncg     rms          rms(c)
DAV:   1    -0.303848048645E+03   -0.76398E-09   -0.13217E-10   294   0.175E-10    0.265E-10
RMM:   2    -0.303848048646E+03   -0.87311E-09    0.00000E+00     1   0.875E-11
 104 F= -.30384805E+03 E0= -.30389108E+03  d E =0.727596E-11
       N       E                     dE             d eps       ncg     rms          rms(c)
DAV:   1    -0.303848048647E+03   -0.18845E-08    0.18821E-10   294   0.161E-10    0.317E-10
RMM:   2    -0.303848048646E+03    0.11132E-08    0.00000E+00     1   0.853E-11
 105 F= -.30384805E+03 E0= -.30389108E+03  d E =0.101863E-09
       N       E                     dE             d eps       ncg     rms          rms(c)
DAV:   1    -0.303848048646E+03    0.85129E-09   -0.35229E-11   294   0.169E-10    0.335E-10
RMM:   2    -0.303848048646E+03    0.15280E-09    0.00000E+00     1   0.101E-10
 106 F= -.30384805E+03 E0= -.30389108E+03  d E =-.109139E-09
       N       E                     dE             d eps       ncg     rms          rms(c)
DAV:   1    -0.303848048646E+03    0.00000E+00    0.10666E-10   294   0.168E-10    0.265E-10
RMM:   2    -0.303848048646E+03    0.12369E-09    0.00000E+00     1   0.832E-11
 107 F= -.30384805E+03 E0= -.30389108E+03  d E =-.291038E-10
       N       E                     dE             d eps       ncg     rms          rms(c)
DAV:   1    -0.303848048646E+03    0.45839E-09    0.79457E-11   294   0.201E-10    0.246E-10
RMM:   2    -0.303848048646E+03   -0.19645E-09    0.00000E+00     1   0.897E-11
 108 F= -.30384805E+03 E0= -.30389108E+03  d E =0.138243E-09
       N       E                     dE             d eps       ncg     rms          rms(c)
DAV:   1    -0.303848048647E+03   -0.13097E-08   -0.36432E-11   294   0.202E-10    0.211E-10
RMM:   2    -0.303848048646E+03    0.10987E-08    0.00000E+00     1   0.825E-11
 109 F= -.30384805E+03 E0= -.30389108E+03  d E =-.145519E-10
       N       E                     dE             d eps       ncg     rms          rms(c)
DAV:   1    -0.303848048646E+03    0.12587E-08   -0.14750E-11   294   0.138E-10    0.296E-10
RMM:   2    -0.303848048646E+03   -0.25466E-09    0.00000E+00     1   0.827E-11
 110 F= -.30384805E+03 E0= -.30389108E+03  d E =-.945874E-10
       N       E                     dE             d eps       ncg     rms          rms(c)
DAV:   1    -0.303848048646E+03   -0.41473E-09   -0.10671E-10   294   0.175E-10    0.340E-10
RMM:   2    -0.303848048646E+03    0.10914E-09    0.00000E+00     1   0.883E-11
 111 F= -.30384805E+03 E0= -.30389108E+03  d E =-.509317E-10
       N       E                     dE             d eps       ncg     rms          rms(c)
DAV:   1    -0.303848048646E+03    0.72032E-09   -0.87020E-11   294   0.210E-10    0.402E-10
RMM:   2    -0.303848048646E+03   -0.48021E-09    0.00000E+00     1   0.103E-10
 112 F= -.30384805E+03 E0= -.30389108E+03  d E =0.130967E-09
       N       E                     dE             d eps       ncg     rms          rms(c)
DAV:   1    -0.303848048646E+03   -0.65484E-09   -0.15040E-10   294   0.362E-10    0.184E-10
RMM:   2    -0.303848048646E+03    0.13097E-09    0.00000E+00     1   0.817E-11
 113 F= -.30384805E+03 E0= -.30389108E+03  d E =-.436557E-10
       N       E                     dE             d eps       ncg     rms          rms(c)
DAV:   1    -0.303848048647E+03   -0.61118E-09    0.11455E-10   294   0.136E-10    0.246E-10
RMM:   2    -0.303848048646E+03    0.65484E-09    0.00000E+00     1   0.666E-11
 114 F= -.30384805E+03 E0= -.30389108E+03  d E =-.873115E-10
       N       E                     dE             d eps       ncg     rms          rms(c)
DAV:   1    -0.303848048649E+03   -0.17753E-08    0.76751E-11   294   0.132E-10    0.267E-10
RMM:   2    -0.303848048646E+03    0.24811E-08    0.00000E+00     1   0.706E-11
 115 F= -.30384805E+03 E0= -.30389108E+03  d E =0.509317E-10
       N       E                     dE             d eps       ncg     rms          rms(c)
DAV:   1    -0.303848048646E+03    0.26339E-08   -0.24062E-11   294   0.168E-10    0.279E-10
RMM:   2    -0.303848048646E+03   -0.18917E-09    0.00000E+00     1   0.811E-11
 116 F= -.30384805E+03 E0= -.30389108E+03  d E =-.363798E-10
       N       E                     dE             d eps       ncg     rms          rms(c)
DAV:   1    -0.303848048647E+03   -0.43656E-09    0.14716E-10   294   0.225E-10    0.408E-10
RMM:   2    -0.303848048646E+03    0.29831E-09    0.00000E+00     1   0.121E-10
 117 F= -.30384805E+03 E0= -.30389108E+03  d E =0.509317E-10
       N       E                     dE             d eps       ncg     rms          rms(c)
DAV:   1    -0.303848048646E+03    0.45111E-09   -0.96790E-12   294   0.346E-10    0.441E-10
RMM:   2    -0.303848048646E+03   -0.12369E-09    0.00000E+00     1   0.117E-10
 118 F= -.30384805E+03 E0= -.30389108E+03  d E =0.291038E-10
       N       E                     dE             d eps       ncg     rms          rms(c)
DAV:   1    -0.303848048646E+03    0.17462E-09    0.35656E-11   294   0.390E-10    0.255E-10
RMM:   2    -0.303848048646E+03   -0.41473E-09    0.00000E+00     1   0.944E-11
 119 F= -.30384805E+03 E0= -.30389108E+03  d E =-.116415E-09
       N       E                     dE             d eps       ncg     rms          rms(c)
DAV:   1    -0.303848048648E+03   -0.20082E-08    0.17671E-11   294   0.207E-10    0.275E-10
RMM:   2    -0.303848048646E+03    0.17390E-08    0.00000E+00     1   0.928E-11
 120 F= -.30384805E+03 E0= -.30389108E+03  d E =0.145519E-09
       N       E                     dE             d eps       ncg     rms          rms(c)
DAV:   1    -0.303848048646E+03    0.15207E-08    0.69037E-11   294   0.240E-10    0.246E-10
RMM:   2    -0.303848048646E+03    0.20373E-09    0.00000E+00     1   0.998E-11
 121 F= -.30384805E+03 E0= -.30389108E+03  d E =-.145519E-10
       N       E                     dE             d eps       ncg     rms          rms(c)
DAV:   1    -0.303848048647E+03   -0.82218E-09   -0.16104E-11   294   0.201E-10    0.303E-10
RMM:   2    -0.303848048646E+03    0.90222E-09    0.00000E+00     1   0.928E-11
 122 F= -.30384805E+03 E0= -.30389108E+03  d E =-.123691E-09
       N       E                     dE             d eps       ncg     rms          rms(c)
DAV:   1    -0.303848048647E+03    0.39290E-09    0.58664E-11   294   0.225E-10    0.327E-10
RMM:   2    -0.303848048646E+03    0.49477E-09    0.00000E+00     1   0.905E-11
 123 F= -.30384805E+03 E0= -.30389108E+03  d E =-.145519E-10
       N       E                     dE             d eps       ncg     rms          rms(c)
DAV:   1    -0.303848048647E+03    0.17462E-09    0.82064E-11   294   0.207E-10    0.262E-10
RMM:   2    -0.303848048646E+03    0.45111E-09    0.00000E+00     1   0.759E-11
 124 F= -.30384805E+03 E0= -.30389108E+03  d E =0.130967E-09
       N       E                     dE             d eps       ncg     rms          rms(c)
DAV:   1    -0.303848048646E+03    0.11132E-08   -0.10990E-10   294   0.175E-10    0.330E-10
RMM:   2    -0.303848048646E+03   -0.69849E-09    0.00000E+00     1   0.969E-11
 125 F= -.30384805E+03 E0= -.30389108E+03  d E =-.363798E-10
       N       E                     dE             d eps       ncg     rms          rms(c)
DAV:   1    -0.303848048646E+03   -0.65484E-09   -0.16881E-10   294   0.289E-10    0.266E-10
RMM:   2    -0.303848048646E+03   -0.11642E-09    0.00000E+00     1   0.928E-11
 126 F= -.30384805E+03 E0= -.30389108E+03  d E =-.727596E-10
       N       E                     dE             d eps       ncg     rms          rms(c)
DAV:   1    -0.303848048646E+03    0.25466E-09    0.16950E-10   294   0.184E-10    0.326E-10
RMM:   2    -0.303848048646E+03   -0.34197E-09    0.00000E+00     1   0.107E-10
 127 F= -.30384805E+03 E0= -.30389108E+03  d E =0.291038E-10
       N       E                     dE             d eps       ncg     rms          rms(c)
DAV:   1    -0.303848048646E+03    0.14552E-10    0.11300E-10   294   0.322E-10    0.247E-10
RMM:   2    -0.303848048646E+03   -0.26921E-09    0.00000E+00     1   0.906E-11
 128 F= -.30384805E+03 E0= -.30389108E+03  d E =0.873115E-10
       N       E                     dE             d eps       ncg     rms          rms(c)
DAV:   1    -0.303848048646E+03   -0.72760E-10    0.28557E-11   294   0.126E-10    0.321E-10
RMM:   2    -0.303848048646E+03   -0.18190E-09    0.00000E+00     1   0.913E-11
 129 F= -.30384805E+03 E0= -.30389108E+03  d E =0.145519E-10
       N       E                     dE             d eps       ncg     rms          rms(c)
DAV:   1    -0.303848048646E+03    0.23283E-09    0.99277E-12   294   0.125E-10    0.342E-10
RMM:   2    -0.303848048646E+03   -0.51659E-09    0.00000E+00     1   0.882E-11
 130 F= -.30384805E+03 E0= -.30389108E+03  d E =-.101863E-09
       N       E                     dE             d eps       ncg     rms          rms(c)
DAV:   1    -0.303848048648E+03   -0.17317E-08    0.39007E-11   294   0.252E-10    0.262E-10
RMM:   2    -0.303848048646E+03    0.12442E-08    0.00000E+00     1   0.818E-11
 131 F= -.30384805E+03 E0= -.30389108E+03  d E =0.291038E-10
       N       E                     dE             d eps       ncg     rms          rms(c)
DAV:   1    -0.303848048646E+03    0.12224E-08   -0.48746E-11   294   0.258E-10    0.268E-10
RMM:   2    -0.303848048646E+03    0.29104E-10    0.00000E+00     1   0.887E-11
 132 F= -.30384805E+03 E0= -.30389108E+03  d E =0.727596E-11
       N       E                     dE             d eps       ncg     rms          rms(c)
DAV:   1    -0.303848048646E+03    0.66939E-09   -0.88278E-12   294   0.229E-10    0.221E-10
RMM:   2    -0.303848048646E+03   -0.63301E-09    0.00000E+00     1   0.684E-11
 133 F= -.30384805E+03 E0= -.30389108E+03  d E =0.727596E-11
       N       E                     dE             d eps       ncg     rms          rms(c)
DAV:   1    -0.303848048648E+03   -0.18554E-08   -0.29536E-11   294   0.165E-10    0.237E-10
RMM:   2    -0.303848048646E+03    0.12442E-08    0.00000E+00     1   0.725E-11
 134 F= -.30384805E+03 E0= -.30389108E+03  d E =0.218279E-10
       N       E                     dE             d eps       ncg     rms          rms(c)
DAV:   1    -0.303848048647E+03    0.32014E-09   -0.77627E-11   294   0.210E-10    0.231E-10
RMM:   2    -0.303848048646E+03    0.96770E-09    0.00000E+00     1   0.798E-11
 135 F= -.30384805E+03 E0= -.30389108E+03  d E =0.436557E-10
       N       E                     dE             d eps       ncg     rms          rms(c)
DAV:   1    -0.303848048646E+03    0.11787E-08    0.75186E-11   294   0.147E-10    0.264E-10
RMM:   2    -0.303848048646E+03   -0.26921E-09    0.00000E+00     1   0.826E-11
 136 F= -.30384805E+03 E0= -.30389108E+03  d E =-.582077E-10
       N       E                     dE             d eps       ncg     rms          rms(c)
DAV:   1    -0.303848048645E+03    0.11132E-08   -0.20100E-11   294   0.213E-10    0.268E-10
RMM:   2    -0.303848048646E+03   -0.14843E-08    0.00000E+00     1   0.921E-11
 137 F= -.30384805E+03 E0= -.30389108E+03  d E =-.101863E-09
       N       E                     dE             d eps       ncg     rms          rms(c)
DAV:   1    -0.303848048645E+03   -0.34197E-09    0.51356E-11   294   0.262E-10    0.276E-10
RMM:   2    -0.303848048646E+03   -0.10259E-08    0.00000E+00     1   0.935E-11
 138 F= -.30384805E+03 E0= -.30389108E+03  d E =0.116415E-09
       N       E                     dE             d eps       ncg     rms          rms(c)
DAV:   1    -0.303848048645E+03   -0.16007E-09   -0.22630E-10   294   0.255E-10    0.221E-10
RMM:   2    -0.303848048646E+03   -0.84401E-09    0.00000E+00     1   0.714E-11
 139 F= -.30384805E+03 E0= -.30389108E+03  d E =0.218279E-10
       N       E                     dE             d eps       ncg     rms          rms(c)
DAV:   1    -0.303848048646E+03   -0.56025E-09   -0.54872E-11   294   0.170E-10    0.216E-10
RMM:   2    -0.303848048646E+03   -0.35652E-09    0.00000E+00     1   0.707E-11
 140 F= -.30384805E+03 E0= -.30389108E+03  d E =-.727596E-10
       N       E                     dE             d eps       ncg     rms          rms(c)
DAV:   1    -0.303848048647E+03   -0.96770E-09   -0.26366E-11   294   0.153E-10    0.309E-10
RMM:   2    -0.303848048646E+03    0.61846E-09    0.00000E+00     1   0.999E-11
 141 F= -.30384805E+03 E0= -.30389108E+03  d E =0.727596E-11
       N       E                     dE             d eps       ncg     rms          rms(c)
DAV:   1    -0.303848048645E+03    0.19209E-08    0.95653E-11   294   0.263E-10    0.404E-10
RMM:   2    -0.303848048646E+03   -0.12296E-08    0.00000E+00     1   0.107E-10
 142 F= -.30384805E+03 E0= -.30389108E+03  d E =0.727596E-10
       N       E                     dE             d eps       ncg     rms          rms(c)
DAV:   1    -0.303848048646E+03   -0.12733E-08   -0.29819E-11   294   0.283E-10    0.301E-10
RMM:   2    -0.303848048646E+03    0.72760E-11    0.00000E+00     1   0.844E-11
 143 F= -.30384805E+03 E0= -.30389108E+03  d E =-.363798E-10
       N       E                     dE             d eps       ncg     rms          rms(c)
DAV:   1    -0.303848048646E+03    0.18190E-09   -0.75902E-11   294   0.203E-10    0.211E-10
RMM:   2    -0.303848048646E+03   -0.22555E-09    0.00000E+00     1   0.744E-11
 144 F= -.30384805E+03 E0= -.30389108E+03  d E =-.509317E-10
       N       E                     dE             d eps       ncg     rms          rms(c)
DAV:   1    -0.303848048646E+03   -0.25466E-09   -0.23923E-11   294   0.170E-10    0.338E-10
RMM:   2    -0.303848048646E+03    0.16007E-09    0.00000E+00     1   0.103E-10
 145 F= -.30384805E+03 E0= -.30389108E+03  d E =0.130967E-09
       N       E                     dE             d eps       ncg     rms          rms(c)
DAV:   1    -0.303848048646E+03    0.50932E-10   -0.79765E-11   294   0.327E-10    0.225E-10
RMM:   2    -0.303848048646E+03    0.10186E-09    0.00000E+00     1   0.857E-11
 146 F= -.30384805E+03 E0= -.30389108E+03  d E =-.727596E-11
       N       E                     dE             d eps       ncg     rms          rms(c)
DAV:   1    -0.303848048646E+03    0.31287E-09   -0.98426E-11   294   0.194E-10    0.253E-10
RMM:   2    -0.303848048646E+03   -0.41473E-09    0.00000E+00     1   0.764E-11
 147 F= -.30384805E+03 E0= -.30389108E+03  d E =-.203727E-09
       N       E                     dE             d eps       ncg     rms          rms(c)
DAV:   1    -0.303848048645E+03    0.10623E-08    0.11573E-10   294   0.145E-10    0.259E-10
RMM:   2    -0.303848048646E+03   -0.13970E-08    0.00000E+00     1   0.101E-10
 148 F= -.30384805E+03 E0= -.30389108E+03  d E =0.800355E-10
       N       E                     dE             d eps       ncg     rms          rms(c)
DAV:   1    -0.303848048647E+03   -0.17753E-08   -0.23075E-11   294   0.221E-10    0.185E-10
RMM:   2    -0.303848048646E+03    0.40745E-09    0.00000E+00     1   0.728E-11
 149 F= -.30384805E+03 E0= -.30389108E+03  d E =0.291038E-10
       N       E                     dE             d eps       ncg     rms          rms(c)
DAV:   1    -0.303848048646E+03    0.11787E-08   -0.14608E-10   294   0.163E-10    0.324E-10
RMM:   2    -0.303848048646E+03   -0.77125E-09    0.00000E+00     1   0.101E-10
 150 F= -.30384805E+03 E0= -.30389108E+03  d E =0.000000E+00
       N       E                     dE             d eps       ncg     rms          rms(c)
DAV:   1    -0.303848048647E+03   -0.12660E-08   -0.79403E-11   294   0.259E-10    0.303E-10
RMM:   2    -0.303848048646E+03    0.48021E-09    0.00000E+00     1   0.991E-11
 151 F= -.30384805E+03 E0= -.30389108E+03  d E =-.145519E-10
       N       E                     dE             d eps       ncg     rms          rms(c)
DAV:   1    -0.303848048647E+03   -0.10186E-09    0.12382E-10   294   0.195E-10    0.276E-10
RMM:   2    -0.303848048646E+03    0.61118E-09    0.00000E+00     1   0.881E-11
 152 F= -.30384805E+03 E0= -.30389108E+03  d E =0.291038E-10
       N       E                     dE             d eps       ncg     rms          rms(c)
DAV:   1    -0.303848048647E+03    0.14552E-09    0.10109E-11   294   0.247E-10    0.315E-10
RMM:   2    -0.303848048646E+03    0.48749E-09    0.00000E+00     1   0.104E-10
 153 F= -.30384805E+03 E0= -.30389108E+03  d E =0.218279E-10
       N       E                     dE             d eps       ncg     rms          rms(c)
DAV:   1    -0.303848048646E+03    0.39290E-09    0.83778E-11   294   0.266E-10    0.303E-10
RMM:   2    -0.303848048646E+03    0.65484E-10    0.00000E+00     1   0.923E-11
 154 F= -.30384805E+03 E0= -.30389108E+03  d E =-.291038E-10
       N       E                     dE             d eps       ncg     rms          rms(c)
DAV:   1    -0.303848048647E+03   -0.21100E-09   -0.10936E-10   294   0.258E-10    0.222E-10
RMM:   2    -0.303848048646E+03    0.29831E-09    0.00000E+00     1   0.891E-11
 155 F= -.30384805E+03 E0= -.30389108E+03  d E =0.218279E-10
       N       E                     dE             d eps       ncg     rms          rms(c)
DAV:   1    -0.303848048646E+03    0.65484E-09    0.14302E-10   294   0.207E-10    0.216E-10
RMM:   2    -0.303848048646E+03   -0.31287E-09    0.00000E+00     1   0.758E-11
 156 F= -.30384805E+03 E0= -.30389108E+03  d E =0.436557E-10
       N       E                     dE             d eps       ncg     rms          rms(c)
DAV:   1    -0.303848048647E+03   -0.97498E-09    0.55930E-11   294   0.100E-10    0.199E-10
RMM:   2    -0.303848048646E+03    0.64028E-09    0.00000E+00     1   0.689E-11
 157 F= -.30384805E+03 E0= -.30389108E+03  d E =-.218279E-10
       N       E                     dE             d eps       ncg     rms          rms(c)
DAV:   1    -0.303848048646E+03    0.68394E-09    0.67694E-12   294   0.142E-10    0.253E-10
RMM:   2    -0.303848048646E+03   -0.16735E-09    0.00000E+00     1   0.748E-11
 158 F= -.30384805E+03 E0= -.30389108E+03  d E =-.123691E-09
       N       E                     dE             d eps       ncg     rms          rms(c)
DAV:   1    -0.303848048646E+03    0.35652E-09    0.53409E-11   294   0.181E-10    0.208E-10
RMM:   2    -0.303848048646E+03   -0.37107E-09    0.00000E+00     1   0.691E-11
 159 F= -.30384805E+03 E0= -.30389108E+03  d E =0.152795E-09
       N       E                     dE             d eps       ncg     rms          rms(c)
DAV:   1    -0.303848048648E+03   -0.18117E-08    0.50371E-12   294   0.132E-10    0.247E-10
RMM:   2    -0.303848048646E+03    0.12806E-08    0.00000E+00     1   0.641E-11
 160 F= -.30384805E+03 E0= -.30389108E+03  d E =-.160071E-09
       N       E                     dE             d eps       ncg     rms          rms(c)
DAV:   1    -0.303848048646E+03    0.19500E-08    0.78632E-11   294   0.129E-10    0.275E-10
RMM:   2    -0.303848048646E+03   -0.55297E-09    0.00000E+00     1   0.833E-11
 161 F= -.30384805E+03 E0= -.30389108E+03  d E =0.116415E-09
       N       E                     dE             d eps       ncg     rms          rms(c)
DAV:   1    -0.303848048646E+03   -0.43656E-10   -0.18757E-11   294   0.231E-10    0.358E-10
RMM:   2    -0.303848048646E+03   -0.42201E-09    0.00000E+00     1   0.121E-10
 162 F= -.30384805E+03 E0= -.30389108E+03  d E =0.873115E-10
       N       E                     dE             d eps       ncg     rms          rms(c)
DAV:   1    -0.303848048647E+03   -0.13097E-08   -0.12978E-10   294   0.304E-10    0.477E-10
RMM:   2    -0.303848048646E+03    0.75670E-09    0.00000E+00     1   0.120E-10
 163 F= -.30384805E+03 E0= -.30389108E+03  d E =-.130967E-09
       N       E                     dE             d eps       ncg     rms          rms(c)
DAV:   1    -0.303848048648E+03   -0.66211E-09    0.52355E-11   294   0.308E-10    0.318E-10
RMM:   2    -0.303848048646E+03    0.14334E-08    0.00000E+00     1   0.826E-11
 164 F= -.30384805E+03 E0= -.30389108E+03  d E =0.145519E-10
       N       E                     dE             d eps       ncg     rms          rms(c)
DAV:   1    -0.303848048645E+03    0.25830E-08    0.49589E-11   294   0.246E-10    0.312E-10
RMM:   2    -0.303848048646E+03   -0.12587E-08    0.00000E+00     1   0.102E-10
 165 F= -.30384805E+03 E0= -.30389108E+03  d E =-.109139E-09
       N       E                     dE             d eps       ncg     rms          rms(c)
DAV:   1    -0.303848048646E+03   -0.90949E-09    0.39081E-11   294   0.318E-10    0.217E-10
RMM:   2    -0.303848048646E+03   -0.26193E-09    0.00000E+00     1   0.878E-11
 166 F= -.30384805E+03 E0= -.30389108E+03  d E =0.873115E-10
       N       E                     dE             d eps       ncg     rms          rms(c)
DAV:   1    -0.303848048646E+03   -0.24738E-09   -0.29546E-11   294   0.131E-10    0.373E-10
RMM:   2    -0.303848048646E+03    0.43656E-10    0.00000E+00     1   0.869E-11
 167 F= -.30384805E+03 E0= -.30389108E+03  d E =0.582077E-10
       N       E                     dE             d eps       ncg     rms          rms(c)
DAV:   1    -0.303848048648E+03   -0.13679E-08    0.20081E-11   294   0.232E-10    0.293E-10
RMM:   2    -0.303848048646E+03    0.13533E-08    0.00000E+00     1   0.988E-11
 168 F= -.30384805E+03 E0= -.30389108E+03  d E =-.582077E-10
       N       E                     dE             d eps       ncg     rms          rms(c)
DAV:   1    -0.303848048646E+03    0.20227E-08   -0.52021E-11   294   0.226E-10    0.225E-10
RMM:   2    -0.303848048646E+03   -0.58208E-09    0.00000E+00     1   0.828E-11
 169 F= -.30384805E+03 E0= -.30389108E+03  d E =0.873115E-10
       N       E                     dE             d eps       ncg     rms          rms(c)
DAV:   1    -0.303848048646E+03   -0.50932E-10   -0.71338E-11   294   0.171E-10    0.294E-10
RMM:   2    -0.303848048646E+03   -0.56752E-09    0.00000E+00     1   0.887E-11
 170 F= -.30384805E+03 E0= -.30389108E+03  d E =-.363798E-10
       N       E                     dE             d eps       ncg     rms          rms(c)
DAV:   1    -0.303848048646E+03   -0.37107E-09   -0.58617E-11   294   0.237E-10    0.292E-10
RMM:   2    -0.303848048646E+03   -0.23283E-09    0.00000E+00     1   0.103E-10
 171 F= -.30384805E+03 E0= -.30389108E+03  d E =-.363798E-10
       N       E                     dE             d eps       ncg     rms          rms(c)
DAV:   1    -0.303848048645E+03    0.87311E-09   -0.93112E-11   294   0.254E-10    0.309E-10
RMM:   2    -0.303848048646E+03   -0.10768E-08    0.00000E+00     1   0.106E-10
 172 F= -.30384805E+03 E0= -.30389108E+03  d E =0.291038E-10
       N       E                     dE             d eps       ncg     rms          rms(c)
DAV:   1    -0.303848048646E+03   -0.93132E-09   -0.16368E-10   294   0.254E-10    0.310E-10
RMM:   2    -0.303848048646E+03   -0.13824E-09    0.00000E+00     1   0.904E-11
 173 F= -.30384805E+03 E0= -.30389108E+03  d E =0.727596E-11
       N       E                     dE             d eps       ncg     rms          rms(c)
DAV:   1    -0.303848048646E+03   -0.16007E-09    0.41212E-11   294   0.219E-10    0.384E-10
RMM:   2    -0.303848048646E+03    0.80036E-10    0.00000E+00     1   0.956E-11
 174 F= -.30384805E+03 E0= -.30389108E+03  d E =0.582077E-10
       N       E                     dE             d eps       ncg     rms          rms(c)
DAV:   1    -0.303848048647E+03   -0.99681E-09   -0.93388E-11   294   0.260E-10    0.204E-10
RMM:   2    -0.303848048646E+03    0.96770E-09    0.00000E+00     1   0.923E-11
 175 F= -.30384805E+03 E0= -.30389108E+03  d E =-.109139E-09
       N       E                     dE             d eps       ncg     rms          rms(c)
DAV:   1    -0.303848048646E+03    0.17099E-08   -0.36132E-11   294   0.170E-10    0.289E-10
RMM:   2    -0.303848048646E+03   -0.66939E-09    0.00000E+00     1   0.913E-11
 176 F= -.30384805E+03 E0= -.30389108E+03  d E =0.727596E-10
       N       E                     dE             d eps       ncg     rms          rms(c)
DAV:   1    -0.303848048647E+03   -0.14697E-08   -0.87460E-11   294   0.238E-10    0.359E-10
RMM:   2    -0.303848048646E+03    0.74942E-09    0.00000E+00     1   0.916E-11
 177 F= -.30384805E+03 E0= -.30389108E+03  d E =-.509317E-10
       N       E                     dE             d eps       ncg     rms          rms(c)
DAV:   1    -0.303848048646E+03    0.10477E-08    0.82946E-11   294   0.212E-10    0.302E-10
RMM:   2    -0.303848048646E+03   -0.34197E-09    0.00000E+00     1   0.844E-11
 178 F= -.30384805E+03 E0= -.30389108E+03  d E =-.436557E-10
       N       E                     dE             d eps       ncg     rms          rms(c)
DAV:   1    -0.303848048647E+03   -0.50932E-09   -0.18063E-11   294   0.246E-10    0.216E-10
RMM:   2    -0.303848048646E+03    0.20373E-09    0.00000E+00     1   0.889E-11
 179 F= -.30384805E+03 E0= -.30389108E+03  d E =0.363798E-10
       N       E                     dE             d eps       ncg     rms          rms(c)
DAV:   1    -0.303848048647E+03   -0.53114E-09    0.20836E-11   294   0.129E-10    0.465E-10
RMM:   2    -0.303848048646E+03    0.80036E-09    0.00000E+00     1   0.106E-10
 180 F= -.30384805E+03 E0= -.30389108E+03  d E =0.654836E-10
       N       E                     dE             d eps       ncg     rms          rms(c)
DAV:   1    -0.303848048645E+03    0.21755E-08    0.22371E-10   294   0.267E-10    0.358E-10
RMM:   2    -0.303848048646E+03   -0.14697E-08    0.00000E+00     1   0.942E-11
 181 F= -.30384805E+03 E0= -.30389108E+03  d E =-.945874E-10
       N       E                     dE             d eps       ncg     rms          rms(c)
DAV:   1    -0.303848048646E+03   -0.12442E-08    0.17595E-10   294   0.267E-10    0.284E-10
RMM:   2    -0.303848048646E+03   -0.23283E-09    0.00000E+00     1   0.831E-11
 182 F= -.30384805E+03 E0= -.30389108E+03  d E =-.727596E-11
       N       E                     dE             d eps       ncg     rms          rms(c)
DAV:   1    -0.303848048646E+03    0.41473E-09    0.39369E-11   294   0.160E-10    0.289E-10
RMM:   2    -0.303848048646E+03   -0.67666E-09    0.00000E+00     1   0.907E-11
 183 F= -.30384805E+03 E0= -.30389108E+03  d E =-.291038E-10
       N       E                     dE             d eps       ncg     rms          rms(c)
DAV:   1    -0.303848048645E+03    0.11569E-08    0.12794E-10   294   0.274E-10    0.412E-10
RMM:   2    -0.303848048646E+03   -0.16735E-08    0.00000E+00     1   0.101E-10
 184 F= -.30384805E+03 E0= -.30389108E+03  d E =0.160071E-09
       N       E                     dE             d eps       ncg     rms          rms(c)
DAV:   1    -0.303848048648E+03   -0.30268E-08   -0.99909E-11   294   0.273E-10    0.332E-10
RMM:   2    -0.303848048646E+03    0.13461E-08    0.00000E+00     1   0.110E-10
 185 F= -.30384805E+03 E0= -.30389108E+03  d E =-.727596E-11
       N       E                     dE             d eps       ncg     rms          rms(c)
DAV:   1    -0.303848048646E+03    0.15934E-08   -0.20324E-10   294   0.286E-10    0.220E-10
RMM:   2    -0.303848048646E+03   -0.35652E-09    0.00000E+00     1   0.845E-11
 186 F= -.30384805E+03 E0= -.30389108E+03  d E =-.109139E-09
       N       E                     dE             d eps       ncg     rms          rms(c)
DAV:   1    -0.303848048647E+03   -0.57480E-09    0.10704E-10   294   0.182E-10    0.323E-10
RMM:   2    -0.303848048646E+03    0.29104E-09    0.00000E+00     1   0.105E-10
 187 F= -.30384805E+03 E0= -.30389108E+03  d E =0.727596E-10
       N       E                     dE             d eps       ncg     rms          rms(c)
DAV:   1    -0.303848048646E+03    0.80036E-10   -0.11158E-10   294   0.260E-10    0.320E-10
RMM:   2    -0.303848048646E+03    0.25466E-09    0.00000E+00     1   0.109E-10
 188 F= -.30384805E+03 E0= -.30389108E+03  d E =0.436557E-10
       N       E                     dE             d eps       ncg     rms          rms(c)
DAV:   1    -0.303848048646E+03    0.61846E-09   -0.88026E-11   294   0.317E-10    0.248E-10
RMM:   2    -0.303848048646E+03   -0.50204E-09    0.00000E+00     1   0.863E-11
 189 F= -.30384805E+03 E0= -.30389108E+03  d E =-.138243E-09
       N       E                     dE             d eps       ncg     rms          rms(c)
DAV:   1    -0.303848048648E+03   -0.22847E-08   -0.65874E-11   294   0.147E-10    0.296E-10
RMM:   2    -0.303848048646E+03    0.17681E-08    0.00000E+00     1   0.963E-11
 190 F= -.30384805E+03 E0= -.30389108E+03  d E =-.145519E-10
       N       E                     dE             d eps       ncg     rms          rms(c)
DAV:   1    -0.303848048646E+03    0.17899E-08   -0.20785E-10   294   0.235E-10    0.351E-10
RMM:   2    -0.303848048646E+03    0.12369E-09    0.00000E+00     1   0.974E-11
 191 F= -.30384805E+03 E0= -.30389108E+03  d E =0.145519E-09
       N       E                     dE             d eps       ncg     rms          rms(c)
DAV:   1    -0.303848048646E+03    0.44383E-09    0.53414E-11   294   0.270E-10    0.320E-10
RMM:   2    -0.303848048646E+03   -0.45839E-09    0.00000E+00     1   0.102E-10
 192 F= -.30384805E+03 E0= -.30389108E+03  d E =-.138243E-09
       N       E                     dE             d eps       ncg     rms          rms(c)
DAV:   1    -0.303848048646E+03   -0.29104E-09    0.14176E-11   294   0.340E-10    0.210E-10
RMM:   2    -0.303848048646E+03   -0.43656E-10    0.00000E+00     1   0.850E-11
 193 F= -.30384805E+03 E0= -.30389108E+03  d E =0.123691E-09
       N       E                     dE             d eps       ncg     rms          rms(c)
DAV:   1    -0.303848048646E+03   -0.14552E-10   -0.11248E-10   294   0.155E-10    0.300E-10
RMM:   2    -0.303848048646E+03   -0.72760E-10    0.00000E+00     1   0.987E-11
 194 F= -.30384805E+03 E0= -.30389108E+03  d E =-.436557E-10
       N       E                     dE             d eps       ncg     rms          rms(c)
DAV:   1    -0.303848048647E+03   -0.88039E-09   -0.24675E-11   294   0.254E-10    0.260E-10
RMM:   2    -0.303848048646E+03    0.73487E-09    0.00000E+00     1   0.979E-11
 195 F= -.30384805E+03 E0= -.30389108E+03  d E =-.727596E-10
       N       E                     dE             d eps       ncg     rms          rms(c)
DAV:   1    -0.303848048646E+03    0.93132E-09    0.21185E-10   294   0.180E-10    0.285E-10
RMM:   2    -0.303848048646E+03   -0.12369E-09    0.00000E+00     1   0.982E-11
 196 F= -.30384805E+03 E0= -.30389108E+03  d E =0.727596E-10
       N       E                     dE             d eps       ncg     rms          rms(c)
DAV:   1    -0.303848048647E+03   -0.74942E-09   -0.14276E-10   294   0.188E-10    0.347E-10
RMM:   2    -0.303848048646E+03    0.57480E-09    0.00000E+00     1   0.900E-11
 197 F= -.30384805E+03 E0= -.30389108E+03  d E =-.509317E-10
       N       E                     dE             d eps       ncg     rms          rms(c)
DAV:   1    -0.303848048646E+03    0.70577E-09   -0.11972E-10   294   0.245E-10    0.305E-10
RMM:   2    -0.303848048646E+03   -0.12369E-09    0.00000E+00     1   0.817E-11
 198 F= -.30384805E+03 E0= -.30389108E+03  d E =0.727596E-11
       N       E                     dE             d eps       ncg     rms          rms(c)
DAV:   1    -0.303848048647E+03   -0.53842E-09   -0.16146E-11   294   0.227E-10    0.190E-10
RMM:   2    -0.303848048646E+03    0.48021E-09    0.00000E+00     1   0.767E-11
 199 F= -.30384805E+03 E0= -.30389108E+03  d E =0.654836E-10
       N       E                     dE             d eps       ncg     rms          rms(c)
DAV:   1    -0.303848048646E+03    0.11642E-08    0.10398E-10   294   0.132E-10    0.308E-10
RMM:   2    -0.303848048646E+03   -0.74215E-09    0.00000E+00     1   0.905E-11
 200 F= -.30384805E+03 E0= -.30389108E+03  d E =-.582077E-10
       N       E                     dE             d eps       ncg     rms          rms(c)
DAV:   1    -0.303848048646E+03   -0.61846E-09   -0.30078E-11   294   0.260E-10    0.324E-10
RMM:   2    -0.303848048646E+03   -0.13097E-09    0.00000E+00     1   0.111E-10
 201 F= -.30384805E+03 E0= -.30389108E+03  d E =-.727596E-11
       N       E                     dE             d eps       ncg     rms          rms(c)
DAV:   1    -0.303848048646E+03    0.72760E-11    0.49534E-11   294   0.293E-10    0.318E-10
RMM:   2    -0.303848048646E+03   -0.50932E-10    0.00000E+00     1   0.842E-11
 202 F= -.30384805E+03 E0= -.30389108E+03  d E =0.873115E-10
       N       E                     dE             d eps       ncg     rms          rms(c)
DAV:   1    -0.303848048647E+03   -0.43656E-09    0.41304E-11   294   0.157E-10    0.306E-10
RMM:   2    -0.303848048646E+03    0.32014E-09    0.00000E+00     1   0.880E-11
 203 F= -.30384805E+03 E0= -.30389108E+03  d E =-.654836E-10
       N       E                     dE             d eps       ncg     rms          rms(c)
DAV:   1    -0.303848048646E+03    0.66939E-09   -0.17879E-10   294   0.307E-10    0.217E-10
RMM:   2    -0.303848048646E+03   -0.32014E-09    0.00000E+00     1   0.756E-11
 204 F= -.30384805E+03 E0= -.30389108E+03  d E =0.291038E-10
       N       E                     dE             d eps       ncg     rms          rms(c)
DAV:   1    -0.303848048647E+03   -0.85129E-09   -0.67006E-11   294   0.185E-10    0.220E-10
RMM:   2    -0.303848048646E+03    0.48749E-09    0.00000E+00     1   0.734E-11
 205 F= -.30384805E+03 E0= -.30389108E+03  d E =-.436557E-10
       N       E                     dE             d eps       ncg     rms          rms(c)
DAV:   1    -0.303848048646E+03    0.49477E-09   -0.58589E-11   294   0.201E-10    0.242E-10
RMM:   2    -0.303848048646E+03    0.43656E-10    0.00000E+00     1   0.763E-11
 206 F= -.30384805E+03 E0= -.30389108E+03  d E =0.509317E-10
       N       E                     dE             d eps       ncg     rms          rms(c)
DAV:   1    -0.303848048646E+03    0.21828E-09    0.37973E-11   294   0.150E-10    0.387E-10
RMM:   2    -0.303848048646E+03   -0.20373E-09    0.00000E+00     1   0.975E-11
 207 F= -.30384805E+03 E0= -.30389108E+03  d E =-.291038E-10
       N       E                     dE             d eps       ncg     rms          rms(c)
DAV:   1    -0.303848048645E+03    0.10332E-08   -0.90491E-11   294   0.274E-10    0.262E-10
RMM:   2    -0.303848048646E+03   -0.12587E-08    0.00000E+00     1   0.808E-11
 208 F= -.30384805E+03 E0= -.30389108E+03  d E =-.218279E-10
       N       E                     dE             d eps       ncg     rms          rms(c)
DAV:   1    -0.303848048646E+03   -0.78580E-09   -0.29707E-11   294   0.261E-10    0.252E-10
RMM:   2    -0.303848048646E+03   -0.40018E-09    0.00000E+00     1   0.834E-11
 209 F= -.30384805E+03 E0= -.30389108E+03  d E =0.727596E-10
       N       E                     dE             d eps       ncg     rms          rms(c)
DAV:   1    -0.303848048646E+03   -0.48021E-09    0.55243E-12   294   0.222E-10    0.286E-10
RMM:   2    -0.303848048646E+03    0.50932E-10    0.00000E+00     1   0.808E-11
 210 F= -.30384805E+03 E0= -.30389108E+03  d E =-.291038E-10
       N       E                     dE             d eps       ncg     rms          rms(c)
DAV:   1    -0.303848048647E+03   -0.82946E-09    0.51164E-12   294   0.201E-10    0.320E-10
RMM:   2    -0.303848048646E+03    0.91677E-09    0.00000E+00     1   0.101E-10
 211 F= -.30384805E+03 E0= -.30389108E+03  d E =0.363798E-10
       N       E                     dE             d eps       ncg     rms          rms(c)
DAV:   1    -0.303848048646E+03    0.13242E-08    0.27056E-12   294   0.294E-10    0.255E-10
RMM:   2    -0.303848048646E+03   -0.46566E-09    0.00000E+00     1   0.933E-11
 212 F= -.30384805E+03 E0= -.30389108E+03  d E =-.582077E-10
       N       E                     dE             d eps       ncg     rms          rms(c)
DAV:   1    -0.303848048645E+03    0.56752E-09   -0.75076E-11   294   0.206E-10    0.315E-10
RMM:   2    -0.303848048646E+03   -0.11278E-08    0.00000E+00     1   0.877E-11
 213 F= -.30384805E+03 E0= -.30389108E+03  d E =-.945874E-10
       N       E                     dE             d eps       ncg     rms          rms(c)
DAV:   1    -0.303848048647E+03   -0.16298E-08   -0.32935E-11   294   0.167E-10    0.286E-10
RMM:   2    -0.303848048646E+03    0.45839E-09    0.00000E+00     1   0.765E-11
 214 F= -.30384805E+03 E0= -.30389108E+03  d E =-.436557E-10
       N       E                     dE             d eps       ncg     rms          rms(c)
DAV:   1    -0.303848048647E+03    0.17462E-09    0.12983E-10   294   0.137E-10    0.273E-10
RMM:   2    -0.303848048646E+03    0.37107E-09    0.00000E+00     1   0.718E-11
 215 F= -.30384805E+03 E0= -.30389108E+03  d E =0.873115E-10
       N       E                     dE             d eps       ncg     rms          rms(c)
DAV:   1    -0.303848048647E+03    0.11642E-09    0.37441E-11   294   0.128E-10    0.244E-10
RMM:   2    -0.303848048646E+03    0.21100E-09    0.00000E+00     1   0.778E-11
 216 F= -.30384805E+03 E0= -.30389108E+03  d E =-.436557E-10
       N       E                     dE             d eps       ncg     rms          rms(c)
DAV:   1    -0.303848048647E+03   -0.17462E-09   -0.26146E-11   294   0.227E-10    0.374E-10
RMM:   2    -0.303848048646E+03    0.53842E-09    0.00000E+00     1   0.974E-11
 217 F= -.30384805E+03 E0= -.30389108E+03  d E =0.152795E-09
       N       E                     dE             d eps       ncg     rms          rms(c)
DAV:   1    -0.303848048647E+03   -0.26921E-09    0.17686E-10   294   0.143E-10    0.353E-10
RMM:   2    -0.303848048646E+03    0.72760E-09    0.00000E+00     1   0.940E-11
 218 F= -.30384805E+03 E0= -.30389108E+03  d E =-.800355E-10
       N       E                     dE             d eps       ncg     rms          rms(c)
DAV:   1    -0.303848048645E+03    0.19209E-08   -0.39438E-11   294   0.231E-10    0.275E-10
RMM:   2    -0.303848048646E+03   -0.12005E-08    0.00000E+00     1   0.779E-11
 219 F= -.30384805E+03 E0= -.30389108E+03  d E =-.727596E-11
       N       E                     dE             d eps       ncg     rms          rms(c)
DAV:   1    -0.303848048646E+03   -0.90222E-09    0.45147E-11   294   0.167E-10    0.275E-10
RMM:   2    -0.303848048646E+03   -0.29831E-09    0.00000E+00     1   0.772E-11
 220 F= -.30384805E+03 E0= -.30389108E+03  d E =0.000000E+00
       N       E                     dE             d eps       ncg     rms          rms(c)
DAV:   1    -0.303848048647E+03   -0.71304E-09    0.36651E-11   294   0.214E-10    0.239E-10
RMM:   2    -0.303848048646E+03    0.32014E-09    0.00000E+00     1   0.869E-11
 221 F= -.30384805E+03 E0= -.30389108E+03  d E =-.945874E-10
       N       E                     dE             d eps       ncg     rms          rms(c)
DAV:   1    -0.303848048647E+03   -0.43656E-09    0.64306E-11   294   0.169E-10    0.346E-10
RMM:   2    -0.303848048646E+03    0.80763E-09    0.00000E+00     1   0.876E-11
 222 F= -.30384805E+03 E0= -.30389108E+03  d E =0.509317E-10
       N       E                     dE             d eps       ncg     rms          rms(c)
DAV:   1    -0.303848048646E+03    0.11933E-08    0.53345E-11   294   0.170E-10    0.282E-10
RMM:   2    -0.303848048646E+03   -0.41473E-09    0.00000E+00     1   0.896E-11
 223 F= -.30384805E+03 E0= -.30389108E+03  d E =-.291038E-10
       N       E                     dE             d eps       ncg     rms          rms(c)
DAV:   1    -0.303848048646E+03   -0.18917E-09   -0.14035E-12   294   0.212E-10    0.322E-10
RMM:   2    -0.303848048646E+03   -0.21100E-09    0.00000E+00     1   0.101E-10
 224 F= -.30384805E+03 E0= -.30389108E+03  d E =0.145519E-10
       N       E                     dE             d eps       ncg     rms          rms(c)
DAV:   1    -0.303848048646E+03    0.16007E-09    0.10552E-10   294   0.341E-10    0.194E-10
RMM:   2    -0.303848048646E+03   -0.36380E-09    0.00000E+00     1   0.828E-11
 225 F= -.30384805E+03 E0= -.30389108E+03  d E =0.727596E-11
       N       E                     dE             d eps       ncg     rms          rms(c)
DAV:   1    -0.303848048646E+03   -0.43656E-10   -0.20869E-11   294   0.139E-10    0.270E-10
RMM:   2    -0.303848048646E+03   -0.23283E-09    0.00000E+00     1   0.797E-11
 226 F= -.30384805E+03 E0= -.30389108E+03  d E =0.873115E-10
       N       E                     dE             d eps       ncg     rms          rms(c)
DAV:   1    -0.303848048648E+03   -0.17026E-08    0.12614E-10   294   0.145E-10    0.300E-10
RMM:   2    -0.303848048646E+03    0.14261E-08    0.00000E+00     1   0.961E-11
 227 F= -.30384805E+03 E0= -.30389108E+03  d E =-.436557E-10
       N       E                     dE             d eps       ncg     rms          rms(c)
DAV:   1    -0.303848048647E+03    0.41473E-09    0.15408E-10   294   0.170E-10    0.244E-10
RMM:   2    -0.303848048646E+03    0.11423E-08    0.00000E+00     1   0.882E-11
 228 F= -.30384805E+03 E0= -.30389108E+03  d E =0.130967E-09
       N       E                     dE             d eps       ncg     rms          rms(c)
DAV:   1    -0.303848048645E+03    0.21100E-08   -0.16943E-10   294   0.227E-10    0.230E-10
RMM:   2    -0.303848048646E+03   -0.10987E-08    0.00000E+00     1   0.937E-11
 229 F= -.30384805E+03 E0= -.30389108E+03  d E =-.130967E-09
       N       E                     dE             d eps       ncg     rms          rms(c)
DAV:   1    -0.303848048646E+03   -0.56025E-09    0.12153E-10   294   0.170E-10    0.286E-10
RMM:   2    -0.303848048646E+03   -0.59663E-09    0.00000E+00     1   0.851E-11
 230 F= -.30384805E+03 E0= -.30389108E+03  d E =-.582077E-10
       N       E                     dE             d eps       ncg     rms          rms(c)
DAV:   1    -0.303848048648E+03   -0.17535E-08   -0.75172E-12   294   0.200E-10    0.300E-10
RMM:   2    -0.303848048646E+03    0.12296E-08    0.00000E+00     1   0.991E-11
 231 F= -.30384805E+03 E0= -.30389108E+03  d E =0.727596E-10
       N       E                     dE             d eps       ncg     rms          rms(c)
DAV:   1    -0.303848048645E+03    0.25320E-08   -0.52700E-11   294   0.174E-10    0.278E-10
RMM:   2    -0.303848048646E+03   -0.13461E-08    0.00000E+00     1   0.760E-11
 232 F= -.30384805E+03 E0= -.30389108E+03  d E =-.436557E-10
       N       E                     dE             d eps       ncg     rms          rms(c)
DAV:   1    -0.303848048646E+03   -0.11933E-08    0.32630E-10   294   0.160E-10    0.202E-10
RMM:   2    -0.303848048646E+03   -0.29104E-10    0.00000E+00     1   0.717E-11
 233 F= -.30384805E+03 E0= -.30389108E+03  d E =0.123691E-09
       N       E                     dE             d eps       ncg     rms          rms(c)
DAV:   1    -0.303848048646E+03    0.17462E-09    0.93137E-11   294   0.146E-10    0.308E-10
RMM:   2    -0.303848048646E+03   -0.24738E-09    0.00000E+00     1   0.857E-11
 234 F= -.30384805E+03 E0= -.30389108E+03  d E =-.436557E-10
       N       E                     dE             d eps       ncg     rms          rms(c)
DAV:   1    -0.303848048647E+03   -0.48021E-09   -0.57033E-12   294   0.206E-10    0.258E-10
RMM:   2    -0.303848048646E+03    0.16007E-09    0.00000E+00     1   0.776E-11
 235 F= -.30384805E+03 E0= -.30389108E+03  d E =-.727596E-10
       N       E                     dE             d eps       ncg     rms          rms(c)
DAV:   1    -0.303848048646E+03    0.14552E-10    0.63800E-11   294   0.234E-10    0.292E-10
RMM:   2    -0.303848048646E+03    0.17462E-09    0.00000E+00     1   0.833E-11
 236 F= -.30384805E+03 E0= -.30389108E+03  d E =0.291038E-10
       N       E                     dE             d eps       ncg     rms          rms(c)
DAV:   1    -0.303848048647E+03   -0.53842E-09    0.14004E-10   294   0.131E-10    0.252E-10
RMM:   2    -0.303848048646E+03    0.64756E-09    0.00000E+00     1   0.717E-11
 237 F= -.30384805E+03 E0= -.30389108E+03  d E =-.654836E-10
       N       E                     dE             d eps       ncg     rms          rms(c)
DAV:   1    -0.303848048646E+03    0.13242E-08    0.66665E-12   294   0.136E-10    0.315E-10
RMM:   2    -0.303848048646E+03   -0.56752E-09    0.00000E+00     1   0.890E-11
 238 F= -.30384805E+03 E0= -.30389108E+03  d E =0.109139E-09
       N       E                     dE             d eps       ncg     rms          rms(c)
DAV:   1    -0.303848048647E+03   -0.11569E-08   -0.53792E-11   294   0.279E-10    0.175E-10
RMM:   2    -0.303848048646E+03    0.54570E-09    0.00000E+00     1   0.714E-11
 239 F= -.30384805E+03 E0= -.30389108E+03  d E =-.436557E-10
       N       E                     dE             d eps       ncg     rms          rms(c)
DAV:   1    -0.303848048646E+03    0.52387E-09    0.76517E-11   294   0.123E-10    0.292E-10
RMM:   2    -0.303848048646E+03    0.50932E-10    0.00000E+00     1   0.837E-11
 240 F= -.30384805E+03 E0= -.30389108E+03  d E =0.291038E-10
       N       E                     dE             d eps       ncg     rms          rms(c)
DAV:   1    -0.303848048646E+03    0.15280E-09    0.53140E-12   294   0.203E-10    0.255E-10
RMM:   2    -0.303848048646E+03   -0.13824E-09    0.00000E+00     1   0.856E-11
 241 F= -.30384805E+03 E0= -.30389108E+03  d E =-.363798E-10
       N       E                     dE             d eps       ncg     rms          rms(c)
DAV:   1    -0.303848048647E+03   -0.64756E-09    0.44808E-11   294   0.204E-10    0.362E-10
RMM:   2    -0.303848048646E+03    0.53114E-09    0.00000E+00     1   0.112E-10
 242 F= -.30384805E+03 E0= -.30389108E+03  d E =0.218279E-10
       N       E                     dE             d eps       ncg     rms          rms(c)
DAV:   1    -0.303848048646E+03    0.11787E-08    0.10162E-10   294   0.331E-10    0.211E-10
RMM:   2    -0.303848048646E+03   -0.59663E-09    0.00000E+00     1   0.912E-11
 243 F= -.30384805E+03 E0= -.30389108E+03  d E =0.509317E-10
       N       E                     dE             d eps       ncg     rms          rms(c)
DAV:   1    -0.303848048646E+03   -0.46566E-09   -0.78881E-11   294   0.228E-10    0.277E-10
RMM:   2    -0.303848048646E+03   -0.16007E-09    0.00000E+00     1   0.944E-11
 244 F= -.30384805E+03 E0= -.30389108E+03  d E =-.291038E-10
       N       E                     dE             d eps       ncg     rms          rms(c)
DAV:   1    -0.303848048646E+03    0.20373E-09    0.67427E-11   294   0.187E-10    0.274E-10
RMM:   2    -0.303848048646E+03   -0.42201E-09    0.00000E+00     1   0.106E-10
 245 F= -.30384805E+03 E0= -.30389108E+03  d E =-.582077E-10
       N       E                     dE             d eps       ncg     rms          rms(c)
DAV:   1    -0.303848048646E+03   -0.53842E-09   -0.64180E-11   294   0.204E-10    0.220E-10
RMM:   2    -0.303848048646E+03    0.94587E-10    0.00000E+00     1   0.861E-11
 246 F= -.30384805E+03 E0= -.30389108E+03  d E =-.218279E-10
       N       E                     dE             d eps       ncg     rms          rms(c)
DAV:   1    -0.303848048647E+03   -0.36380E-09    0.35632E-11   294   0.199E-10    0.265E-10
RMM:   2    -0.303848048646E+03    0.45839E-09    0.00000E+00     1   0.706E-11
 247 F= -.30384805E+03 E0= -.30389108E+03  d E =0.000000E+00
       N       E                     dE             d eps       ncg     rms          rms(c)
DAV:   1    -0.303848048648E+03   -0.10987E-08    0.82170E-12   294   0.166E-10    0.268E-10
RMM:   2    -0.303848048646E+03    0.16953E-08    0.00000E+00     1   0.929E-11
 248 F= -.30384805E+03 E0= -.30389108E+03  d E =0.138243E-09
       N       E                     dE             d eps       ncg     rms          rms(c)
DAV:   1    -0.303848048646E+03    0.18044E-08   -0.12931E-10   294   0.309E-10    0.400E-10
RMM:   2    -0.303848048646E+03   -0.16007E-09    0.00000E+00     1   0.126E-10
 249 F= -.30384805E+03 E0= -.30389108E+03  d E =-.509317E-10
       N       E                     dE             d eps       ncg     rms          rms(c)
DAV:   1    -0.303848048648E+03   -0.15862E-08   -0.28948E-11   294   0.336E-10    0.251E-10
RMM:   2    -0.303848048646E+03    0.13533E-08    0.00000E+00     1   0.862E-11
 250 F= -.30384805E+03 E0= -.30389108E+03  d E =-.727596E-10
       N       E                     dE             d eps       ncg     rms          rms(c)
DAV:   1    -0.303848048646E+03    0.14188E-08    0.17144E-10   294   0.279E-10    0.448E-10
RMM:   2    -0.303848048646E+03   -0.65484E-10    0.00000E+00     1   0.113E-10
 251 F= -.30384805E+03 E0= -.30389108E+03  d E =0.000000E+00
       N       E                     dE             d eps       ncg     rms          rms(c)
DAV:   1    -0.303848048646E+03    0.19645E-09   -0.25796E-11   294   0.306E-10    0.463E-10
RMM:   2    -0.303848048646E+03   -0.22555E-09    0.00000E+00     1   0.121E-10
 252 F= -.30384805E+03 E0= -.30389108E+03  d E =0.363798E-10
       N       E                     dE             d eps       ncg     rms          rms(c)
DAV:   1    -0.303848048646E+03    0.13097E-09    0.65551E-11   294   0.367E-10    0.320E-10
RMM:   2    -0.303848048646E+03   -0.39290E-09    0.00000E+00     1   0.977E-11
 253 F= -.30384805E+03 E0= -.30389108E+03  d E =-.363798E-10
       N       E                     dE             d eps       ncg     rms          rms(c)
DAV:   1    -0.303848048645E+03    0.68394E-09   -0.13832E-11   294   0.327E-10    0.262E-10
RMM:   2    -0.303848048646E+03   -0.11059E-08    0.00000E+00     1   0.968E-11
 254 F= -.30384805E+03 E0= -.30389108E+03  d E =-.291038E-10
       N       E                     dE             d eps       ncg     rms          rms(c)
DAV:   1    -0.303848048646E+03   -0.97498E-09    0.70850E-11   294   0.188E-10    0.376E-10
RMM:   2    -0.303848048646E+03   -0.58208E-10    0.00000E+00     1   0.114E-10
 255 F= -.30384805E+03 E0= -.30389108E+03  d E =0.727596E-10
       N       E                     dE             d eps       ncg     rms          rms(c)
DAV:   1    -0.303848048646E+03    0.52387E-09   -0.12462E-11   294   0.342E-10    0.235E-10
RMM:   2    -0.303848048646E+03   -0.59663E-09    0.00000E+00     1   0.923E-11
 256 F= -.30384805E+03 E0= -.30389108E+03  d E =-.145519E-10
       N       E                     dE             d eps       ncg     rms          rms(c)
DAV:   1    -0.303848048648E+03   -0.18335E-08    0.54576E-11   294   0.187E-10    0.274E-10
RMM:   2    -0.303848048646E+03    0.13606E-08    0.00000E+00     1   0.840E-11
 257 F= -.30384805E+03 E0= -.30389108E+03  d E =0.123691E-09
       N       E                     dE             d eps       ncg     rms          rms(c)
DAV:   1    -0.303848048646E+03    0.19936E-08    0.18726E-11   294   0.200E-10    0.342E-10
RMM:   2    -0.303848048646E+03   -0.69849E-09    0.00000E+00     1   0.100E-10
 258 F= -.30384805E+03 E0= -.30389108E+03  d E =-.654836E-10
       N       E                     dE             d eps       ncg     rms          rms(c)
DAV:   1    -0.303848048646E+03   -0.80036E-09    0.43336E-11   294   0.341E-10    0.224E-10
RMM:   2    -0.303848048646E+03    0.43656E-10    0.00000E+00     1   0.820E-11
 259 F= -.30384805E+03 E0= -.30389108E+03  d E =-.582077E-10
       N       E                     dE             d eps       ncg     rms          rms(c)
DAV:   1    -0.303848048647E+03   -0.21828E-09    0.53027E-11   294   0.199E-10    0.284E-10
RMM:   2    -0.303848048646E+03    0.23283E-09    0.00000E+00     1   0.101E-10
 260 F= -.30384805E+03 E0= -.30389108E+03  d E =-.291038E-10
       N       E                     dE             d eps       ncg     rms          rms(c)
DAV:   1    -0.303848048646E+03    0.57480E-09    0.68118E-11   294   0.306E-10    0.277E-10
RMM:   2    -0.303848048646E+03   -0.28376E-09    0.00000E+00     1   0.101E-10
 261 F= -.30384805E+03 E0= -.30389108E+03  d E =0.582077E-10
       N       E                     dE             d eps       ncg     rms          rms(c)
DAV:   1    -0.303848048647E+03   -0.88767E-09   -0.20965E-11   294   0.263E-10    0.295E-10
RMM:   2    -0.303848048646E+03    0.60390E-09    0.00000E+00     1   0.849E-11
 262 F= -.30384805E+03 E0= -.30389108E+03  d E =0.000000E+00
       N       E                     dE             d eps       ncg     rms          rms(c)
DAV:   1    -0.303848048646E+03    0.85129E-09   -0.71774E-11   294   0.223E-10    0.205E-10
RMM:   2    -0.303848048646E+03   -0.25466E-09    0.00000E+00     1   0.656E-11
 263 F= -.30384805E+03 E0= -.30389108E+03  d E =-.727596E-11
       N       E                     dE             d eps       ncg     rms          rms(c)
DAV:   1    -0.303848048646E+03   -0.29831E-09    0.63757E-11   294   0.134E-10    0.251E-10
RMM:   2    -0.303848048646E+03   -0.14552E-10    0.00000E+00     1   0.723E-11
 264 F= -.30384805E+03 E0= -.30389108E+03  d E =-.582077E-10
       N       E                     dE             d eps       ncg     rms          rms(c)
DAV:   1    -0.303848048647E+03   -0.21828E-09    0.14637E-10   294   0.230E-10    0.183E-10
RMM:   2    -0.303848048646E+03    0.24011E-09    0.00000E+00     1   0.666E-11
 265 F= -.30384805E+03 E0= -.30389108E+03  d E =0.363798E-10
       N       E                     dE             d eps       ncg     rms          rms(c)
DAV:   1    -0.303848048647E+03   -0.18917E-09    0.19497E-10   294   0.103E-10    0.265E-10
RMM:   2    -0.303848048646E+03    0.42201E-09    0.00000E+00     1   0.700E-11
 266 F= -.30384805E+03 E0= -.30389108E+03  d E =-.727596E-11
       N       E                     dE             d eps       ncg     rms          rms(c)
DAV:   1    -0.303848048646E+03    0.93132E-09   -0.35807E-11   294   0.151E-10    0.236E-10
RMM:   2    -0.303848048646E+03   -0.45111E-09    0.00000E+00     1   0.720E-11
 267 F= -.30384805E+03 E0= -.30389108E+03  d E =0.582077E-10
       N       E                     dE             d eps       ncg     rms          rms(c)
DAV:   1    -0.303848048647E+03   -0.12369E-08    0.17043E-10   294   0.161E-10    0.274E-10
RMM:   2    -0.303848048646E+03    0.81491E-09    0.00000E+00     1   0.827E-11
 268 F= -.30384805E+03 E0= -.30389108E+03  d E =0.291038E-10
       N       E                     dE             d eps       ncg     rms          rms(c)
DAV:   1    -0.303848048648E+03   -0.55297E-09    0.74586E-11   294   0.195E-10    0.289E-10
RMM:   2    -0.303848048646E+03    0.12660E-08    0.00000E+00     1   0.965E-11
 269 F= -.30384805E+03 E0= -.30389108E+03  d E =-.101863E-09
       N       E                     dE             d eps       ncg     rms          rms(c)
DAV:   1    -0.303848048646E+03    0.12151E-08    0.10783E-11   294   0.276E-10    0.277E-10
RMM:   2    -0.303848048646E+03    0.16007E-09    0.00000E+00     1   0.100E-10
 270 F= -.30384805E+03 E0= -.30389108E+03  d E =0.109139E-09
       N       E                     dE             d eps       ncg     rms          rms(c)
DAV:   1    -0.303848048646E+03    0.64756E-09   -0.14220E-11   294   0.201E-10    0.338E-10
RMM:   2    -0.303848048646E+03   -0.54570E-09    0.00000E+00     1   0.109E-10
 271 F= -.30384805E+03 E0= -.30389108E+03  d E =-.582077E-10
       N       E                     dE             d eps       ncg     rms          rms(c)
DAV:   1    -0.303848048646E+03   -0.31287E-09    0.17788E-12   294   0.315E-10    0.305E-10
RMM:   2    -0.303848048646E+03   -0.24738E-09    0.00000E+00     1   0.902E-11
 272 F= -.30384805E+03 E0= -.30389108E+03  d E =-.145519E-10
       N       E                     dE             d eps       ncg     rms          rms(c)
DAV:   1    -0.303848048647E+03   -0.10623E-08   -0.21619E-11   294   0.234E-10    0.253E-10
RMM:   2    -0.303848048646E+03    0.70577E-09    0.00000E+00     1   0.846E-11
 273 F= -.30384805E+03 E0= -.30389108E+03  d E =-.109139E-09
       N       E                     dE             d eps       ncg     rms          rms(c)
DAV:   1    -0.303848048647E+03    0.47294E-09    0.90215E-11   294   0.214E-10    0.254E-10
RMM:   2    -0.303848048646E+03    0.29104E-09    0.00000E+00     1   0.102E-10
 274 F= -.30384805E+03 E0= -.30389108E+03  d E =0.582077E-10
       N       E                     dE             d eps       ncg     rms          rms(c)
DAV:   1    -0.303848048647E+03    0.72760E-10    0.25318E-11   294   0.282E-10    0.302E-10
RMM:   2    -0.303848048646E+03    0.18917E-09    0.00000E+00     1   0.931E-11
 275 F= -.30384805E+03 E0= -.30389108E+03  d E =-.291038E-10
       N       E                     dE             d eps       ncg     rms          rms(c)
DAV:   1    -0.303848048647E+03   -0.32014E-09    0.92081E-11   294   0.202E-10    0.257E-10
RMM:   2    -0.303848048646E+03    0.53114E-09    0.00000E+00     1   0.964E-11
 276 F= -.30384805E+03 E0= -.30389108E+03  d E =0.218279E-10
       N       E                     dE             d eps       ncg     rms          rms(c)
DAV:   1    -0.303848048646E+03    0.45111E-09    0.90209E-11   294   0.218E-10    0.323E-10
RMM:   2    -0.303848048646E+03    0.13824E-09    0.00000E+00     1   0.901E-11
 277 F= -.30384805E+03 E0= -.30389108E+03  d E =0.582077E-10
       N       E                     dE             d eps       ncg     rms          rms(c)
DAV:   1    -0.303848048646E+03   -0.29104E-10    0.23575E-10   294   0.154E-10    0.386E-10
RMM:   2    -0.303848048646E+03    0.87311E-10    0.00000E+00     1   0.911E-11
 278 F= -.30384805E+03 E0= -.30389108E+03  d E =-.800355E-10
       N       E                     dE             d eps       ncg     rms          rms(c)
DAV:   1    -0.303848048647E+03   -0.21100E-09   -0.73908E-11   294   0.197E-10    0.306E-10
RMM:   2    -0.303848048646E+03    0.32014E-09    0.00000E+00     1   0.923E-11
 279 F= -.30384805E+03 E0= -.30389108E+03  d E =0.218279E-10
       N       E                     dE             d eps       ncg     rms          rms(c)
DAV:   1    -0.303848048645E+03    0.13752E-08   -0.21436E-11   294   0.293E-10    0.233E-10
RMM:   2    -0.303848048646E+03   -0.97498E-09    0.00000E+00     1   0.758E-11
 280 F= -.30384805E+03 E0= -.30389108E+03  d E =0.800355E-10
       N       E                     dE             d eps       ncg     rms          rms(c)
DAV:   1    -0.303848048647E+03   -0.16807E-08    0.97937E-11   294   0.117E-10    0.245E-10
RMM:   2    -0.303848048646E+03    0.72760E-09    0.00000E+00     1   0.790E-11
 281 F= -.30384805E+03 E0= -.30389108E+03  d E =0.218279E-10
       N       E                     dE             d eps       ncg     rms          rms(c)
DAV:   1    -0.303848048645E+03    0.18845E-08   -0.58060E-11   294   0.186E-10    0.260E-10
RMM:   2    -0.303848048646E+03   -0.12078E-08    0.00000E+00     1   0.734E-11
 282 F= -.30384805E+03 E0= -.30389108E+03  d E =-.509317E-10
       N       E                     dE             d eps       ncg     rms          rms(c)
DAV:   1    -0.303848048645E+03   -0.23283E-09    0.21945E-11   294   0.167E-10    0.231E-10
RMM:   2    -0.303848048646E+03   -0.94587E-09    0.00000E+00     1   0.859E-11
 283 F= -.30384805E+03 E0= -.30389108E+03  d E =0.291038E-10
       N       E                     dE             d eps       ncg     rms          rms(c)
DAV:   1    -0.303848048647E+03   -0.13315E-08   -0.76244E-12   294   0.181E-10    0.377E-10
RMM:   2    -0.303848048646E+03    0.36380E-09    0.00000E+00     1   0.115E-10
 284 F= -.30384805E+03 E0= -.30389108E+03  d E =-.218279E-10
       N       E                     dE             d eps       ncg     rms          rms(c)
DAV:   1    -0.303848048646E+03    0.39290E-09    0.96415E-11   294   0.332E-10    0.376E-10
RMM:   2    -0.303848048646E+03   -0.43656E-10    0.00000E+00     1   0.115E-10
 285 F= -.30384805E+03 E0= -.30389108E+03  d E =-.145519E-10
       N       E                     dE             d eps       ncg     rms          rms(c)
DAV:   1    -0.303848048646E+03    0.35652E-09   -0.11858E-10   294   0.390E-10    0.270E-10
RMM:   2    -0.303848048646E+03   -0.43656E-09    0.00000E+00     1   0.877E-11
 286 F= -.30384805E+03 E0= -.30389108E+03  d E =-.363798E-10
       N       E                     dE             d eps       ncg     rms          rms(c)
DAV:   1    -0.303848048647E+03   -0.82946E-09    0.70505E-11   294   0.230E-10    0.281E-10
RMM:   2    -0.303848048646E+03    0.39290E-09    0.00000E+00     0   0.836E-11
 287 F= -.30384805E+03 E0= -.30389108E+03  d E =0.000000E+00
       N       E                     dE             d eps       ncg     rms          rms(c)
DAV:   1    -0.303848048646E+03    0.37835E-09    0.17696E-10   294   0.162E-10    0.248E-10
RMM:   2    -0.303848048646E+03    0.14552E-09    0.00000E+00     0   0.794E-11
 288 F= -.30384805E+03 E0= -.30389108E+03  d E =0.130967E-09
       N       E                     dE             d eps       ncg     rms          rms(c)
DAV:   1    -0.303848048647E+03   -0.10768E-08    0.38777E-11   294   0.188E-10    0.253E-10
RMM:   2    -0.303848048646E+03    0.11642E-08    0.00000E+00     0   0.876E-11
 289 F= -.30384805E+03 E0= -.30389108E+03  d E =-.582077E-10
       N       E                     dE             d eps       ncg     rms          rms(c)
DAV:   1    -0.303848048645E+03    0.21319E-08    0.70606E-11   294   0.217E-10    0.190E-10
RMM:   2    -0.303848048646E+03   -0.10041E-08    0.00000E+00     0   0.814E-11
 290 F= -.30384805E+03 E0= -.30389108E+03  d E =-.363798E-10
       N       E                     dE             d eps       ncg     rms          rms(c)
DAV:   1    -0.303848048647E+03   -0.13169E-08    0.15214E-10   294   0.184E-10    0.302E-10
RMM:   2    -0.303848048646E+03    0.31287E-09    0.00000E+00     0   0.968E-11
 291 F= -.30384805E+03 E0= -.30389108E+03  d E =0.000000E+00
       N       E                     dE             d eps       ncg     rms          rms(c)
DAV:   1    -0.303848048646E+03    0.77125E-09    0.95634E-11   294   0.185E-10    0.240E-10
RMM:   2    -0.303848048646E+03   -0.40745E-09    0.00000E+00     0   0.847E-11
 292 F= -.30384805E+03 E0= -.30389108E+03  d E =0.509317E-10
       N       E                     dE             d eps       ncg     rms          rms(c)
DAV:   1    -0.303848048645E+03    0.49477E-09    0.83353E-11   294   0.153E-10    0.405E-10
RMM:   2    -0.303848048646E+03   -0.93132E-09    0.00000E+00     0   0.121E-10
 293 F= -.30384805E+03 E0= -.30389108E+03  d E =-.291038E-10
       N       E                     dE             d eps       ncg     rms          rms(c)
DAV:   1    -0.303848048647E+03   -0.12296E-08    0.80175E-12   294   0.401E-10    0.201E-10
RMM:   2    -0.303848048646E+03    0.20373E-09    0.00000E+00     0   0.867E-11
 294 F= -.30384805E+03 E0= -.30389108E+03  d E =-.945874E-10
       N       E                     dE             d eps       ncg     rms          rms(c)
DAV:   1    -0.303848048646E+03    0.79308E-09    0.13917E-10   294   0.158E-10    0.328E-10
RMM:   2    -0.303848048646E+03   -0.45111E-09    0.00000E+00     0   0.863E-11
 295 F= -.30384805E+03 E0= -.30389108E+03  d E =0.138243E-09
       N       E                     dE             d eps       ncg     rms          rms(c)
DAV:   1    -0.303848048646E+03   -0.13824E-09    0.62141E-11   294   0.179E-10    0.349E-10
RMM:   2    -0.303848048646E+03   -0.37835E-09    0.00000E+00     0   0.101E-10
 296 F= -.30384805E+03 E0= -.30389108E+03  d E =-.654836E-10
       N       E                     dE             d eps       ncg     rms          rms(c)
DAV:   1    -0.303848048646E+03    0.34197E-09    0.51339E-11   294   0.310E-10    0.152E-10
RMM:   2    -0.303848048646E+03   -0.66939E-09    0.00000E+00     0   0.753E-11
 297 F= -.30384805E+03 E0= -.30389108E+03  d E =0.509317E-10
       N       E                     dE             d eps       ncg     rms          rms(c)
DAV:   1    -0.303848048646E+03   -0.45839E-09   -0.14270E-10   294   0.130E-10    0.273E-10
RMM:   2    -0.303848048646E+03   -0.30559E-09    0.00000E+00     0   0.816E-11
 298 F= -.30384805E+03 E0= -.30389108E+03  d E =-.945874E-10
       N       E                     dE             d eps       ncg     rms          rms(c)
DAV:   1    -0.303848048647E+03   -0.62573E-09    0.10570E-10   294   0.131E-10    0.382E-10
RMM:   2    -0.303848048646E+03    0.34925E-09    0.00000E+00     0   0.927E-11
 299 F= -.30384805E+03 E0= -.30389108E+03  d E =0.291038E-10
       N       E                     dE             d eps       ncg     rms          rms(c)
DAV:   1    -0.303848048647E+03   -0.21828E-10   -0.76375E-11   294   0.202E-10    0.305E-10
RMM:   2    -0.303848048646E+03    0.38563E-09    0.00000E+00     0   0.959E-11
 300 F= -.30384805E+03 E0= -.30389108E+03  d E =0.145519E-10
