  55  55   0   0
  0.2301251E+02  0.1218282E-08  0.7661564E-09  0.1373046E-08  0.0000000E+00
   1.0000000000000000E-004
  CAR 
 NEB                                     
      9.37518875    -23.51118122  301      1.27154628      1.00000000
    -23.511  0.0000E+00  0.0000E+00
    -23.402  0.0000E+00  0.0000E+00
    -23.292  0.0000E+00  0.0000E+00
    -23.182 -0.2188E-30 -0.2398E-31
    -23.073 -0.1572E-26 -0.1724E-27
    -22.963 -0.6066E-23 -0.6651E-24
    -22.853 -0.1282E-19 -0.1406E-20
    -22.744 -0.1485E-16 -0.1629E-17
    -22.634 -0.9136E-14 -0.1003E-14
    -22.525 -0.3145E-11 -0.3458E-12
    -22.415 -0.5907E-09 -0.6509E-10
    -22.305 -0.6025E-07 -0.6670E-08
    -22.196 -0.3320E-05 -0.3706E-06
    -22.086 -0.9777E-04 -0.1109E-04
    -21.976 -0.1507E-02 -0.1763E-03
    -21.867 -0.1155E-01 -0.1442E-02
    -21.757 -0.3709E-01 -0.5508E-02
    -21.648  0.4340E-02 -0.5033E-02
    -21.538  0.3196E+00  0.3000E-01
    -21.428  0.8440E+00  0.1225E+00
    -21.319  0.1144E+01  0.2479E+00
    -21.209  0.1024E+01  0.3602E+00
    -21.100  0.6018E+00  0.4261E+00
    -20.990  0.1689E+00  0.4446E+00
    -20.880 -0.6768E-02  0.4439E+00
    -20.771  0.2677E-01  0.4468E+00
    -20.661  0.7327E-01  0.4549E+00
    -20.551  0.4657E-01  0.4600E+00
    -20.442  0.6064E-02  0.4606E+00
    -20.332 -0.3958E-02  0.4602E+00
    -20.223 -0.1556E-02  0.4600E+00
    -20.113 -0.2191E-03  0.4600E+00
    -20.003 -0.1472E-04  0.4600E+00
    -19.894 -0.5071E-06  0.4600E+00
    -19.784 -0.9237E-08  0.4600E+00
    -19.674 -0.9023E-10  0.4600E+00
    -19.565 -0.4764E-12  0.4600E+00
    -19.455 -0.1377E-14  0.4600E+00
    -19.346  0.0000E+00  0.4600E+00
    -19.236  0.0000E+00  0.4600E+00
    -19.126  0.0000E+00  0.4600E+00
    -19.017  0.0000E+00  0.4600E+00
    -18.907  0.0000E+00  0.4600E+00
    -18.797  0.0000E+00  0.4600E+00
    -18.688  0.0000E+00  0.4600E+00
    -18.578  0.0000E+00  0.4600E+00
    -18.469  0.0000E+00  0.4600E+00
    -18.359  0.0000E+00  0.4600E+00
    -18.249  0.0000E+00  0.4600E+00
    -18.140  0.0000E+00  0.4600E+00
    -18.030  0.0000E+00  0.4600E+00
    -17.920  0.0000E+00  0.4600E+00
    -17.811  0.0000E+00  0.4600E+00
    -17.701  0.0000E+00  0.4600E+00
    -17.592  0.0000E+00  0.4600E+00
    -17.482  0.0000E+00  0.4600E+00
    -17.372  0.0000E+00  0.4600E+00
    -17.263  0.0000E+00  0.4600E+00
    -17.153  0.0000E+00  0.4600E+00
    -17.044  0.0000E+00  0.4600E+00
    -16.934  0.0000E+00  0.4600E+00
    -16.824  0.0000E+00  0.4600E+00
    -16.715  0.0000E+00  0.4600E+00
    -16.605  0.0000E+00  0.4600E+00
    -16.495  0.0000E+00  0.4600E+00
    -16.386  0.0000E+00  0.4600E+00
    -16.276  0.0000E+00  0.4600E+00
    -16.167  0.0000E+00  0.4600E+00
    -16.057  0.0000E+00  0.4600E+00
    -15.947  0.0000E+00  0.4600E+00
    -15.838  0.0000E+00  0.4600E+00
    -15.728  0.0000E+00  0.4600E+00
    -15.618  0.0000E+00  0.4600E+00
    -15.509  0.0000E+00  0.4600E+00
    -15.399  0.0000E+00  0.4600E+00
    -15.290  0.0000E+00  0.4600E+00
    -15.180  0.0000E+00  0.4600E+00
    -15.070  0.0000E+00  0.4600E+00
    -14.961  0.0000E+00  0.4600E+00
    -14.851  0.0000E+00  0.4600E+00
    -14.741  0.0000E+00  0.4600E+00
    -14.632  0.0000E+00  0.4600E+00
    -14.522  0.0000E+00  0.4600E+00
    -14.413  0.0000E+00  0.4600E+00
    -14.303  0.0000E+00  0.4600E+00
    -14.193  0.0000E+00  0.4600E+00
    -14.084  0.0000E+00  0.4600E+00
    -13.974  0.0000E+00  0.4600E+00
    -13.865  0.0000E+00  0.4600E+00
    -13.755  0.0000E+00  0.4600E+00
    -13.645  0.0000E+00  0.4600E+00
    -13.536  0.0000E+00  0.4600E+00
    -13.426  0.0000E+00  0.4600E+00
    -13.316  0.0000E+00  0.4600E+00
    -13.207  0.0000E+00  0.4600E+00
    -13.097  0.0000E+00  0.4600E+00
    -12.988  0.0000E+00  0.4600E+00
    -12.878  0.0000E+00  0.4600E+00
    -12.768  0.0000E+00  0.4600E+00
    -12.659  0.0000E+00  0.4600E+00
    -12.549 -0.7008E-30  0.4600E+00
    -12.439 -0.3942E-26  0.4600E+00
    -12.330 -0.1210E-22  0.4600E+00
    -12.220 -0.2023E-19  0.4600E+00
    -12.111 -0.1842E-16  0.4600E+00
    -12.001 -0.8820E-14  0.4600E+00
    -11.891 -0.2351E-11  0.4600E+00
    -11.782 -0.3380E-09  0.4600E+00
    -11.672 -0.2607E-07  0.4600E+00
    -11.562 -0.1068E-05  0.4600E+00
    -11.453 -0.2289E-04  0.4600E+00
    -11.343 -0.2481E-03  0.4600E+00
    -11.234 -0.1248E-02  0.4598E+00
    -11.124 -0.1922E-02  0.4596E+00
    -11.014  0.5749E-02  0.4603E+00
    -10.905  0.2928E-01  0.4635E+00
    -10.795  0.5909E-01  0.4699E+00
    -10.685  0.7380E-01  0.4780E+00
    -10.576  0.5749E-01  0.4843E+00
    -10.466  0.2298E-01  0.4869E+00
    -10.357 -0.4425E-04  0.4868E+00
    -10.247 -0.4257E-02  0.4864E+00
    -10.137  0.5222E-02  0.4870E+00
    -10.028  0.2760E-01  0.4900E+00
     -9.918  0.6283E-01  0.4969E+00
     -9.809  0.1146E+00  0.5094E+00
     -9.699  0.1588E+00  0.5268E+00
     -9.589  0.1637E+00  0.5448E+00
     -9.480  0.1658E+00  0.5630E+00
     -9.370  0.1934E+00  0.5841E+00
     -9.260  0.1887E+00  0.6048E+00
     -9.151  0.1163E+00  0.6176E+00
     -9.041  0.3230E-01  0.6211E+00
     -8.932 -0.3924E-02  0.6207E+00
     -8.822 -0.4943E-02  0.6202E+00
     -8.712 -0.1234E-02  0.6200E+00
     -8.603 -0.1401E-03  0.6200E+00
     -8.493 -0.8078E-05  0.6200E+00
     -8.383 -0.2455E-06  0.6200E+00
     -8.274 -0.3992E-08  0.6200E+00
     -8.164 -0.3501E-10  0.6200E+00
     -8.055 -0.1664E-12  0.6200E+00
     -7.945 -0.4186E-15  0.6200E+00
     -7.835  0.0000E+00  0.6200E+00
     -7.726  0.0000E+00  0.6200E+00
     -7.616  0.0000E+00  0.6200E+00
     -7.506  0.0000E+00  0.6200E+00
     -7.397  0.0000E+00  0.6200E+00
     -7.287  0.0000E+00  0.6200E+00
     -7.178  0.0000E+00  0.6200E+00
     -7.068  0.0000E+00  0.6200E+00
     -6.958  0.0000E+00  0.6200E+00
     -6.849  0.0000E+00  0.6200E+00
     -6.739  0.0000E+00  0.6200E+00
     -6.630  0.0000E+00  0.6200E+00
     -6.520  0.0000E+00  0.6200E+00
     -6.410  0.0000E+00  0.6200E+00
     -6.301  0.0000E+00  0.6200E+00
     -6.191  0.0000E+00  0.6200E+00
     -6.081  0.0000E+00  0.6200E+00
     -5.972  0.0000E+00  0.6200E+00
     -5.862  0.0000E+00  0.6200E+00
     -5.753  0.0000E+00  0.6200E+00
     -5.643  0.0000E+00  0.6200E+00
     -5.533  0.0000E+00  0.6200E+00
     -5.424  0.0000E+00  0.6200E+00
     -5.314  0.0000E+00  0.6200E+00
     -5.204  0.0000E+00  0.6200E+00
     -5.095  0.0000E+00  0.6200E+00
     -4.985  0.0000E+00  0.6200E+00
     -4.876 -0.1023E-30  0.6200E+00
     -4.766 -0.6610E-27  0.6200E+00
     -4.656 -0.2317E-23  0.6200E+00
     -4.547 -0.4435E-20  0.6200E+00
     -4.437 -0.4632E-17  0.6200E+00
     -4.327 -0.2553E-14  0.6200E+00
     -4.218 -0.7865E-12  0.6200E+00
     -4.108 -0.1314E-09  0.6200E+00
     -3.999 -0.1186E-07  0.6200E+00
     -3.889 -0.5751E-06  0.6200E+00
     -3.779 -0.1480E-04  0.6200E+00
     -3.670 -0.1974E-03  0.6200E+00
     -3.560 -0.1285E-02  0.6198E+00
     -3.450 -0.3295E-02  0.6195E+00
     -3.341  0.2343E-02  0.6197E+00
     -3.231  0.3101E-01  0.6231E+00
     -3.122  0.7861E-01  0.6317E+00
     -3.012  0.1206E+00  0.6450E+00
     -2.902  0.1271E+00  0.6589E+00
     -2.793  0.8893E-01  0.6687E+00
     -2.683  0.3931E-01  0.6730E+00
     -2.574  0.7804E-02  0.6738E+00
     -2.464 -0.2254E-02  0.6736E+00
     -2.354 -0.1803E-02  0.6734E+00
     -2.245 -0.8209E-03  0.6733E+00
     -2.135 -0.1910E-02  0.6731E+00
     -2.025 -0.2509E-02  0.6728E+00
     -1.916  0.8834E-02  0.6738E+00
     -1.806  0.4349E-01  0.6785E+00
     -1.697  0.8822E-01  0.6882E+00
     -1.587  0.1114E+00  0.7004E+00
     -1.477  0.1096E+00  0.7124E+00
     -1.368  0.1111E+00  0.7246E+00
     -1.258  0.1140E+00  0.7371E+00
     -1.148  0.9687E-01  0.7477E+00
     -1.039  0.7949E-01  0.7564E+00
     -0.929  0.8027E-01  0.7652E+00
     -0.820  0.8218E-01  0.7743E+00
     -0.710  0.7121E-01  0.7821E+00
     -0.600  0.6602E-01  0.7893E+00
     -0.491  0.1054E+00  0.8008E+00
     -0.381  0.1754E+00  0.8201E+00
     -0.271  0.2138E+00  0.8435E+00
     -0.162  0.2027E+00  0.8657E+00
     -0.052  0.1632E+00  0.8836E+00
      0.057  0.1326E+00  0.8982E+00
      0.167  0.1301E+00  0.9124E+00
      0.277  0.1244E+00  0.9261E+00
      0.386  0.1081E+00  0.9379E+00
      0.496  0.1097E+00  0.9499E+00
      0.605  0.1559E+00  0.9670E+00
      0.715  0.2122E+00  0.9903E+00
      0.825  0.2324E+00  0.1016E+01
      0.934  0.2247E+00  0.1040E+01
      1.044  0.2082E+00  0.1063E+01
      1.154  0.1797E+00  0.1083E+01
      1.263  0.1196E+00  0.1096E+01
      1.373  0.4323E-01  0.1101E+01
      1.482  0.2336E-03  0.1101E+01
      1.592 -0.5289E-02  0.1100E+01
      1.702 -0.1697E-02  0.1100E+01
      1.811 -0.2331E-03  0.1100E+01
      1.921 -0.1614E-04  0.1100E+01
      2.031 -0.5892E-06  0.1100E+01
      2.140 -0.1156E-07  0.1100E+01
      2.250 -0.1228E-09  0.1100E+01
      2.359 -0.7089E-12  0.1100E+01
      2.469 -0.2242E-14  0.1100E+01
      2.579 -0.5238E-29  0.1100E+01
      2.688 -0.2568E-25  0.1100E+01
      2.798 -0.6867E-22  0.1100E+01
      2.908 -0.1001E-18  0.1100E+01
      3.017 -0.7598E-16  0.1100E+01
      3.127 -0.3302E-13  0.1100E+01
      3.236 -0.7648E-11  0.1100E+01
      3.346 -0.9537E-09  0.1100E+01
      3.456 -0.6356E-07  0.1100E+01
      3.565 -0.2234E-05  0.1100E+01
      3.675 -0.4041E-04  0.1100E+01
      3.785 -0.3549E-03  0.1100E+01
      3.894 -0.1250E-02  0.1100E+01
      4.004  0.3673E-03  0.1100E+01
      4.113  0.1218E-01  0.1101E+01
      4.223  0.2622E-01  0.1104E+01
      4.333  0.2081E-01  0.1106E+01
      4.442  0.5038E-02  0.1107E+01
      4.552 -0.1222E-02  0.1107E+01
      4.661 -0.7880E-03  0.1107E+01
      4.771 -0.1804E-03  0.1107E+01
      4.881 -0.4438E-03  0.1107E+01
      4.990 -0.2050E-02  0.1106E+01
      5.100 -0.2763E-02  0.1106E+01
      5.210  0.1101E-01  0.1107E+01
      5.319  0.4911E-01  0.1113E+01
      5.429  0.8532E-01  0.1122E+01
      5.538  0.9414E-01  0.1132E+01
      5.648  0.9567E-01  0.1143E+01
      5.758  0.9821E-01  0.1154E+01
      5.867  0.8683E-01  0.1163E+01
      5.977  0.7399E-01  0.1171E+01
      6.087  0.7185E-01  0.1179E+01
      6.196  0.8725E-01  0.1189E+01
      6.306  0.1152E+00  0.1201E+01
      6.415  0.1395E+00  0.1217E+01
      6.525  0.1432E+00  0.1232E+01
      6.635  0.1142E+00  0.1245E+01
      6.744  0.8735E-01  0.1254E+01
      6.854  0.8554E-01  0.1264E+01
      6.964  0.7797E-01  0.1272E+01
      7.073  0.7732E-01  0.1281E+01
      7.183  0.9991E-01  0.1292E+01
      7.292  0.1126E+00  0.1304E+01
      7.402  0.9676E-01  0.1315E+01
      7.512  0.4896E-01  0.1320E+01
      7.621  0.6206E-02  0.1321E+01
      7.731 -0.4448E-02  0.1320E+01
      7.840 -0.1859E-02  0.1320E+01
      7.950 -0.2808E-03  0.1320E+01
      8.060 -0.2024E-04  0.1320E+01
      8.169 -0.7483E-06  0.1320E+01
      8.279 -0.1462E-07  0.1320E+01
      8.389 -0.1530E-09  0.1320E+01
      8.498 -0.8659E-12  0.1320E+01
      8.608 -0.2660E-14  0.1320E+01
      8.717  0.0000E+00  0.1320E+01
      8.827  0.0000E+00  0.1320E+01
      8.937  0.0000E+00  0.1320E+01
      9.046  0.0000E+00  0.1320E+01
      9.156  0.0000E+00  0.1320E+01
      9.266  0.0000E+00  0.1320E+01
      9.375  0.0000E+00  0.1320E+01
