  19  19   0   0
  0.2504161E+02  0.6834254E-09  0.8835925E-09  0.7880486E-09  0.0000000E+00
   1.0000000000000000E-004
  CAR 
 NEB_bottleneck                          
      9.51408236    -25.16851420  301      1.15818971      1.00000000
    -25.169  0.0000E+00  0.0000E+00
    -25.053  0.0000E+00  0.0000E+00
    -24.937  0.0000E+00  0.0000E+00
    -24.822 -0.8565E-31 -0.9902E-32
    -24.706 -0.8058E-27 -0.9317E-28
    -24.590 -0.3864E-23 -0.4468E-24
    -24.475 -0.9434E-20 -0.1091E-20
    -24.359 -0.1171E-16 -0.1355E-17
    -24.244 -0.7129E-14 -0.8255E-15
    -24.128 -0.2254E-11 -0.2614E-12
    -24.012 -0.3581E-09 -0.4166E-10
    -23.897 -0.2834E-07 -0.3318E-08
    -23.781 -0.1099E-05 -0.1304E-06
    -23.666 -0.2025E-04 -0.2471E-05
    -23.550 -0.1630E-03 -0.2132E-04
    -23.434 -0.4039E-03 -0.6801E-04
    -23.319  0.9917E-03  0.4664E-04
    -23.203  0.5702E-02  0.7059E-03
    -23.088  0.7556E-02  0.1579E-02
    -22.972  0.2668E-02  0.1888E-02
    -22.856  0.1326E-02  0.2041E-02
    -22.741  0.1050E-01  0.3255E-02
    -22.625  0.2318E-01  0.5935E-02
    -22.510  0.3256E-01  0.9699E-02
    -22.394  0.3387E-01  0.1361E-01
    -22.278  0.2604E-01  0.1662E-01
    -22.163  0.2386E-01  0.1938E-01
    -22.047  0.4362E-01  0.2443E-01
    -21.931  0.6123E-01  0.3150E-01
    -21.816  0.3717E-01  0.3580E-01
    -21.700  0.3327E-02  0.3619E-01
    -21.585 -0.4884E-02  0.3562E-01
    -21.469  0.1613E-01  0.3749E-01
    -21.353  0.5726E-01  0.4411E-01
    -21.238  0.6382E-01  0.5148E-01
    -21.122  0.2538E-01  0.5442E-01
    -21.007 -0.4555E-03  0.5437E-01
    -20.891 -0.2532E-02  0.5407E-01
    -20.775 -0.5765E-03  0.5401E-01
    -20.660 -0.5273E-04  0.5400E-01
    -20.544 -0.2267E-05  0.5400E-01
    -20.429 -0.4804E-07  0.5400E-01
    -20.313 -0.5117E-09  0.5400E-01
    -20.197 -0.2765E-11  0.5400E-01
    -20.082 -0.7610E-14  0.5400E-01
    -19.966 -0.1152E-16  0.5400E-01
    -19.851  0.0000E+00  0.5400E-01
    -19.735  0.0000E+00  0.5400E-01
    -19.619  0.0000E+00  0.5400E-01
    -19.504  0.0000E+00  0.5400E-01
    -19.388  0.0000E+00  0.5400E-01
    -19.272  0.0000E+00  0.5400E-01
    -19.157  0.0000E+00  0.5400E-01
    -19.041  0.0000E+00  0.5400E-01
    -18.926  0.0000E+00  0.5400E-01
    -18.810  0.0000E+00  0.5400E-01
    -18.694  0.0000E+00  0.5400E-01
    -18.579  0.0000E+00  0.5400E-01
    -18.463  0.0000E+00  0.5400E-01
    -18.348  0.0000E+00  0.5400E-01
    -18.232  0.0000E+00  0.5400E-01
    -18.116  0.0000E+00  0.5400E-01
    -18.001  0.0000E+00  0.5400E-01
    -17.885  0.0000E+00  0.5400E-01
    -17.770  0.0000E+00  0.5400E-01
    -17.654  0.0000E+00  0.5400E-01
    -17.538  0.0000E+00  0.5400E-01
    -17.423  0.0000E+00  0.5400E-01
    -17.307  0.0000E+00  0.5400E-01
    -17.192  0.0000E+00  0.5400E-01
    -17.076  0.0000E+00  0.5400E-01
    -16.960  0.0000E+00  0.5400E-01
    -16.845  0.0000E+00  0.5400E-01
    -16.729  0.0000E+00  0.5400E-01
    -16.613  0.0000E+00  0.5400E-01
    -16.498  0.0000E+00  0.5400E-01
    -16.382  0.0000E+00  0.5400E-01
    -16.267  0.0000E+00  0.5400E-01
    -16.151  0.0000E+00  0.5400E-01
    -16.035  0.0000E+00  0.5400E-01
    -15.920  0.0000E+00  0.5400E-01
    -15.804  0.0000E+00  0.5400E-01
    -15.689  0.0000E+00  0.5400E-01
    -15.573  0.0000E+00  0.5400E-01
    -15.457  0.0000E+00  0.5400E-01
    -15.342  0.0000E+00  0.5400E-01
    -15.226  0.0000E+00  0.5400E-01
    -15.111  0.0000E+00  0.5400E-01
    -14.995  0.0000E+00  0.5400E-01
    -14.879  0.0000E+00  0.5400E-01
    -14.764  0.0000E+00  0.5400E-01
    -14.648  0.0000E+00  0.5400E-01
    -14.533  0.0000E+00  0.5400E-01
    -14.417 -0.1472E-32  0.5400E-01
    -14.301 -0.1862E-28  0.5400E-01
    -14.186 -0.1192E-24  0.5400E-01
    -14.070 -0.3897E-21  0.5400E-01
    -13.954 -0.6498E-18  0.5400E-01
    -13.839 -0.5354E-15  0.5400E-01
    -13.723 -0.2305E-12  0.5400E-01
    -13.608 -0.5039E-10  0.5400E-01
    -13.492 -0.5579E-08  0.5400E-01
    -13.376 -0.3108E-06  0.5400E-01
    -13.261 -0.8598E-05  0.5400E-01
    -13.145 -0.1142E-03  0.5399E-01
    -13.030 -0.6624E-03  0.5391E-01
    -12.914 -0.1006E-02  0.5379E-01
    -12.798  0.4069E-02  0.5426E-01
    -12.683  0.1741E-01  0.5628E-01
    -12.567  0.3187E-01  0.5996E-01
    -12.452  0.4318E-01  0.6495E-01
    -12.336  0.3998E-01  0.6957E-01
    -12.220  0.2488E-01  0.7245E-01
    -12.105  0.1225E-01  0.7387E-01
    -11.989  0.2595E-02  0.7417E-01
    -11.874 -0.8878E-03  0.7407E-01
    -11.758 -0.4875E-03  0.7401E-01
    -11.642 -0.7495E-04  0.7400E-01
    -11.527 -0.4936E-05  0.7400E-01
    -11.411 -0.1530E-06  0.7400E-01
    -11.295 -0.3333E-08  0.7400E-01
    -11.180 -0.6884E-07  0.7400E-01
    -11.064 -0.2266E-05  0.7400E-01
    -10.949 -0.3500E-04  0.7400E-01
    -10.833 -0.2279E-03  0.7397E-01
    -10.717 -0.3485E-03  0.7393E-01
    -10.602  0.1803E-02  0.7414E-01
    -10.486  0.6577E-02  0.7490E-01
    -10.371  0.6995E-02  0.7571E-01
    -10.255  0.4217E-02  0.7619E-01
    -10.139  0.6355E-02  0.7693E-01
    -10.024  0.6811E-02  0.7772E-01
     -9.908  0.2518E-02  0.7801E-01
     -9.793  0.2840E-02  0.7834E-01
     -9.677  0.6814E-02  0.7912E-01
     -9.561  0.1044E-01  0.8033E-01
     -9.446  0.1869E-01  0.8249E-01
     -9.330  0.2088E-01  0.8491E-01
     -9.215  0.1248E-01  0.8635E-01
     -9.099  0.1073E-01  0.8759E-01
     -8.983  0.1274E-01  0.8906E-01
     -8.868  0.7680E-02  0.8995E-01
     -8.752  0.1264E-02  0.9010E-01
     -8.636 -0.5494E-03  0.9003E-01
     -8.521 -0.2413E-03  0.9000E-01
     -8.405 -0.3350E-04  0.9000E-01
     -8.290 -0.2055E-05  0.9000E-01
     -8.174 -0.6012E-07  0.9000E-01
     -8.058 -0.8635E-09  0.9000E-01
     -7.943 -0.6179E-11  0.9000E-01
     -7.827 -0.2221E-13  0.9000E-01
     -7.712 -0.4225E-16  0.9000E-01
     -7.596  0.0000E+00  0.9000E-01
     -7.480  0.0000E+00  0.9000E-01
     -7.365  0.0000E+00  0.9000E-01
     -7.249  0.0000E+00  0.9000E-01
     -7.134  0.0000E+00  0.9000E-01
     -7.018  0.0000E+00  0.9000E-01
     -6.902  0.0000E+00  0.9000E-01
     -6.787  0.0000E+00  0.9000E-01
     -6.671  0.0000E+00  0.9000E-01
     -6.556  0.0000E+00  0.9000E-01
     -6.440  0.0000E+00  0.9000E-01
     -6.324  0.0000E+00  0.9000E-01
     -6.209  0.0000E+00  0.9000E-01
     -6.093  0.0000E+00  0.9000E-01
     -5.977  0.0000E+00  0.9000E-01
     -5.862  0.0000E+00  0.9000E-01
     -5.746  0.0000E+00  0.9000E-01
     -5.631  0.0000E+00  0.9000E-01
     -5.515  0.0000E+00  0.9000E-01
     -5.399  0.0000E+00  0.9000E-01
     -5.284 -0.3143E-32  0.9000E-01
     -5.168 -0.3728E-28  0.9000E-01
     -5.053 -0.2255E-24  0.9000E-01
     -4.937 -0.6946E-21  0.9000E-01
     -4.821 -0.1089E-17  0.9000E-01
     -4.706 -0.8386E-15  0.9000E-01
     -4.590 -0.3358E-12  0.9000E-01
     -4.475 -0.6766E-10  0.9000E-01
     -4.359 -0.6814E-08  0.9000E-01
     -4.243 -0.3387E-06  0.9000E-01
     -4.128 -0.8105E-05  0.9000E-01
     -4.012 -0.8817E-04  0.8999E-01
     -3.897 -0.3597E-03  0.8995E-01
     -3.781  0.1231E-03  0.8996E-01
     -3.665  0.3901E-02  0.9041E-01
     -3.550  0.7805E-02  0.9131E-01
     -3.434  0.5072E-02  0.9190E-01
     -3.318  0.2181E-02  0.9215E-01
     -3.203  0.5861E-02  0.9283E-01
     -3.087  0.7550E-02  0.9370E-01
     -2.972  0.3066E-02  0.9406E-01
     -2.856 -0.1231E-03  0.9404E-01
     -2.740 -0.3127E-03  0.9401E-01
     -2.625 -0.6346E-04  0.9400E-01
     -2.509 -0.5099E-05  0.9400E-01
     -2.394 -0.1899E-06  0.9400E-01
     -2.278 -0.7811E-07  0.9400E-01
     -2.162 -0.2453E-05  0.9400E-01
     -2.047 -0.3834E-04  0.9400E-01
     -1.931 -0.2655E-03  0.9396E-01
     -1.816 -0.5973E-03  0.9390E-01
     -1.700  0.1168E-02  0.9403E-01
     -1.584  0.7876E-02  0.9494E-01
     -1.469  0.1640E-01  0.9684E-01
     -1.353  0.1991E-01  0.9914E-01
     -1.238  0.1556E-01  0.1009E+00
     -1.122  0.8303E-02  0.1019E+00
     -1.006  0.8231E-02  0.1029E+00
     -0.891  0.1377E-01  0.1044E+00
     -0.775  0.1090E-01  0.1057E+00
     -0.659  0.4680E-02  0.1062E+00
     -0.544  0.6705E-02  0.1070E+00
     -0.428  0.1075E-01  0.1083E+00
     -0.313  0.1198E-01  0.1096E+00
     -0.197  0.1439E-01  0.1113E+00
     -0.081  0.1892E-01  0.1135E+00
      0.034  0.2025E-01  0.1158E+00
      0.150  0.1886E-01  0.1180E+00
      0.265  0.1964E-01  0.1203E+00
      0.381  0.2545E-01  0.1232E+00
      0.497  0.2645E-01  0.1263E+00
      0.612  0.1658E-01  0.1282E+00
      0.728  0.1314E-01  0.1297E+00
      0.843  0.1456E-01  0.1314E+00
      0.959  0.1540E-01  0.1332E+00
      1.075  0.1995E-01  0.1355E+00
      1.190  0.1661E-01  0.1374E+00
      1.306  0.5937E-02  0.1381E+00
      1.421 -0.7304E-04  0.1381E+00
      1.537 -0.6296E-03  0.1380E+00
      1.653 -0.1628E-03  0.1380E+00
      1.768 -0.1699E-04  0.1380E+00
      1.884 -0.8267E-06  0.1380E+00
      2.000 -0.1958E-07  0.1380E+00
      2.115 -0.2331E-09  0.1380E+00
      2.231 -0.5131E-09  0.1380E+00
      2.346 -0.3838E-07  0.1380E+00
      2.462 -0.1409E-05  0.1380E+00
      2.578 -0.2447E-04  0.1380E+00
      2.693 -0.1837E-03  0.1380E+00
      2.809 -0.3948E-03  0.1379E+00
      2.924  0.1255E-02  0.1381E+00
      3.040  0.6124E-02  0.1388E+00
      3.156  0.7769E-02  0.1397E+00
      3.271  0.3236E-02  0.1401E+00
      3.387 -0.8379E-04  0.1400E+00
      3.502 -0.3219E-03  0.1400E+00
      3.618 -0.6756E-04  0.1400E+00
      3.734 -0.6419E-05  0.1400E+00
      3.849 -0.1694E-04  0.1400E+00
      3.965 -0.1441E-03  0.1400E+00
      4.080 -0.4045E-03  0.1399E+00
      4.196  0.7628E-03  0.1400E+00
      4.312  0.5365E-02  0.1406E+00
      4.427  0.8018E-02  0.1416E+00
      4.543  0.4026E-02  0.1420E+00
      4.659  0.1525E-03  0.1421E+00
      4.774 -0.4448E-03  0.1420E+00
      4.890 -0.5153E-03  0.1419E+00
      5.005 -0.4208E-03  0.1419E+00
      5.121  0.3533E-02  0.1423E+00
      5.237  0.1170E-01  0.1437E+00
      5.352  0.1359E-01  0.1452E+00
      5.468  0.7762E-02  0.1461E+00
      5.583  0.6616E-02  0.1469E+00
      5.699  0.9398E-02  0.1480E+00
      5.815  0.9880E-02  0.1491E+00
      5.930  0.8923E-02  0.1501E+00
      6.046  0.8587E-02  0.1511E+00
      6.161  0.5776E-02  0.1518E+00
      6.277  0.1788E-02  0.1520E+00
      6.393  0.5463E-02  0.1526E+00
      6.508  0.1295E-01  0.1541E+00
      6.624  0.1306E-01  0.1557E+00
      6.739  0.1013E-01  0.1568E+00
      6.855  0.1270E-01  0.1583E+00
      6.971  0.1660E-01  0.1602E+00
      7.086  0.1207E-01  0.1616E+00
      7.202  0.3780E-02  0.1620E+00
      7.318  0.7433E-02  0.1629E+00
      7.433  0.1853E-01  0.1650E+00
      7.549  0.1853E-01  0.1672E+00
      7.664  0.7684E-02  0.1681E+00
      7.780  0.2870E-03  0.1681E+00
      7.896 -0.7183E-03  0.1680E+00
      8.011 -0.2058E-03  0.1680E+00
      8.127 -0.2282E-04  0.1680E+00
      8.242 -0.1174E-05  0.1680E+00
      8.358 -0.2941E-07  0.1680E+00
      8.474 -0.3658E-09  0.1680E+00
      8.589 -0.2282E-11  0.1680E+00
      8.705 -0.7179E-14  0.1680E+00
      8.820 -0.1152E-16  0.1680E+00
      8.936  0.0000E+00  0.1680E+00
      9.052  0.0000E+00  0.1680E+00
      9.167  0.0000E+00  0.1680E+00
      9.283  0.0000E+00  0.1680E+00
      9.398  0.0000E+00  0.1680E+00
      9.514  0.0000E+00  0.1680E+00
