  19  19   0   0
  0.2504161E+02  0.6834254E-09  0.8835925E-09  0.7880486E-09  0.0000000E+00
   1.0000000000000000E-004
  CAR 
 NEB_bottleneck                          
      9.78245083    -24.06572986  301      1.04985939      1.00000000
    -24.066  0.0000E+00  0.0000E+00
    -23.953  0.0000E+00  0.0000E+00
    -23.840  0.0000E+00  0.0000E+00
    -23.727 -0.6837E-31 -0.7714E-32
    -23.614 -0.5581E-27 -0.6297E-28
    -23.502 -0.2386E-23 -0.2693E-24
    -23.389 -0.5373E-20 -0.6065E-21
    -23.276 -0.6365E-17 -0.7187E-18
    -23.163 -0.3833E-14 -0.4332E-15
    -23.050 -0.1242E-11 -0.1406E-12
    -22.937 -0.2100E-09 -0.2384E-10
    -22.825 -0.1842E-07 -0.2102E-08
    -22.712 -0.8289E-06 -0.9563E-07
    -22.599 -0.1876E-04 -0.2212E-05
    -22.486 -0.2034E-03 -0.2516E-04
    -22.373 -0.9110E-03 -0.1279E-03
    -22.260 -0.3707E-03 -0.1698E-03
    -22.148  0.8140E-02  0.7487E-03
    -22.035  0.2086E-01  0.3102E-02
    -21.922  0.1903E-01  0.5249E-02
    -21.809  0.1110E-01  0.6501E-02
    -21.696  0.1705E-01  0.8426E-02
    -21.584  0.4741E-01  0.1377E-01
    -21.471  0.1126E+00  0.2648E-01
    -21.358  0.1449E+00  0.4283E-01
    -21.245  0.8879E-01  0.5285E-01
    -21.132  0.1876E-01  0.5496E-01
    -21.019 -0.4783E-02  0.5442E-01
    -20.907 -0.3119E-02  0.5407E-01
    -20.794 -0.5848E-03  0.5401E-01
    -20.681 -0.5044E-04  0.5400E-01
    -20.568 -0.2177E-05  0.5400E-01
    -20.455 -0.4837E-07  0.5400E-01
    -20.342 -0.5600E-09  0.5400E-01
    -20.230 -0.3400E-11  0.5400E-01
    -20.117 -0.1087E-13  0.5400E-01
    -20.004 -0.1574E-16  0.5400E-01
    -19.891  0.0000E+00  0.5400E-01
    -19.778  0.0000E+00  0.5400E-01
    -19.665  0.0000E+00  0.5400E-01
    -19.553  0.0000E+00  0.5400E-01
    -19.440  0.0000E+00  0.5400E-01
    -19.327  0.0000E+00  0.5400E-01
    -19.214  0.0000E+00  0.5400E-01
    -19.101  0.0000E+00  0.5400E-01
    -18.989  0.0000E+00  0.5400E-01
    -18.876  0.0000E+00  0.5400E-01
    -18.763  0.0000E+00  0.5400E-01
    -18.650  0.0000E+00  0.5400E-01
    -18.537  0.0000E+00  0.5400E-01
    -18.424  0.0000E+00  0.5400E-01
    -18.312  0.0000E+00  0.5400E-01
    -18.199  0.0000E+00  0.5400E-01
    -18.086  0.0000E+00  0.5400E-01
    -17.973  0.0000E+00  0.5400E-01
    -17.860  0.0000E+00  0.5400E-01
    -17.747  0.0000E+00  0.5400E-01
    -17.635  0.0000E+00  0.5400E-01
    -17.522  0.0000E+00  0.5400E-01
    -17.409  0.0000E+00  0.5400E-01
    -17.296  0.0000E+00  0.5400E-01
    -17.183  0.0000E+00  0.5400E-01
    -17.070  0.0000E+00  0.5400E-01
    -16.958  0.0000E+00  0.5400E-01
    -16.845  0.0000E+00  0.5400E-01
    -16.732  0.0000E+00  0.5400E-01
    -16.619  0.0000E+00  0.5400E-01
    -16.506  0.0000E+00  0.5400E-01
    -16.393  0.0000E+00  0.5400E-01
    -16.281  0.0000E+00  0.5400E-01
    -16.168  0.0000E+00  0.5400E-01
    -16.055  0.0000E+00  0.5400E-01
    -15.942  0.0000E+00  0.5400E-01
    -15.829  0.0000E+00  0.5400E-01
    -15.717  0.0000E+00  0.5400E-01
    -15.604  0.0000E+00  0.5400E-01
    -15.491  0.0000E+00  0.5400E-01
    -15.378  0.0000E+00  0.5400E-01
    -15.265  0.0000E+00  0.5400E-01
    -15.152  0.0000E+00  0.5400E-01
    -15.040  0.0000E+00  0.5400E-01
    -14.927  0.0000E+00  0.5400E-01
    -14.814  0.0000E+00  0.5400E-01
    -14.701  0.0000E+00  0.5400E-01
    -14.588  0.0000E+00  0.5400E-01
    -14.475  0.0000E+00  0.5400E-01
    -14.363  0.0000E+00  0.5400E-01
    -14.250 -0.1245E-29  0.5400E-01
    -14.137 -0.7957E-26  0.5400E-01
    -14.024 -0.2683E-22  0.5400E-01
    -13.911 -0.4771E-19  0.5400E-01
    -13.798 -0.4376E-16  0.5400E-01
    -13.686 -0.2135E-13  0.5400E-01
    -13.573 -0.5511E-11  0.5400E-01
    -13.460 -0.7457E-09  0.5400E-01
    -13.347 -0.5262E-07  0.5400E-01
    -13.234 -0.1918E-05  0.5400E-01
    -13.121 -0.3533E-04  0.5400E-01
    -13.009 -0.3127E-03  0.5396E-01
    -12.896 -0.1126E-02  0.5383E-01
    -12.783 -0.1700E-04  0.5383E-01
    -12.670  0.9554E-02  0.5491E-01
    -12.557  0.2571E-01  0.5781E-01
    -12.445  0.3877E-01  0.6218E-01
    -12.332  0.4301E-01  0.6704E-01
    -12.219  0.3396E-01  0.7087E-01
    -12.106  0.2032E-01  0.7316E-01
    -11.993  0.8222E-02  0.7409E-01
    -11.880  0.4745E-03  0.7414E-01
    -11.768 -0.9267E-03  0.7404E-01
    -11.655 -0.3019E-03  0.7400E-01
    -11.542 -0.3717E-04  0.7400E-01
    -11.429 -0.2131E-05  0.7400E-01
    -11.316 -0.6056E-07  0.7400E-01
    -11.203 -0.9837E-09  0.7400E-01
    -11.091 -0.9195E-08  0.7400E-01
    -10.978 -0.4003E-06  0.7400E-01
    -10.865 -0.8677E-05  0.7400E-01
    -10.752 -0.8860E-04  0.7399E-01
    -10.639 -0.3582E-03  0.7395E-01
    -10.526  0.2016E-05  0.7395E-01
    -10.414  0.3330E-02  0.7432E-01
    -10.301  0.7526E-02  0.7517E-01
    -10.188  0.7831E-02  0.7606E-01
    -10.075  0.7917E-02  0.7695E-01
     -9.962  0.7032E-02  0.7774E-01
     -9.849  0.2149E-02  0.7799E-01
     -9.737 -0.6848E-03  0.7791E-01
     -9.624  0.3138E-02  0.7826E-01
     -9.511  0.1397E-01  0.7984E-01
     -9.398  0.2587E-01  0.8276E-01
     -9.285  0.2811E-01  0.8593E-01
     -9.173  0.2099E-01  0.8830E-01
     -9.060  0.1211E-01  0.8966E-01
     -8.947  0.3905E-02  0.9011E-01
     -8.834 -0.2504E-03  0.9008E-01
     -8.721 -0.5342E-03  0.9002E-01
     -8.608 -0.1336E-03  0.9000E-01
     -8.496 -0.1401E-04  0.9000E-01
     -8.383 -0.7051E-06  0.9000E-01
     -8.270 -0.1781E-07  0.9000E-01
     -8.157 -0.2302E-09  0.9000E-01
     -8.044 -0.1538E-11  0.9000E-01
     -7.931 -0.5345E-14  0.9000E-01
     -7.819 -0.1181E-16  0.9000E-01
     -7.706  0.0000E+00  0.9000E-01
     -7.593  0.0000E+00  0.9000E-01
     -7.480  0.0000E+00  0.9000E-01
     -7.367  0.0000E+00  0.9000E-01
     -7.254  0.0000E+00  0.9000E-01
     -7.142  0.0000E+00  0.9000E-01
     -7.029  0.0000E+00  0.9000E-01
     -6.916  0.0000E+00  0.9000E-01
     -6.803  0.0000E+00  0.9000E-01
     -6.690  0.0000E+00  0.9000E-01
     -6.578  0.0000E+00  0.9000E-01
     -6.465  0.0000E+00  0.9000E-01
     -6.352  0.0000E+00  0.9000E-01
     -6.239  0.0000E+00  0.9000E-01
     -6.126  0.0000E+00  0.9000E-01
     -6.013  0.0000E+00  0.9000E-01
     -5.901  0.0000E+00  0.9000E-01
     -5.788  0.0000E+00  0.9000E-01
     -5.675  0.0000E+00  0.9000E-01
     -5.562  0.0000E+00  0.9000E-01
     -5.449  0.0000E+00  0.9000E-01
     -5.336  0.0000E+00  0.9000E-01
     -5.224  0.0000E+00  0.9000E-01
     -5.111 -0.2584E-32  0.9000E-01
     -4.998 -0.2502E-28  0.9000E-01
     -4.885 -0.1276E-24  0.9000E-01
     -4.772 -0.3421E-21  0.9000E-01
     -4.659 -0.4819E-18  0.9000E-01
     -4.547 -0.3454E-15  0.9000E-01
     -4.434 -0.1326E-12  0.9000E-01
     -4.321 -0.2652E-10  0.9000E-01
     -4.208 -0.2743E-08  0.9000E-01
     -4.095 -0.1453E-06  0.9000E-01
     -3.982 -0.3861E-05  0.9000E-01
     -3.870 -0.4937E-04  0.8999E-01
     -3.757 -0.2693E-03  0.8996E-01
     -3.644 -0.2921E-03  0.8993E-01
     -3.531  0.2124E-02  0.9017E-01
     -3.418  0.6733E-02  0.9093E-01
     -3.306  0.7084E-02  0.9173E-01
     -3.193  0.5254E-02  0.9232E-01
     -3.080  0.7259E-02  0.9314E-01
     -2.967  0.6445E-02  0.9387E-01
     -2.854  0.1798E-02  0.9407E-01
     -2.741 -0.3402E-03  0.9403E-01
     -2.629 -0.2446E-03  0.9401E-01
     -2.516 -0.4155E-04  0.9400E-01
     -2.403 -0.3060E-05  0.9400E-01
     -2.290 -0.1219E-06  0.9400E-01
     -2.177 -0.5356E-06  0.9400E-01
     -2.064 -0.1089E-04  0.9400E-01
     -1.952 -0.1042E-03  0.9399E-01
     -1.839 -0.3876E-03  0.9394E-01
     -1.726  0.6152E-04  0.9395E-01
     -1.613  0.3370E-02  0.9433E-01
     -1.500  0.7386E-02  0.9516E-01
     -1.387  0.1055E-01  0.9635E-01
     -1.275  0.1776E-01  0.9836E-01
     -1.162  0.2023E-01  0.1006E+00
     -1.049  0.1112E-01  0.1019E+00
     -0.936  0.6510E-02  0.1026E+00
     -0.823  0.1210E-01  0.1040E+00
     -0.710  0.1265E-01  0.1054E+00
     -0.598  0.4663E-02  0.1059E+00
     -0.485  0.9409E-03  0.1061E+00
     -0.372  0.7724E-02  0.1069E+00
     -0.259  0.1893E-01  0.1091E+00
     -0.146  0.2612E-01  0.1120E+00
     -0.034  0.2592E-01  0.1149E+00
      0.079  0.2086E-01  0.1173E+00
      0.192  0.1831E-01  0.1194E+00
      0.305  0.2101E-01  0.1217E+00
      0.418  0.2324E-01  0.1243E+00
      0.531  0.2162E-01  0.1268E+00
      0.643  0.1889E-01  0.1289E+00
      0.756  0.1951E-01  0.1311E+00
      0.869  0.2248E-01  0.1337E+00
      0.982  0.2065E-01  0.1360E+00
      1.095  0.1326E-01  0.1375E+00
      1.208  0.5114E-02  0.1381E+00
      1.320  0.2807E-03  0.1381E+00
      1.433 -0.5575E-03  0.1380E+00
      1.546 -0.1876E-03  0.1380E+00
      1.659 -0.2416E-04  0.1380E+00
      1.772 -0.1453E-05  0.1380E+00
      1.885 -0.4328E-07  0.1380E+00
      1.997 -0.6547E-09  0.1380E+00
      2.110 -0.5099E-11  0.1380E+00
      2.223 -0.3798E-12  0.1380E+00
      2.336 -0.6387E-10  0.1380E+00
      2.449 -0.5866E-08  0.1380E+00
      2.562 -0.2751E-06  0.1380E+00
      2.674 -0.6441E-05  0.1380E+00
      2.787 -0.7163E-04  0.1380E+00
      2.900 -0.3245E-03  0.1380E+00
      3.013 -0.1120E-03  0.1379E+00
      3.126  0.3025E-02  0.1383E+00
      3.238  0.7624E-02  0.1391E+00
      3.351  0.6544E-02  0.1399E+00
      3.464  0.1676E-02  0.1401E+00
      3.577 -0.3568E-03  0.1400E+00
      3.690 -0.2310E-03  0.1400E+00
      3.803 -0.3767E-04  0.1400E+00
      3.915 -0.3146E-05  0.1400E+00
      4.028 -0.9831E-05  0.1400E+00
      4.141 -0.9597E-04  0.1400E+00
      4.254 -0.3663E-03  0.1399E+00
      4.367  0.1144E-03  0.1400E+00
      4.480  0.3790E-02  0.1404E+00
      4.592  0.7945E-02  0.1413E+00
      4.705  0.5840E-02  0.1419E+00
      4.818  0.1102E-02  0.1421E+00
      4.931 -0.5690E-03  0.1420E+00
      5.044 -0.6475E-03  0.1419E+00
      5.157  0.5535E-03  0.1420E+00
      5.269  0.5163E-02  0.1426E+00
      5.382  0.1034E-01  0.1437E+00
      5.495  0.1103E-01  0.1450E+00
      5.608  0.6742E-02  0.1457E+00
      5.721  0.4139E-02  0.1462E+00
      5.833  0.9972E-02  0.1473E+00
      5.946  0.1446E-01  0.1490E+00
      6.059  0.1220E-01  0.1503E+00
      6.172  0.1344E-01  0.1519E+00
      6.285  0.1347E-01  0.1534E+00
      6.398  0.5719E-02  0.1540E+00
      6.510 -0.3038E-03  0.1540E+00
      6.623  0.1063E-02  0.1541E+00
      6.736  0.7407E-02  0.1549E+00
      6.849  0.1424E-01  0.1566E+00
      6.962  0.1992E-01  0.1588E+00
      7.075  0.1912E-01  0.1610E+00
      7.187  0.8926E-02  0.1620E+00
      7.300  0.3972E-02  0.1624E+00
      7.413  0.1007E-01  0.1636E+00
      7.526  0.1330E-01  0.1651E+00
      7.639  0.8820E-02  0.1660E+00
      7.752  0.7021E-02  0.1668E+00
      7.864  0.7310E-02  0.1677E+00
      7.977  0.3402E-02  0.1680E+00
      8.090  0.3166E-04  0.1681E+00
      8.203 -0.3615E-03  0.1680E+00
      8.316 -0.9111E-04  0.1680E+00
      8.429 -0.9031E-05  0.1680E+00
      8.541 -0.4211E-06  0.1680E+00
      8.654 -0.9766E-08  0.1680E+00
      8.767 -0.1154E-09  0.1680E+00
      8.880 -0.7036E-12  0.1680E+00
      8.993 -0.2232E-14  0.1680E+00
      9.105 -0.3936E-17  0.1680E+00
      9.218  0.0000E+00  0.1680E+00
      9.331  0.0000E+00  0.1680E+00
      9.444  0.0000E+00  0.1680E+00
      9.557  0.0000E+00  0.1680E+00
      9.670  0.0000E+00  0.1680E+00
      9.782  0.0000E+00  0.1680E+00
