 vasp.6.3.2 27Jun22 (build Jun 14 2024 17:29:11) complex                         
 POSCAR found type information on POSCAR NaInS 
 02/POSCAR found :  3 types and      19 ions
 LDA part: xc-table for Pade appr. of Perdew
 POSCAR found type information on POSCAR NaInS 
 00/POSCAR found :  3 types and      19 ions
 POSCAR found type information on POSCAR NaInS 
 10/POSCAR found :  3 types and      19 ions
 POSCAR, INCAR and KPOINTS ok, starting setup
 FFT: planning ... GRIDC
 FFT: planning ... GRID_SOFT
 FFT: planning ... GRID
 WAVECAR not read
 entering main loop
       N       E                     dE             d eps       ncg     rms          rms(c)
DAV:   1     0.145548368877E+04    0.14555E+04   -0.62830E+04   168   0.166E+03
DAV:   2     0.167087299317E+03   -0.12884E+04   -0.12506E+04   168   0.457E+02
DAV:   3    -0.536538819334E+02   -0.22074E+03   -0.21657E+03   198   0.194E+02
DAV:   4    -0.699034313937E+02   -0.16250E+02   -0.16095E+02   192   0.486E+01
DAV:   5    -0.707017081883E+02   -0.79828E+00   -0.79575E+00   246   0.112E+01    0.140E+01
RMM:   6    -0.661742050326E+02    0.45275E+01   -0.82287E+00   189   0.718E+00    0.891E+00
RMM:   7    -0.659920675876E+02    0.18214E+00   -0.59779E+00   205   0.508E+00    0.667E+00
RMM:   8    -0.658355036737E+02    0.15656E+00   -0.75490E-01   216   0.268E+00    0.443E+00
RMM:   9    -0.660252866389E+02   -0.18978E+00   -0.71793E-01   202   0.227E+00    0.261E+00
RMM:  10    -0.658526648743E+02    0.17262E+00   -0.80795E-02   195   0.120E+00    0.148E+00
RMM:  11    -0.658182935981E+02    0.34371E-01   -0.57385E-02   192   0.657E-01    0.727E-01
RMM:  12    -0.658197081632E+02   -0.14146E-02   -0.33336E-02   228   0.465E-01    0.441E-01
RMM:  13    -0.658212762948E+02   -0.15681E-02   -0.47975E-03   205   0.232E-01    0.314E-01
RMM:  14    -0.658221914245E+02   -0.91513E-03   -0.25769E-03   182   0.167E-01    0.130E-01
RMM:  15    -0.658221291184E+02    0.62306E-04   -0.10230E-03   218   0.111E-01    0.753E-02
RMM:  16    -0.658222241955E+02   -0.95077E-04   -0.47948E-04   222   0.645E-02    0.305E-02
RMM:  17    -0.658222160076E+02    0.81879E-05   -0.83603E-05   221   0.307E-02    0.287E-02
RMM:  18    -0.658222162590E+02   -0.25143E-06   -0.16694E-05   176   0.130E-02    0.237E-02
RMM:  19    -0.658222154160E+02    0.84300E-06   -0.44757E-06   142   0.818E-03
   1 F= -.65822215E+02 E0= -.65820071E+02  d E =-.658222E+02
quench:  g(F)=  0.000E+00 g(S)=  0.000E+00 dE (1.order)= 0.000E+00
 bond charge predicted
       N       E                     dE             d eps       ncg     rms          rms(c)
DAV:   1    -0.658222162086E+02    0.50471E-07   -0.52150E-06   135   0.103E-02    0.109E-02
RMM:   2    -0.658222163642E+02   -0.15568E-06   -0.10099E-06    99   0.489E-03
   2 F= -.65822216E+02 E0= -.65820085E+02  d E =-.948208E-06
quench:  g(F)=  0.000E+00 g(S)=  0.000E+00 dE (1.order)= 0.000E+00
 bond charge predicted
       N       E                     dE             d eps       ncg     rms          rms(c)
DAV:   1    -0.658222165281E+02   -0.31953E-06   -0.25666E-06   129   0.423E-03    0.394E-03
RMM:   2    -0.658222171876E+02   -0.65953E-06   -0.80536E-07   106   0.286E-03
   3 F= -.65822217E+02 E0= -.65820083E+02  d E =-.823384E-06
quench:  g(F)=  0.000E+00 g(S)=  0.000E+00 dE (1.order)= 0.000E+00
 bond charge predicted
       N       E                     dE             d eps       ncg     rms          rms(c)
DAV:   1    -0.658222163069E+02    0.22115E-06   -0.64119E-06   120   0.400E-03    0.161E-03
RMM:   2    -0.658222163372E+02   -0.30273E-07   -0.36671E-07    91   0.198E-03
   4 F= -.65822216E+02 E0= -.65820082E+02  d E =0.850408E-06
quench:  g(F)=  0.000E+00 g(S)=  0.000E+00 dE (1.order)= 0.000E+00
 bond charge predicted
       N       E                     dE             d eps       ncg     rms          rms(c)
DAV:   1    -0.658222163326E+02   -0.25613E-07   -0.15556E-07   120   0.169E-03    0.120E-03
RMM:   2    -0.658222163378E+02   -0.52332E-08   -0.20390E-08    48   0.925E-04
   5 F= -.65822216E+02 E0= -.65820083E+02  d E =-.572982E-09
quench:  g(F)=  0.000E+00 g(S)=  0.000E+00 dE (1.order)= 0.000E+00
 bond charge predicted
       N       E                     dE             d eps       ncg     rms          rms(c)
DAV:   1    -0.658222163282E+02    0.43747E-08   -0.14497E-07   120   0.960E-04    0.715E-04
RMM:   2    -0.658222163262E+02    0.19772E-08   -0.24539E-09    27   0.626E-04
   6 F= -.65822216E+02 E0= -.65820083E+02  d E =0.115851E-07
quench:  g(F)=  0.000E+00 g(S)=  0.000E+00 dE (1.order)= 0.000E+00
 bond charge predicted
       N       E                     dE             d eps       ncg     rms          rms(c)
DAV:   1    -0.658222163227E+02    0.54952E-08   -0.59485E-08   111   0.648E-04    0.458E-04
RMM:   2    -0.658222163245E+02   -0.18008E-08    0.38055-206    11   0.362E-04
   7 F= -.65822216E+02 E0= -.65820083E+02  d E =0.171713E-08
quench:  g(F)=  0.000E+00 g(S)=  0.000E+00 dE (1.order)= 0.000E+00
 bond charge predicted
       N       E                     dE             d eps       ncg     rms          rms(c)
DAV:   1    -0.658222163235E+02   -0.81491E-09   -0.23537E-08   120   0.398E-04    0.261E-04
RMM:   2    -0.658222163214E+02    0.20846E-08    0.16686-142     9   0.238E-04
   8 F= -.65822216E+02 E0= -.65820083E+02  d E =0.307045E-08
quench:  g(F)=  0.000E+00 g(S)=  0.000E+00 dE (1.order)= 0.000E+00
 bond charge predicted
       N       E                     dE             d eps       ncg     rms          rms(c)
DAV:   1    -0.658222163203E+02    0.31614E-08   -0.86009E-09    93   0.252E-04    0.177E-04
RMM:   2    -0.658222163209E+02   -0.59481E-09    0.00000E+00     7   0.178E-04
   9 F= -.65822216E+02 E0= -.65820083E+02  d E =0.482032E-09
quench:  g(F)=  0.000E+00 g(S)=  0.000E+00 dE (1.order)= 0.000E+00
 bond charge predicted
       N       E                     dE             d eps       ncg     rms          rms(c)
DAV:   1    -0.658222163213E+02   -0.92041E-09   -0.32705E-09    93   0.187E-04    0.135E-04
RMM:   2    -0.658222163196E+02    0.16571E-08    0.00000E+00     7   0.128E-04
  10 F= -.65822216E+02 E0= -.65820083E+02  d E =0.133150E-08
quench:  g(F)=  0.000E+00 g(S)=  0.000E+00 dE (1.order)= 0.000E+00
 bond charge predicted
       N       E                     dE             d eps       ncg     rms          rms(c)
DAV:   1    -0.658222163187E+02    0.25502E-08   -0.18892E-09    93   0.138E-04    0.102E-04
RMM:   2    -0.658222163194E+02   -0.63847E-09    0.00000E+00     7   0.894E-05
  11 F= -.65822216E+02 E0= -.65820083E+02  d E =0.254659E-09
quench:  g(F)=  0.000E+00 g(S)=  0.000E+00 dE (1.order)= 0.000E+00
 bond charge predicted
       N       E                     dE             d eps       ncg     rms          rms(c)
DAV:   1    -0.658222163198E+02   -0.10459E-08   -0.96650E-10    93   0.957E-05    0.792E-05
RMM:   2    -0.658222163186E+02    0.11732E-08    0.00000E+00     6   0.645E-05
  12 F= -.65822216E+02 E0= -.65820083E+02  d E =0.765795E-09
quench:  g(F)=  0.000E+00 g(S)=  0.000E+00 dE (1.order)= 0.000E+00
 bond charge predicted
       N       E                     dE             d eps       ncg     rms          rms(c)
DAV:   1    -0.658222163187E+02    0.10514E-08   -0.64753E-10    93   0.708E-05    0.543E-05
RMM:   2    -0.658222163184E+02    0.34015E-09    0.00000E+00     6   0.494E-05
  13 F= -.65822216E+02 E0= -.65820083E+02  d E =0.218279E-09
quench:  g(F)=  0.000E+00 g(S)=  0.000E+00 dE (1.order)= 0.000E+00
 bond charge predicted
       N       E                     dE             d eps       ncg     rms          rms(c)
DAV:   1    -0.658222163177E+02    0.10241E-08   -0.24246E-10    93   0.524E-05    0.403E-05
RMM:   2    -0.658222163181E+02   -0.40563E-09    0.00000E+00     6   0.367E-05
  14 F= -.65822216E+02 E0= -.65820083E+02  d E =0.278305E-09
quench:  g(F)=  0.000E+00 g(S)=  0.000E+00 dE (1.order)= 0.000E+00
 bond charge predicted
       N       E                     dE             d eps       ncg     rms          rms(c)
DAV:   1    -0.658222163177E+02   -0.12733E-10   -0.88797E-11    93   0.406E-05    0.272E-05
RMM:   2    -0.658222163183E+02   -0.55661E-09    0.00000E+00     5   0.281E-05
  15 F= -.65822216E+02 E0= -.65820083E+02  d E =-.163709E-09
quench:  g(F)=  0.000E+00 g(S)=  0.000E+00 dE (1.order)= 0.000E+00
 bond charge predicted
       N       E                     dE             d eps       ncg     rms          rms(c)
DAV:   1    -0.658222163183E+02   -0.62755E-09    0.82456E-11    93   0.298E-05    0.193E-05
RMM:   2    -0.658222163180E+02    0.34015E-09    0.00000E+00     5   0.211E-05
  16 F= -.65822216E+02 E0= -.65820083E+02  d E =0.269210E-09
quench:  g(F)=  0.000E+00 g(S)=  0.000E+00 dE (1.order)= 0.000E+00
 bond charge predicted
       N       E                     dE             d eps       ncg     rms          rms(c)
DAV:   1    -0.658222163177E+02    0.62937E-09   -0.47926E-13    90   0.230E-05    0.135E-05
RMM:   2    -0.658222163179E+02   -0.22192E-09    0.00000E+00     4   0.164E-05
  17 F= -.65822216E+02 E0= -.65820083E+02  d E =0.673026E-10
quench:  g(F)=  0.000E+00 g(S)=  0.000E+00 dE (1.order)= 0.000E+00
 bond charge predicted
       N       E                     dE             d eps       ncg     rms          rms(c)
DAV:   1    -0.658222163186E+02   -0.95497E-09    0.20646E-11    93   0.173E-05    0.118E-05
RMM:   2    -0.658222163179E+02    0.79126E-09    0.00000E+00     3   0.128E-05
  18 F= -.65822216E+02 E0= -.65820083E+02  d E =0.582077E-10
quench:  g(F)=  0.000E+00 g(S)=  0.000E+00 dE (1.order)= 0.000E+00
 bond charge predicted
       N       E                     dE             d eps       ncg     rms          rms(c)
DAV:   1    -0.658222163180E+02    0.60209E-09   -0.93604E-11    87   0.141E-05    0.754E-06
RMM:   2    -0.658222163180E+02    0.90949E-10    0.00000E+00     2   0.977E-06
  19 F= -.65822216E+02 E0= -.65820083E+02  d E =-.982254E-10
quench:  g(F)=  0.000E+00 g(S)=  0.000E+00 dE (1.order)= 0.000E+00
 bond charge predicted
       N       E                     dE             d eps       ncg     rms          rms(c)
DAV:   1    -0.658222163179E+02    0.16007E-09    0.48111E-11    93   0.103E-05    0.569E-06
RMM:   2    -0.658222163178E+02    0.38199E-10    0.00000E+00     2   0.756E-06
  20 F= -.65822216E+02 E0= -.65820083E+02  d E =0.107320E-09
quench:  g(F)=  0.000E+00 g(S)=  0.000E+00 dE (1.order)= 0.000E+00
 bond charge predicted
       N       E                     dE             d eps       ncg     rms          rms(c)
DAV:   1    -0.658222163175E+02    0.36744E-09    0.36648E-11    93   0.811E-06    0.414E-06
RMM:   2    -0.658222163181E+02   -0.55297E-09    0.00000E+00     2   0.598E-06
  21 F= -.65822216E+02 E0= -.65820083E+02  d E =-.223736E-09
quench:  g(F)=  0.000E+00 g(S)=  0.000E+00 dE (1.order)= 0.000E+00
 bond charge predicted
       N       E                     dE             d eps       ncg     rms          rms(c)
DAV:   1    -0.658222163176E+02   -0.87311E-10   -0.87061E-11    93   0.634E-06    0.313E-06
RMM:   2    -0.658222163178E+02   -0.20191E-09    0.00000E+00     2   0.475E-06
  22 F= -.65822216E+02 E0= -.65820083E+02  d E =0.263753E-09
quench:  g(F)=  0.000E+00 g(S)=  0.000E+00 dE (1.order)= 0.000E+00
 bond charge predicted
       N       E                     dE             d eps       ncg     rms          rms(c)
DAV:   1    -0.658222163180E+02   -0.35288E-09    0.98326E-11    93   0.506E-06    0.236E-06
RMM:   2    -0.658222163178E+02    0.11460E-09    0.00000E+00     2   0.372E-06
  23 F= -.65822216E+02 E0= -.65820083E+02  d E =-.363798E-10
quench:  g(F)=  0.000E+00 g(S)=  0.000E+00 dE (1.order)= 0.000E+00
 bond charge predicted
       N       E                     dE             d eps       ncg     rms          rms(c)
DAV:   1    -0.658222163177E+02    0.27831E-09   -0.74356E-11    93   0.394E-06    0.195E-06
RMM:   2    -0.658222163177E+02   -0.43656E-10    0.00000E+00     2   0.295E-06
  24 F= -.65822216E+02 E0= -.65820083E+02  d E =0.120053E-09
quench:  g(F)=  0.000E+00 g(S)=  0.000E+00 dE (1.order)= 0.000E+00
 bond charge predicted
       N       E                     dE             d eps       ncg     rms          rms(c)
DAV:   1    -0.658222163182E+02   -0.50204E-09   -0.67075E-11    93   0.318E-06    0.141E-06
RMM:   2    -0.658222163177E+02    0.48021E-09    0.00000E+00     2   0.234E-06
  25 F= -.65822216E+02 E0= -.65820083E+02  d E =0.218279E-10
quench:  g(F)=  0.000E+00 g(S)=  0.000E+00 dE (1.order)= 0.000E+00
 bond charge predicted
       N       E                     dE             d eps       ncg     rms          rms(c)
DAV:   1    -0.658222163178E+02    0.38381E-09   -0.79717E-11    93   0.248E-06    0.112E-06
RMM:   2    -0.658222163179E+02   -0.10732E-09    0.00000E+00     2   0.186E-06
  26 F= -.65822216E+02 E0= -.65820083E+02  d E =-.203727E-09
quench:  g(F)=  0.000E+00 g(S)=  0.000E+00 dE (1.order)= 0.000E+00
 bond charge predicted
       N       E                     dE             d eps       ncg     rms          rms(c)
DAV:   1    -0.658222163178E+02    0.12733E-10   -0.19925E-11    93   0.199E-06    0.850E-07
RMM:   2    -0.658222163178E+02   -0.18190E-10    0.00000E+00     2   0.148E-06
  27 F= -.65822216E+02 E0= -.65820083E+02  d E =0.101863E-09
quench:  g(F)=  0.000E+00 g(S)=  0.000E+00 dE (1.order)= 0.000E+00
 bond charge predicted
       N       E                     dE             d eps       ncg     rms          rms(c)
DAV:   1    -0.658222163177E+02    0.52751E-10   -0.14033E-10    93   0.157E-06    0.639E-07
RMM:   2    -0.658222163178E+02   -0.11096E-09    0.00000E+00     2   0.118E-06
  28 F= -.65822216E+02 E0= -.65820083E+02  d E =-.400178E-10
quench:  g(F)=  0.000E+00 g(S)=  0.000E+00 dE (1.order)= 0.000E+00
 bond charge predicted
       N       E                     dE             d eps       ncg     rms          rms(c)
DAV:   1    -0.658222163179E+02   -0.13097E-09   -0.31119E-11    93   0.126E-06    0.509E-07
RMM:   2    -0.658222163178E+02    0.30923E-10    0.00000E+00     2   0.948E-07
  29 F= -.65822216E+02 E0= -.65820083E+02  d E =0.109139E-10
quench:  g(F)=  0.000E+00 g(S)=  0.000E+00 dE (1.order)= 0.000E+00
 bond charge predicted
       N       E                     dE             d eps       ncg     rms          rms(c)
DAV:   1    -0.658222163181E+02   -0.24738E-09   -0.96757E-11    93   0.101E-06    0.403E-07
RMM:   2    -0.658222163179E+02    0.23101E-09    0.00000E+00     2   0.766E-07
  30 F= -.65822216E+02 E0= -.65820083E+02  d E =-.472937E-10
quench:  g(F)=  0.000E+00 g(S)=  0.000E+00 dE (1.order)= 0.000E+00
 bond charge predicted
       N       E                     dE             d eps       ncg     rms          rms(c)
DAV:   1    -0.658222163172E+02    0.94769E-09   -0.45159E-11    93   0.821E-07    0.311E-07
RMM:   2    -0.658222163178E+02   -0.68030E-09    0.00000E+00     2   0.608E-07
  31 F= -.65822216E+02 E0= -.65820083E+02  d E =0.363798E-10
quench:  g(F)=  0.000E+00 g(S)=  0.000E+00 dE (1.order)= 0.000E+00
 bond charge predicted
       N       E                     dE             d eps       ncg     rms          rms(c)
DAV:   1    -0.658222163175E+02   -0.33833E-09   -0.11040E-10    93   0.650E-07    0.269E-07
RMM:   2    -0.658222163178E+02   -0.26739E-09    0.00000E+00     2   0.494E-07
  32 F= -.65822216E+02 E0= -.65820083E+02  d E =0.745786E-10
quench:  g(F)=  0.000E+00 g(S)=  0.000E+00 dE (1.order)= 0.000E+00
 bond charge predicted
       N       E                     dE             d eps       ncg     rms          rms(c)
DAV:   1    -0.658222163180E+02   -0.53478E-09   -0.14172E-11    93   0.531E-07    0.195E-07
RMM:   2    -0.658222163177E+02    0.34925E-09    0.00000E+00     2   0.391E-07
  33 F= -.65822216E+02 E0= -.65820083E+02  d E =0.818545E-10
quench:  g(F)=  0.000E+00 g(S)=  0.000E+00 dE (1.order)= 0.000E+00
 bond charge predicted
       N       E                     dE             d eps       ncg     rms          rms(c)
DAV:   1    -0.658222163177E+02    0.33106E-09   -0.11562E-10    93   0.416E-07    0.154E-07
RMM:   2    -0.658222163179E+02   -0.14734E-09    0.00000E+00     2   0.317E-07
  34 F= -.65822216E+02 E0= -.65820083E+02  d E =-.165528E-09
quench:  g(F)=  0.000E+00 g(S)=  0.000E+00 dE (1.order)= 0.000E+00
 bond charge predicted
       N       E                     dE             d eps       ncg     rms          rms(c)
DAV:   1    -0.658222163180E+02   -0.30741E-09   -0.53915E-11    93   0.340E-07    0.121E-07
RMM:   2    -0.658222163178E+02    0.23283E-09    0.00000E+00     2   0.253E-07
  35 F= -.65822216E+02 E0= -.65820083E+02  d E =0.727596E-10
quench:  g(F)=  0.000E+00 g(S)=  0.000E+00 dE (1.order)= 0.000E+00
 bond charge predicted
       N       E                     dE             d eps       ncg     rms          rms(c)
DAV:   1    -0.658222163176E+02    0.40200E-09   -0.21574E-11    93   0.271E-07    0.941E-08
RMM:   2    -0.658222163178E+02   -0.19827E-09    0.00000E+00     2   0.207E-07
  36 F= -.65822216E+02 E0= -.65820083E+02  d E =-.291038E-10
quench:  g(F)=  0.000E+00 g(S)=  0.000E+00 dE (1.order)= 0.000E+00
 bond charge predicted
       N       E                     dE             d eps       ncg     rms          rms(c)
DAV:   1    -0.658222163183E+02   -0.69122E-09   -0.70192E-11    93   0.221E-07    0.756E-08
RMM:   2    -0.658222163178E+02    0.49658E-09    0.00000E+00     2   0.164E-07
  37 F= -.65822216E+02 E0= -.65820083E+02  d E =0.363798E-11
quench:  g(F)=  0.000E+00 g(S)=  0.000E+00 dE (1.order)= 0.000E+00
 bond charge predicted
       N       E                     dE             d eps       ncg     rms          rms(c)
DAV:   1    -0.658222163180E+02    0.33833E-09   -0.47095E-11    93   0.177E-07    0.631E-08
RMM:   2    -0.658222163179E+02    0.78217E-10    0.00000E+00     2   0.135E-07
  38 F= -.65822216E+02 E0= -.65820083E+02  d E =-.800355E-10
quench:  g(F)=  0.000E+00 g(S)=  0.000E+00 dE (1.order)= 0.000E+00
 bond charge predicted
       N       E                     dE             d eps       ncg     rms          rms(c)
DAV:   1    -0.658222163175E+02    0.48385E-09   -0.90057E-11    93   0.146E-07    0.477E-08
RMM:   2    -0.658222163178E+02   -0.29831E-09    0.00000E+00     2   0.107E-07
  39 F= -.65822216E+02 E0= -.65820083E+02  d E =0.107320E-09
quench:  g(F)=  0.000E+00 g(S)=  0.000E+00 dE (1.order)= 0.000E+00
 bond charge predicted
       N       E                     dE             d eps       ncg     rms          rms(c)
DAV:   1    -0.658222163171E+02    0.34379E-09    0.26173E-11    93   0.115E-07    0.400E-08
RMM:   2    -0.658222163178E+02   -0.66575E-09    0.00000E+00     2   0.882E-08
  40 F= -.65822216E+02 E0= -.65820083E+02  d E =-.236469E-10
quench:  g(F)=  0.000E+00 g(S)=  0.000E+00 dE (1.order)= 0.000E+00
 bond charge predicted
       N       E                     dE             d eps       ncg     rms          rms(c)
DAV:   1    -0.658222163180E+02   -0.81309E-09   -0.72390E-11    93   0.944E-08    0.307E-08
RMM:   2    -0.658222163177E+02    0.24556E-09    0.00000E+00     2   0.697E-08
  41 F= -.65822216E+02 E0= -.65820083E+02  d E =0.982254E-10
quench:  g(F)=  0.000E+00 g(S)=  0.000E+00 dE (1.order)= 0.000E+00
 bond charge predicted
       N       E                     dE             d eps       ncg     rms          rms(c)
DAV:   1    -0.658222163180E+02   -0.94587E-10   -0.42238E-11    93   0.746E-08    0.249E-08
RMM:   2    -0.658222163178E+02    0.24738E-09    0.00000E+00     2   0.573E-08
  42 F= -.65822216E+02 E0= -.65820083E+02  d E =-.927685E-10
quench:  g(F)=  0.000E+00 g(S)=  0.000E+00 dE (1.order)= 0.000E+00
 bond charge predicted
       N       E                     dE             d eps       ncg     rms          rms(c)
DAV:   1    -0.658222163173E+02    0.72214E-09   -0.48492E-11    93   0.615E-08    0.198E-08
RMM:   2    -0.658222163178E+02   -0.45839E-09    0.00000E+00     2   0.454E-08
  43 F= -.65822216E+02 E0= -.65820083E+02  d E =0.163709E-10
quench:  g(F)=  0.000E+00 g(S)=  0.000E+00 dE (1.order)= 0.000E+00
 bond charge predicted
       N       E                     dE             d eps       ncg     rms          rms(c)
DAV:   1    -0.658222163177E+02   -0.38199E-09   -0.55401E-12    93   0.490E-08    0.166E-08
RMM:   2    -0.658222163177E+02   -0.32742E-10    0.00000E+00     2   0.377E-08
  44 F= -.65822216E+02 E0= -.65820083E+02  d E =0.436557E-10
quench:  g(F)=  0.000E+00 g(S)=  0.000E+00 dE (1.order)= 0.000E+00
 bond charge predicted
       N       E                     dE             d eps       ncg     rms          rms(c)
DAV:   1    -0.658222163185E+02   -0.78035E-09   -0.72550E-11    93   0.404E-08    0.127E-08
RMM:   2    -0.658222163178E+02    0.69122E-09    0.00000E+00     2   0.296E-08
  45 F= -.65822216E+02 E0= -.65820083E+02  d E =-.563887E-10
quench:  g(F)=  0.000E+00 g(S)=  0.000E+00 dE (1.order)= 0.000E+00
 bond charge predicted
       N       E                     dE             d eps       ncg     rms          rms(c)
DAV:   1    -0.658222163173E+02    0.11387E-08   -0.22104E-12    93   0.318E-08    0.106E-08
RMM:   2    -0.658222163178E+02   -0.49113E-09    0.00000E+00     2   0.245E-08
  46 F= -.65822216E+02 E0= -.65820083E+02  d E =-.436557E-10
quench:  g(F)=  0.000E+00 g(S)=  0.000E+00 dE (1.order)= 0.000E+00
 bond charge predicted
       N       E                     dE             d eps       ncg     rms          rms(c)
DAV:   1    -0.658222163169E+02    0.47658E-09   -0.48509E-11    93   0.263E-08    0.827E-09
RMM:   2    -0.658222163178E+02   -0.92950E-09    0.00000E+00     2   0.194E-08
  47 F= -.65822216E+02 E0= -.65820083E+02  d E =0.381988E-10
quench:  g(F)=  0.000E+00 g(S)=  0.000E+00 dE (1.order)= 0.000E+00
 bond charge predicted
       N       E                     dE             d eps       ncg     rms          rms(c)
DAV:   1    -0.658222163180E+02   -0.11296E-08   -0.20039E-12    93   0.210E-08    0.663E-09
RMM:   2    -0.658222163179E+02    0.12551E-09    0.00000E+00     2   0.161E-08
  48 F= -.65822216E+02 E0= -.65820083E+02  d E =-.745786E-10
quench:  g(F)=  0.000E+00 g(S)=  0.000E+00 dE (1.order)= 0.000E+00
 bond charge predicted
       N       E                     dE             d eps       ncg     rms          rms(c)
DAV:   1    -0.658222163170E+02    0.96952E-09    0.10108E-11    93   0.172E-08    0.526E-09
RMM:   2    -0.658222163178E+02   -0.81491E-09    0.00000E+00     2   0.127E-08
  49 F= -.65822216E+02 E0= -.65820083E+02  d E =0.291038E-10
quench:  g(F)=  0.000E+00 g(S)=  0.000E+00 dE (1.order)= 0.000E+00
 bond charge predicted
       N       E                     dE             d eps       ncg     rms          rms(c)
DAV:   1    -0.658222163180E+02   -0.96043E-09    0.77826E-11    93   0.138E-08    0.410E-09
RMM:   2    -0.658222163179E+02    0.12915E-09    0.00000E+00     1   0.106E-08
  50 F= -.65822216E+02 E0= -.65820083E+02  d E =-.163709E-10
quench:  g(F)=  0.000E+00 g(S)=  0.000E+00 dE (1.order)= 0.000E+00
 bond charge predicted
       N       E                     dE             d eps       ncg     rms          rms(c)
DAV:   1    -0.658222163176E+02    0.41473E-09    0.45160E-11    84   0.114E-08    0.330E-09
RMM:   2    -0.658222163179E+02   -0.31287E-09    0.00000E+00     1   0.833E-09
  51 F= -.65822216E+02 E0= -.65820083E+02  d E =-.272848E-10
quench:  g(F)=  0.000E+00 g(S)=  0.000E+00 dE (1.order)= 0.000E+00
 bond charge predicted
       N       E                     dE             d eps       ncg     rms          rms(c)
DAV:   1    -0.658222163175E+02    0.58208E-10   -0.17442E-11    84   0.910E-09    0.259E-09
RMM:   2    -0.658222163179E+02   -0.41837E-09    0.00000E+00     1   0.693E-09
  52 F= -.65822216E+02 E0= -.65820083E+02  d E =-.472937E-10
quench:  g(F)=  0.000E+00 g(S)=  0.000E+00 dE (1.order)= 0.000E+00
 bond charge predicted
       N       E                     dE             d eps       ncg     rms          rms(c)
DAV:   1    -0.658222163180E+02   -0.51659E-09    0.21386E-11    84   0.740E-09    0.219E-09
RMM:   2    -0.658222163179E+02    0.18008E-09    0.00000E+00     1   0.546E-09
  53 F= -.65822216E+02 E0= -.65820083E+02  d E =0.818545E-10
quench:  g(F)=  0.000E+00 g(S)=  0.000E+00 dE (1.order)= 0.000E+00
 bond charge predicted
       N       E                     dE             d eps       ncg     rms          rms(c)
DAV:   1    -0.658222163173E+02    0.71304E-09    0.81420E-12    84   0.578E-09    0.193E-09
RMM:   2    -0.658222163178E+02   -0.52387E-09    0.00000E+00     1   0.444E-09
  54 F= -.65822216E+02 E0= -.65820083E+02  d E =0.909495E-11
quench:  g(F)=  0.000E+00 g(S)=  0.000E+00 dE (1.order)= 0.000E+00
 bond charge predicted
       N       E                     dE             d eps       ncg     rms          rms(c)
DAV:   1    -0.658222163182E+02   -0.86584E-09   -0.87060E-12    84   0.474E-09    0.167E-09
RMM:   2    -0.658222163178E+02    0.38381E-09    0.00000E+00     1   0.360E-09
  55 F= -.65822216E+02 E0= -.65820083E+02  d E =0.418368E-10
quench:  g(F)=  0.000E+00 g(S)=  0.000E+00 dE (1.order)= 0.000E+00
 bond charge predicted
       N       E                     dE             d eps       ncg     rms          rms(c)
DAV:   1    -0.658222163185E+02   -0.26739E-09    0.67808E-11    84   0.379E-09    0.128E-09
RMM:   2    -0.658222163178E+02    0.64392E-09    0.00000E+00     1   0.289E-09
  56 F= -.65822216E+02 E0= -.65820083E+02  d E =-.727596E-11
quench:  g(F)=  0.000E+00 g(S)=  0.000E+00 dE (1.order)= 0.000E+00
 bond charge predicted
       N       E                     dE             d eps       ncg     rms          rms(c)
DAV:   1    -0.658222163176E+02    0.81855E-09    0.53148E-11    84   0.306E-09    0.105E-09
RMM:   2    -0.658222163178E+02   -0.19099E-09    0.00000E+00     1   0.237E-09
  57 F= -.65822216E+02 E0= -.65820083E+02  d E =-.163709E-10
quench:  g(F)=  0.000E+00 g(S)=  0.000E+00 dE (1.order)= 0.000E+00
 bond charge predicted
       N       E                     dE             d eps       ncg     rms          rms(c)
DAV:   1    -0.658222163171E+02    0.53660E-09   -0.53441E-12    84   0.251E-09    0.870E-10
RMM:   2    -0.658222163178E+02   -0.66029E-09    0.00000E+00     1   0.192E-09
  58 F= -.65822216E+02 E0= -.65820083E+02  d E =0.673026E-10
quench:  g(F)=  0.000E+00 g(S)=  0.000E+00 dE (1.order)= 0.000E+00
 bond charge predicted
       N       E                     dE             d eps       ncg     rms          rms(c)
DAV:   1    -0.658222163173E+02   -0.21282E-09    0.39394E-11    84   0.203E-09    0.777E-10
RMM:   2    -0.658222163178E+02   -0.47658E-09    0.00000E+00     1   0.158E-09
  59 F= -.65822216E+02 E0= -.65820083E+02  d E =-.291038E-10
quench:  g(F)=  0.000E+00 g(S)=  0.000E+00 dE (1.order)= 0.000E+00
 bond charge predicted
       N       E                     dE             d eps       ncg     rms          rms(c)
DAV:   1    -0.658222163184E+02   -0.10768E-08   -0.48081E-11    84   0.168E-09    0.693E-10
RMM:   2    -0.658222163178E+02    0.55843E-09    0.00000E+00     1   0.128E-09
  60 F= -.65822216E+02 E0= -.65820083E+02  d E =-.418368E-10
quench:  g(F)=  0.000E+00 g(S)=  0.000E+00 dE (1.order)= 0.000E+00
 bond charge predicted
       N       E                     dE             d eps       ncg     rms          rms(c)
DAV:   1    -0.658222163175E+02    0.86766E-09   -0.42653E-12    84   0.138E-09    0.462E-10
RMM:   2    -0.658222163179E+02   -0.34015E-09    0.00000E+00     1   0.102E-09
  61 F= -.65822216E+02 E0= -.65820083E+02  d E =-.309228E-10
quench:  g(F)=  0.000E+00 g(S)=  0.000E+00 dE (1.order)= 0.000E+00
 bond charge predicted
       N       E                     dE             d eps       ncg     rms          rms(c)
DAV:   1    -0.658222163175E+02    0.72760E-11   -0.55995E-11    84   0.110E-09    0.419E-10
RMM:   2    -0.658222163177E+02   -0.20918E-09    0.00000E+00     1   0.843E-10
  62 F= -.65822216E+02 E0= -.65820083E+02  d E =0.138243E-09
quench:  g(F)=  0.000E+00 g(S)=  0.000E+00 dE (1.order)= 0.000E+00
 bond charge predicted
       N       E                     dE             d eps       ncg     rms          rms(c)
DAV:   1    -0.658222163186E+02   -0.10732E-08    0.21931E-12    84   0.905E-10    0.338E-10
RMM:   2    -0.658222163178E+02    0.78762E-09    0.00000E+00     1   0.695E-10
  63 F= -.65822216E+02 E0= -.65820083E+02  d E =-.763976E-10
quench:  g(F)=  0.000E+00 g(S)=  0.000E+00 dE (1.order)= 0.000E+00
 bond charge predicted
       N       E                     dE             d eps       ncg     rms          rms(c)
DAV:   1    -0.658222163174E+02    0.11642E-08    0.19350E-11    84   0.737E-10    0.249E-10
RMM:   2    -0.658222163178E+02   -0.34561E-09    0.00000E+00     1   0.555E-10
  64 F= -.65822216E+02 E0= -.65820083E+02  d E =0.309228E-10
quench:  g(F)=  0.000E+00 g(S)=  0.000E+00 dE (1.order)= 0.000E+00
 bond charge predicted
       N       E                     dE             d eps       ncg     rms          rms(c)
DAV:   1    -0.658222163178E+02   -0.34379E-09   -0.60896E-11    84   0.597E-10    0.413E-10
RMM:   2    -0.658222163178E+02   -0.36380E-11    0.00000E+00     1   0.498E-10
  65 F= -.65822216E+02 E0= -.65820083E+02  d E =-.181899E-11
quench:  g(F)=  0.000E+00 g(S)=  0.000E+00 dE (1.order)= 0.000E+00
 bond charge predicted
       N       E                     dE             d eps       ncg     rms          rms(c)
DAV:   1    -0.658222163176E+02    0.20555E-09    0.21847E-12    84   0.543E-10    0.209E-10
RMM:   2    -0.658222163178E+02   -0.24011E-09    0.00000E+00     1   0.379E-10
  66 F= -.65822216E+02 E0= -.65820083E+02  d E =-.309228E-10
quench:  g(F)=  0.000E+00 g(S)=  0.000E+00 dE (1.order)= 0.000E+00
 bond charge predicted
       N       E                     dE             d eps       ncg     rms          rms(c)
DAV:   1    -0.658222163172E+02    0.31650E-09   -0.28486E-12    84   0.384E-10    0.358E-10
RMM:   2    -0.658222163178E+02   -0.55843E-09    0.00000E+00     1   0.395E-10
  67 F= -.65822216E+02 E0= -.65820083E+02  d E =-.181899E-11
quench:  g(F)=  0.000E+00 g(S)=  0.000E+00 dE (1.order)= 0.000E+00
 bond charge predicted
       N       E                     dE             d eps       ncg     rms          rms(c)
DAV:   1    -0.658222163166E+02    0.61846E-09   -0.74399E-11    84   0.426E-10    0.170E-10
RMM:   2    -0.658222163178E+02   -0.11751E-08    0.00000E+00     1   0.302E-10
  68 F= -.65822216E+02 E0= -.65820083E+02  d E =0.181899E-11
quench:  g(F)=  0.000E+00 g(S)=  0.000E+00 dE (1.order)= 0.000E+00
 bond charge predicted
       N       E                     dE             d eps       ncg     rms          rms(c)
DAV:   1    -0.658222163174E+02   -0.82218E-09   -0.43140E-11    84   0.296E-10    0.244E-10
RMM:   2    -0.658222163178E+02   -0.40018E-09    0.00000E+00     1   0.239E-10
  69 F= -.65822216E+02 E0= -.65820083E+02  d E =-.472937E-10
quench:  g(F)=  0.000E+00 g(S)=  0.000E+00 dE (1.order)= 0.000E+00
 bond charge predicted
       N       E                     dE             d eps       ncg     rms          rms(c)
DAV:   1    -0.658222163174E+02    0.25466E-10   -0.45640E-11    84   0.310E-10    0.187E-10
RMM:   2    -0.658222163177E+02   -0.27285E-09    0.00000E+00     1   0.228E-10
  70 F= -.65822216E+02 E0= -.65820083E+02  d E =0.152795E-09
quench:  g(F)=  0.000E+00 g(S)=  0.000E+00 dE (1.order)= 0.000E+00
 bond charge predicted
       N       E                     dE             d eps       ncg     rms          rms(c)
DAV:   1    -0.658222163185E+02   -0.10568E-08   -0.24150E-11    84   0.252E-10    0.334E-10
RMM:   2    -0.658222163179E+02    0.61846E-09    0.00000E+00     1   0.248E-10
  71 F= -.65822216E+02 E0= -.65820083E+02  d E =-.165528E-09
quench:  g(F)=  0.000E+00 g(S)=  0.000E+00 dE (1.order)= 0.000E+00
 bond charge predicted
       N       E                     dE             d eps       ncg     rms          rms(c)
DAV:   1    -0.658222163183E+02    0.14006E-09   -0.61575E-11    84   0.289E-10    0.228E-10
RMM:   2    -0.658222163177E+02    0.63119E-09    0.00000E+00     1   0.208E-10
  72 F= -.65822216E+02 E0= -.65820083E+02  d E =0.152795E-09
quench:  g(F)=  0.000E+00 g(S)=  0.000E+00 dE (1.order)= 0.000E+00
 bond charge predicted
       N       E                     dE             d eps       ncg     rms          rms(c)
DAV:   1    -0.658222163173E+02    0.10878E-08   -0.34873E-11    84   0.251E-10    0.229E-10
RMM:   2    -0.658222163178E+02   -0.54570E-09    0.00000E+00     1   0.191E-10
  73 F= -.65822216E+02 E0= -.65820083E+02  d E =-.891305E-10
quench:  g(F)=  0.000E+00 g(S)=  0.000E+00 dE (1.order)= 0.000E+00
 bond charge predicted
       N       E                     dE             d eps       ncg     rms          rms(c)
DAV:   1    -0.658222163175E+02   -0.23829E-09   -0.63219E-11    84   0.228E-10    0.361E-10
RMM:   2    -0.658222163178E+02   -0.35470E-09    0.00000E+00     1   0.226E-10
  74 F= -.65822216E+02 E0= -.65820083E+02  d E =-.472937E-10
quench:  g(F)=  0.000E+00 g(S)=  0.000E+00 dE (1.order)= 0.000E+00
 bond charge predicted
       N       E                     dE             d eps       ncg     rms          rms(c)
DAV:   1    -0.658222163177E+02   -0.20918E-09   -0.10076E-10    84   0.304E-10    0.189E-10
RMM:   2    -0.658222163178E+02   -0.80036E-10    0.00000E+00     1   0.177E-10
  75 F= -.65822216E+02 E0= -.65820083E+02  d E =0.654836E-10
quench:  g(F)=  0.000E+00 g(S)=  0.000E+00 dE (1.order)= 0.000E+00
 bond charge predicted
       N       E                     dE             d eps       ncg     rms          rms(c)
DAV:   1    -0.658222163177E+02    0.40018E-10   -0.36521E-11    84   0.169E-10    0.236E-10
RMM:   2    -0.658222163179E+02   -0.19099E-09    0.00000E+00     1   0.227E-10
  76 F= -.65822216E+02 E0= -.65820083E+02  d E =-.709406E-10
quench:  g(F)=  0.000E+00 g(S)=  0.000E+00 dE (1.order)= 0.000E+00
 bond charge predicted
       N       E                     dE             d eps       ncg     rms          rms(c)
DAV:   1    -0.658222163183E+02   -0.63847E-09   -0.79299E-11    84   0.231E-10    0.198E-10
RMM:   2    -0.658222163178E+02    0.52205E-09    0.00000E+00     1   0.165E-10
  77 F= -.65822216E+02 E0= -.65820083E+02  d E =0.745786E-10
quench:  g(F)=  0.000E+00 g(S)=  0.000E+00 dE (1.order)= 0.000E+00
 bond charge predicted
       N       E                     dE             d eps       ncg     rms          rms(c)
DAV:   1    -0.658222163175E+02    0.80217E-09   -0.46653E-11    84   0.195E-10    0.167E-10
RMM:   2    -0.658222163177E+02   -0.24556E-09    0.00000E+00     1   0.120E-10
  78 F= -.65822216E+02 E0= -.65820083E+02  d E =0.345608E-10
quench:  g(F)=  0.000E+00 g(S)=  0.000E+00 dE (1.order)= 0.000E+00
 bond charge predicted
       N       E                     dE             d eps       ncg     rms          rms(c)
DAV:   1    -0.658222163178E+02   -0.30195E-09   -0.11598E-11    84   0.120E-10    0.209E-10
RMM:   2    -0.658222163178E+02    0.00000E+00    0.00000E+00     1   0.153E-10
  79 F= -.65822216E+02 E0= -.65820083E+02  d E =-.563887E-10
quench:  g(F)=  0.000E+00 g(S)=  0.000E+00 dE (1.order)= 0.000E+00
 bond charge predicted
       N       E                     dE             d eps       ncg     rms          rms(c)
DAV:   1    -0.658222163177E+02    0.12005E-09   -0.30709E-11    84   0.163E-10    0.325E-10
RMM:   2    -0.658222163177E+02   -0.61846E-10    0.00000E+00     1   0.206E-10
  80 F= -.65822216E+02 E0= -.65820083E+02  d E =0.582077E-10
quench:  g(F)=  0.000E+00 g(S)=  0.000E+00 dE (1.order)= 0.000E+00
 bond charge predicted
       N       E                     dE             d eps       ncg     rms          rms(c)
DAV:   1    -0.658222163183E+02   -0.64756E-09    0.29983E-11    84   0.287E-10    0.290E-10
RMM:   2    -0.658222163177E+02    0.60754E-09    0.00000E+00     1   0.194E-10
  81 F= -.65822216E+02 E0= -.65820083E+02  d E =0.218279E-10
quench:  g(F)=  0.000E+00 g(S)=  0.000E+00 dE (1.order)= 0.000E+00
 bond charge predicted
       N       E                     dE             d eps       ncg     rms          rms(c)
DAV:   1    -0.658222163175E+02    0.84765E-09   -0.18643E-11    84   0.208E-10    0.245E-10
RMM:   2    -0.658222163178E+02   -0.37107E-09    0.00000E+00     1   0.190E-10
  82 F= -.65822216E+02 E0= -.65820083E+02  d E =-.130967E-09
quench:  g(F)=  0.000E+00 g(S)=  0.000E+00 dE (1.order)= 0.000E+00
 bond charge predicted
       N       E                     dE             d eps       ncg     rms          rms(c)
DAV:   1    -0.658222163180E+02   -0.55297E-09   -0.88260E-11    84   0.238E-10    0.232E-10
RMM:   2    -0.658222163178E+02    0.24556E-09    0.00000E+00     1   0.168E-10
  83 F= -.65822216E+02 E0= -.65820083E+02  d E =0.636646E-10
quench:  g(F)=  0.000E+00 g(S)=  0.000E+00 dE (1.order)= 0.000E+00
 bond charge predicted
       N       E                     dE             d eps       ncg     rms          rms(c)
DAV:   1    -0.658222163176E+02    0.42201E-09   -0.49097E-11    84   0.204E-10    0.163E-10
RMM:   2    -0.658222163179E+02   -0.26557E-09    0.00000E+00     1   0.126E-10
  84 F= -.65822216E+02 E0= -.65820083E+02  d E =-.891305E-10
quench:  g(F)=  0.000E+00 g(S)=  0.000E+00 dE (1.order)= 0.000E+00
 bond charge predicted
       N       E                     dE             d eps       ncg     rms          rms(c)
DAV:   1    -0.658222163181E+02   -0.51296E-09   -0.45748E-11    84   0.171E-10    0.177E-10
RMM:   2    -0.658222163178E+02    0.28194E-09    0.00000E+00     1   0.138E-10
  85 F= -.65822216E+02 E0= -.65820083E+02  d E =0.345608E-10
quench:  g(F)=  0.000E+00 g(S)=  0.000E+00 dE (1.order)= 0.000E+00
 bond charge predicted
       N       E                     dE             d eps       ncg     rms          rms(c)
DAV:   1    -0.658222163185E+02   -0.38381E-09   -0.53392E-11    84   0.169E-10    0.189E-10
RMM:   2    -0.658222163177E+02    0.76943E-09    0.00000E+00     1   0.157E-10
  86 F= -.65822216E+02 E0= -.65820083E+02  d E =0.103682E-09
quench:  g(F)=  0.000E+00 g(S)=  0.000E+00 dE (1.order)= 0.000E+00
 bond charge predicted
       N       E                     dE             d eps       ncg     rms          rms(c)
DAV:   1    -0.658222163179E+02    0.62028E-09   -0.13947E-11    84   0.180E-10    0.197E-10
RMM:   2    -0.658222163177E+02    0.17099E-09    0.00000E+00     1   0.105E-10
  87 F= -.65822216E+02 E0= -.65820083E+02  d E =0.218279E-10
quench:  g(F)=  0.000E+00 g(S)=  0.000E+00 dE (1.order)= 0.000E+00
 bond charge predicted
       N       E                     dE             d eps       ncg     rms          rms(c)
DAV:   1    -0.658222163172E+02    0.63665E-09   -0.45147E-11    84   0.143E-10    0.299E-10
RMM:   2    -0.658222163178E+02   -0.57116E-09    0.00000E+00     1   0.155E-10
  88 F= -.65822216E+02 E0= -.65820083E+02  d E =-.105501E-09
quench:  g(F)=  0.000E+00 g(S)=  0.000E+00 dE (1.order)= 0.000E+00
 bond charge predicted
       N       E                     dE             d eps       ncg     rms          rms(c)
DAV:   1    -0.658222163179E+02   -0.68576E-09   -0.81737E-11    84   0.221E-10    0.278E-10
RMM:   2    -0.658222163178E+02    0.12915E-09    0.00000E+00     1   0.191E-10
  89 F= -.65822216E+02 E0= -.65820083E+02  d E =0.145519E-10
quench:  g(F)=  0.000E+00 g(S)=  0.000E+00 dE (1.order)= 0.000E+00
 bond charge predicted
       N       E                     dE             d eps       ncg     rms          rms(c)
DAV:   1    -0.658222163175E+02    0.46748E-09    0.24117E-11    84   0.231E-10    0.174E-10
RMM:   2    -0.658222163178E+02   -0.33469E-09    0.00000E+00     1   0.119E-10
  90 F= -.65822216E+02 E0= -.65820083E+02  d E =0.363798E-11
quench:  g(F)=  0.000E+00 g(S)=  0.000E+00 dE (1.order)= 0.000E+00
 bond charge predicted
       N       E                     dE             d eps       ncg     rms          rms(c)
DAV:   1    -0.658222163181E+02   -0.62755E-09   -0.83144E-11    84   0.130E-10    0.192E-10
RMM:   2    -0.658222163178E+02    0.30195E-09    0.00000E+00     1   0.131E-10
  91 F= -.65822216E+02 E0= -.65820083E+02  d E =0.909495E-11
quench:  g(F)=  0.000E+00 g(S)=  0.000E+00 dE (1.order)= 0.000E+00
 bond charge predicted
       N       E                     dE             d eps       ncg     rms          rms(c)
DAV:   1    -0.658222163182E+02   -0.11278E-09   -0.37280E-11    84   0.157E-10    0.176E-10
RMM:   2    -0.658222163178E+02    0.38381E-09    0.00000E+00     1   0.123E-10
  92 F= -.65822216E+02 E0= -.65820083E+02  d E =-.309228E-10
quench:  g(F)=  0.000E+00 g(S)=  0.000E+00 dE (1.order)= 0.000E+00
 bond charge predicted
       N       E                     dE             d eps       ncg     rms          rms(c)
DAV:   1    -0.658222163179E+02    0.27831E-09    0.10107E-11    84   0.151E-10    0.176E-10
RMM:   2    -0.658222163178E+02    0.14734E-09    0.00000E+00     1   0.153E-10
  93 F= -.65822216E+02 E0= -.65820083E+02  d E =0.418368E-10
quench:  g(F)=  0.000E+00 g(S)=  0.000E+00 dE (1.order)= 0.000E+00
 bond charge predicted
       N       E                     dE             d eps       ncg     rms          rms(c)
DAV:   1    -0.658222163170E+02    0.89494E-09   -0.40204E-11    84   0.170E-10    0.189E-10
RMM:   2    -0.658222163178E+02   -0.74579E-09    0.00000E+00     1   0.128E-10
  94 F= -.65822216E+02 E0= -.65820083E+02  d E =0.181899E-11
quench:  g(F)=  0.000E+00 g(S)=  0.000E+00 dE (1.order)= 0.000E+00
 bond charge predicted
       N       E                     dE             d eps       ncg     rms          rms(c)
DAV:   1    -0.658222163174E+02   -0.39108E-09   -0.38561E-11    84   0.137E-10    0.232E-10
RMM:   2    -0.658222163177E+02   -0.31105E-09    0.00000E+00     1   0.164E-10
  95 F= -.65822216E+02 E0= -.65820083E+02  d E =0.436557E-10
quench:  g(F)=  0.000E+00 g(S)=  0.000E+00 dE (1.order)= 0.000E+00
 bond charge predicted
       N       E                     dE             d eps       ncg     rms          rms(c)
DAV:   1    -0.658222163176E+02   -0.14552E-09    0.34827E-11    84   0.201E-10    0.242E-10
RMM:   2    -0.658222163177E+02   -0.11642E-09    0.00000E+00     1   0.185E-10
  96 F= -.65822216E+02 E0= -.65820083E+02  d E =0.491127E-10
quench:  g(F)=  0.000E+00 g(S)=  0.000E+00 dE (1.order)= 0.000E+00
 bond charge predicted
       N       E                     dE             d eps       ncg     rms          rms(c)
DAV:   1    -0.658222163179E+02   -0.36198E-09    0.24785E-11    84   0.228E-10    0.521E-10
RMM:   2    -0.658222163178E+02    0.10732E-09    0.00000E+00     1   0.284E-10
  97 F= -.65822216E+02 E0= -.65820083E+02  d E =-.138243E-09
quench:  g(F)=  0.000E+00 g(S)=  0.000E+00 dE (1.order)= 0.000E+00
 bond charge predicted
       N       E                     dE             d eps       ncg     rms          rms(c)
DAV:   1    -0.658222163172E+02    0.77853E-09   -0.65254E-11    84   0.427E-10    0.376E-10
RMM:   2    -0.658222163178E+02   -0.62028E-09    0.00000E+00     1   0.250E-10
  98 F= -.65822216E+02 E0= -.65820083E+02  d E =0.509317E-10
quench:  g(F)=  0.000E+00 g(S)=  0.000E+00 dE (1.order)= 0.000E+00
 bond charge predicted
       N       E                     dE             d eps       ncg     rms          rms(c)
DAV:   1    -0.658222163178E+02   -0.62209E-09   -0.24674E-11    84   0.355E-10    0.139E-10
RMM:   2    -0.658222163178E+02   -0.21828E-10    0.00000E+00     1   0.145E-10
  99 F= -.65822216E+02 E0= -.65820083E+02  d E =-.236469E-10
quench:  g(F)=  0.000E+00 g(S)=  0.000E+00 dE (1.order)= 0.000E+00
 bond charge predicted
       N       E                     dE             d eps       ncg     rms          rms(c)
DAV:   1    -0.658222163178E+02    0.90949E-11   -0.50773E-11    84   0.143E-10    0.322E-10
RMM:   2    -0.658222163178E+02   -0.54570E-10    0.00000E+00     1   0.177E-10
 100 F= -.65822216E+02 E0= -.65820083E+02  d E =-.236469E-10
quench:  g(F)=  0.000E+00 g(S)=  0.000E+00 dE (1.order)= 0.000E+00
 bond charge predicted
       N       E                     dE             d eps       ncg     rms          rms(c)
DAV:   1    -0.658222163180E+02   -0.25284E-09    0.71470E-12    84   0.215E-10    0.324E-10
RMM:   2    -0.658222163177E+02    0.31650E-09    0.00000E+00     1   0.187E-10
 101 F= -.65822216E+02 E0= -.65820083E+02  d E =0.118234E-09
quench:  g(F)=  0.000E+00 g(S)=  0.000E+00 dE (1.order)= 0.000E+00
 bond charge predicted
       N       E                     dE             d eps       ncg     rms          rms(c)
DAV:   1    -0.658222163171E+02    0.87857E-09   -0.57810E-11    84   0.239E-10    0.157E-10
RMM:   2    -0.658222163178E+02   -0.61846E-09    0.00000E+00     1   0.140E-10
 102 F= -.65822216E+02 E0= -.65820083E+02  d E =-.563887E-10
quench:  g(F)=  0.000E+00 g(S)=  0.000E+00 dE (1.order)= 0.000E+00
 bond charge predicted
       N       E                     dE             d eps       ncg     rms          rms(c)
DAV:   1    -0.658222163174E+02   -0.28376E-09   -0.69611E-11    84   0.155E-10    0.206E-10
RMM:   2    -0.658222163179E+02   -0.45111E-09    0.00000E+00     1   0.150E-10
 103 F= -.65822216E+02 E0= -.65820083E+02  d E =-.116415E-09
quench:  g(F)=  0.000E+00 g(S)=  0.000E+00 dE (1.order)= 0.000E+00
 bond charge predicted
       N       E                     dE             d eps       ncg     rms          rms(c)
DAV:   1    -0.658222163179E+02   -0.47294E-09   -0.71363E-11    84   0.162E-10    0.158E-10
RMM:   2    -0.658222163177E+02    0.15825E-09    0.00000E+00     1   0.156E-10
 104 F= -.65822216E+02 E0= -.65820083E+02  d E =0.136424E-09
quench:  g(F)=  0.000E+00 g(S)=  0.000E+00 dE (1.order)= 0.000E+00
 bond charge predicted
       N       E                     dE             d eps       ncg     rms          rms(c)
DAV:   1    -0.658222163178E+02    0.58208E-10   -0.31790E-11    84   0.192E-10    0.334E-10
RMM:   2    -0.658222163178E+02    0.63665E-10    0.00000E+00     1   0.205E-10
 105 F= -.65822216E+02 E0= -.65820083E+02  d E =-.363798E-10
quench:  g(F)=  0.000E+00 g(S)=  0.000E+00 dE (1.order)= 0.000E+00
 bond charge predicted
       N       E                     dE             d eps       ncg     rms          rms(c)
DAV:   1    -0.658222163179E+02   -0.36380E-10   -0.15637E-11    84   0.242E-10    0.243E-10
RMM:   2    -0.658222163177E+02    0.19645E-09    0.00000E+00     1   0.153E-10
 106 F= -.65822216E+02 E0= -.65820083E+02  d E =0.964064E-10
quench:  g(F)=  0.000E+00 g(S)=  0.000E+00 dE (1.order)= 0.000E+00
 bond charge predicted
       N       E                     dE             d eps       ncg     rms          rms(c)
DAV:   1    -0.658222163175E+02    0.32742E-09   -0.75635E-11    84   0.168E-10    0.174E-10
RMM:   2    -0.658222163178E+02   -0.25830E-09    0.00000E+00     1   0.159E-10
 107 F= -.65822216E+02 E0= -.65820083E+02  d E =-.127329E-09
quench:  g(F)=  0.000E+00 g(S)=  0.000E+00 dE (1.order)= 0.000E+00
 bond charge predicted
       N       E                     dE             d eps       ncg     rms          rms(c)
DAV:   1    -0.658222163180E+02   -0.44383E-09   -0.57549E-11    84   0.163E-10    0.151E-10
RMM:   2    -0.658222163177E+02    0.28558E-09    0.00000E+00     1   0.143E-10
 108 F= -.65822216E+02 E0= -.65820083E+02  d E =0.100044E-09
quench:  g(F)=  0.000E+00 g(S)=  0.000E+00 dE (1.order)= 0.000E+00
 bond charge predicted
       N       E                     dE             d eps       ncg     rms          rms(c)
DAV:   1    -0.658222163182E+02   -0.16917E-09   -0.39539E-11    84   0.179E-10    0.271E-10
RMM:   2    -0.658222163178E+02    0.35470E-09    0.00000E+00     1   0.167E-10
 109 F= -.65822216E+02 E0= -.65820083E+02  d E =-.100044E-09
quench:  g(F)=  0.000E+00 g(S)=  0.000E+00 dE (1.order)= 0.000E+00
 bond charge predicted
       N       E                     dE             d eps       ncg     rms          rms(c)
DAV:   1    -0.658222163178E+02    0.34561E-09   -0.47946E-11    84   0.229E-10    0.407E-10
RMM:   2    -0.658222163179E+02   -0.50932E-10    0.00000E+00     1   0.218E-10
 110 F= -.65822216E+02 E0= -.65820083E+02  d E =-.600267E-10
quench:  g(F)=  0.000E+00 g(S)=  0.000E+00 dE (1.order)= 0.000E+00
 bond charge predicted
       N       E                     dE             d eps       ncg     rms          rms(c)
DAV:   1    -0.658222163176E+02    0.21646E-09   -0.50995E-11    84   0.300E-10    0.369E-10
RMM:   2    -0.658222163178E+02   -0.16371E-09    0.00000E+00     1   0.210E-10
 111 F= -.65822216E+02 E0= -.65820083E+02  d E =0.103682E-09
quench:  g(F)=  0.000E+00 g(S)=  0.000E+00 dE (1.order)= 0.000E+00
 bond charge predicted
       N       E                     dE             d eps       ncg     rms          rms(c)
DAV:   1    -0.658222163175E+02    0.65484E-10   -0.99359E-11    84   0.272E-10    0.184E-10
RMM:   2    -0.658222163178E+02   -0.25102E-09    0.00000E+00     1   0.124E-10
 112 F= -.65822216E+02 E0= -.65820083E+02  d E =-.218279E-10
quench:  g(F)=  0.000E+00 g(S)=  0.000E+00 dE (1.order)= 0.000E+00
 bond charge predicted
       N       E                     dE             d eps       ncg     rms          rms(c)
DAV:   1    -0.658222163176E+02   -0.78217E-10   -0.92680E-12    84   0.170E-10    0.212E-10
RMM:   2    -0.658222163177E+02   -0.98225E-10    0.00000E+00     1   0.152E-10
 113 F= -.65822216E+02 E0= -.65820083E+02  d E =0.745786E-10
quench:  g(F)=  0.000E+00 g(S)=  0.000E+00 dE (1.order)= 0.000E+00
 bond charge predicted
       N       E                     dE             d eps       ncg     rms          rms(c)
DAV:   1    -0.658222163182E+02   -0.55479E-09   -0.75241E-11    84   0.201E-10    0.258E-10
RMM:   2    -0.658222163178E+02    0.40563E-09    0.00000E+00     1   0.148E-10
 114 F= -.65822216E+02 E0= -.65820083E+02  d E =-.509317E-10
quench:  g(F)=  0.000E+00 g(S)=  0.000E+00 dE (1.order)= 0.000E+00
 bond charge predicted
       N       E                     dE             d eps       ncg     rms          rms(c)
DAV:   1    -0.658222163178E+02    0.36562E-09   -0.58465E-11    84   0.182E-10    0.169E-10
RMM:   2    -0.658222163177E+02    0.56389E-10    0.00000E+00     1   0.124E-10
 115 F= -.65822216E+02 E0= -.65820083E+02  d E =0.163709E-10
quench:  g(F)=  0.000E+00 g(S)=  0.000E+00 dE (1.order)= 0.000E+00
 bond charge predicted
       N       E                     dE             d eps       ncg     rms          rms(c)
DAV:   1    -0.658222163179E+02   -0.13097E-09   -0.90149E-11    84   0.151E-10    0.152E-10
RMM:   2    -0.658222163177E+02    0.21464E-09    0.00000E+00     1   0.111E-10
 116 F= -.65822216E+02 E0= -.65820083E+02  d E =0.272848E-10
quench:  g(F)=  0.000E+00 g(S)=  0.000E+00 dE (1.order)= 0.000E+00
 bond charge predicted
       N       E                     dE             d eps       ncg     rms          rms(c)
DAV:   1    -0.658222163184E+02   -0.51477E-09   -0.67759E-11    84   0.117E-10    0.309E-10
RMM:   2    -0.658222163179E+02    0.57480E-09    0.00000E+00     1   0.165E-10
 117 F= -.65822216E+02 E0= -.65820083E+02  d E =-.154614E-09
quench:  g(F)=  0.000E+00 g(S)=  0.000E+00 dE (1.order)= 0.000E+00
 bond charge predicted
       N       E                     dE             d eps       ncg     rms          rms(c)
DAV:   1    -0.658222163170E+02    0.14206E-08   -0.10562E-10    84   0.250E-10    0.183E-10
RMM:   2    -0.658222163179E+02   -0.83310E-09    0.00000E+00     1   0.165E-10
 118 F= -.65822216E+02 E0= -.65820083E+02  d E =0.127329E-10
quench:  g(F)=  0.000E+00 g(S)=  0.000E+00 dE (1.order)= 0.000E+00
 bond charge predicted
       N       E                     dE             d eps       ncg     rms          rms(c)
DAV:   1    -0.658222163174E+02   -0.36925E-09   -0.40498E-11    84   0.152E-10    0.159E-10
RMM:   2    -0.658222163178E+02   -0.40563E-09    0.00000E+00     1   0.132E-10
 119 F= -.65822216E+02 E0= -.65820083E+02  d E =0.582077E-10
quench:  g(F)=  0.000E+00 g(S)=  0.000E+00 dE (1.order)= 0.000E+00
 bond charge predicted
       N       E                     dE             d eps       ncg     rms          rms(c)
DAV:   1    -0.658222163173E+02    0.69122E-10   -0.80547E-11    84   0.177E-10    0.204E-10
RMM:   2    -0.658222163178E+02   -0.45839E-09    0.00000E+00     1   0.157E-10
 120 F= -.65822216E+02 E0= -.65820083E+02  d E =0.163709E-10
quench:  g(F)=  0.000E+00 g(S)=  0.000E+00 dE (1.order)= 0.000E+00
 bond charge predicted
       N       E                     dE             d eps       ncg     rms          rms(c)
DAV:   1    -0.658222163171E+02    0.21464E-09   -0.85263E-11    84   0.195E-10    0.229E-10
RMM:   2    -0.658222163178E+02   -0.67848E-09    0.00000E+00     1   0.130E-10
 121 F= -.65822216E+02 E0= -.65820083E+02  d E =-.545697E-11
quench:  g(F)=  0.000E+00 g(S)=  0.000E+00 dE (1.order)= 0.000E+00
 bond charge predicted
       N       E                     dE             d eps       ncg     rms          rms(c)
DAV:   1    -0.658222163178E+02   -0.63847E-09   -0.64242E-11    84   0.154E-10    0.282E-10
RMM:   2    -0.658222163179E+02   -0.13824E-09    0.00000E+00     1   0.168E-10
 122 F= -.65822216E+02 E0= -.65820083E+02  d E =-.982254E-10
quench:  g(F)=  0.000E+00 g(S)=  0.000E+00 dE (1.order)= 0.000E+00
 bond charge predicted
       N       E                     dE             d eps       ncg     rms          rms(c)
DAV:   1    -0.658222163184E+02   -0.65666E-09    0.72066E-12    84   0.200E-10    0.293E-10
RMM:   2    -0.658222163177E+02    0.69849E-09    0.00000E+00     1   0.181E-10
 123 F= -.65822216E+02 E0= -.65820083E+02  d E =0.180080E-09
quench:  g(F)=  0.000E+00 g(S)=  0.000E+00 dE (1.order)= 0.000E+00
 bond charge predicted
       N       E                     dE             d eps       ncg     rms          rms(c)
DAV:   1    -0.658222163175E+02    0.86948E-09   -0.58406E-11    84   0.245E-10    0.319E-10
RMM:   2    -0.658222163178E+02   -0.22010E-09    0.00000E+00     1   0.223E-10
 124 F= -.65822216E+02 E0= -.65820083E+02  d E =-.491127E-10
quench:  g(F)=  0.000E+00 g(S)=  0.000E+00 dE (1.order)= 0.000E+00
 bond charge predicted
       N       E                     dE             d eps       ncg     rms          rms(c)
DAV:   1    -0.658222163177E+02   -0.16007E-09   -0.44299E-11    84   0.301E-10    0.428E-10
RMM:   2    -0.658222163177E+02   -0.90949E-11    0.00000E+00     1   0.218E-10
 125 F= -.65822216E+02 E0= -.65820083E+02  d E =0.509317E-10
quench:  g(F)=  0.000E+00 g(S)=  0.000E+00 dE (1.order)= 0.000E+00
 bond charge predicted
       N       E                     dE             d eps       ncg     rms          rms(c)
DAV:   1    -0.658222163176E+02    0.61846E-10   -0.75876E-11    84   0.327E-10    0.274E-10
RMM:   2    -0.658222163178E+02   -0.17462E-09    0.00000E+00     1   0.180E-10
 126 F= -.65822216E+02 E0= -.65820083E+02  d E =-.103682E-09
quench:  g(F)=  0.000E+00 g(S)=  0.000E+00 dE (1.order)= 0.000E+00
 bond charge predicted
       N       E                     dE             d eps       ncg     rms          rms(c)
DAV:   1    -0.658222163175E+02    0.13642E-09   -0.13479E-11    84   0.245E-10    0.196E-10
RMM:   2    -0.658222163178E+02   -0.29831E-09    0.00000E+00     1   0.173E-10
 127 F= -.65822216E+02 E0= -.65820083E+02  d E =0.127329E-10
quench:  g(F)=  0.000E+00 g(S)=  0.000E+00 dE (1.order)= 0.000E+00
 bond charge predicted
       N       E                     dE             d eps       ncg     rms          rms(c)
DAV:   1    -0.658222163182E+02   -0.68940E-09   -0.19416E-11    84   0.223E-10    0.242E-10
RMM:   2    -0.658222163178E+02    0.35834E-09    0.00000E+00     1   0.194E-10
 128 F= -.65822216E+02 E0= -.65820083E+02  d E =-.327418E-10
quench:  g(F)=  0.000E+00 g(S)=  0.000E+00 dE (1.order)= 0.000E+00
 bond charge predicted
       N       E                     dE             d eps       ncg     rms          rms(c)
DAV:   1    -0.658222163178E+02    0.39654E-09   -0.42715E-11    84   0.201E-10    0.137E-10
RMM:   2    -0.658222163178E+02   -0.12733E-10    0.00000E+00     1   0.147E-10
 129 F= -.65822216E+02 E0= -.65820083E+02  d E =0.254659E-10
quench:  g(F)=  0.000E+00 g(S)=  0.000E+00 dE (1.order)= 0.000E+00
 bond charge predicted
       N       E                     dE             d eps       ncg     rms          rms(c)
DAV:   1    -0.658222163177E+02    0.90949E-10   -0.36099E-12    84   0.165E-10    0.188E-10
RMM:   2    -0.658222163179E+02   -0.17099E-09    0.00000E+00     1   0.110E-10
 130 F= -.65822216E+02 E0= -.65820083E+02  d E =-.673026E-10
quench:  g(F)=  0.000E+00 g(S)=  0.000E+00 dE (1.order)= 0.000E+00
 bond charge predicted
       N       E                     dE             d eps       ncg     rms          rms(c)
DAV:   1    -0.658222163175E+02    0.18736E-09   -0.27965E-11    84   0.133E-10    0.186E-10
RMM:   2    -0.658222163178E+02   -0.26739E-09    0.00000E+00     1   0.140E-10
 131 F= -.65822216E+02 E0= -.65820083E+02  d E =0.909495E-10
quench:  g(F)=  0.000E+00 g(S)=  0.000E+00 dE (1.order)= 0.000E+00
 bond charge predicted
       N       E                     dE             d eps       ncg     rms          rms(c)
DAV:   1    -0.658222163182E+02   -0.65484E-09   -0.20256E-11    84   0.140E-10    0.244E-10
RMM:   2    -0.658222163177E+02    0.44020E-09    0.00000E+00     1   0.137E-10
 132 F= -.65822216E+02 E0= -.65820083E+02  d E =0.527507E-10
quench:  g(F)=  0.000E+00 g(S)=  0.000E+00 dE (1.order)= 0.000E+00
 bond charge predicted
       N       E                     dE             d eps       ncg     rms          rms(c)
DAV:   1    -0.658222163176E+02    0.52569E-09   -0.23242E-11    84   0.174E-10    0.148E-10
RMM:   2    -0.658222163178E+02   -0.15643E-09    0.00000E+00     1   0.113E-10
 133 F= -.65822216E+02 E0= -.65820083E+02  d E =-.709406E-10
quench:  g(F)=  0.000E+00 g(S)=  0.000E+00 dE (1.order)= 0.000E+00
 bond charge predicted
       N       E                     dE             d eps       ncg     rms          rms(c)
DAV:   1    -0.658222163180E+02   -0.38199E-09   -0.48615E-12    84   0.143E-10    0.363E-10
RMM:   2    -0.658222163178E+02    0.20918E-09    0.00000E+00     1   0.179E-10
 134 F= -.65822216E+02 E0= -.65820083E+02  d E =-.163709E-10
quench:  g(F)=  0.000E+00 g(S)=  0.000E+00 dE (1.order)= 0.000E+00
 bond charge predicted
       N       E                     dE             d eps       ncg     rms          rms(c)
DAV:   1    -0.658222163184E+02   -0.41291E-09    0.15671E-12    84   0.239E-10    0.216E-10
RMM:   2    -0.658222163179E+02    0.54752E-09    0.00000E+00     1   0.150E-10
 135 F= -.65822216E+02 E0= -.65820083E+02  d E =-.745786E-10
quench:  g(F)=  0.000E+00 g(S)=  0.000E+00 dE (1.order)= 0.000E+00
 bond charge predicted
       N       E                     dE             d eps       ncg     rms          rms(c)
DAV:   1    -0.658222163177E+02    0.70031E-09    0.13450E-11    84   0.205E-10    0.257E-10
RMM:   2    -0.658222163178E+02   -0.56389E-10    0.00000E+00     1   0.190E-10
 136 F= -.65822216E+02 E0= -.65820083E+02  d E =0.964064E-10
quench:  g(F)=  0.000E+00 g(S)=  0.000E+00 dE (1.order)= 0.000E+00
 bond charge predicted
       N       E                     dE             d eps       ncg     rms          rms(c)
DAV:   1    -0.658222163172E+02    0.58571E-09   -0.43161E-11    84   0.226E-10    0.345E-10
RMM:   2    -0.658222163178E+02   -0.63847E-09    0.00000E+00     1   0.192E-10
 137 F= -.65822216E+02 E0= -.65820083E+02  d E =0.363798E-11
quench:  g(F)=  0.000E+00 g(S)=  0.000E+00 dE (1.order)= 0.000E+00
 bond charge predicted
       N       E                     dE             d eps       ncg     rms          rms(c)
DAV:   1    -0.658222163178E+02   -0.62028E-09   -0.48056E-11    84   0.270E-10    0.304E-10
RMM:   2    -0.658222163178E+02   -0.40018E-10    0.00000E+00     1   0.188E-10
 138 F= -.65822216E+02 E0= -.65820083E+02  d E =-.218279E-10
quench:  g(F)=  0.000E+00 g(S)=  0.000E+00 dE (1.order)= 0.000E+00
 bond charge predicted
       N       E                     dE             d eps       ncg     rms          rms(c)
DAV:   1    -0.658222163181E+02   -0.32742E-09   -0.99598E-11    84   0.272E-10    0.214E-10
RMM:   2    -0.658222163178E+02    0.32560E-09    0.00000E+00     1   0.162E-10
 139 F= -.65822216E+02 E0= -.65820083E+02  d E =0.381988E-10
quench:  g(F)=  0.000E+00 g(S)=  0.000E+00 dE (1.order)= 0.000E+00
 bond charge predicted
       N       E                     dE             d eps       ncg     rms          rms(c)
DAV:   1    -0.658222163182E+02   -0.10368E-09   -0.27385E-11    84   0.202E-10    0.139E-10
RMM:   2    -0.658222163179E+02    0.32196E-09    0.00000E+00     1   0.115E-10
 140 F= -.65822216E+02 E0= -.65820083E+02  d E =-.107320E-09
quench:  g(F)=  0.000E+00 g(S)=  0.000E+00 dE (1.order)= 0.000E+00
 bond charge predicted
       N       E                     dE             d eps       ncg     rms          rms(c)
DAV:   1    -0.658222163181E+02    0.98225E-10   -0.38429E-11    84   0.114E-10    0.208E-10
RMM:   2    -0.658222163178E+02    0.26921E-09    0.00000E+00     1   0.172E-10
 141 F= -.65822216E+02 E0= -.65820083E+02  d E =0.454747E-10
quench:  g(F)=  0.000E+00 g(S)=  0.000E+00 dE (1.order)= 0.000E+00
 bond charge predicted
       N       E                     dE             d eps       ncg     rms          rms(c)
DAV:   1    -0.658222163181E+02   -0.20009E-10   -0.72120E-11    84   0.177E-10    0.150E-10
RMM:   2    -0.658222163178E+02    0.32742E-09    0.00000E+00     1   0.976E-11
 142 F= -.65822216E+02 E0= -.65820083E+02  d E =0.381988E-10
quench:  g(F)=  0.000E+00 g(S)=  0.000E+00 dE (1.order)= 0.000E+00
 bond charge predicted
       N       E                     dE             d eps       ncg     rms          rms(c)
DAV:   1    -0.658222163178E+02    0.32924E-09   -0.33228E-11    84   0.121E-10    0.204E-10
RMM:   2    -0.658222163178E+02   -0.54570E-11    0.00000E+00     1   0.156E-10
 143 F= -.65822216E+02 E0= -.65820083E+02  d E =-.363798E-11
quench:  g(F)=  0.000E+00 g(S)=  0.000E+00 dE (1.order)= 0.000E+00
 bond charge predicted
       N       E                     dE             d eps       ncg     rms          rms(c)
DAV:   1    -0.658222163186E+02   -0.80036E-09   -0.77454E-12    84   0.204E-10    0.246E-10
RMM:   2    -0.658222163178E+02    0.82400E-09    0.00000E+00     1   0.158E-10
 144 F= -.65822216E+02 E0= -.65820083E+02  d E =0.291038E-10
quench:  g(F)=  0.000E+00 g(S)=  0.000E+00 dE (1.order)= 0.000E+00
 bond charge predicted
       N       E                     dE             d eps       ncg     rms          rms(c)
DAV:   1    -0.658222163182E+02    0.38563E-09    0.14091E-11    84   0.167E-10    0.351E-10
RMM:   2    -0.658222163177E+02    0.49658E-09    0.00000E+00     1   0.231E-10
 145 F= -.65822216E+02 E0= -.65820083E+02  d E =0.582077E-10
quench:  g(F)=  0.000E+00 g(S)=  0.000E+00 dE (1.order)= 0.000E+00
 bond charge predicted
       N       E                     dE             d eps       ncg     rms          rms(c)
DAV:   1    -0.658222163180E+02    0.21828E-09   -0.78513E-12    84   0.285E-10    0.265E-10
RMM:   2    -0.658222163178E+02    0.17099E-09    0.00000E+00     1   0.171E-10
 146 F= -.65822216E+02 E0= -.65820083E+02  d E =-.107320E-09
quench:  g(F)=  0.000E+00 g(S)=  0.000E+00 dE (1.order)= 0.000E+00
 bond charge predicted
       N       E                     dE             d eps       ncg     rms          rms(c)
DAV:   1    -0.658222163178E+02    0.18372E-09   -0.12069E-11    84   0.242E-10    0.134E-10
RMM:   2    -0.658222163178E+02    0.14552E-10    0.00000E+00     1   0.123E-10
 147 F= -.65822216E+02 E0= -.65820083E+02  d E =0.272848E-10
quench:  g(F)=  0.000E+00 g(S)=  0.000E+00 dE (1.order)= 0.000E+00
 bond charge predicted
       N       E                     dE             d eps       ncg     rms          rms(c)
DAV:   1    -0.658222163179E+02   -0.98225E-10    0.75945E-12    84   0.131E-10    0.181E-10
RMM:   2    -0.658222163177E+02    0.21282E-09    0.00000E+00     1   0.143E-10
 148 F= -.65822216E+02 E0= -.65820083E+02  d E =0.100044E-09
quench:  g(F)=  0.000E+00 g(S)=  0.000E+00 dE (1.order)= 0.000E+00
 bond charge predicted
       N       E                     dE             d eps       ncg     rms          rms(c)
DAV:   1    -0.658222163177E+02    0.23465E-09   -0.28378E-11    84   0.156E-10    0.201E-10
RMM:   2    -0.658222163178E+02   -0.17280E-09    0.00000E+00     1   0.149E-10
 149 F= -.65822216E+02 E0= -.65820083E+02  d E =-.150976E-09
quench:  g(F)=  0.000E+00 g(S)=  0.000E+00 dE (1.order)= 0.000E+00
 bond charge predicted
       N       E                     dE             d eps       ncg     rms          rms(c)
DAV:   1    -0.658222163176E+02    0.70941E-10   -0.78421E-11    84   0.190E-10    0.356E-10
RMM:   2    -0.658222163178E+02   -0.20555E-09    0.00000E+00     1   0.206E-10
 150 F= -.65822216E+02 E0= -.65820083E+02  d E =0.381988E-10
quench:  g(F)=  0.000E+00 g(S)=  0.000E+00 dE (1.order)= 0.000E+00
 bond charge predicted
       N       E                     dE             d eps       ncg     rms          rms(c)
DAV:   1    -0.658222163174E+02    0.20373E-09    0.35684E-11    84   0.254E-10    0.175E-10
RMM:   2    -0.658222163178E+02   -0.39290E-09    0.00000E+00     1   0.139E-10
 151 F= -.65822216E+02 E0= -.65820083E+02  d E =0.163709E-10
quench:  g(F)=  0.000E+00 g(S)=  0.000E+00 dE (1.order)= 0.000E+00
 bond charge predicted
       N       E                     dE             d eps       ncg     rms          rms(c)
DAV:   1    -0.658222163177E+02   -0.29650E-09   -0.49931E-11    84   0.133E-10    0.319E-10
RMM:   2    -0.658222163178E+02   -0.63665E-10    0.00000E+00     1   0.176E-10
 152 F= -.65822216E+02 E0= -.65820083E+02  d E =0.327418E-10
quench:  g(F)=  0.000E+00 g(S)=  0.000E+00 dE (1.order)= 0.000E+00
 bond charge predicted
       N       E                     dE             d eps       ncg     rms          rms(c)
DAV:   1    -0.658222163177E+02    0.36380E-10   -0.68365E-11    84   0.192E-10    0.251E-10
RMM:   2    -0.658222163179E+02   -0.22192E-09    0.00000E+00     1   0.144E-10
 153 F= -.65822216E+02 E0= -.65820083E+02  d E =-.121872E-09
quench:  g(F)=  0.000E+00 g(S)=  0.000E+00 dE (1.order)= 0.000E+00
 bond charge predicted
       N       E                     dE             d eps       ncg     rms          rms(c)
DAV:   1    -0.658222163176E+02    0.60027E-10    0.28521E-11    84   0.185E-10    0.138E-10
RMM:   2    -0.658222163179E+02   -0.29286E-09    0.00000E+00     1   0.130E-10
 154 F= -.65822216E+02 E0= -.65820083E+02  d E =-.109139E-10
quench:  g(F)=  0.000E+00 g(S)=  0.000E+00 dE (1.order)= 0.000E+00
 bond charge predicted
       N       E                     dE             d eps       ncg     rms          rms(c)
DAV:   1    -0.658222163166E+02    0.95133E-09   -0.45017E-11    84   0.179E-10    0.385E-10
RMM:   2    -0.658222163178E+02   -0.11842E-08    0.00000E+00     1   0.233E-10
 155 F= -.65822216E+02 E0= -.65820083E+02  d E =0.600267E-10
quench:  g(F)=  0.000E+00 g(S)=  0.000E+00 dE (1.order)= 0.000E+00
 bond charge predicted
       N       E                     dE             d eps       ncg     rms          rms(c)
DAV:   1    -0.658222163176E+02   -0.96406E-09   -0.78143E-11    84   0.283E-10    0.382E-10
RMM:   2    -0.658222163178E+02   -0.23647E-09    0.00000E+00     1   0.205E-10
 156 F= -.65822216E+02 E0= -.65820083E+02  d E =-.163709E-10
quench:  g(F)=  0.000E+00 g(S)=  0.000E+00 dE (1.order)= 0.000E+00
 bond charge predicted
       N       E                     dE             d eps       ncg     rms          rms(c)
DAV:   1    -0.658222163179E+02   -0.33288E-09   -0.23490E-11    84   0.272E-10    0.364E-10
RMM:   2    -0.658222163178E+02    0.15825E-09    0.00000E+00     1   0.199E-10
 157 F= -.65822216E+02 E0= -.65820083E+02  d E =0.618456E-10
quench:  g(F)=  0.000E+00 g(S)=  0.000E+00 dE (1.order)= 0.000E+00
 bond charge predicted
       N       E                     dE             d eps       ncg     rms          rms(c)
DAV:   1    -0.658222163182E+02   -0.27831E-09   -0.71549E-11    84   0.291E-10    0.278E-10
RMM:   2    -0.658222163178E+02    0.38926E-09    0.00000E+00     1   0.153E-10
 158 F= -.65822216E+02 E0= -.65820083E+02  d E =-.472937E-10
quench:  g(F)=  0.000E+00 g(S)=  0.000E+00 dE (1.order)= 0.000E+00
 bond charge predicted
       N       E                     dE             d eps       ncg     rms          rms(c)
DAV:   1    -0.658222163181E+02    0.80036E-10   -0.85500E-11    84   0.244E-10    0.240E-10
RMM:   2    -0.658222163178E+02    0.37107E-09    0.00000E+00     1   0.143E-10
 159 F= -.65822216E+02 E0= -.65820083E+02  d E =0.618456E-10
quench:  g(F)=  0.000E+00 g(S)=  0.000E+00 dE (1.order)= 0.000E+00
 bond charge predicted
       N       E                     dE             d eps       ncg     rms          rms(c)
DAV:   1    -0.658222163178E+02    0.32014E-09   -0.34252E-11    84   0.213E-10    0.169E-10
RMM:   2    -0.658222163179E+02   -0.45475E-10    0.00000E+00     1   0.149E-10
 160 F= -.65822216E+02 E0= -.65820083E+02  d E =-.964064E-10
quench:  g(F)=  0.000E+00 g(S)=  0.000E+00 dE (1.order)= 0.000E+00
 bond charge predicted
       N       E                     dE             d eps       ncg     rms          rms(c)
DAV:   1    -0.658222163179E+02   -0.67303E-10   -0.49516E-11    84   0.162E-10    0.150E-10
RMM:   2    -0.658222163177E+02    0.16189E-09    0.00000E+00     1   0.108E-10
 161 F= -.65822216E+02 E0= -.65820083E+02  d E =0.140062E-09
quench:  g(F)=  0.000E+00 g(S)=  0.000E+00 dE (1.order)= 0.000E+00
 bond charge predicted
       N       E                     dE             d eps       ncg     rms          rms(c)
DAV:   1    -0.658222163182E+02   -0.28558E-09   -0.55378E-11    84   0.124E-10    0.178E-10
RMM:   2    -0.658222163177E+02    0.44201E-09    0.00000E+00     1   0.150E-10
 162 F= -.65822216E+02 E0= -.65820083E+02  d E =-.545697E-11
quench:  g(F)=  0.000E+00 g(S)=  0.000E+00 dE (1.order)= 0.000E+00
 bond charge predicted
       N       E                     dE             d eps       ncg     rms          rms(c)
DAV:   1    -0.658222163183E+02   -0.16917E-09   -0.40754E-11    84   0.141E-10    0.276E-10
RMM:   2    -0.658222163177E+02    0.63301E-09    0.00000E+00     1   0.148E-10
 163 F= -.65822216E+02 E0= -.65820083E+02  d E =0.218279E-10
quench:  g(F)=  0.000E+00 g(S)=  0.000E+00 dE (1.order)= 0.000E+00
 bond charge predicted
       N       E                     dE             d eps       ncg     rms          rms(c)
DAV:   1    -0.658222163180E+02    0.33288E-09    0.12223E-12    84   0.220E-10    0.298E-10
RMM:   2    -0.658222163177E+02    0.29650E-09    0.00000E+00     1   0.209E-10
 164 F= -.65822216E+02 E0= -.65820083E+02  d E =-.363798E-11
quench:  g(F)=  0.000E+00 g(S)=  0.000E+00 dE (1.order)= 0.000E+00
 bond charge predicted
       N       E                     dE             d eps       ncg     rms          rms(c)
DAV:   1    -0.658222163174E+02    0.62573E-09   -0.58080E-11    84   0.187E-10    0.272E-10
RMM:   2    -0.658222163178E+02   -0.41837E-09    0.00000E+00     1   0.165E-10
 165 F= -.65822216E+02 E0= -.65820083E+02  d E =-.891305E-10
quench:  g(F)=  0.000E+00 g(S)=  0.000E+00 dE (1.order)= 0.000E+00
 bond charge predicted
       N       E                     dE             d eps       ncg     rms          rms(c)
DAV:   1    -0.658222163188E+02   -0.13733E-08    0.14208E-11    84   0.221E-10    0.176E-10
RMM:   2    -0.658222163178E+02    0.91859E-09    0.00000E+00     1   0.132E-10
 166 F= -.65822216E+02 E0= -.65820083E+02  d E =-.363798E-10
quench:  g(F)=  0.000E+00 g(S)=  0.000E+00 dE (1.order)= 0.000E+00
 bond charge predicted
       N       E                     dE             d eps       ncg     rms          rms(c)
DAV:   1    -0.658222163179E+02    0.86402E-09   -0.45239E-12    84   0.156E-10    0.339E-10
RMM:   2    -0.658222163177E+02    0.16553E-09    0.00000E+00     1   0.184E-10
 167 F= -.65822216E+02 E0= -.65820083E+02  d E =0.110958E-09
quench:  g(F)=  0.000E+00 g(S)=  0.000E+00 dE (1.order)= 0.000E+00
 bond charge predicted
       N       E                     dE             d eps       ncg     rms          rms(c)
DAV:   1    -0.658222163184E+02   -0.55479E-09   -0.94189E-11    84   0.215E-10    0.207E-10
RMM:   2    -0.658222163179E+02    0.55479E-09    0.00000E+00     1   0.155E-10
 168 F= -.65822216E+02 E0= -.65820083E+02  d E =-.165528E-09
quench:  g(F)=  0.000E+00 g(S)=  0.000E+00 dE (1.order)= 0.000E+00
 bond charge predicted
       N       E                     dE             d eps       ncg     rms          rms(c)
DAV:   1    -0.658222163176E+02    0.88949E-09    0.49920E-12    84   0.145E-10    0.198E-10
RMM:   2    -0.658222163177E+02   -0.16553E-09    0.00000E+00     1   0.190E-10
 169 F= -.65822216E+02 E0= -.65820083E+02  d E =0.169166E-09
quench:  g(F)=  0.000E+00 g(S)=  0.000E+00 dE (1.order)= 0.000E+00
 bond charge predicted
       N       E                     dE             d eps       ncg     rms          rms(c)
DAV:   1    -0.658222163176E+02   -0.29104E-10   -0.40812E-11    84   0.173E-10    0.280E-10
RMM:   2    -0.658222163178E+02   -0.25830E-09    0.00000E+00     1   0.195E-10
 170 F= -.65822216E+02 E0= -.65820083E+02  d E =-.121872E-09
quench:  g(F)=  0.000E+00 g(S)=  0.000E+00 dE (1.order)= 0.000E+00
 bond charge predicted
       N       E                     dE             d eps       ncg     rms          rms(c)
DAV:   1    -0.658222163175E+02    0.45475E-10   -0.63355E-11    84   0.254E-10    0.244E-10
RMM:   2    -0.658222163178E+02   -0.21282E-09    0.00000E+00     1   0.153E-10
 171 F= -.65822216E+02 E0= -.65820083E+02  d E =0.909495E-10
quench:  g(F)=  0.000E+00 g(S)=  0.000E+00 dE (1.order)= 0.000E+00
 bond charge predicted
       N       E                     dE             d eps       ncg     rms          rms(c)
DAV:   1    -0.658222163174E+02    0.15098E-09   -0.71033E-11    84   0.217E-10    0.197E-10
RMM:   2    -0.658222163179E+02   -0.47839E-09    0.00000E+00     1   0.121E-10
 172 F= -.65822216E+02 E0= -.65820083E+02  d E =-.114596E-09
quench:  g(F)=  0.000E+00 g(S)=  0.000E+00 dE (1.order)= 0.000E+00
 bond charge predicted
       N       E                     dE             d eps       ncg     rms          rms(c)
DAV:   1    -0.658222163178E+02   -0.39654E-09   -0.11373E-10    84   0.158E-10    0.238E-10
RMM:   2    -0.658222163178E+02    0.36380E-10    0.00000E+00     1   0.137E-10
 173 F= -.65822216E+02 E0= -.65820083E+02  d E =0.118234E-09
quench:  g(F)=  0.000E+00 g(S)=  0.000E+00 dE (1.order)= 0.000E+00
 bond charge predicted
       N       E                     dE             d eps       ncg     rms          rms(c)
DAV:   1    -0.658222163179E+02   -0.94587E-10    0.66948E-12    84   0.201E-10    0.223E-10
RMM:   2    -0.658222163178E+02    0.81855E-10    0.00000E+00     0   0.148E-10
 174 F= -.65822216E+02 E0= -.65820083E+02  d E =-.491127E-10
quench:  g(F)=  0.000E+00 g(S)=  0.000E+00 dE (1.order)= 0.000E+00
 bond charge predicted
       N       E                     dE             d eps       ncg     rms          rms(c)
DAV:   1    -0.658222163173E+02    0.58390E-09   -0.39309E-11    84   0.194E-10    0.289E-10
RMM:   2    -0.658222163178E+02   -0.50386E-09    0.00000E+00     1   0.164E-10
 175 F= -.65822216E+02 E0= -.65820083E+02  d E =-.181899E-11
quench:  g(F)=  0.000E+00 g(S)=  0.000E+00 dE (1.order)= 0.000E+00
 bond charge predicted
       N       E                     dE             d eps       ncg     rms          rms(c)
DAV:   1    -0.658222163172E+02    0.13642E-09   -0.68310E-11    84   0.213E-10    0.430E-10
RMM:   2    -0.658222163178E+02   -0.64756E-09    0.00000E+00     1   0.220E-10
 176 F= -.65822216E+02 E0= -.65820083E+02  d E =-.727596E-11
quench:  g(F)=  0.000E+00 g(S)=  0.000E+00 dE (1.order)= 0.000E+00
 bond charge predicted
       N       E                     dE             d eps       ncg     rms          rms(c)
DAV:   1    -0.658222163174E+02   -0.24011E-09   -0.85619E-12    84   0.274E-10    0.309E-10
RMM:   2    -0.658222163178E+02   -0.42564E-09    0.00000E+00     1   0.167E-10
 177 F= -.65822216E+02 E0= -.65820083E+02  d E =-.181899E-10
quench:  g(F)=  0.000E+00 g(S)=  0.000E+00 dE (1.order)= 0.000E+00
 bond charge predicted
       N       E                     dE             d eps       ncg     rms          rms(c)
DAV:   1    -0.658222163182E+02   -0.78580E-09    0.72156E-12    84   0.246E-10    0.474E-10
RMM:   2    -0.658222163178E+02    0.40927E-09    0.00000E+00     1   0.234E-10
 178 F= -.65822216E+02 E0= -.65820083E+02  d E =0.491127E-10
quench:  g(F)=  0.000E+00 g(S)=  0.000E+00 dE (1.order)= 0.000E+00
 bond charge predicted
       N       E                     dE             d eps       ncg     rms          rms(c)
DAV:   1    -0.658222163171E+02    0.10732E-08   -0.40088E-11    84   0.335E-10    0.218E-10
RMM:   2    -0.658222163178E+02   -0.69122E-09    0.00000E+00     1   0.143E-10
 179 F= -.65822216E+02 E0= -.65820083E+02  d E =-.272848E-10
quench:  g(F)=  0.000E+00 g(S)=  0.000E+00 dE (1.order)= 0.000E+00
 bond charge predicted
       N       E                     dE             d eps       ncg     rms          rms(c)
DAV:   1    -0.658222163185E+02   -0.13843E-08   -0.38903E-11    84   0.161E-10    0.164E-10
RMM:   2    -0.658222163178E+02    0.69485E-09    0.00000E+00     1   0.112E-10
 180 F= -.65822216E+02 E0= -.65820083E+02  d E =0.181899E-11
quench:  g(F)=  0.000E+00 g(S)=  0.000E+00 dE (1.order)= 0.000E+00
 bond charge predicted
       N       E                     dE             d eps       ncg     rms          rms(c)
DAV:   1    -0.658222163184E+02    0.13279E-09   -0.27428E-11    84   0.136E-10    0.367E-10
RMM:   2    -0.658222163179E+02    0.47658E-09    0.00000E+00     0   0.176E-10
 181 F= -.65822216E+02 E0= -.65820083E+02  d E =-.854925E-10
quench:  g(F)=  0.000E+00 g(S)=  0.000E+00 dE (1.order)= 0.000E+00
 bond charge predicted
       N       E                     dE             d eps       ncg     rms          rms(c)
DAV:   1    -0.658222163182E+02    0.16553E-09   -0.73348E-12    84   0.247E-10    0.190E-10
RMM:   2    -0.658222163178E+02    0.40745E-09    0.00000E+00     1   0.155E-10
 182 F= -.65822216E+02 E0= -.65820083E+02  d E =0.964064E-10
quench:  g(F)=  0.000E+00 g(S)=  0.000E+00 dE (1.order)= 0.000E+00
 bond charge predicted
       N       E                     dE             d eps       ncg     rms          rms(c)
DAV:   1    -0.658222163176E+02    0.55843E-09   -0.12141E-11    84   0.183E-10    0.157E-10
RMM:   2    -0.658222163177E+02   -0.70941E-10    0.00000E+00     0   0.132E-10
 183 F= -.65822216E+02 E0= -.65820083E+02  d E =0.800355E-10
quench:  g(F)=  0.000E+00 g(S)=  0.000E+00 dE (1.order)= 0.000E+00
 bond charge predicted
       N       E                     dE             d eps       ncg     rms          rms(c)
DAV:   1    -0.658222163172E+02    0.40745E-09   -0.35787E-11    84   0.147E-10    0.128E-10
RMM:   2    -0.658222163178E+02   -0.51477E-09    0.00000E+00     1   0.126E-10
 184 F= -.65822216E+02 E0= -.65820083E+02  d E =-.363798E-10
quench:  g(F)=  0.000E+00 g(S)=  0.000E+00 dE (1.order)= 0.000E+00
 bond charge predicted
       N       E                     dE             d eps       ncg     rms          rms(c)
DAV:   1    -0.658222163188E+02   -0.15407E-08   -0.20218E-11    84   0.133E-10    0.231E-10
RMM:   2    -0.658222163177E+02    0.10932E-08    0.00000E+00     0   0.154E-10
 185 F= -.65822216E+02 E0= -.65820083E+02  d E =0.673026E-10
quench:  g(F)=  0.000E+00 g(S)=  0.000E+00 dE (1.order)= 0.000E+00
 bond charge predicted
       N       E                     dE             d eps       ncg     rms          rms(c)
DAV:   1    -0.658222163178E+02    0.96588E-09   -0.80668E-11    84   0.184E-10    0.133E-10
RMM:   2    -0.658222163178E+02    0.38199E-10    0.00000E+00     1   0.147E-10
 186 F= -.65822216E+02 E0= -.65820083E+02  d E =-.891305E-10
quench:  g(F)=  0.000E+00 g(S)=  0.000E+00 dE (1.order)= 0.000E+00
 bond charge predicted
       N       E                     dE             d eps       ncg     rms          rms(c)
DAV:   1    -0.658222163178E+02    0.12733E-10    0.26248E-11    84   0.149E-10    0.397E-10
RMM:   2    -0.658222163178E+02   -0.72760E-11    0.00000E+00     0   0.196E-10
 187 F= -.65822216E+02 E0= -.65820083E+02  d E =-.327418E-10
quench:  g(F)=  0.000E+00 g(S)=  0.000E+00 dE (1.order)= 0.000E+00
 bond charge predicted
       N       E                     dE             d eps       ncg     rms          rms(c)
[...]
 bond charge predicted
       N       E                     dE             d eps       ncg     rms          rms(c)
DAV:   1    -0.658222163173E+02    0.74760E-09   -0.45042E-11    84   0.211E-10    0.368E-10
RMM:   2    -0.658222163178E+02   -0.44565E-09    0.00000E+00     0   0.257E-10
 953 F= -.65822216E+02 E0= -.65820083E+02  d E =0.130967E-09
quench:  g(F)=  0.000E+00 g(S)=  0.000E+00 dE (1.order)= 0.000E+00
 bond charge predicted
       N       E                     dE             d eps       ncg     rms          rms(c)
DAV:   1    -0.658222163181E+02   -0.76943E-09   -0.61805E-11    84   0.319E-10    0.481E-10
RMM:   2    -0.658222163178E+02    0.29468E-09    0.00000E+00     0   0.271E-10
 954 F= -.65822216E+02 E0= -.65820083E+02  d E =-.291038E-10
quench:  g(F)=  0.000E+00 g(S)=  0.000E+00 dE (1.order)= 0.000E+00
 bond charge predicted
       N       E                     dE             d eps       ncg     rms          rms(c)
DAV:   1    -0.658222163181E+02    0.90949E-11   -0.21666E-11    84   0.389E-10    0.363E-10
RMM:   2    -0.658222163178E+02    0.29831E-09    0.00000E+00     0   0.204E-10
 955 F= -.65822216E+02 E0= -.65820083E+02  d E =0.127329E-10
quench:  g(F)=  0.000E+00 g(S)=  0.000E+00 dE (1.order)= 0.000E+00
 bond charge predicted
       N       E                     dE             d eps       ncg     rms          rms(c)
DAV:   1    -0.658222163180E+02    0.41837E-10   -0.40627E-11    84   0.295E-10    0.191E-10
RMM:   2    -0.658222163177E+02    0.32924E-09    0.00000E+00     0   0.111E-10
 956 F= -.65822216E+02 E0= -.65820083E+02  d E =0.727596E-10
quench:  g(F)=  0.000E+00 g(S)=  0.000E+00 dE (1.order)= 0.000E+00
 bond charge predicted
       N       E                     dE             d eps       ncg     rms          rms(c)
DAV:   1    -0.658222163185E+02   -0.48385E-09   -0.20762E-11    84   0.200E-10    0.214E-10
RMM:   2    -0.658222163178E+02    0.67848E-09    0.00000E+00     0   0.162E-10
 957 F= -.65822216E+02 E0= -.65820083E+02  d E =-.134605E-09
quench:  g(F)=  0.000E+00 g(S)=  0.000E+00 dE (1.order)= 0.000E+00
 bond charge predicted
       N       E                     dE             d eps       ncg     rms          rms(c)
DAV:   1    -0.658222163177E+02    0.84401E-09   -0.36096E-11    84   0.188E-10    0.190E-10
RMM:   2    -0.658222163178E+02   -0.11460E-09    0.00000E+00     0   0.145E-10
 958 F= -.65822216E+02 E0= -.65820083E+02  d E =0.509317E-10
quench:  g(F)=  0.000E+00 g(S)=  0.000E+00 dE (1.order)= 0.000E+00
 bond charge predicted
       N       E                     dE             d eps       ncg     rms          rms(c)
DAV:   1    -0.658222163176E+02    0.11278E-09   -0.10960E-10    84   0.162E-10    0.284E-10
RMM:   2    -0.658222163177E+02   -0.17280E-09    0.00000E+00     0   0.168E-10
 959 F= -.65822216E+02 E0= -.65820083E+02  d E =0.545697E-10
quench:  g(F)=  0.000E+00 g(S)=  0.000E+00 dE (1.order)= 0.000E+00
 bond charge predicted
       N       E                     dE             d eps       ncg     rms          rms(c)
DAV:   1    -0.658222163183E+02   -0.71304E-09   -0.84100E-11    84   0.201E-10    0.191E-10
RMM:   2    -0.658222163177E+02    0.55843E-09    0.00000E+00     0   0.137E-10
 960 F= -.65822216E+02 E0= -.65820083E+02  d E =0.181899E-10
quench:  g(F)=  0.000E+00 g(S)=  0.000E+00 dE (1.order)= 0.000E+00
 bond charge predicted
       N       E                     dE             d eps       ncg     rms          rms(c)
DAV:   1    -0.658222163173E+02    0.98407E-09   -0.85280E-11    84   0.146E-10    0.287E-10
RMM:   2    -0.658222163178E+02   -0.48203E-09    0.00000E+00     0   0.165E-10
 961 F= -.65822216E+02 E0= -.65820083E+02  d E =-.563887E-10
quench:  g(F)=  0.000E+00 g(S)=  0.000E+00 dE (1.order)= 0.000E+00
 bond charge predicted
       N       E                     dE             d eps       ncg     rms          rms(c)
DAV:   1    -0.658222163172E+02    0.10550E-09   -0.75987E-11    84   0.203E-10    0.325E-10
RMM:   2    -0.658222163177E+02   -0.48931E-09    0.00000E+00     0   0.177E-10
 962 F= -.65822216E+02 E0= -.65820083E+02  d E =0.982254E-10
quench:  g(F)=  0.000E+00 g(S)=  0.000E+00 dE (1.order)= 0.000E+00
 bond charge predicted
       N       E                     dE             d eps       ncg     rms          rms(c)
DAV:   1    -0.658222163181E+02   -0.95497E-09   -0.52887E-11    84   0.225E-10    0.164E-10
RMM:   2    -0.658222163177E+02    0.39108E-09    0.00000E+00     0   0.112E-10
 963 F= -.65822216E+02 E0= -.65820083E+02  d E =-.745786E-10
quench:  g(F)=  0.000E+00 g(S)=  0.000E+00 dE (1.order)= 0.000E+00
 bond charge predicted
       N       E                     dE             d eps       ncg     rms          rms(c)
DAV:   1    -0.658222163170E+02    0.11460E-08   -0.35994E-11    84   0.140E-10    0.257E-10
RMM:   2    -0.658222163178E+02   -0.83310E-09    0.00000E+00     0   0.171E-10
 964 F= -.65822216E+02 E0= -.65820083E+02  d E =-.782165E-10
quench:  g(F)=  0.000E+00 g(S)=  0.000E+00 dE (1.order)= 0.000E+00
 bond charge predicted
       N       E                     dE             d eps       ncg     rms          rms(c)
DAV:   1    -0.658222163185E+02   -0.14770E-08    0.29282E-11    84   0.170E-10    0.290E-10
RMM:   2    -0.658222163178E+02    0.66939E-09    0.00000E+00     0   0.170E-10
 965 F= -.65822216E+02 E0= -.65820083E+02  d E =0.254659E-10
quench:  g(F)=  0.000E+00 g(S)=  0.000E+00 dE (1.order)= 0.000E+00
 bond charge predicted
       N       E                     dE             d eps       ncg     rms          rms(c)
DAV:   1    -0.658222163178E+02    0.67485E-09   -0.55657E-11    84   0.239E-10    0.339E-10
RMM:   2    -0.658222163178E+02    0.23647E-10    0.00000E+00     0   0.176E-10
 966 F= -.65822216E+02 E0= -.65820083E+02  d E =0.291038E-10
quench:  g(F)=  0.000E+00 g(S)=  0.000E+00 dE (1.order)= 0.000E+00
 bond charge predicted
       N       E                     dE             d eps       ncg     rms          rms(c)
DAV:   1    -0.658222163177E+02    0.65484E-10   -0.69739E-12    84   0.234E-10    0.226E-10
RMM:   2    -0.658222163178E+02   -0.52751E-10    0.00000E+00     0   0.157E-10
 967 F= -.65822216E+02 E0= -.65820083E+02  d E =-.109139E-10
quench:  g(F)=  0.000E+00 g(S)=  0.000E+00 dE (1.order)= 0.000E+00
 bond charge predicted
       N       E                     dE             d eps       ncg     rms          rms(c)
DAV:   1    -0.658222163181E+02   -0.32924E-09    0.15081E-11    84   0.208E-10    0.190E-10
RMM:   2    -0.658222163178E+02    0.23647E-09    0.00000E+00     0   0.145E-10
 968 F= -.65822216E+02 E0= -.65820083E+02  d E =-.400178E-10
quench:  g(F)=  0.000E+00 g(S)=  0.000E+00 dE (1.order)= 0.000E+00
 bond charge predicted
       N       E                     dE             d eps       ncg     rms          rms(c)
DAV:   1    -0.658222163171E+02    0.97862E-09   -0.54842E-12    84   0.151E-10    0.280E-10
RMM:   2    -0.658222163178E+02   -0.71304E-09    0.00000E+00     0   0.154E-10
 969 F= -.65822216E+02 E0= -.65820083E+02  d E =0.291038E-10
quench:  g(F)=  0.000E+00 g(S)=  0.000E+00 dE (1.order)= 0.000E+00
 bond charge predicted
       N       E                     dE             d eps       ncg     rms          rms(c)
DAV:   1    -0.658222163174E+02   -0.34197E-09   -0.68147E-11    84   0.205E-10    0.273E-10
RMM:   2    -0.658222163178E+02   -0.37653E-09    0.00000E+00     0   0.162E-10
 970 F= -.65822216E+02 E0= -.65820083E+02  d E =-.545697E-11
quench:  g(F)=  0.000E+00 g(S)=  0.000E+00 dE (1.order)= 0.000E+00
 bond charge predicted
       N       E                     dE             d eps       ncg     rms          rms(c)
DAV:   1    -0.658222163179E+02   -0.43474E-09   -0.20097E-11    84   0.210E-10    0.248E-10
RMM:   2    -0.658222163178E+02    0.21828E-10    0.00000E+00     0   0.151E-10
 971 F= -.65822216E+02 E0= -.65820083E+02  d E =-.363798E-10
quench:  g(F)=  0.000E+00 g(S)=  0.000E+00 dE (1.order)= 0.000E+00
 bond charge predicted
       N       E                     dE             d eps       ncg     rms          rms(c)
DAV:   1    -0.658222163185E+02   -0.60754E-09    0.21990E-11    84   0.185E-10    0.222E-10
RMM:   2    -0.658222163178E+02    0.67485E-09    0.00000E+00     0   0.138E-10
 972 F= -.65822216E+02 E0= -.65820083E+02  d E =0.454747E-10
quench:  g(F)=  0.000E+00 g(S)=  0.000E+00 dE (1.order)= 0.000E+00
 bond charge predicted
       N       E                     dE             d eps       ncg     rms          rms(c)
DAV:   1    -0.658222163172E+02    0.12969E-08   -0.58401E-11    84   0.164E-10    0.152E-10
RMM:   2    -0.658222163178E+02   -0.63847E-09    0.00000E+00     0   0.120E-10
 973 F= -.65822216E+02 E0= -.65820083E+02  d E =-.163709E-10
quench:  g(F)=  0.000E+00 g(S)=  0.000E+00 dE (1.order)= 0.000E+00
 bond charge predicted
       N       E                     dE             d eps       ncg     rms          rms(c)
DAV:   1    -0.658222163182E+02   -0.10004E-08   -0.15920E-12    84   0.130E-10    0.943E-11
RMM:   2    -0.658222163178E+02    0.33833E-09    0.00000E+00     0   0.848E-11
 974 F= -.65822216E+02 E0= -.65820083E+02  d E =-.236469E-10
quench:  g(F)=  0.000E+00 g(S)=  0.000E+00 dE (1.order)= 0.000E+00
 bond charge predicted
       N       E                     dE             d eps       ncg     rms          rms(c)
DAV:   1    -0.658222163181E+02    0.74579E-10   -0.72469E-11    84   0.103E-10    0.229E-10
RMM:   2    -0.658222163179E+02    0.20736E-09    0.00000E+00     0   0.152E-10
 975 F= -.65822216E+02 E0= -.65820083E+02  d E =-.563887E-10
quench:  g(F)=  0.000E+00 g(S)=  0.000E+00 dE (1.order)= 0.000E+00
 bond charge predicted
       N       E                     dE             d eps       ncg     rms          rms(c)
DAV:   1    -0.658222163184E+02   -0.26375E-09   -0.54833E-11    84   0.198E-10    0.230E-10
RMM:   2    -0.658222163178E+02    0.59299E-09    0.00000E+00     0   0.156E-10
 976 F= -.65822216E+02 E0= -.65820083E+02  d E =0.121872E-09
quench:  g(F)=  0.000E+00 g(S)=  0.000E+00 dE (1.order)= 0.000E+00
 bond charge predicted
       N       E                     dE             d eps       ncg     rms          rms(c)
DAV:   1    -0.658222163180E+02    0.37289E-09   -0.41529E-11    84   0.229E-10    0.297E-10
RMM:   2    -0.658222163177E+02    0.27103E-09    0.00000E+00     0   0.210E-10
 977 F= -.65822216E+02 E0= -.65820083E+02  d E =0.509317E-10
quench:  g(F)=  0.000E+00 g(S)=  0.000E+00 dE (1.order)= 0.000E+00
 bond charge predicted
       N       E                     dE             d eps       ncg     rms          rms(c)
DAV:   1    -0.658222163174E+02    0.54024E-09   -0.63255E-11    84   0.221E-10    0.149E-10
RMM:   2    -0.658222163178E+02   -0.33833E-09    0.00000E+00     0   0.132E-10
 978 F= -.65822216E+02 E0= -.65820083E+02  d E =-.691216E-10
quench:  g(F)=  0.000E+00 g(S)=  0.000E+00 dE (1.order)= 0.000E+00
 bond charge predicted
       N       E                     dE             d eps       ncg     rms          rms(c)
DAV:   1    -0.658222163170E+02    0.39108E-09    0.99962E-12    84   0.133E-10    0.212E-10
RMM:   2    -0.658222163178E+02   -0.78035E-09    0.00000E+00     0   0.134E-10
 979 F= -.65822216E+02 E0= -.65820083E+02  d E =-.509317E-10
quench:  g(F)=  0.000E+00 g(S)=  0.000E+00 dE (1.order)= 0.000E+00
 bond charge predicted
       N       E                     dE             d eps       ncg     rms          rms(c)
DAV:   1    -0.658222163175E+02   -0.46930E-09   -0.69549E-11    84   0.157E-10    0.224E-10
RMM:   2    -0.658222163179E+02   -0.38381E-09    0.00000E+00     0   0.172E-10
 980 F= -.65822216E+02 E0= -.65820083E+02  d E =-.727596E-10
quench:  g(F)=  0.000E+00 g(S)=  0.000E+00 dE (1.order)= 0.000E+00
 bond charge predicted
       N       E                     dE             d eps       ncg     rms          rms(c)
DAV:   1    -0.658222163180E+02   -0.52569E-09    0.10205E-11    84   0.190E-10    0.147E-10
RMM:   2    -0.658222163178E+02    0.25284E-09    0.00000E+00     0   0.161E-10
 981 F= -.65822216E+02 E0= -.65820083E+02  d E =0.110958E-09
quench:  g(F)=  0.000E+00 g(S)=  0.000E+00 dE (1.order)= 0.000E+00
 bond charge predicted
       N       E                     dE             d eps       ncg     rms          rms(c)
DAV:   1    -0.658222163175E+02    0.51477E-09   -0.14516E-11    84   0.193E-10    0.244E-10
RMM:   2    -0.658222163179E+02   -0.32560E-09    0.00000E+00     0   0.138E-10
 982 F= -.65822216E+02 E0= -.65820083E+02  d E =-.636646E-10
quench:  g(F)=  0.000E+00 g(S)=  0.000E+00 dE (1.order)= 0.000E+00
 bond charge predicted
       N       E                     dE             d eps       ncg     rms          rms(c)
DAV:   1    -0.658222163182E+02   -0.71486E-09   -0.57505E-11    84   0.217E-10    0.248E-10
RMM:   2    -0.658222163177E+02    0.54024E-09    0.00000E+00     0   0.162E-10
 983 F= -.65822216E+02 E0= -.65820083E+02  d E =0.150976E-09
quench:  g(F)=  0.000E+00 g(S)=  0.000E+00 dE (1.order)= 0.000E+00
 bond charge predicted
       N       E                     dE             d eps       ncg     rms          rms(c)
DAV:   1    -0.658222163179E+02    0.35288E-09   -0.96908E-13    84   0.211E-10    0.238E-10
RMM:   2    -0.658222163179E+02   -0.90949E-11    0.00000E+00     0   0.187E-10
 984 F= -.65822216E+02 E0= -.65820083E+02  d E =-.196451E-09
quench:  g(F)=  0.000E+00 g(S)=  0.000E+00 dE (1.order)= 0.000E+00
 bond charge predicted
       N       E                     dE             d eps       ncg     rms          rms(c)
DAV:   1    -0.658222163176E+02    0.33469E-09    0.21842E-11    84   0.248E-10    0.487E-10
RMM:   2    -0.658222163178E+02   -0.21100E-09    0.00000E+00     0   0.258E-10
 985 F= -.65822216E+02 E0= -.65820083E+02  d E =0.132786E-09
quench:  g(F)=  0.000E+00 g(S)=  0.000E+00 dE (1.order)= 0.000E+00
 bond charge predicted
       N       E                     dE             d eps       ncg     rms          rms(c)
DAV:   1    -0.658222163178E+02   -0.26375E-09   -0.92384E-11    84   0.370E-10    0.259E-10
RMM:   2    -0.658222163178E+02    0.12733E-10    0.00000E+00     0   0.183E-10
 986 F= -.65822216E+02 E0= -.65820083E+02  d E =-.400178E-10
quench:  g(F)=  0.000E+00 g(S)=  0.000E+00 dE (1.order)= 0.000E+00
 bond charge predicted
       N       E                     dE             d eps       ncg     rms          rms(c)
DAV:   1    -0.658222163176E+02    0.22192E-09   -0.42489E-11    84   0.236E-10    0.166E-10
RMM:   2    -0.658222163179E+02   -0.28012E-09    0.00000E+00     0   0.119E-10
 987 F= -.65822216E+02 E0= -.65820083E+02  d E =-.709406E-10
quench:  g(F)=  0.000E+00 g(S)=  0.000E+00 dE (1.order)= 0.000E+00
 bond charge predicted
       N       E                     dE             d eps       ncg     rms          rms(c)
DAV:   1    -0.658222163178E+02   -0.16917E-09   -0.66747E-11    84   0.181E-10    0.238E-10
RMM:   2    -0.658222163178E+02    0.12733E-10    0.00000E+00     0   0.160E-10
 988 F= -.65822216E+02 E0= -.65820083E+02  d E =0.123691E-09
quench:  g(F)=  0.000E+00 g(S)=  0.000E+00 dE (1.order)= 0.000E+00
 bond charge predicted
       N       E                     dE             d eps       ncg     rms          rms(c)
DAV:   1    -0.658222163178E+02   -0.29104E-10    0.15205E-11    84   0.205E-10    0.194E-10
RMM:   2    -0.658222163178E+02    0.27285E-10    0.00000E+00     0   0.172E-10
 989 F= -.65822216E+02 E0= -.65820083E+02  d E =-.145519E-10
quench:  g(F)=  0.000E+00 g(S)=  0.000E+00 dE (1.order)= 0.000E+00
 bond charge predicted
       N       E                     dE             d eps       ncg     rms          rms(c)
DAV:   1    -0.658222163176E+02    0.19099E-09   -0.10334E-11    84   0.165E-10    0.299E-10
RMM:   2    -0.658222163177E+02   -0.87311E-10    0.00000E+00     0   0.170E-10
 990 F= -.65822216E+02 E0= -.65820083E+02  d E =0.763976E-10
quench:  g(F)=  0.000E+00 g(S)=  0.000E+00 dE (1.order)= 0.000E+00
 bond charge predicted
       N       E                     dE             d eps       ncg     rms          rms(c)
DAV:   1    -0.658222163178E+02   -0.17644E-09   -0.35479E-11    84   0.247E-10    0.362E-10
RMM:   2    -0.658222163179E+02   -0.85493E-10    0.00000E+00     0   0.213E-10
 991 F= -.65822216E+02 E0= -.65820083E+02  d E =-.174623E-09
quench:  g(F)=  0.000E+00 g(S)=  0.000E+00 dE (1.order)= 0.000E+00
 bond charge predicted
       N       E                     dE             d eps       ncg     rms          rms(c)
DAV:   1    -0.658222163177E+02    0.12369E-09   -0.34778E-11    84   0.249E-10    0.201E-10
RMM:   2    -0.658222163178E+02   -0.14552E-09    0.00000E+00     0   0.155E-10
 992 F= -.65822216E+02 E0= -.65820083E+02  d E =0.636646E-10
quench:  g(F)=  0.000E+00 g(S)=  0.000E+00 dE (1.order)= 0.000E+00
 bond charge predicted
       N       E                     dE             d eps       ncg     rms          rms(c)
DAV:   1    -0.658222163170E+02    0.63665E-09    0.18459E-11    84   0.149E-10    0.205E-10
RMM:   2    -0.658222163178E+02   -0.76761E-09    0.00000E+00     0   0.128E-10
 993 F= -.65822216E+02 E0= -.65820083E+02  d E =0.145519E-10
quench:  g(F)=  0.000E+00 g(S)=  0.000E+00 dE (1.order)= 0.000E+00
 bond charge predicted
       N       E                     dE             d eps       ncg     rms          rms(c)
DAV:   1    -0.658222163178E+02   -0.80399E-09   -0.10657E-10    84   0.163E-10    0.215E-10
RMM:   2    -0.658222163178E+02    0.50932E-10    0.00000E+00     0   0.137E-10
 994 F= -.65822216E+02 E0= -.65820083E+02  d E =0.145519E-10
quench:  g(F)=  0.000E+00 g(S)=  0.000E+00 dE (1.order)= 0.000E+00
 bond charge predicted
       N       E                     dE             d eps       ncg     rms          rms(c)
DAV:   1    -0.658222163178E+02    0.47294E-10   -0.33709E-11    84   0.176E-10    0.264E-10
RMM:   2    -0.658222163179E+02   -0.98225E-10    0.00000E+00     0   0.148E-10
 995 F= -.65822216E+02 E0= -.65820083E+02  d E =-.101863E-09
quench:  g(F)=  0.000E+00 g(S)=  0.000E+00 dE (1.order)= 0.000E+00
 bond charge predicted
       N       E                     dE             d eps       ncg     rms          rms(c)
DAV:   1    -0.658222163180E+02   -0.19645E-09   -0.45394E-11    84   0.212E-10    0.376E-10
RMM:   2    -0.658222163179E+02    0.10732E-09    0.00000E+00     0   0.220E-10
 996 F= -.65822216E+02 E0= -.65820083E+02  d E =0.909495E-11
quench:  g(F)=  0.000E+00 g(S)=  0.000E+00 dE (1.order)= 0.000E+00
 bond charge predicted
       N       E                     dE             d eps       ncg     rms          rms(c)
DAV:   1    -0.658222163175E+02    0.51114E-09   -0.51107E-11    84   0.268E-10    0.149E-10
RMM:   2    -0.658222163178E+02   -0.32196E-09    0.00000E+00     0   0.169E-10
 997 F= -.65822216E+02 E0= -.65820083E+02  d E =0.818545E-10
quench:  g(F)=  0.000E+00 g(S)=  0.000E+00 dE (1.order)= 0.000E+00
 bond charge predicted
       N       E                     dE             d eps       ncg     rms          rms(c)
DAV:   1    -0.658222163175E+02   -0.72760E-10    0.49007E-11    84   0.189E-10    0.291E-10
RMM:   2    -0.658222163177E+02   -0.19463E-09    0.00000E+00     0   0.180E-10
 998 F= -.65822216E+02 E0= -.65820083E+02  d E =0.545697E-10
quench:  g(F)=  0.000E+00 g(S)=  0.000E+00 dE (1.order)= 0.000E+00
 bond charge predicted
       N       E                     dE             d eps       ncg     rms          rms(c)
DAV:   1    -0.658222163175E+02    0.58208E-10   -0.45131E-11    84   0.214E-10    0.317E-10
RMM:   2    -0.658222163178E+02   -0.31650E-09    0.00000E+00     0   0.161E-10
 999 F= -.65822216E+02 E0= -.65820083E+02  d E =-.636646E-10
quench:  g(F)=  0.000E+00 g(S)=  0.000E+00 dE (1.order)= 0.000E+00
 bond charge predicted
       N       E                     dE             d eps       ncg     rms          rms(c)
DAV:   1    -0.658222163169E+02    0.54752E-09   -0.53862E-11    84   0.231E-10    0.174E-10
RMM:   2    -0.658222163179E+02   -0.92405E-09    0.00000E+00     0   0.137E-10
1000 F= -.65822216E+02 E0= -.65820083E+02  d E =-.600267E-10
quench:  g(F)=  0.000E+00 g(S)=  0.000E+00 dE (1.order)= 0.000E+00
