 vasp.6.3.2 27Jun22 (build Jun 14 2024 17:29:11) complex                         
 POSCAR found type information on POSCAR NaInS 
 02/POSCAR found :  3 types and      19 ions
 -----------------------------------------------------------------------------
|                                                                             |
|           W    W    AA    RRRRR   N    N  II  N    N   GGGG   !!!           |
|           W    W   A  A   R    R  NN   N  II  NN   N  G    G  !!!           |
|           W    W  A    A  R    R  N N  N  II  N N  N  G       !!!           |
|           W WW W  AAAAAA  RRRRR   N  N N  II  N  N N  G  GGG   !            |
|           WW  WW  A    A  R   R   N   NN  II  N   NN  G    G                |
|           W    W  A    A  R    R  N    N  II  N    N   GGGG   !!!           |
|                                                                             |
|     The value NPAR = 9 specified in the INCAR file was overwritten,         |
|     because it was not compatible with the 3 processes available:           |
|     NPAR = 3                                                                |
|     was used instead, please check that this makes sense for your           |
|     machine.                                                                |
|                                                                             |
 -----------------------------------------------------------------------------

 -----------------------------------------------------------------------------
|                                                                             |
|               ----> ADVICE to this user running VASP <----                  |
|                                                                             |
|     You have a (more or less) 'large supercell' and for larger cells it     |
|     might be more efficient to use real-space projection operators.         |
|     Therefore, try LREAL= Auto in the INCAR file.                           |
|     Mind: For very accurate calculation, you might also keep the            |
|     reciprocal projection scheme (i.e. LREAL=.FALSE.).                      |
|                                                                             |
 -----------------------------------------------------------------------------

 LDA part: xc-table for Pade appr. of Perdew
 POSCAR found type information on POSCAR NaInS 
 00/POSCAR found :  3 types and      19 ions
 POSCAR found type information on POSCAR NaInS 
 10/POSCAR found :  3 types and      19 ions
 POSCAR, INCAR and KPOINTS ok, starting setup
 FFT: planning ... GRIDC
 FFT: planning ... GRID_SOFT
 FFT: planning ... GRID
 WAVECAR not read
 entering main loop
       N       E                     dE             d eps       ncg     rms          rms(c)
DAV:   1     0.146909719370E+04    0.14691E+04   -0.63547E+04   168   0.166E+03
DAV:   2     0.175688127886E+03   -0.12934E+04   -0.12563E+04   168   0.451E+02
DAV:   3    -0.461990641607E+02   -0.22189E+03   -0.21697E+03   204   0.197E+02
DAV:   4    -0.646075405107E+02   -0.18408E+02   -0.18240E+02   201   0.512E+01
DAV:   5    -0.653811318927E+02   -0.77359E+00   -0.77267E+00   246   0.114E+01    0.149E+01
RMM:   6    -0.603116002055E+02    0.50695E+01   -0.90795E+00   187   0.753E+00    0.959E+00
RMM:   7    -0.604138112097E+02   -0.10221E+00   -0.73709E+00   208   0.579E+00    0.720E+00
RMM:   8    -0.601071599959E+02    0.30665E+00   -0.86937E-01   217   0.291E+00    0.481E+00
RMM:   9    -0.600035029471E+02    0.10366E+00   -0.67828E-01   202   0.212E+00    0.221E+00
RMM:  10    -0.599644295551E+02    0.39073E-01   -0.15107E-01   203   0.120E+00    0.143E+00
RMM:  11    -0.599472408933E+02    0.17189E-01   -0.44059E-02   205   0.661E-01    0.957E-01
RMM:  12    -0.599378460896E+02    0.93948E-02   -0.13589E-02   244   0.389E-01    0.676E-01
RMM:  13    -0.599353365771E+02    0.25095E-02   -0.49357E-03   201   0.190E-01    0.307E-01
RMM:  14    -0.599382222879E+02   -0.28857E-02   -0.43507E-03   179   0.208E-01    0.256E-01
RMM:  15    -0.599383669379E+02   -0.14465E-03   -0.14978E-03   191   0.117E-01    0.274E-01
RMM:  16    -0.599376135631E+02    0.75337E-03   -0.45098E-04   196   0.857E-02    0.107E-01
RMM:  17    -0.599376066564E+02    0.69067E-05   -0.33754E-04   194   0.605E-02    0.197E-02
RMM:  18    -0.599376129729E+02   -0.63164E-05   -0.96257E-05   233   0.341E-02    0.278E-02
RMM:  19    -0.599376140020E+02   -0.10291E-05   -0.15713E-05   183   0.122E-02    0.360E-02
RMM:  20    -0.599376343873E+02   -0.20385E-04   -0.13703E-05   148   0.934E-03    0.419E-02
RMM:  21    -0.599376161759E+02    0.18211E-04   -0.79078E-06   143   0.880E-03    0.257E-02
RMM:  22    -0.599376161963E+02   -0.20431E-07   -0.14654E-06   108   0.568E-03
   1 F= -.59937616E+02 E0= -.59923817E+02  d E =-.599376E+02
quench:  g(F)=  0.000E+00 g(S)=  0.000E+00 dE (1.order)= 0.000E+00
 bond charge predicted
       N       E                     dE             d eps       ncg     rms          rms(c)
DAV:   1    -0.599376160436E+02    0.13230E-06   -0.63068E-07   105   0.593E-03    0.218E-02
RMM:   2    -0.599376168253E+02   -0.78174E-06   -0.20282E-06   115   0.376E-03
   2 F= -.59937617E+02 E0= -.59923946E+02  d E =-.629007E-06
quench:  g(F)=  0.000E+00 g(S)=  0.000E+00 dE (1.order)= 0.000E+00
 bond charge predicted
       N       E                     dE             d eps       ncg     rms          rms(c)
DAV:   1    -0.599376165878E+02   -0.54419E-06   -0.16688E-05   129   0.653E-03    0.128E-02
RMM:   2    -0.599376218205E+02   -0.52328E-05   -0.37910E-06   129   0.378E-03    0.195E-02
RMM:   3    -0.599376156185E+02    0.62021E-05   -0.22824E-06   129   0.374E-03    0.609E-03
RMM:   4    -0.599376156518E+02   -0.33348E-07   -0.58464E-07    84   0.277E-03
   3 F= -.59937616E+02 E0= -.59923853E+02  d E =0.117347E-05
quench:  g(F)=  0.000E+00 g(S)=  0.000E+00 dE (1.order)= 0.000E+00
 bond charge predicted
       N       E                     dE             d eps       ncg     rms          rms(c)
DAV:   1    -0.599376156335E+02   -0.15038E-07   -0.21016E-07   111   0.250E-03    0.827E-04
RMM:   2    -0.599376156296E+02    0.38945E-08   -0.21462E-08    35   0.788E-04
   4 F= -.59937616E+02 E0= -.59923858E+02  d E =0.222044E-07
quench:  g(F)=  0.000E+00 g(S)=  0.000E+00 dE (1.order)= 0.000E+00
 bond charge predicted
       N       E                     dE             d eps       ncg     rms          rms(c)
DAV:   1    -0.599376156287E+02    0.48112E-08   -0.31491E-08   120   0.851E-04    0.703E-04
RMM:   2    -0.599376156340E+02   -0.53242E-08   -0.44407E-10    16   0.470E-04
   5 F= -.59937616E+02 E0= -.59923865E+02  d E =-.440741E-08
quench:  g(F)=  0.000E+00 g(S)=  0.000E+00 dE (1.order)= 0.000E+00
 bond charge predicted
       N       E                     dE             d eps       ncg     rms          rms(c)
DAV:   1    -0.599376156245E+02    0.42146E-08   -0.37294E-08   120   0.513E-04    0.614E-04
RMM:   2    -0.599376156245E+02   -0.50932E-10    0.50564-120    13   0.293E-04
   6 F= -.59937616E+02 E0= -.59923857E+02  d E =0.948785E-08
quench:  g(F)=  0.000E+00 g(S)=  0.000E+00 dE (1.order)= 0.000E+00
 bond charge predicted
       N       E                     dE             d eps       ncg     rms          rms(c)
DAV:   1    -0.599376156242E+02    0.31832E-09   -0.36451E-09   120   0.302E-04    0.593E-04
RMM:   2    -0.599376156238E+02    0.41837E-09    0.00000E+00    10   0.226E-04
   7 F= -.59937616E+02 E0= -.59923855E+02  d E =0.787622E-09
quench:  g(F)=  0.000E+00 g(S)=  0.000E+00 dE (1.order)= 0.000E+00
 bond charge predicted
       N       E                     dE             d eps       ncg     rms          rms(c)
DAV:   1    -0.599376156234E+02    0.79672E-09   -0.39338E-09   120   0.238E-04    0.585E-04
RMM:   2    -0.599376156229E+02    0.42928E-09    0.00000E+00    10   0.158E-04
   8 F= -.59937616E+02 E0= -.59923857E+02  d E =0.807631E-09
quench:  g(F)=  0.000E+00 g(S)=  0.000E+00 dE (1.order)= 0.000E+00
 bond charge predicted
       N       E                     dE             d eps       ncg     rms          rms(c)
DAV:   1    -0.599376156239E+02   -0.53296E-09   -0.11360E-09    93   0.163E-04    0.584E-04
RMM:   2    -0.599376156223E+02    0.15752E-08    0.00000E+00     8   0.129E-04
   9 F= -.59937616E+02 E0= -.59923856E+02  d E =0.612999E-09
quench:  g(F)=  0.000E+00 g(S)=  0.000E+00 dE (1.order)= 0.000E+00
 bond charge predicted
       N       E                     dE             d eps       ncg     rms          rms(c)
DAV:   1    -0.599376156226E+02    0.12897E-08   -0.13019E-09    93   0.137E-04    0.580E-04
RMM:   2    -0.599376156220E+02    0.59845E-09    0.00000E+00     8   0.932E-05
  10 F= -.59937616E+02 E0= -.59923857E+02  d E =0.312866E-09
quench:  g(F)=  0.000E+00 g(S)=  0.000E+00 dE (1.order)= 0.000E+00
 bond charge predicted
       N       E                     dE             d eps       ncg     rms          rms(c)
DAV:   1    -0.599376156220E+02    0.57116E-09   -0.37156E-10    93   0.959E-05    0.580E-04
RMM:   2    -0.599376156215E+02    0.49658E-09    0.00000E+00     8   0.753E-05
  11 F= -.59937616E+02 E0= -.59923856E+02  d E =0.469299E-09
quench:  g(F)=  0.000E+00 g(S)=  0.000E+00 dE (1.order)= 0.000E+00
 bond charge predicted
       N       E                     dE             d eps       ncg     rms          rms(c)
DAV:   1    -0.599376156214E+02    0.66575E-09   -0.47980E-10    93   0.817E-05    0.578E-04
RMM:   2    -0.599376156214E+02   -0.36380E-10    0.00000E+00     8   0.563E-05
  12 F= -.59937616E+02 E0= -.59923857E+02  d E =0.132786E-09
quench:  g(F)=  0.000E+00 g(S)=  0.000E+00 dE (1.order)= 0.000E+00
 bond charge predicted
       N       E                     dE             d eps       ncg     rms          rms(c)
DAV:   1    -0.599376156209E+02    0.43656E-09   -0.15237E-10    93   0.579E-05    0.578E-04
RMM:   2    -0.599376156211E+02   -0.19827E-09    0.00000E+00     8   0.448E-05
  13 F= -.59937616E+02 E0= -.59923856E+02  d E =0.274667E-09
quench:  g(F)=  0.000E+00 g(S)=  0.000E+00 dE (1.order)= 0.000E+00
 bond charge predicted
       N       E                     dE             d eps       ncg     rms          rms(c)
DAV:   1    -0.599376156210E+02   -0.36380E-10   -0.10743E-10    93   0.490E-05    0.578E-04
RMM:   2    -0.599376156211E+02   -0.12551E-09    0.00000E+00     8   0.344E-05
  14 F= -.59937616E+02 E0= -.59923857E+02  d E =0.363798E-10
quench:  g(F)=  0.000E+00 g(S)=  0.000E+00 dE (1.order)= 0.000E+00
 bond charge predicted
       N       E                     dE             d eps       ncg     rms          rms(c)
DAV:   1    -0.599376156215E+02   -0.49658E-09    0.24667E-11    93   0.354E-05    0.578E-04
RMM:   2    -0.599376156209E+02    0.60936E-09    0.00000E+00     8   0.275E-05
  15 F= -.59937616E+02 E0= -.59923857E+02  d E =0.238288E-09
quench:  g(F)=  0.000E+00 g(S)=  0.000E+00 dE (1.order)= 0.000E+00
 bond charge predicted
       N       E                     dE             d eps       ncg     rms          rms(c)
DAV:   1    -0.599376156211E+02    0.37471E-09    0.25831E-11    93   0.300E-05    0.577E-04
RMM:   2    -0.599376156209E+02    0.22010E-09    0.00000E+00     8   0.211E-05
  16 F= -.59937616E+02 E0= -.59923857E+02  d E =-.145519E-10
quench:  g(F)=  0.000E+00 g(S)=  0.000E+00 dE (1.order)= 0.000E+00
 bond charge predicted
       N       E                     dE             d eps       ncg     rms          rms(c)
DAV:   1    -0.599376156209E+02    0.23829E-09   -0.12512E-10    93   0.216E-05    0.577E-04
RMM:   2    -0.599376156206E+02    0.22737E-09    0.00000E+00     8   0.171E-05
  17 F= -.59937616E+02 E0= -.59923857E+02  d E =0.245564E-09
quench:  g(F)=  0.000E+00 g(S)=  0.000E+00 dE (1.order)= 0.000E+00
 bond charge predicted
       N       E                     dE             d eps       ncg     rms          rms(c)
DAV:   1    -0.599376156204E+02    0.43838E-09    0.10935E-10    93   0.185E-05    0.577E-04
RMM:   2    -0.599376156207E+02   -0.24374E-09    0.00000E+00     6   0.129E-05
  18 F= -.59937616E+02 E0= -.59923857E+02  d E =-.327418E-10
quench:  g(F)=  0.000E+00 g(S)=  0.000E+00 dE (1.order)= 0.000E+00
 bond charge predicted
       N       E                     dE             d eps       ncg     rms          rms(c)
DAV:   1    -0.599376156211E+02   -0.67848E-09    0.20191E-12    93   0.133E-05    0.577E-04
RMM:   2    -0.599376156207E+02    0.41291E-09    0.00000E+00     8   0.105E-05
  19 F= -.59937616E+02 E0= -.59923857E+02  d E =-.218279E-10
quench:  g(F)=  0.000E+00 g(S)=  0.000E+00 dE (1.order)= 0.000E+00
 bond charge predicted
       N       E                     dE             d eps       ncg     rms          rms(c)
DAV:   1    -0.599376156214E+02   -0.25648E-09    0.88420E-12    93   0.113E-05    0.577E-04
RMM:   2    -0.599376156207E+02    0.62209E-09    0.00000E+00     8   0.796E-06
  20 F= -.59937616E+02 E0= -.59923857E+02  d E =-.472937E-10
quench:  g(F)=  0.000E+00 g(S)=  0.000E+00 dE (1.order)= 0.000E+00
 bond charge predicted
       N       E                     dE             d eps       ncg     rms          rms(c)
DAV:   1    -0.599376156208E+02    0.55115E-09   -0.77385E-11    93   0.826E-06    0.577E-04
RMM:   2    -0.599376156206E+02    0.23647E-09    0.00000E+00     8   0.642E-06
  21 F= -.59937616E+02 E0= -.59923857E+02  d E =0.165528E-09
quench:  g(F)=  0.000E+00 g(S)=  0.000E+00 dE (1.order)= 0.000E+00
 bond charge predicted
       N       E                     dE             d eps       ncg     rms          rms(c)
DAV:   1    -0.599376156204E+02    0.40563E-09   -0.56621E-11    93   0.683E-06    0.577E-04
RMM:   2    -0.599376156206E+02   -0.17280E-09    0.00000E+00     6   0.495E-06
  22 F= -.59937616E+02 E0= -.59923857E+02  d E =-.363798E-11
quench:  g(F)=  0.000E+00 g(S)=  0.000E+00 dE (1.order)= 0.000E+00
 bond charge predicted
       N       E                     dE             d eps       ncg     rms          rms(c)
DAV:   1    -0.599376156204E+02   -0.47294E-10   -0.10436E-10    93   0.518E-06    0.577E-04
RMM:   2    -0.599376156207E+02   -0.22737E-09    0.00000E+00     6   0.394E-06
  23 F= -.59937616E+02 E0= -.59923857E+02  d E =-.101863E-09
quench:  g(F)=  0.000E+00 g(S)=  0.000E+00 dE (1.order)= 0.000E+00
 bond charge predicted
       N       E                     dE             d eps       ncg     rms          rms(c)
DAV:   1    -0.599376156208E+02   -0.35470E-09   -0.77545E-11    93   0.414E-06    0.577E-04
RMM:   2    -0.599376156206E+02    0.18736E-09    0.00000E+00     6   0.318E-06
  24 F= -.59937616E+02 E0= -.59923857E+02  d E =0.600267E-10
quench:  g(F)=  0.000E+00 g(S)=  0.000E+00 dE (1.order)= 0.000E+00
 bond charge predicted
       N       E                     dE             d eps       ncg     rms          rms(c)
DAV:   1    -0.599376156205E+02    0.34743E-09   -0.49654E-11    93   0.336E-06    0.577E-04
RMM:   2    -0.599376156206E+02   -0.17644E-09    0.00000E+00     6   0.240E-06
  25 F= -.59937616E+02 E0= -.59923857E+02  d E =-.163709E-10
quench:  g(F)=  0.000E+00 g(S)=  0.000E+00 dE (1.order)= 0.000E+00
 bond charge predicted
       N       E                     dE             d eps       ncg     rms          rms(c)
DAV:   1    -0.599376156201E+02    0.32742E-09    0.91570E-11    93   0.251E-06    0.577E-04
RMM:   2    -0.599376156205E+02   -0.41837E-09    0.00000E+00     6   0.207E-06
  26 F= -.59937616E+02 E0= -.59923857E+02  d E =0.854925E-10
quench:  g(F)=  0.000E+00 g(S)=  0.000E+00 dE (1.order)= 0.000E+00
 bond charge predicted
       N       E                     dE             d eps       ncg     rms          rms(c)
DAV:   1    -0.599376156205E+02   -0.40927E-09    0.74636E-12    93   0.214E-06    0.577E-04
RMM:   2    -0.599376156205E+02    0.18190E-11    0.00000E+00     6   0.148E-06
  27 F= -.59937616E+02 E0= -.59923857E+02  d E =0.109139E-10
quench:  g(F)=  0.000E+00 g(S)=  0.000E+00 dE (1.order)= 0.000E+00
 bond charge predicted
       N       E                     dE             d eps       ncg     rms          rms(c)
DAV:   1    -0.599376156210E+02   -0.42746E-09    0.16729E-11    93   0.153E-06    0.577E-04
RMM:   2    -0.599376156205E+02    0.46748E-09    0.00000E+00     6   0.126E-06
  28 F= -.59937616E+02 E0= -.59923857E+02  d E =0.381988E-10
quench:  g(F)=  0.000E+00 g(S)=  0.000E+00 dE (1.order)= 0.000E+00
 bond charge predicted
       N       E                     dE             d eps       ncg     rms          rms(c)
DAV:   1    -0.599376156210E+02   -0.47294E-10    0.99243E-11    93   0.132E-06    0.577E-04
RMM:   2    -0.599376156205E+02    0.53660E-09    0.00000E+00     5   0.931E-07
  29 F= -.59937616E+02 E0= -.59923857E+02  d E =0.218279E-10
quench:  g(F)=  0.000E+00 g(S)=  0.000E+00 dE (1.order)= 0.000E+00
 bond charge predicted
       N       E                     dE             d eps       ncg     rms          rms(c)
DAV:   1    -0.599376156206E+02    0.37471E-09   -0.26126E-11    93   0.959E-07    0.577E-04
RMM:   2    -0.599376156204E+02    0.20918E-09    0.00000E+00     5   0.784E-07
  30 F= -.59937616E+02 E0= -.59923857E+02  d E =0.472937E-10
quench:  g(F)=  0.000E+00 g(S)=  0.000E+00 dE (1.order)= 0.000E+00
 bond charge predicted
       N       E                     dE             d eps       ncg     rms          rms(c)
DAV:   1    -0.599376156217E+02   -0.10386E-08    0.32913E-11    93   0.818E-07    0.577E-04
RMM:   2    -0.599376156205E+02    0.11696E-08    0.00000E+00     5   0.587E-07
  31 F= -.59937616E+02 E0= -.59923857E+02  d E =-.782165E-10
quench:  g(F)=  0.000E+00 g(S)=  0.000E+00 dE (1.order)= 0.000E+00
 bond charge predicted
       N       E                     dE             d eps       ncg     rms          rms(c)
DAV:   1    -0.599376156205E+02    0.11933E-08   -0.11277E-11    93   0.606E-07    0.577E-04
RMM:   2    -0.599376156205E+02   -0.25466E-10    0.00000E+00     5   0.502E-07
  32 F= -.59937616E+02 E0= -.59923857E+02  d E =-.181899E-11
quench:  g(F)=  0.000E+00 g(S)=  0.000E+00 dE (1.order)= 0.000E+00
 bond charge predicted
       N       E                     dE             d eps       ncg     rms          rms(c)
DAV:   1    -0.599376156207E+02   -0.22737E-09    0.73258E-11    93   0.518E-07    0.577E-04
RMM:   2    -0.599376156205E+02    0.18008E-09    0.00000E+00     5   0.371E-07
  33 F= -.59937616E+02 E0= -.59923857E+02  d E =-.218279E-10
quench:  g(F)=  0.000E+00 g(S)=  0.000E+00 dE (1.order)= 0.000E+00
 bond charge predicted
       N       E                     dE             d eps       ncg     rms          rms(c)
DAV:   1    -0.599376156210E+02   -0.26193E-09    0.15236E-11    93   0.384E-07    0.577E-04
RMM:   2    -0.599376156205E+02    0.48385E-09    0.00000E+00     5   0.318E-07
  34 F= -.59937616E+02 E0= -.59923857E+02  d E =0.418368E-10
quench:  g(F)=  0.000E+00 g(S)=  0.000E+00 dE (1.order)= 0.000E+00
 bond charge predicted
       N       E                     dE             d eps       ncg     rms          rms(c)
DAV:   1    -0.599376156198E+02    0.11787E-08    0.57463E-11    93   0.328E-07    0.577E-04
RMM:   2    -0.599376156205E+02   -0.73487E-09    0.00000E+00     4   0.239E-07
  35 F= -.59937616E+02 E0= -.59923857E+02  d E =-.400178E-10
quench:  g(F)=  0.000E+00 g(S)=  0.000E+00 dE (1.order)= 0.000E+00
 bond charge predicted
       N       E                     dE             d eps       ncg     rms          rms(c)
DAV:   1    -0.599376156202E+02   -0.42019E-09    0.47746E-12    93   0.250E-07    0.577E-04
RMM:   2    -0.599376156205E+02   -0.27103E-09    0.00000E+00     4   0.199E-07
  36 F= -.59937616E+02 E0= -.59923857E+02  d E =0.436557E-10
quench:  g(F)=  0.000E+00 g(S)=  0.000E+00 dE (1.order)= 0.000E+00
 bond charge predicted
       N       E                     dE             d eps       ncg     rms          rms(c)
DAV:   1    -0.599376156208E+02   -0.58935E-09   -0.23377E-12    93   0.205E-07    0.577E-04
RMM:   2    -0.599376156205E+02    0.30741E-09    0.00000E+00     4   0.156E-07
  37 F= -.59937616E+02 E0= -.59923857E+02  d E =-.109139E-10
quench:  g(F)=  0.000E+00 g(S)=  0.000E+00 dE (1.order)= 0.000E+00
 bond charge predicted
       N       E                     dE             d eps       ncg     rms          rms(c)
DAV:   1    -0.599376156201E+02    0.73851E-09   -0.76170E-11    93   0.162E-07    0.577E-04
RMM:   2    -0.599376156206E+02   -0.49658E-09    0.00000E+00     4   0.126E-07
  38 F= -.59937616E+02 E0= -.59923857E+02  d E =-.654836E-10
quench:  g(F)=  0.000E+00 g(S)=  0.000E+00 dE (1.order)= 0.000E+00
 bond charge predicted
       N       E                     dE             d eps       ncg     rms          rms(c)
DAV:   1    -0.599376156206E+02   -0.53114E-09    0.12876E-10    93   0.130E-07    0.577E-04
RMM:   2    -0.599376156204E+02    0.20736E-09    0.00000E+00     4   0.987E-08
  39 F= -.59937616E+02 E0= -.59923857E+02  d E =0.172804E-09
quench:  g(F)=  0.000E+00 g(S)=  0.000E+00 dE (1.order)= 0.000E+00
 bond charge predicted
       N       E                     dE             d eps       ncg     rms          rms(c)
DAV:   1    -0.599376156206E+02   -0.27285E-10   -0.95289E-11    93   0.103E-07    0.577E-04
RMM:   2    -0.599376156206E+02    0.67303E-10    0.00000E+00     4   0.806E-08
  40 F= -.59937616E+02 E0= -.59923857E+02  d E =-.167347E-09
quench:  g(F)=  0.000E+00 g(S)=  0.000E+00 dE (1.order)= 0.000E+00
 bond charge predicted
       N       E                     dE             d eps       ncg     rms          rms(c)
DAV:   1    -0.599376156205E+02    0.96406E-10    0.26681E-11    93   0.826E-08    0.577E-04
RMM:   2    -0.599376156205E+02    0.58208E-10    0.00000E+00     4   0.633E-08
  41 F= -.59937616E+02 E0= -.59923857E+02  d E =0.873115E-10
quench:  g(F)=  0.000E+00 g(S)=  0.000E+00 dE (1.order)= 0.000E+00
 bond charge predicted
       N       E                     dE             d eps       ncg     rms          rms(c)
DAV:   1    -0.599376156201E+02    0.44747E-09    0.73108E-11    93   0.662E-08    0.577E-04
RMM:   2    -0.599376156204E+02   -0.36198E-09    0.00000E+00     4   0.517E-08
  42 F= -.59937616E+02 E0= -.59923857E+02  d E =0.272848E-10
quench:  g(F)=  0.000E+00 g(S)=  0.000E+00 dE (1.order)= 0.000E+00
 bond charge predicted
       N       E                     dE             d eps       ncg     rms          rms(c)
DAV:   1    -0.599376156210E+02   -0.92041E-09    0.57819E-12    93   0.531E-08    0.577E-04
RMM:   2    -0.599376156205E+02    0.54933E-09    0.00000E+00     4   0.410E-08
  43 F= -.59937616E+02 E0= -.59923857E+02  d E =-.909495E-11
quench:  g(F)=  0.000E+00 g(S)=  0.000E+00 dE (1.order)= 0.000E+00
 bond charge predicted
       N       E                     dE             d eps       ncg     rms          rms(c)
DAV:   1    -0.599376156196E+02    0.13697E-08    0.45795E-11    93   0.426E-08    0.577E-04
RMM:   2    -0.599376156204E+02   -0.81673E-09    0.00000E+00     4   0.333E-08
  44 F= -.59937616E+02 E0= -.59923857E+02  d E =0.363798E-11
quench:  g(F)=  0.000E+00 g(S)=  0.000E+00 dE (1.order)= 0.000E+00
 bond charge predicted
       N       E                     dE             d eps       ncg     rms          rms(c)
DAV:   1    -0.599376156201E+02   -0.44383E-09   -0.41013E-11    93   0.342E-08    0.577E-04
RMM:   2    -0.599376156206E+02   -0.50568E-09    0.00000E+00     3   0.267E-08
  45 F= -.59937616E+02 E0= -.59923857E+02  d E =-.132786E-09
quench:  g(F)=  0.000E+00 g(S)=  0.000E+00 dE (1.order)= 0.000E+00
 bond charge predicted
       N       E                     dE             d eps       ncg     rms          rms(c)
DAV:   1    -0.599376156202E+02   -0.90949E-10    0.85572E-11    93   0.277E-08    0.577E-04
RMM:   2    -0.599376156204E+02   -0.26921E-09    0.00000E+00     3   0.215E-08
  46 F= -.59937616E+02 E0= -.59923857E+02  d E =0.145519E-09
quench:  g(F)=  0.000E+00 g(S)=  0.000E+00 dE (1.order)= 0.000E+00
 bond charge predicted
       N       E                     dE             d eps       ncg     rms          rms(c)
DAV:   1    -0.599376156199E+02    0.29468E-09    0.17069E-11    93   0.219E-08    0.577E-04
RMM:   2    -0.599376156205E+02   -0.61118E-09    0.00000E+00     3   0.171E-08
  47 F= -.59937616E+02 E0= -.59923857E+02  d E =-.472937E-10
quench:  g(F)=  0.000E+00 g(S)=  0.000E+00 dE (1.order)= 0.000E+00
 bond charge predicted
       N       E                     dE             d eps       ncg     rms          rms(c)
DAV:   1    -0.599376156203E+02   -0.43110E-09    0.76925E-12    93   0.177E-08    0.577E-04
RMM:   2    -0.599376156205E+02   -0.17644E-09    0.00000E+00     3   0.139E-08
  48 F= -.59937616E+02 E0= -.59923857E+02  d E =0.363798E-11
quench:  g(F)=  0.000E+00 g(S)=  0.000E+00 dE (1.order)= 0.000E+00
 bond charge predicted
       N       E                     dE             d eps       ncg     rms          rms(c)
DAV:   1    -0.599376156215E+02   -0.11933E-08    0.41134E-11    93   0.143E-08    0.577E-04
RMM:   2    -0.599376156205E+02    0.10259E-08    0.00000E+00     3   0.112E-08
  49 F= -.59937616E+02 E0= -.59923857E+02  d E =0.909495E-11
quench:  g(F)=  0.000E+00 g(S)=  0.000E+00 dE (1.order)= 0.000E+00
 bond charge predicted
       N       E                     dE             d eps       ncg     rms          rms(c)
DAV:   1    -0.599376156208E+02    0.73305E-09    0.10122E-10    93   0.116E-08    0.577E-04
RMM:   2    -0.599376156205E+02    0.26921E-09    0.00000E+00     3   0.904E-09
  50 F= -.59937616E+02 E0= -.59923857E+02  d E =-.236469E-10
quench:  g(F)=  0.000E+00 g(S)=  0.000E+00 dE (1.order)= 0.000E+00
 bond charge predicted
       N       E                     dE             d eps       ncg     rms          rms(c)
DAV:   1    -0.599376156203E+02    0.45475E-09   -0.14726E-12    93   0.918E-09    0.577E-04
RMM:   2    -0.599376156205E+02   -0.19645E-09    0.00000E+00     3   0.714E-09
  51 F= -.59937616E+02 E0= -.59923857E+02  d E =-.109139E-10
quench:  g(F)=  0.000E+00 g(S)=  0.000E+00 dE (1.order)= 0.000E+00
 bond charge predicted
       N       E                     dE             d eps       ncg     rms          rms(c)
DAV:   1    -0.599376156210E+02   -0.66029E-09    0.58293E-11    93   0.740E-09    0.577E-04
RMM:   2    -0.599376156205E+02    0.49840E-09    0.00000E+00     3   0.593E-09
  52 F= -.59937616E+02 E0= -.59923857E+02  d E =0.345608E-10
quench:  g(F)=  0.000E+00 g(S)=  0.000E+00 dE (1.order)= 0.000E+00
 bond charge predicted
       N       E                     dE             d eps       ncg     rms          rms(c)
DAV:   1    -0.599376156207E+02    0.30195E-09   -0.69890E-13    93   0.614E-09    0.577E-04
RMM:   2    -0.599376156205E+02    0.16553E-09    0.00000E+00     3   0.455E-09
  53 F= -.59937616E+02 E0= -.59923857E+02  d E =-.309228E-10
quench:  g(F)=  0.000E+00 g(S)=  0.000E+00 dE (1.order)= 0.000E+00
 bond charge predicted
       N       E                     dE             d eps       ncg     rms          rms(c)
DAV:   1    -0.599376156201E+02    0.57844E-09    0.82122E-11    93   0.476E-09    0.577E-04
RMM:   2    -0.599376156205E+02   -0.37835E-09    0.00000E+00     3   0.393E-09
  54 F= -.59937616E+02 E0= -.59923857E+02  d E =0.345608E-10
quench:  g(F)=  0.000E+00 g(S)=  0.000E+00 dE (1.order)= 0.000E+00
 bond charge predicted
       N       E                     dE             d eps       ncg     rms          rms(c)
DAV:   1    -0.599376156207E+02   -0.56752E-09    0.18511E-11    93   0.401E-09    0.577E-04
RMM:   2    -0.599376156205E+02    0.16917E-09    0.00000E+00     2   0.300E-09
  55 F= -.59937616E+02 E0= -.59923857E+02  d E =-.200089E-10
quench:  g(F)=  0.000E+00 g(S)=  0.000E+00 dE (1.order)= 0.000E+00
 bond charge predicted
       N       E                     dE             d eps       ncg     rms          rms(c)
DAV:   1    -0.599376156201E+02    0.57116E-09    0.25826E-11    93   0.306E-09    0.577E-04
RMM:   2    -0.599376156205E+02   -0.42019E-09    0.00000E+00     2   0.255E-09
  56 F= -.59937616E+02 E0= -.59923857E+02  d E =-.181899E-10
quench:  g(F)=  0.000E+00 g(S)=  0.000E+00 dE (1.order)= 0.000E+00
 bond charge predicted
       N       E                     dE             d eps       ncg     rms          rms(c)
DAV:   1    -0.599376156208E+02   -0.72214E-09    0.25752E-11    93   0.264E-09    0.577E-04
RMM:   2    -0.599376156204E+02    0.40563E-09    0.00000E+00     2   0.196E-09
  57 F= -.59937616E+02 E0= -.59923857E+02  d E =0.103682E-09
quench:  g(F)=  0.000E+00 g(S)=  0.000E+00 dE (1.order)= 0.000E+00
 bond charge predicted
       N       E                     dE             d eps       ncg     rms          rms(c)
DAV:   1    -0.599376156205E+02    0.27285E-09    0.33661E-11    93   0.205E-09    0.577E-04
RMM:   2    -0.599376156205E+02    0.30923E-10    0.00000E+00     2   0.173E-09
  58 F= -.59937616E+02 E0= -.59923857E+02  d E =-.101863E-09
quench:  g(F)=  0.000E+00 g(S)=  0.000E+00 dE (1.order)= 0.000E+00
 bond charge predicted
       N       E                     dE             d eps       ncg     rms          rms(c)
DAV:   1    -0.599376156204E+02    0.85493E-10   -0.36894E-11    93   0.183E-09    0.577E-04
RMM:   2    -0.599376156206E+02   -0.17826E-09    0.00000E+00     2   0.131E-09
  59 F= -.59937616E+02 E0= -.59923857E+02  d E =-.123691E-09
quench:  g(F)=  0.000E+00 g(S)=  0.000E+00 dE (1.order)= 0.000E+00
 bond charge predicted
       N       E                     dE             d eps       ncg     rms          rms(c)
DAV:   1    -0.599376156208E+02   -0.31287E-09    0.18490E-11    93   0.136E-09    0.577E-04
RMM:   2    -0.599376156206E+02    0.13097E-09    0.00000E+00     2   0.119E-09
  60 F= -.59937616E+02 E0= -.59923857E+02  d E =-.363798E-11
quench:  g(F)=  0.000E+00 g(S)=  0.000E+00 dE (1.order)= 0.000E+00
 bond charge predicted
       N       E                     dE             d eps       ncg     rms          rms(c)
DAV:   1    -0.599376156206E+02    0.18736E-09   -0.12672E-11    93   0.120E-09    0.577E-04
RMM:   2    -0.599376156204E+02    0.14552E-09    0.00000E+00     2   0.114E-09
  61 F= -.59937616E+02 E0= -.59923857E+02  d E =0.201908E-09
quench:  g(F)=  0.000E+00 g(S)=  0.000E+00 dE (1.order)= 0.000E+00
 bond charge predicted
       N       E                     dE             d eps       ncg     rms          rms(c)
DAV:   1    -0.599376156211E+02   -0.54388E-09   -0.18990E-11    93   0.115E-09    0.577E-04
RMM:   2    -0.599376156205E+02    0.63847E-09    0.00000E+00     2   0.976E-10
  62 F= -.59937616E+02 E0= -.59923857E+02  d E =-.509317E-10
quench:  g(F)=  0.000E+00 g(S)=  0.000E+00 dE (1.order)= 0.000E+00
 bond charge predicted
       N       E                     dE             d eps       ncg     rms          rms(c)
DAV:   1    -0.599376156206E+02    0.53296E-09    0.13019E-11    93   0.917E-10    0.577E-04
RMM:   2    -0.599376156204E+02    0.21464E-09    0.00000E+00     2   0.673E-10
  63 F= -.59937616E+02 E0= -.59923857E+02  d E =0.109139E-09
quench:  g(F)=  0.000E+00 g(S)=  0.000E+00 dE (1.order)= 0.000E+00
 bond charge predicted
       N       E                     dE             d eps       ncg     rms          rms(c)
DAV:   1    -0.599376156205E+02    0.96406E-10    0.31236E-11    93   0.742E-10    0.577E-04
RMM:   2    -0.599376156205E+02    0.90949E-11    0.00000E+00     2   0.695E-10
  64 F= -.59937616E+02 E0= -.59923857E+02  d E =-.109139E-09
quench:  g(F)=  0.000E+00 g(S)=  0.000E+00 dE (1.order)= 0.000E+00
 bond charge predicted
       N       E                     dE             d eps       ncg     rms          rms(c)
DAV:   1    -0.599376156206E+02   -0.12369E-09   -0.58082E-13    93   0.708E-10    0.577E-04
RMM:   2    -0.599376156204E+02    0.24193E-09    0.00000E+00     2   0.474E-10
  65 F= -.59937616E+02 E0= -.59923857E+02  d E =0.109139E-09
quench:  g(F)=  0.000E+00 g(S)=  0.000E+00 dE (1.order)= 0.000E+00
 bond charge predicted
       N       E                     dE             d eps       ncg     rms          rms(c)
DAV:   1    -0.599376156209E+02   -0.25648E-09   -0.51891E-11    93   0.461E-10    0.577E-04
RMM:   2    -0.599376156206E+02    0.30013E-09    0.00000E+00     2   0.518E-10
  66 F= -.59937616E+02 E0= -.59923857E+02  d E =-.198270E-09
quench:  g(F)=  0.000E+00 g(S)=  0.000E+00 dE (1.order)= 0.000E+00
 bond charge predicted
       N       E                     dE             d eps       ncg     rms          rms(c)
DAV:   1    -0.599376156204E+02    0.42019E-09    0.12693E-11    93   0.632E-10    0.577E-04
RMM:   2    -0.599376156205E+02   -0.83674E-10    0.00000E+00     2   0.402E-10
  67 F= -.59937616E+02 E0= -.59923857E+02  d E =0.363798E-10
quench:  g(F)=  0.000E+00 g(S)=  0.000E+00 dE (1.order)= 0.000E+00
 bond charge predicted
       N       E                     dE             d eps       ncg     rms          rms(c)
DAV:   1    -0.599376156201E+02    0.38926E-09    0.30355E-11    93   0.485E-10    0.577E-04
RMM:   2    -0.599376156205E+02   -0.47294E-09    0.00000E+00     2   0.316E-10
  68 F= -.59937616E+02 E0= -.59923857E+02  d E =0.000000E+00
quench:  g(F)=  0.000E+00 g(S)=  0.000E+00 dE (1.order)= 0.000E+00
 bond charge predicted
       N       E                     dE             d eps       ncg     rms          rms(c)
DAV:   1    -0.599376156203E+02   -0.24374E-09   -0.77513E-11    93   0.342E-10    0.577E-04
RMM:   2    -0.599376156205E+02   -0.16735E-09    0.00000E+00     2   0.246E-10
  69 F= -.59937616E+02 E0= -.59923857E+02  d E =0.618456E-10
quench:  g(F)=  0.000E+00 g(S)=  0.000E+00 dE (1.order)= 0.000E+00
 bond charge predicted
       N       E                     dE             d eps       ncg     rms          rms(c)
DAV:   1    -0.599376156200E+02    0.31105E-09   -0.33693E-11    93   0.263E-10    0.577E-04
RMM:   2    -0.599376156205E+02   -0.46202E-09    0.00000E+00     2   0.365E-10
  70 F= -.59937616E+02 E0= -.59923857E+02  d E =0.163709E-10
quench:  g(F)=  0.000E+00 g(S)=  0.000E+00 dE (1.order)= 0.000E+00
 bond charge predicted
       N       E                     dE             d eps       ncg     rms          rms(c)
DAV:   1    -0.599376156203E+02   -0.34561E-09    0.29937E-11    93   0.619E-10    0.577E-04
RMM:   2    -0.599376156204E+02   -0.10004E-09    0.00000E+00     2   0.402E-10
  71 F= -.59937616E+02 E0= -.59923857E+02  d E =0.163709E-10
quench:  g(F)=  0.000E+00 g(S)=  0.000E+00 dE (1.order)= 0.000E+00
 bond charge predicted
       N       E                     dE             d eps       ncg     rms          rms(c)
DAV:   1    -0.599376156200E+02    0.33651E-09   -0.53497E-11    93   0.567E-10    0.577E-04
RMM:   2    -0.599376156206E+02   -0.58571E-09    0.00000E+00     2   0.278E-10
  72 F= -.59937616E+02 E0= -.59923857E+02  d E =-.149157E-09
quench:  g(F)=  0.000E+00 g(S)=  0.000E+00 dE (1.order)= 0.000E+00
 bond charge predicted
       N       E                     dE             d eps       ncg     rms          rms(c)
DAV:   1    -0.599376156213E+02   -0.13206E-08    0.12960E-11    93   0.277E-10    0.577E-04
RMM:   2    -0.599376156204E+02    0.94406E-09    0.00000E+00     2   0.247E-10
  73 F= -.59937616E+02 E0= -.59923857E+02  d E =0.209184E-09
quench:  g(F)=  0.000E+00 g(S)=  0.000E+00 dE (1.order)= 0.000E+00
 bond charge predicted
       N       E                     dE             d eps       ncg     rms          rms(c)
DAV:   1    -0.599376156198E+02    0.14970E-08    0.24175E-11    93   0.320E-10    0.577E-04
RMM:   2    -0.599376156205E+02   -0.69122E-09    0.00000E+00     2   0.350E-10
  74 F= -.59937616E+02 E0= -.59923857E+02  d E =-.138243E-09
quench:  g(F)=  0.000E+00 g(S)=  0.000E+00 dE (1.order)= 0.000E+00
 bond charge predicted
       N       E                     dE             d eps       ncg     rms          rms(c)
DAV:   1    -0.599376156202E+02   -0.33833E-09    0.14793E-12    93   0.313E-10    0.577E-04
RMM:   2    -0.599376156206E+02   -0.44929E-09    0.00000E+00     2   0.204E-10
  75 F= -.59937616E+02 E0= -.59923857E+02  d E =-.964064E-10
quench:  g(F)=  0.000E+00 g(S)=  0.000E+00 dE (1.order)= 0.000E+00
 bond charge predicted
       N       E                     dE             d eps       ncg     rms          rms(c)
DAV:   1    -0.599376156202E+02   -0.47294E-10    0.40431E-11    93   0.295E-10    0.577E-04
RMM:   2    -0.599376156206E+02   -0.34925E-09    0.00000E+00     2   0.322E-10
  76 F= -.59937616E+02 E0= -.59923857E+02  d E =0.527507E-10
quench:  g(F)=  0.000E+00 g(S)=  0.000E+00 dE (1.order)= 0.000E+00
 bond charge predicted
       N       E                     dE             d eps       ncg     rms          rms(c)
DAV:   1    -0.599376156200E+02    0.22555E-09   -0.15424E-11    93   0.521E-10    0.577E-04
RMM:   2    -0.599376156204E+02   -0.43838E-09    0.00000E+00     2   0.297E-10
  77 F= -.59937616E+02 E0= -.59923857E+02  d E =0.136424E-09
quench:  g(F)=  0.000E+00 g(S)=  0.000E+00 dE (1.order)= 0.000E+00
 bond charge predicted
       N       E                     dE             d eps       ncg     rms          rms(c)
DAV:   1    -0.599376156207E+02   -0.68030E-09    0.30224E-11    93   0.465E-10    0.577E-04
RMM:   2    -0.599376156205E+02    0.19827E-09    0.00000E+00     2   0.299E-10
  78 F= -.59937616E+02 E0= -.59923857E+02  d E =-.436557E-10
quench:  g(F)=  0.000E+00 g(S)=  0.000E+00 dE (1.order)= 0.000E+00
 bond charge predicted
       N       E                     dE             d eps       ncg     rms          rms(c)
DAV:   1    -0.599376156209E+02   -0.21646E-09    0.39067E-11    93   0.338E-10    0.577E-04
RMM:   2    -0.599376156205E+02    0.42019E-09    0.00000E+00     2   0.241E-10
  79 F= -.59937616E+02 E0= -.59923857E+02  d E =0.545697E-11
quench:  g(F)=  0.000E+00 g(S)=  0.000E+00 dE (1.order)= 0.000E+00
 bond charge predicted
       N       E                     dE             d eps       ncg     rms          rms(c)
DAV:   1    -0.599376156203E+02    0.62391E-09    0.29685E-11    93   0.236E-10    0.577E-04
RMM:   2    -0.599376156205E+02   -0.26012E-09    0.00000E+00     2   0.271E-10
  80 F= -.59937616E+02 E0= -.59923857E+02  d E =-.563887E-10
quench:  g(F)=  0.000E+00 g(S)=  0.000E+00 dE (1.order)= 0.000E+00
 bond charge predicted
       N       E                     dE             d eps       ncg     rms          rms(c)
DAV:   1    -0.599376156212E+02   -0.89858E-09   -0.40332E-11    93   0.501E-10    0.577E-04
RMM:   2    -0.599376156205E+02    0.67485E-09    0.00000E+00     2   0.448E-10
  81 F= -.59937616E+02 E0= -.59923857E+02  d E =0.363798E-10
quench:  g(F)=  0.000E+00 g(S)=  0.000E+00 dE (1.order)= 0.000E+00
 bond charge predicted
       N       E                     dE             d eps       ncg     rms          rms(c)
DAV:   1    -0.599376156202E+02    0.98225E-09    0.35537E-11    93   0.577E-10    0.577E-04
RMM:   2    -0.599376156205E+02   -0.30559E-09    0.00000E+00     2   0.410E-10
  82 F= -.59937616E+02 E0= -.59923857E+02  d E =0.181899E-11
quench:  g(F)=  0.000E+00 g(S)=  0.000E+00 dE (1.order)= 0.000E+00
 bond charge predicted
       N       E                     dE             d eps       ncg     rms          rms(c)
DAV:   1    -0.599376156209E+02   -0.70941E-09   -0.48761E-11    93   0.385E-10    0.577E-04
RMM:   2    -0.599376156205E+02    0.40018E-09    0.00000E+00     2   0.333E-10
  83 F= -.59937616E+02 E0= -.59923857E+02  d E =-.363798E-11
quench:  g(F)=  0.000E+00 g(S)=  0.000E+00 dE (1.order)= 0.000E+00
 bond charge predicted
       N       E                     dE             d eps       ncg     rms          rms(c)
DAV:   1    -0.599376156201E+02    0.74942E-09    0.23741E-11    93   0.562E-10    0.577E-04
RMM:   2    -0.599376156205E+02   -0.38563E-09    0.00000E+00     2   0.475E-10
  84 F= -.59937616E+02 E0= -.59923857E+02  d E =-.363798E-10
quench:  g(F)=  0.000E+00 g(S)=  0.000E+00 dE (1.order)= 0.000E+00
 bond charge predicted
       N       E                     dE             d eps       ncg     rms          rms(c)
DAV:   1    -0.599376156203E+02   -0.15643E-09   -0.22851E-11    93   0.346E-10    0.577E-04
RMM:   2    -0.599376156206E+02   -0.26375E-09    0.00000E+00     2   0.332E-10
  85 F= -.59937616E+02 E0= -.59923857E+02  d E =-.345608E-10
quench:  g(F)=  0.000E+00 g(S)=  0.000E+00 dE (1.order)= 0.000E+00
 bond charge predicted
       N       E                     dE             d eps       ncg     rms          rms(c)
DAV:   1    -0.599376156202E+02    0.41837E-10    0.49988E-13    93   0.292E-10    0.577E-04
RMM:   2    -0.599376156206E+02   -0.37289E-09    0.00000E+00     2   0.220E-10
  86 F= -.59937616E+02 E0= -.59923857E+02  d E =-.673026E-10
quench:  g(F)=  0.000E+00 g(S)=  0.000E+00 dE (1.order)= 0.000E+00
 bond charge predicted
       N       E                     dE             d eps       ncg     rms          rms(c)
DAV:   1    -0.599376156207E+02   -0.41655E-09    0.14039E-11    93   0.384E-10    0.577E-04
RMM:   2    -0.599376156204E+02    0.25466E-09    0.00000E+00     2   0.364E-10
  87 F= -.59937616E+02 E0= -.59923857E+02  d E =0.211003E-09
quench:  g(F)=  0.000E+00 g(S)=  0.000E+00 dE (1.order)= 0.000E+00
 bond charge predicted
       N       E                     dE             d eps       ncg     rms          rms(c)
DAV:   1    -0.599376156210E+02   -0.38199E-09   -0.22179E-11    93   0.296E-10    0.577E-04
RMM:   2    -0.599376156205E+02    0.50750E-09    0.00000E+00     2   0.413E-10
  88 F= -.59937616E+02 E0= -.59923857E+02  d E =-.129148E-09
quench:  g(F)=  0.000E+00 g(S)=  0.000E+00 dE (1.order)= 0.000E+00
 bond charge predicted
       N       E                     dE             d eps       ncg     rms          rms(c)
DAV:   1    -0.599376156203E+02    0.78035E-09    0.37536E-12    93   0.432E-10    0.577E-04
RMM:   2    -0.599376156204E+02   -0.16553E-09    0.00000E+00     2   0.274E-10
  89 F= -.59937616E+02 E0= -.59923857E+02  d E =0.107320E-09
quench:  g(F)=  0.000E+00 g(S)=  0.000E+00 dE (1.order)= 0.000E+00
 bond charge predicted
       N       E                     dE             d eps       ncg     rms          rms(c)
DAV:   1    -0.599376156205E+02   -0.19099E-09    0.30149E-11    93   0.531E-10    0.577E-04
RMM:   2    -0.599376156205E+02   -0.74579E-10    0.00000E+00     2   0.260E-10
  90 F= -.59937616E+02 E0= -.59923857E+02  d E =-.100044E-09
quench:  g(F)=  0.000E+00 g(S)=  0.000E+00 dE (1.order)= 0.000E+00
 bond charge predicted
       N       E                     dE             d eps       ncg     rms          rms(c)
DAV:   1    -0.599376156208E+02   -0.33651E-09   -0.49657E-11    93   0.337E-10    0.577E-04
RMM:   2    -0.599376156206E+02    0.24011E-09    0.00000E+00     2   0.279E-10
  91 F= -.59937616E+02 E0= -.59923857E+02  d E =-.218279E-10
quench:  g(F)=  0.000E+00 g(S)=  0.000E+00 dE (1.order)= 0.000E+00
 bond charge predicted
       N       E                     dE             d eps       ncg     rms          rms(c)
DAV:   1    -0.599376156207E+02    0.56389E-10    0.19529E-11    93   0.455E-10    0.577E-04
RMM:   2    -0.599376156204E+02    0.32924E-09    0.00000E+00     2   0.199E-10
  92 F= -.59937616E+02 E0= -.59923857E+02  d E =0.145519E-09
quench:  g(F)=  0.000E+00 g(S)=  0.000E+00 dE (1.order)= 0.000E+00
 bond charge predicted
       N       E                     dE             d eps       ncg     rms          rms(c)
DAV:   1    -0.599376156208E+02   -0.49113E-10    0.95574E-12    93   0.251E-10    0.577E-04
RMM:   2    -0.599376156205E+02    0.25830E-09    0.00000E+00     2   0.298E-10
  93 F= -.59937616E+02 E0= -.59923857E+02  d E =-.120053E-09
quench:  g(F)=  0.000E+00 g(S)=  0.000E+00 dE (1.order)= 0.000E+00
 bond charge predicted
       N       E                     dE             d eps       ncg     rms          rms(c)
DAV:   1    -0.599376156206E+02    0.22737E-09    0.17595E-11    93   0.393E-10    0.577E-04
RMM:   2    -0.599376156205E+02    0.70941E-10    0.00000E+00     2   0.199E-10
  94 F= -.59937616E+02 E0= -.59923857E+02  d E =0.400178E-10
quench:  g(F)=  0.000E+00 g(S)=  0.000E+00 dE (1.order)= 0.000E+00
 bond charge predicted
       N       E                     dE             d eps       ncg     rms          rms(c)
DAV:   1    -0.599376156203E+02    0.30741E-09    0.35638E-12    93   0.416E-10    0.577E-04
RMM:   2    -0.599376156206E+02   -0.33469E-09    0.00000E+00     2   0.292E-10
  95 F= -.59937616E+02 E0= -.59923857E+02  d E =-.982254E-10
quench:  g(F)=  0.000E+00 g(S)=  0.000E+00 dE (1.order)= 0.000E+00
 bond charge predicted
       N       E                     dE             d eps       ncg     rms          rms(c)
DAV:   1    -0.599376156202E+02    0.23647E-10   -0.19630E-11    93   0.514E-10    0.577E-04
RMM:   2    -0.599376156205E+02   -0.24193E-09    0.00000E+00     2   0.331E-10
  96 F= -.59937616E+02 E0= -.59923857E+02  d E =0.116415E-09
quench:  g(F)=  0.000E+00 g(S)=  0.000E+00 dE (1.order)= 0.000E+00
 bond charge predicted
       N       E                     dE             d eps       ncg     rms          rms(c)
DAV:   1    -0.599376156211E+02   -0.90949E-09    0.40615E-11    93   0.339E-10    0.577E-04
RMM:   2    -0.599376156205E+02    0.65847E-09    0.00000E+00     2   0.207E-10
  97 F= -.59937616E+02 E0= -.59923857E+02  d E =-.909495E-11
quench:  g(F)=  0.000E+00 g(S)=  0.000E+00 dE (1.order)= 0.000E+00
 bond charge predicted
       N       E                     dE             d eps       ncg     rms          rms(c)
DAV:   1    -0.599376156210E+02    0.14188E-09    0.43368E-11    93   0.236E-10    0.577E-04
RMM:   2    -0.599376156206E+02    0.41109E-09    0.00000E+00     2   0.374E-10
  98 F= -.59937616E+02 E0= -.59923857E+02  d E =-.105501E-09
quench:  g(F)=  0.000E+00 g(S)=  0.000E+00 dE (1.order)= 0.000E+00
 bond charge predicted
       N       E                     dE             d eps       ncg     rms          rms(c)
DAV:   1    -0.599376156201E+02    0.91131E-09    0.27919E-11    93   0.391E-10    0.577E-04
RMM:   2    -0.599376156204E+02   -0.32742E-09    0.00000E+00     2   0.218E-10
  99 F= -.59937616E+02 E0= -.59923857E+02  d E =0.172804E-09
quench:  g(F)=  0.000E+00 g(S)=  0.000E+00 dE (1.order)= 0.000E+00
 bond charge predicted
       N       E                     dE             d eps       ncg     rms          rms(c)
DAV:   1    -0.599376156201E+02   -0.72760E-11   -0.17574E-11    90   0.417E-10    0.577E-04
RMM:   2    -0.599376156205E+02   -0.38199E-09    0.00000E+00     2   0.336E-10
 100 F= -.59937616E+02 E0= -.59923857E+02  d E =-.618456E-10
quench:  g(F)=  0.000E+00 g(S)=  0.000E+00 dE (1.order)= 0.000E+00
 bond charge predicted
       N       E                     dE             d eps       ncg     rms          rms(c)
DAV:   1    -0.599376156204E+02   -0.33106E-09   -0.11203E-11    93   0.402E-10    0.577E-04
RMM:   2    -0.599376156205E+02   -0.34561E-10    0.00000E+00     2   0.296E-10
 101 F= -.59937616E+02 E0= -.59923857E+02  d E =0.163709E-10
quench:  g(F)=  0.000E+00 g(S)=  0.000E+00 dE (1.order)= 0.000E+00
 bond charge predicted
       N       E                     dE             d eps       ncg     rms          rms(c)
DAV:   1    -0.599376156204E+02   -0.14552E-10   -0.11361E-11    90   0.458E-10    0.577E-04
RMM:   2    -0.599376156204E+02    0.34561E-10    0.00000E+00     2   0.296E-10
 102 F= -.59937616E+02 E0= -.59923857E+02  d E =0.545697E-10
quench:  g(F)=  0.000E+00 g(S)=  0.000E+00 dE (1.order)= 0.000E+00
 bond charge predicted
       N       E                     dE             d eps       ncg     rms          rms(c)
DAV:   1    -0.599376156211E+02   -0.67303E-09    0.28365E-11    93   0.461E-10    0.577E-04
RMM:   2    -0.599376156205E+02    0.65302E-09    0.00000E+00     2   0.498E-10
 103 F= -.59937616E+02 E0= -.59923857E+02  d E =-.545697E-10
quench:  g(F)=  0.000E+00 g(S)=  0.000E+00 dE (1.order)= 0.000E+00
 bond charge predicted
       N       E                     dE             d eps       ncg     rms          rms(c)
DAV:   1    -0.599376156201E+02    0.10114E-08    0.42768E-11    90   0.591E-10    0.577E-04
RMM:   2    -0.599376156205E+02   -0.42201E-09    0.00000E+00     2   0.245E-10
 104 F= -.59937616E+02 E0= -.59923857E+02  d E =-.636646E-10
quench:  g(F)=  0.000E+00 g(S)=  0.000E+00 dE (1.order)= 0.000E+00
 bond charge predicted
       N       E                     dE             d eps       ncg     rms          rms(c)
DAV:   1    -0.599376156206E+02   -0.49477E-09    0.45886E-11    93   0.376E-10    0.577E-04
RMM:   2    -0.599376156204E+02    0.15825E-09    0.00000E+00     2   0.252E-10
 105 F= -.59937616E+02 E0= -.59923857E+02  d E =0.854925E-10
quench:  g(F)=  0.000E+00 g(S)=  0.000E+00 dE (1.order)= 0.000E+00
 bond charge predicted
       N       E                     dE             d eps       ncg     rms          rms(c)
DAV:   1    -0.599376156206E+02   -0.49113E-10    0.37308E-11    90   0.492E-10    0.577E-04
RMM:   2    -0.599376156205E+02    0.17099E-09    0.00000E+00     2   0.296E-10
 106 F= -.59937616E+02 E0= -.59923857E+02  d E =-.363798E-10
quench:  g(F)=  0.000E+00 g(S)=  0.000E+00 dE (1.order)= 0.000E+00
 bond charge predicted
       N       E                     dE             d eps       ncg     rms          rms(c)
DAV:   1    -0.599376156203E+02    0.33833E-09   -0.25416E-11    93   0.403E-10    0.577E-04
RMM:   2    -0.599376156205E+02   -0.16917E-09    0.00000E+00     2   0.307E-10
 107 F= -.59937616E+02 E0= -.59923857E+02  d E =-.181899E-11
quench:  g(F)=  0.000E+00 g(S)=  0.000E+00 dE (1.order)= 0.000E+00
 bond charge predicted
       N       E                     dE             d eps       ncg     rms          rms(c)
DAV:   1    -0.599376156208E+02   -0.52205E-09   -0.36235E-11    93   0.563E-10    0.577E-04
RMM:   2    -0.599376156205E+02    0.34743E-09    0.00000E+00     2   0.300E-10
 108 F= -.59937616E+02 E0= -.59923857E+02  d E =-.545697E-11
quench:  g(F)=  0.000E+00 g(S)=  0.000E+00 dE (1.order)= 0.000E+00
 bond charge predicted
       N       E                     dE             d eps       ncg     rms          rms(c)
DAV:   1    -0.599376156204E+02    0.44020E-09   -0.28190E-11    93   0.486E-10    0.577E-04
RMM:   2    -0.599376156206E+02   -0.17099E-09    0.00000E+00     2   0.360E-10
 109 F= -.59937616E+02 E0= -.59923857E+02  d E =-.782165E-10
quench:  g(F)=  0.000E+00 g(S)=  0.000E+00 dE (1.order)= 0.000E+00
 bond charge predicted
       N       E                     dE             d eps       ncg     rms          rms(c)
DAV:   1    -0.599376156207E+02   -0.31469E-09    0.33961E-11    93   0.400E-10    0.577E-04
RMM:   2    -0.599376156205E+02    0.16735E-09    0.00000E+00     2   0.275E-10
 110 F= -.59937616E+02 E0= -.59923857E+02  d E =0.236469E-10
quench:  g(F)=  0.000E+00 g(S)=  0.000E+00 dE (1.order)= 0.000E+00
 bond charge predicted
       N       E                     dE             d eps       ncg     rms          rms(c)
DAV:   1    -0.599376156205E+02    0.18554E-09    0.26889E-11    93   0.484E-10    0.577E-04
RMM:   2    -0.599376156205E+02    0.30923E-10    0.00000E+00     2   0.336E-10
 111 F= -.59937616E+02 E0= -.59923857E+02  d E =0.491127E-10
quench:  g(F)=  0.000E+00 g(S)=  0.000E+00 dE (1.order)= 0.000E+00
 bond charge predicted
       N       E                     dE             d eps       ncg     rms          rms(c)
DAV:   1    -0.599376156204E+02    0.98225E-10   -0.55296E-11    93   0.377E-10    0.577E-04
RMM:   2    -0.599376156206E+02   -0.14916E-09    0.00000E+00     2   0.255E-10
 112 F= -.59937616E+02 E0= -.59923857E+02  d E =-.818545E-10
quench:  g(F)=  0.000E+00 g(S)=  0.000E+00 dE (1.order)= 0.000E+00
 bond charge predicted
       N       E                     dE             d eps       ncg     rms          rms(c)
DAV:   1    -0.599376156204E+02    0.20009E-10    0.26916E-11    93   0.338E-10    0.577E-04
RMM:   2    -0.599376156205E+02   -0.13097E-09    0.00000E+00     2   0.343E-10
 113 F= -.59937616E+02 E0= -.59923857E+02  d E =0.381988E-10
quench:  g(F)=  0.000E+00 g(S)=  0.000E+00 dE (1.order)= 0.000E+00
 bond charge predicted
       N       E                     dE             d eps       ncg     rms          rms(c)
DAV:   1    -0.599376156203E+02    0.10004E-09   -0.11035E-12    93   0.275E-10    0.577E-04
RMM:   2    -0.599376156205E+02   -0.22555E-09    0.00000E+00     2   0.373E-10
 114 F= -.59937616E+02 E0= -.59923857E+02  d E =0.545697E-11
quench:  g(F)=  0.000E+00 g(S)=  0.000E+00 dE (1.order)= 0.000E+00
 bond charge predicted
       N       E                     dE             d eps       ncg     rms          rms(c)
DAV:   1    -0.599376156206E+02   -0.28012E-09   -0.29637E-11    93   0.376E-10    0.577E-04
RMM:   2    -0.599376156205E+02    0.92768E-10    0.00000E+00     2   0.579E-10
 115 F= -.59937616E+02 E0= -.59923857E+02  d E =0.381988E-10
quench:  g(F)=  0.000E+00 g(S)=  0.000E+00 dE (1.order)= 0.000E+00
 bond charge predicted
       N       E                     dE             d eps       ncg     rms          rms(c)
DAV:   1    -0.599376156202E+02    0.35834E-09   -0.25251E-11    93   0.323E-10    0.577E-04
RMM:   2    -0.599376156205E+02   -0.28012E-09    0.00000E+00     2   0.365E-10
 116 F= -.59937616E+02 E0= -.59923857E+02  d E =-.145519E-10
quench:  g(F)=  0.000E+00 g(S)=  0.000E+00 dE (1.order)= 0.000E+00
 bond charge predicted
       N       E                     dE             d eps       ncg     rms          rms(c)
DAV:   1    -0.599376156202E+02   -0.14552E-10   -0.27281E-11    93   0.238E-10    0.577E-04
RMM:   2    -0.599376156205E+02   -0.27285E-09    0.00000E+00     2   0.233E-10
 117 F= -.59937616E+02 E0= -.59923857E+02  d E =-.727596E-11
quench:  g(F)=  0.000E+00 g(S)=  0.000E+00 dE (1.order)= 0.000E+00
 bond charge predicted
       N       E                     dE             d eps       ncg     rms          rms(c)
DAV:   1    -0.599376156205E+02   -0.28922E-09   -0.92086E-12    93   0.243E-10    0.577E-04
RMM:   2    -0.599376156205E+02    0.52751E-10    0.00000E+00     2   0.221E-10
 118 F= -.59937616E+02 E0= -.59923857E+02  d E =0.363798E-10
quench:  g(F)=  0.000E+00 g(S)=  0.000E+00 dE (1.order)= 0.000E+00
 bond charge predicted
       N       E                     dE             d eps       ncg     rms          rms(c)
DAV:   1    -0.599376156199E+02    0.61118E-09    0.13613E-11    93   0.202E-10    0.577E-04
RMM:   2    -0.599376156206E+02   -0.69849E-09    0.00000E+00     2   0.309E-10
 119 F= -.59937616E+02 E0= -.59923857E+02  d E =-.140062E-09
quench:  g(F)=  0.000E+00 g(S)=  0.000E+00 dE (1.order)= 0.000E+00
 bond charge predicted
       N       E                     dE             d eps       ncg     rms          rms(c)
DAV:   1    -0.599376156206E+02   -0.64210E-09   -0.47595E-12    90   0.328E-10    0.577E-04
RMM:   2    -0.599376156206E+02   -0.52751E-10    0.00000E+00     2   0.394E-10
 120 F= -.59937616E+02 E0= -.59923857E+02  d E =0.363798E-11
quench:  g(F)=  0.000E+00 g(S)=  0.000E+00 dE (1.order)= 0.000E+00
 bond charge predicted
       N       E                     dE             d eps       ncg     rms          rms(c)
DAV:   1    -0.599376156214E+02   -0.85856E-09   -0.22225E-11    93   0.473E-10    0.577E-04
RMM:   2    -0.599376156204E+02    0.98589E-09    0.00000E+00     2   0.356E-10
 121 F= -.59937616E+02 E0= -.59923857E+02  d E =0.180080E-09
quench:  g(F)=  0.000E+00 g(S)=  0.000E+00 dE (1.order)= 0.000E+00
 bond charge predicted
       N       E                     dE             d eps       ncg     rms          rms(c)
DAV:   1    -0.599376156205E+02    0.87857E-09    0.90127E-11    90   0.485E-10    0.577E-04
RMM:   2    -0.599376156205E+02    0.40018E-10    0.00000E+00     2   0.349E-10
 122 F= -.59937616E+02 E0= -.59923857E+02  d E =-.673026E-10
quench:  g(F)=  0.000E+00 g(S)=  0.000E+00 dE (1.order)= 0.000E+00
 bond charge predicted
       N       E                     dE             d eps       ncg     rms          rms(c)
DAV:   1    -0.599376156206E+02   -0.90949E-10    0.15725E-11    93   0.335E-10    0.577E-04
RMM:   2    -0.599376156206E+02    0.45475E-10    0.00000E+00     2   0.495E-10
 123 F= -.59937616E+02 E0= -.59923857E+02  d E =-.854925E-10
quench:  g(F)=  0.000E+00 g(S)=  0.000E+00 dE (1.order)= 0.000E+00
 bond charge predicted
       N       E                     dE             d eps       ncg     rms          rms(c)
DAV:   1    -0.599376156213E+02   -0.68576E-09    0.21424E-11    90   0.523E-10    0.577E-04
RMM:   2    -0.599376156205E+02    0.76579E-09    0.00000E+00     2   0.391E-10
 124 F= -.59937616E+02 E0= -.59923857E+02  d E =0.345608E-10
quench:  g(F)=  0.000E+00 g(S)=  0.000E+00 dE (1.order)= 0.000E+00
 bond charge predicted
       N       E                     dE             d eps       ncg     rms          rms(c)
DAV:   1    -0.599376156201E+02    0.12078E-08    0.17101E-11    93   0.469E-10    0.577E-04
RMM:   2    -0.599376156205E+02   -0.39108E-09    0.00000E+00     2   0.312E-10
 125 F= -.59937616E+02 E0= -.59923857E+02  d E =0.509317E-10
quench:  g(F)=  0.000E+00 g(S)=  0.000E+00 dE (1.order)= 0.000E+00
 bond charge predicted
       N       E                     dE             d eps       ncg     rms          rms(c)
DAV:   1    -0.599376156207E+02   -0.58753E-09    0.26961E-11    93   0.417E-10    0.577E-04
RMM:   2    -0.599376156205E+02    0.22010E-09    0.00000E+00     2   0.283E-10
 126 F= -.59937616E+02 E0= -.59923857E+02  d E =0.236469E-10
quench:  g(F)=  0.000E+00 g(S)=  0.000E+00 dE (1.order)= 0.000E+00
 bond charge predicted
       N       E                     dE             d eps       ncg     rms          rms(c)
DAV:   1    -0.599376156205E+02    0.14370E-09   -0.74289E-12    93   0.269E-10    0.577E-04
RMM:   2    -0.599376156204E+02    0.98225E-10    0.00000E+00     2   0.284E-10
 127 F= -.59937616E+02 E0= -.59923857E+02  d E =0.218279E-10
quench:  g(F)=  0.000E+00 g(S)=  0.000E+00 dE (1.order)= 0.000E+00
 bond charge predicted
       N       E                     dE             d eps       ncg     rms          rms(c)
DAV:   1    -0.599376156206E+02   -0.43656E-10   -0.30998E-11    93   0.375E-10    0.577E-04
RMM:   2    -0.599376156204E+02    0.16189E-09    0.00000E+00     2   0.322E-10
 128 F= -.59937616E+02 E0= -.59923857E+02  d E =0.200089E-10
quench:  g(F)=  0.000E+00 g(S)=  0.000E+00 dE (1.order)= 0.000E+00
 bond charge predicted
       N       E                     dE             d eps       ncg     rms          rms(c)
DAV:   1    -0.599376156209E+02   -0.30377E-09   -0.49414E-12    93   0.674E-10    0.577E-04
RMM:   2    -0.599376156205E+02    0.40745E-09    0.00000E+00     2   0.339E-10
 129 F= -.59937616E+02 E0= -.59923857E+02  d E =-.582077E-10
quench:  g(F)=  0.000E+00 g(S)=  0.000E+00 dE (1.order)= 0.000E+00
 bond charge predicted
       N       E                     dE             d eps       ncg     rms          rms(c)
DAV:   1    -0.599376156205E+02    0.41837E-09    0.48056E-13    93   0.535E-10    0.577E-04
RMM:   2    -0.599376156205E+02   -0.40018E-10    0.00000E+00     2   0.384E-10
 130 F= -.59937616E+02 E0= -.59923857E+02  d E =-.291038E-10
quench:  g(F)=  0.000E+00 g(S)=  0.000E+00 dE (1.order)= 0.000E+00
 bond charge predicted
       N       E                     dE             d eps       ncg     rms          rms(c)
DAV:   1    -0.599376156204E+02    0.89130E-10    0.51330E-11    93   0.391E-10    0.577E-04
RMM:   2    -0.599376156205E+02   -0.83674E-10    0.00000E+00     2   0.326E-10
 131 F= -.59937616E+02 E0= -.59923857E+02  d E =0.454747E-10
quench:  g(F)=  0.000E+00 g(S)=  0.000E+00 dE (1.order)= 0.000E+00
 bond charge predicted
       N       E                     dE             d eps       ncg     rms          rms(c)
DAV:   1    -0.599376156205E+02   -0.13824E-09   -0.41664E-11    93   0.343E-10    0.577E-04
RMM:   2    -0.599376156206E+02   -0.40018E-10    0.00000E+00     2   0.321E-10
 132 F= -.59937616E+02 E0= -.59923857E+02  d E =-.945874E-10
quench:  g(F)=  0.000E+00 g(S)=  0.000E+00 dE (1.order)= 0.000E+00
 bond charge predicted
       N       E                     dE             d eps       ncg     rms          rms(c)
DAV:   1    -0.599376156206E+02   -0.69122E-10    0.55812E-11    93   0.261E-10    0.577E-04
RMM:   2    -0.599376156204E+02    0.16917E-09    0.00000E+00     2   0.272E-10
 133 F= -.59937616E+02 E0= -.59923857E+02  d E =0.140062E-09
quench:  g(F)=  0.000E+00 g(S)=  0.000E+00 dE (1.order)= 0.000E+00
 bond charge predicted
       N       E                     dE             d eps       ncg     rms          rms(c)
DAV:   1    -0.599376156209E+02   -0.31832E-09    0.84928E-12    93   0.227E-10    0.577E-04
RMM:   2    -0.599376156204E+02    0.52023E-09    0.00000E+00     2   0.219E-10
 134 F= -.59937616E+02 E0= -.59923857E+02  d E =0.327418E-10
quench:  g(F)=  0.000E+00 g(S)=  0.000E+00 dE (1.order)= 0.000E+00
 bond charge predicted
       N       E                     dE             d eps       ncg     rms          rms(c)
DAV:   1    -0.599376156203E+02    0.63301E-09    0.11895E-12    93   0.253E-10    0.577E-04
RMM:   2    -0.599376156206E+02   -0.34015E-09    0.00000E+00     2   0.349E-10
 135 F= -.59937616E+02 E0= -.59923857E+02  d E =-.227374E-09
quench:  g(F)=  0.000E+00 g(S)=  0.000E+00 dE (1.order)= 0.000E+00
 bond charge predicted
       N       E                     dE             d eps       ncg     rms          rms(c)
DAV:   1    -0.599376156203E+02   -0.30923E-10   -0.30801E-11    93   0.342E-10    0.577E-04
RMM:   2    -0.599376156204E+02   -0.90949E-10    0.00000E+00     2   0.354E-10
 136 F= -.59937616E+02 E0= -.59923857E+02  d E =0.218279E-09
quench:  g(F)=  0.000E+00 g(S)=  0.000E+00 dE (1.order)= 0.000E+00
 bond charge predicted
       N       E                     dE             d eps       ncg     rms          rms(c)
DAV:   1    -0.599376156205E+02   -0.22555E-09   -0.35560E-11    93   0.497E-10    0.577E-04
RMM:   2    -0.599376156205E+02    0.36380E-10    0.00000E+00     2   0.323E-10
 137 F= -.59937616E+02 E0= -.59923857E+02  d E =-.982254E-10
quench:  g(F)=  0.000E+00 g(S)=  0.000E+00 dE (1.order)= 0.000E+00
 bond charge predicted
       N       E                     dE             d eps       ncg     rms          rms(c)
DAV:   1    -0.599376156204E+02    0.14188E-09    0.32192E-11    93   0.507E-10    0.577E-04
RMM:   2    -0.599376156206E+02   -0.17280E-09    0.00000E+00     2   0.397E-10
 138 F= -.59937616E+02 E0= -.59923857E+02  d E =-.673026E-10
quench:  g(F)=  0.000E+00 g(S)=  0.000E+00 dE (1.order)= 0.000E+00
 bond charge predicted
       N       E                     dE             d eps       ncg     rms          rms(c)
DAV:   1    -0.599376156205E+02   -0.63665E-10   -0.31236E-11    93   0.354E-10    0.577E-04
RMM:   2    -0.599376156204E+02    0.98225E-10    0.00000E+00     2   0.172E-10
 139 F= -.59937616E+02 E0= -.59923857E+02  d E =0.207365E-09
quench:  g(F)=  0.000E+00 g(S)=  0.000E+00 dE (1.order)= 0.000E+00
 bond charge predicted
       N       E                     dE             d eps       ncg     rms          rms(c)
DAV:   1    -0.599376156211E+02   -0.59845E-09   -0.38693E-11    93   0.366E-10    0.577E-04
RMM:   2    -0.599376156205E+02    0.54570E-09    0.00000E+00     2   0.455E-10
 140 F= -.59937616E+02 E0= -.59923857E+02  d E =-.150976E-09
quench:  g(F)=  0.000E+00 g(S)=  0.000E+00 dE (1.order)= 0.000E+00
 bond charge predicted
       N       E                     dE             d eps       ncg     rms          rms(c)
DAV:   1    -0.599376156204E+02    0.63119E-09    0.79495E-11    93   0.423E-10    0.577E-04
RMM:   2    -0.599376156206E+02   -0.16735E-09    0.00000E+00     2   0.431E-10
 141 F= -.59937616E+02 E0= -.59923857E+02  d E =-.818545E-10
quench:  g(F)=  0.000E+00 g(S)=  0.000E+00 dE (1.order)= 0.000E+00
 bond charge predicted
       N       E                     dE             d eps       ncg     rms          rms(c)
DAV:   1    -0.599376156205E+02   -0.98225E-10    0.72653E-12    93   0.545E-10    0.577E-04
RMM:   2    -0.599376156205E+02    0.40018E-10    0.00000E+00     2   0.331E-10
 142 F= -.59937616E+02 E0= -.59923857E+02  d E =0.109139E-09
quench:  g(F)=  0.000E+00 g(S)=  0.000E+00 dE (1.order)= 0.000E+00
 bond charge predicted
       N       E                     dE             d eps       ncg     rms          rms(c)
DAV:   1    -0.599376156203E+02    0.18190E-09    0.23341E-11    93   0.496E-10    0.577E-04
RMM:   2    -0.599376156205E+02   -0.12187E-09    0.00000E+00     2   0.285E-10
 143 F= -.59937616E+02 E0= -.59923857E+02  d E =0.200089E-10
quench:  g(F)=  0.000E+00 g(S)=  0.000E+00 dE (1.order)= 0.000E+00
 bond charge predicted
       N       E                     dE             d eps       ncg     rms          rms(c)
DAV:   1    -0.599376156206E+02   -0.21464E-09    0.16183E-11    93   0.271E-10    0.577E-04
RMM:   2    -0.599376156205E+02    0.98225E-10    0.00000E+00     2   0.289E-10
 144 F= -.59937616E+02 E0= -.59923857E+02  d E =0.545697E-11
quench:  g(F)=  0.000E+00 g(S)=  0.000E+00 dE (1.order)= 0.000E+00
 bond charge predicted
       N       E                     dE             d eps       ncg     rms          rms(c)
DAV:   1    -0.599376156202E+02    0.30923E-09    0.58320E-11    93   0.385E-10    0.577E-04
RMM:   2    -0.599376156205E+02   -0.26921E-09    0.00000E+00     2   0.309E-10
 145 F= -.59937616E+02 E0= -.59923857E+02  d E =-.582077E-10
quench:  g(F)=  0.000E+00 g(S)=  0.000E+00 dE (1.order)= 0.000E+00
 bond charge predicted
       N       E                     dE             d eps       ncg     rms          rms(c)
DAV:   1    -0.599376156213E+02   -0.10987E-08   -0.32283E-11    93   0.369E-10    0.577E-04
RMM:   2    -0.599376156205E+02    0.84037E-09    0.00000E+00     2   0.272E-10
 146 F= -.59937616E+02 E0= -.59923857E+02  d E =0.109139E-10
quench:  g(F)=  0.000E+00 g(S)=  0.000E+00 dE (1.order)= 0.000E+00
 bond charge predicted
       N       E                     dE             d eps       ncg     rms          rms(c)
DAV:   1    -0.599376156205E+02    0.85493E-09    0.29566E-11    93   0.468E-10    0.577E-04
RMM:   2    -0.599376156205E+02    0.25466E-10    0.00000E+00     2   0.473E-10
 147 F= -.59937616E+02 E0= -.59923857E+02  d E =0.400178E-10
quench:  g(F)=  0.000E+00 g(S)=  0.000E+00 dE (1.order)= 0.000E+00
 bond charge predicted
       N       E                     dE             d eps       ncg     rms          rms(c)
DAV:   1    -0.599376156201E+02    0.41655E-09    0.45202E-12    93   0.498E-10    0.577E-04
RMM:   2    -0.599376156206E+02   -0.48749E-09    0.00000E+00     2   0.142E-10
 148 F= -.59937616E+02 E0= -.59923857E+02  d E =-.964064E-10
quench:  g(F)=  0.000E+00 g(S)=  0.000E+00 dE (1.order)= 0.000E+00
 bond charge predicted
       N       E                     dE             d eps       ncg     rms          rms(c)
DAV:   1    -0.599376156206E+02   -0.56207E-09    0.30691E-11    93   0.316E-10    0.577E-04
RMM:   2    -0.599376156205E+02    0.11278E-09    0.00000E+00     2   0.412E-10
 149 F= -.59937616E+02 E0= -.59923857E+02  d E =0.381988E-10
quench:  g(F)=  0.000E+00 g(S)=  0.000E+00 dE (1.order)= 0.000E+00
 bond charge predicted
       N       E                     dE             d eps       ncg     rms          rms(c)
DAV:   1    -0.599376156203E+02    0.32742E-09    0.40781E-13    93   0.333E-10    0.577E-04
RMM:   2    -0.599376156204E+02   -0.10914E-09    0.00000E+00     2   0.213E-10
 150 F= -.59937616E+02 E0= -.59923857E+02  d E =0.105501E-09
quench:  g(F)=  0.000E+00 g(S)=  0.000E+00 dE (1.order)= 0.000E+00
 bond charge predicted
       N       E                     dE             d eps       ncg     rms          rms(c)
DAV:   1    -0.599376156211E+02   -0.75670E-09    0.98823E-12    93   0.382E-10    0.577E-04
RMM:   2    -0.599376156205E+02    0.61118E-09    0.00000E+00     2   0.369E-10
 151 F= -.59937616E+02 E0= -.59923857E+02  d E =-.363798E-10
quench:  g(F)=  0.000E+00 g(S)=  0.000E+00 dE (1.order)= 0.000E+00
 bond charge predicted
       N       E                     dE             d eps       ncg     rms          rms(c)
DAV:   1    -0.599376156209E+02    0.17462E-09   -0.13179E-11    93   0.597E-10    0.577E-04
RMM:   2    -0.599376156205E+02    0.40018E-09    0.00000E+00     2   0.212E-10
 152 F= -.59937616E+02 E0= -.59923857E+02  d E =-.363798E-10
quench:  g(F)=  0.000E+00 g(S)=  0.000E+00 dE (1.order)= 0.000E+00
 bond charge predicted
       N       E                     dE             d eps       ncg     rms          rms(c)
DAV:   1    -0.599376156206E+02    0.24556E-09   -0.37101E-11    93   0.254E-10    0.577E-04
RMM:   2    -0.599376156206E+02    0.70941E-10    0.00000E+00     2   0.135E-10
 153 F= -.59937616E+02 E0= -.59923857E+02  d E =-.836735E-10
quench:  g(F)=  0.000E+00 g(S)=  0.000E+00 dE (1.order)= 0.000E+00
 bond charge predicted
       N       E                     dE             d eps       ncg     rms          rms(c)
DAV:   1    -0.599376156204E+02    0.28194E-09   -0.43046E-11    93   0.222E-10    0.577E-04
RMM:   2    -0.599376156205E+02   -0.16007E-09    0.00000E+00     2   0.234E-10
 154 F= -.59937616E+02 E0= -.59923857E+02  d E =0.509317E-10
quench:  g(F)=  0.000E+00 g(S)=  0.000E+00 dE (1.order)= 0.000E+00
 bond charge predicted
       N       E                     dE             d eps       ncg     rms          rms(c)
DAV:   1    -0.599376156206E+02   -0.25648E-09   -0.63904E-11    93   0.242E-10    0.577E-04
RMM:   2    -0.599376156205E+02    0.15280E-09    0.00000E+00     2   0.306E-10
 155 F= -.59937616E+02 E0= -.59923857E+02  d E =0.563887E-10
quench:  g(F)=  0.000E+00 g(S)=  0.000E+00 dE (1.order)= 0.000E+00
 bond charge predicted
       N       E                     dE             d eps       ncg     rms          rms(c)
DAV:   1    -0.599376156206E+02    0.18190E-10   -0.89904E-12    93   0.264E-10    0.577E-04
RMM:   2    -0.599376156205E+02    0.83674E-10    0.00000E+00     2   0.231E-10
 156 F= -.59937616E+02 E0= -.59923857E+02  d E =-.509317E-10
quench:  g(F)=  0.000E+00 g(S)=  0.000E+00 dE (1.order)= 0.000E+00
 bond charge predicted
       N       E                     dE             d eps       ncg     rms          rms(c)
DAV:   1    -0.599376156202E+02    0.43110E-09    0.11186E-11    93   0.364E-10    0.577E-04
RMM:   2    -0.599376156205E+02   -0.31650E-09    0.00000E+00     2   0.270E-10
 157 F= -.59937616E+02 E0= -.59923857E+02  d E =0.309228E-10
quench:  g(F)=  0.000E+00 g(S)=  0.000E+00 dE (1.order)= 0.000E+00
 bond charge predicted
       N       E                     dE             d eps       ncg     rms          rms(c)
DAV:   1    -0.599376156205E+02   -0.37653E-09    0.32434E-11    93   0.317E-10    0.577E-04
RMM:   2    -0.599376156204E+02    0.15098E-09    0.00000E+00     2   0.319E-10
 158 F= -.59937616E+02 E0= -.59923857E+02  d E =0.909495E-10
quench:  g(F)=  0.000E+00 g(S)=  0.000E+00 dE (1.order)= 0.000E+00
 bond charge predicted
       N       E                     dE             d eps       ncg     rms          rms(c)
DAV:   1    -0.599376156207E+02   -0.15461E-09   -0.26036E-11    93   0.445E-10    0.577E-04
RMM:   2    -0.599376156205E+02    0.16189E-09    0.00000E+00     2   0.339E-10
 159 F= -.59937616E+02 E0= -.59923857E+02  d E =-.143700E-09
quench:  g(F)=  0.000E+00 g(S)=  0.000E+00 dE (1.order)= 0.000E+00
 bond charge predicted
       N       E                     dE             d eps       ncg     rms          rms(c)
DAV:   1    -0.599376156204E+02    0.32014E-09   -0.27610E-11    93   0.253E-10    0.577E-04
RMM:   2    -0.599376156204E+02   -0.38199E-10    0.00000E+00     2   0.225E-10
 160 F= -.59937616E+02 E0= -.59923857E+02  d E =0.120053E-09
quench:  g(F)=  0.000E+00 g(S)=  0.000E+00 dE (1.order)= 0.000E+00
 bond charge predicted
       N       E                     dE             d eps       ncg     rms          rms(c)
DAV:   1    -0.599376156204E+02   -0.56389E-10    0.11803E-11    93   0.251E-10    0.577E-04
RMM:   2    -0.599376156204E+02    0.20009E-10    0.00000E+00     2   0.558E-10
 161 F= -.59937616E+02 E0= -.59923857E+02  d E =0.181899E-11
quench:  g(F)=  0.000E+00 g(S)=  0.000E+00 dE (1.order)= 0.000E+00
 bond charge predicted
       N       E                     dE             d eps       ncg     rms          rms(c)
DAV:   1    -0.599376156202E+02    0.22374E-09    0.22821E-11    93   0.198E-10    0.577E-04
RMM:   2    -0.599376156205E+02   -0.28012E-09    0.00000E+00     2   0.203E-10
 162 F= -.59937616E+02 E0= -.59923857E+02  d E =-.763976E-10
quench:  g(F)=  0.000E+00 g(S)=  0.000E+00 dE (1.order)= 0.000E+00
 bond charge predicted
       N       E                     dE             d eps       ncg     rms          rms(c)
DAV:   1    -0.599376156209E+02   -0.64392E-09    0.74454E-11    93   0.225E-10    0.577E-04
RMM:   2    -0.599376156206E+02    0.26921E-09    0.00000E+00     2   0.283E-10
 163 F= -.59937616E+02 E0= -.59923857E+02  d E =-.945874E-10
quench:  g(F)=  0.000E+00 g(S)=  0.000E+00 dE (1.order)= 0.000E+00
 bond charge predicted
       N       E                     dE             d eps       ncg     rms          rms(c)
DAV:   1    -0.599376156202E+02    0.66939E-09    0.53020E-12    93   0.297E-10    0.577E-04
RMM:   2    -0.599376156205E+02   -0.27649E-09    0.00000E+00     2   0.217E-10
 164 F= -.59937616E+02 E0= -.59923857E+02  d E =0.123691E-09
quench:  g(F)=  0.000E+00 g(S)=  0.000E+00 dE (1.order)= 0.000E+00
 bond charge predicted
       N       E                     dE             d eps       ncg     rms          rms(c)
DAV:   1    -0.599376156202E+02   -0.16371E-10    0.53460E-11    93   0.308E-10    0.577E-04
RMM:   2    -0.599376156206E+02   -0.37289E-09    0.00000E+00     2   0.359E-10
 165 F= -.59937616E+02 E0= -.59923857E+02  d E =-.112777E-09
quench:  g(F)=  0.000E+00 g(S)=  0.000E+00 dE (1.order)= 0.000E+00
 bond charge predicted
       N       E                     dE             d eps       ncg     rms          rms(c)
DAV:   1    -0.599376156207E+02   -0.47839E-09   -0.42367E-11    93   0.429E-10    0.577E-04
RMM:   2    -0.599376156204E+02    0.28740E-09    0.00000E+00     2   0.307E-10
 166 F= -.59937616E+02 E0= -.59923857E+02  d E =0.181899E-09
quench:  g(F)=  0.000E+00 g(S)=  0.000E+00 dE (1.order)= 0.000E+00
 bond charge predicted
       N       E                     dE             d eps       ncg     rms          rms(c)
DAV:   1    -0.599376156204E+02    0.25466E-09   -0.28249E-11    93   0.236E-10    0.577E-04
RMM:   2    -0.599376156204E+02    0.18190E-10    0.00000E+00     2   0.191E-10
 167 F= -.59937616E+02 E0= -.59923857E+02  d E =-.145519E-10
quench:  g(F)=  0.000E+00 g(S)=  0.000E+00 dE (1.order)= 0.000E+00
 bond charge predicted
       N       E                     dE             d eps       ncg     rms          rms(c)
DAV:   1    -0.599376156208E+02   -0.41109E-09    0.14541E-11    93   0.346E-10    0.577E-04
RMM:   2    -0.599376156205E+02    0.31105E-09    0.00000E+00     2   0.294E-10
 168 F= -.59937616E+02 E0= -.59923857E+02  d E =-.118234E-09
quench:  g(F)=  0.000E+00 g(S)=  0.000E+00 dE (1.order)= 0.000E+00
 bond charge predicted
       N       E                     dE             d eps       ncg     rms          rms(c)
DAV:   1    -0.599376156193E+02    0.15625E-08    0.29495E-11    93   0.485E-10    0.577E-04
RMM:   2    -0.599376156204E+02   -0.11314E-08    0.00000E+00     2   0.260E-10
 169 F= -.59937616E+02 E0= -.59923857E+02  d E =0.120053E-09
quench:  g(F)=  0.000E+00 g(S)=  0.000E+00 dE (1.order)= 0.000E+00
 bond charge predicted
       N       E                     dE             d eps       ncg     rms          rms(c)
DAV:   1    -0.599376156207E+02   -0.14443E-08    0.57968E-11    93   0.334E-10    0.577E-04
RMM:   2    -0.599376156205E+02    0.17644E-09    0.00000E+00     2   0.201E-10
 170 F= -.59937616E+02 E0= -.59923857E+02  d E =-.136424E-09
quench:  g(F)=  0.000E+00 g(S)=  0.000E+00 dE (1.order)= 0.000E+00
 bond charge predicted
       N       E                     dE             d eps       ncg     rms          rms(c)
DAV:   1    -0.599376156205E+02    0.21464E-09    0.53088E-11    93   0.286E-10    0.577E-04
RMM:   2    -0.599376156204E+02    0.12733E-09    0.00000E+00     2   0.232E-10
 171 F= -.59937616E+02 E0= -.59923857E+02  d E =0.165528E-09
quench:  g(F)=  0.000E+00 g(S)=  0.000E+00 dE (1.order)= 0.000E+00
 bond charge predicted
       N       E                     dE             d eps       ncg     rms          rms(c)
DAV:   1    -0.599376156212E+02   -0.70577E-09   -0.14145E-11    93   0.276E-10    0.577E-04
RMM:   2    -0.599376156206E+02    0.60390E-09    0.00000E+00     2   0.198E-10
 172 F= -.59937616E+02 E0= -.59923857E+02  d E =-.229193E-09
quench:  g(F)=  0.000E+00 g(S)=  0.000E+00 dE (1.order)= 0.000E+00
 bond charge predicted
       N       E                     dE             d eps       ncg     rms          rms(c)
DAV:   1    -0.599376156211E+02    0.12369E-09    0.11247E-11    93   0.419E-10    0.577E-04
RMM:   2    -0.599376156205E+02    0.58753E-09    0.00000E+00     2   0.706E-10
 173 F= -.59937616E+02 E0= -.59923857E+02  d E =0.107320E-09
quench:  g(F)=  0.000E+00 g(S)=  0.000E+00 dE (1.order)= 0.000E+00
 bond charge predicted
       N       E                     dE             d eps       ncg     rms          rms(c)
DAV:   1    -0.599376156206E+02    0.46566E-09   -0.13034E-11    93   0.848E-10    0.577E-04
RMM:   2    -0.599376156204E+02    0.19827E-09    0.00000E+00     2   0.276E-10
 174 F= -.59937616E+02 E0= -.59923857E+02  d E =0.763976E-10
quench:  g(F)=  0.000E+00 g(S)=  0.000E+00 dE (1.order)= 0.000E+00
 bond charge predicted
       N       E                     dE             d eps       ncg     rms          rms(c)
DAV:   1    -0.599376156203E+02    0.34015E-09    0.14572E-11    93   0.327E-10    0.577E-04
RMM:   2    -0.599376156206E+02   -0.31650E-09    0.00000E+00     2   0.242E-10
 175 F= -.59937616E+02 E0= -.59923857E+02  d E =-.174623E-09
quench:  g(F)=  0.000E+00 g(S)=  0.000E+00 dE (1.order)= 0.000E+00
 bond charge predicted
       N       E                     dE             d eps       ncg     rms          rms(c)
DAV:   1    -0.599376156208E+02   -0.49477E-09    0.21163E-11    93   0.345E-10    0.577E-04
RMM:   2    -0.599376156205E+02    0.28194E-09    0.00000E+00     2   0.302E-10
 176 F= -.59937616E+02 E0= -.59923857E+02  d E =0.103682E-09
quench:  g(F)=  0.000E+00 g(S)=  0.000E+00 dE (1.order)= 0.000E+00
 bond charge predicted
       N       E                     dE             d eps       ncg     rms          rms(c)
DAV:   1    -0.599376156198E+02    0.97680E-09    0.22570E-11    93   0.409E-10    0.577E-04
RMM:   2    -0.599376156205E+02   -0.68940E-09    0.00000E+00     2   0.203E-10
 177 F= -.59937616E+02 E0= -.59923857E+02  d E =0.545697E-11
quench:  g(F)=  0.000E+00 g(S)=  0.000E+00 dE (1.order)= 0.000E+00
 bond charge predicted
       N       E                     dE             d eps       ncg     rms          rms(c)
DAV:   1    -0.599376156205E+02   -0.69122E-09    0.28908E-11    93   0.469E-10    0.577E-04
RMM:   2    -0.599376156205E+02   -0.25466E-10    0.00000E+00     2   0.421E-10
 178 F= -.59937616E+02 E0= -.59923857E+02  d E =-.272848E-10
quench:  g(F)=  0.000E+00 g(S)=  0.000E+00 dE (1.order)= 0.000E+00
 bond charge predicted
       N       E                     dE             d eps       ncg     rms          rms(c)
DAV:   1    -0.599376156203E+02    0.22555E-09    0.20113E-11    93   0.626E-10    0.577E-04
RMM:   2    -0.599376156205E+02   -0.22192E-09    0.00000E+00     2   0.352E-10
 179 F= -.59937616E+02 E0= -.59923857E+02  d E =0.291038E-10
quench:  g(F)=  0.000E+00 g(S)=  0.000E+00 dE (1.order)= 0.000E+00
 bond charge predicted
       N       E                     dE             d eps       ncg     rms          rms(c)
DAV:   1    -0.599376156205E+02   -0.20555E-09   -0.31414E-11    93   0.419E-10    0.577E-04
RMM:   2    -0.599376156206E+02   -0.12733E-09    0.00000E+00     2   0.200E-10
 180 F= -.59937616E+02 E0= -.59923857E+02  d E =-.110958E-09
quench:  g(F)=  0.000E+00 g(S)=  0.000E+00 dE (1.order)= 0.000E+00
 bond charge predicted
       N       E                     dE             d eps       ncg     rms          rms(c)
DAV:   1    -0.599376156201E+02    0.32560E-09    0.20995E-11    93   0.451E-10    0.577E-04
RMM:   2    -0.599376156206E+02   -0.42019E-09    0.00000E+00     2   0.515E-10
 181 F= -.59937616E+02 E0= -.59923857E+02  d E =0.327418E-10
quench:  g(F)=  0.000E+00 g(S)=  0.000E+00 dE (1.order)= 0.000E+00
[...]
 bond charge predicted
       N       E                     dE             d eps       ncg     rms          rms(c)
DAV:   1    -0.599376156204E+02    0.85674E-09   -0.20326E-12    84   0.188E-10    0.577E-04
RMM:   2    -0.599376156205E+02   -0.81855E-10    0.00000E+00     1   0.178E-10
 953 F= -.59937616E+02 E0= -.59923857E+02  d E =-.181899E-11
quench:  g(F)=  0.000E+00 g(S)=  0.000E+00 dE (1.order)= 0.000E+00
 bond charge predicted
       N       E                     dE             d eps       ncg     rms          rms(c)
DAV:   1    -0.599376156209E+02   -0.46930E-09   -0.22273E-11    84   0.234E-10    0.577E-04
RMM:   2    -0.599376156205E+02    0.37835E-09    0.00000E+00     1   0.405E-10
 954 F= -.59937616E+02 E0= -.59923857E+02  d E =-.909495E-11
quench:  g(F)=  0.000E+00 g(S)=  0.000E+00 dE (1.order)= 0.000E+00
 bond charge predicted
       N       E                     dE             d eps       ncg     rms          rms(c)
DAV:   1    -0.599376156204E+02    0.43110E-09    0.51634E-12    84   0.662E-10    0.577E-04
RMM:   2    -0.599376156205E+02   -0.43656E-10    0.00000E+00     1   0.303E-10
 955 F= -.59937616E+02 E0= -.59923857E+02  d E =0.909495E-11
quench:  g(F)=  0.000E+00 g(S)=  0.000E+00 dE (1.order)= 0.000E+00
 bond charge predicted
       N       E                     dE             d eps       ncg     rms          rms(c)
DAV:   1    -0.599376156204E+02    0.52751E-10    0.21967E-11    84   0.473E-10    0.577E-04
RMM:   2    -0.599376156205E+02   -0.15461E-09    0.00000E+00     1   0.302E-10
 956 F= -.59937616E+02 E0= -.59923857E+02  d E =-.582077E-10
quench:  g(F)=  0.000E+00 g(S)=  0.000E+00 dE (1.order)= 0.000E+00
 bond charge predicted
       N       E                     dE             d eps       ncg     rms          rms(c)
DAV:   1    -0.599376156202E+02    0.15280E-09   -0.16705E-11    84   0.433E-10    0.577E-04
RMM:   2    -0.599376156206E+02   -0.33106E-09    0.00000E+00     1   0.443E-10
 957 F= -.59937616E+02 E0= -.59923857E+02  d E =-.236469E-10
quench:  g(F)=  0.000E+00 g(S)=  0.000E+00 dE (1.order)= 0.000E+00
 bond charge predicted
       N       E                     dE             d eps       ncg     rms          rms(c)
DAV:   1    -0.599376156201E+02    0.76398E-10    0.29217E-11    84   0.357E-10    0.577E-04
RMM:   2    -0.599376156204E+02   -0.25284E-09    0.00000E+00     1   0.711E-10
 958 F= -.59937616E+02 E0= -.59923857E+02  d E =0.154614E-09
quench:  g(F)=  0.000E+00 g(S)=  0.000E+00 dE (1.order)= 0.000E+00
 bond charge predicted
       N       E                     dE             d eps       ncg     rms          rms(c)
DAV:   1    -0.599376156205E+02   -0.37107E-09    0.14482E-11    84   0.675E-10    0.577E-04
RMM:   2    -0.599376156206E+02   -0.70941E-10    0.00000E+00     1   0.366E-10
 959 F= -.59937616E+02 E0= -.59923857E+02  d E =-.189175E-09
quench:  g(F)=  0.000E+00 g(S)=  0.000E+00 dE (1.order)= 0.000E+00
 bond charge predicted
       N       E                     dE             d eps       ncg     rms          rms(c)
DAV:   1    -0.599376156206E+02   -0.63665E-10   -0.70908E-12    84   0.545E-10    0.577E-04
RMM:   2    -0.599376156205E+02    0.70941E-10    0.00000E+00     1   0.309E-10
 960 F= -.59937616E+02 E0= -.59923857E+02  d E =0.782165E-10
quench:  g(F)=  0.000E+00 g(S)=  0.000E+00 dE (1.order)= 0.000E+00
 bond charge predicted
       N       E                     dE             d eps       ncg     rms          rms(c)
DAV:   1    -0.599376156201E+02    0.47294E-09   -0.15334E-11    84   0.522E-10    0.577E-04
RMM:   2    -0.599376156205E+02   -0.35288E-09    0.00000E+00     1   0.526E-10
 961 F= -.59937616E+02 E0= -.59923857E+02  d E =0.491127E-10
quench:  g(F)=  0.000E+00 g(S)=  0.000E+00 dE (1.order)= 0.000E+00
 bond charge predicted
       N       E                     dE             d eps       ncg     rms          rms(c)
DAV:   1    -0.599376156205E+02   -0.36198E-09    0.28696E-11    84   0.208E-10    0.577E-04
RMM:   2    -0.599376156206E+02   -0.10732E-09    0.00000E+00     1   0.364E-10
 962 F= -.59937616E+02 E0= -.59923857E+02  d E =-.116415E-09
quench:  g(F)=  0.000E+00 g(S)=  0.000E+00 dE (1.order)= 0.000E+00
 bond charge predicted
       N       E                     dE             d eps       ncg     rms          rms(c)
DAV:   1    -0.599376156208E+02   -0.35288E-09    0.33538E-11    84   0.562E-10    0.577E-04
RMM:   2    -0.599376156205E+02    0.36744E-09    0.00000E+00     1   0.505E-10
 963 F= -.59937616E+02 E0= -.59923857E+02  d E =0.121872E-09
quench:  g(F)=  0.000E+00 g(S)=  0.000E+00 dE (1.order)= 0.000E+00
 bond charge predicted
       N       E                     dE             d eps       ncg     rms          rms(c)
DAV:   1    -0.599376156197E+02    0.11605E-08    0.32090E-12    84   0.607E-10    0.577E-04
RMM:   2    -0.599376156206E+02   -0.89676E-09    0.00000E+00     1   0.226E-10
 964 F= -.59937616E+02 E0= -.59923857E+02  d E =-.103682E-09
quench:  g(F)=  0.000E+00 g(S)=  0.000E+00 dE (1.order)= 0.000E+00
 bond charge predicted
       N       E                     dE             d eps       ncg     rms          rms(c)
DAV:   1    -0.599376156193E+02    0.40745E-09    0.22059E-13    84   0.289E-10    0.577E-04
RMM:   2    -0.599376156204E+02   -0.11660E-08    0.00000E+00     1   0.291E-10
 965 F= -.59937616E+02 E0= -.59923857E+02  d E =0.138243E-09
quench:  g(F)=  0.000E+00 g(S)=  0.000E+00 dE (1.order)= 0.000E+00
 bond charge predicted
       N       E                     dE             d eps       ncg     rms          rms(c)
DAV:   1    -0.599376156212E+02   -0.19500E-08    0.25349E-13    84   0.494E-10    0.577E-04
RMM:   2    -0.599376156204E+02    0.75670E-09    0.00000E+00     1   0.301E-10
 966 F= -.59937616E+02 E0= -.59923857E+02  d E =-.272848E-10
quench:  g(F)=  0.000E+00 g(S)=  0.000E+00 dE (1.order)= 0.000E+00
 bond charge predicted
       N       E                     dE             d eps       ncg     rms          rms(c)
DAV:   1    -0.599376156209E+02    0.32378E-09    0.46715E-12    84   0.283E-10    0.577E-04
RMM:   2    -0.599376156205E+02    0.42746E-09    0.00000E+00     1   0.432E-10
 967 F= -.59937616E+02 E0= -.59923857E+02  d E =-.545697E-11
quench:  g(F)=  0.000E+00 g(S)=  0.000E+00 dE (1.order)= 0.000E+00
 bond charge predicted
       N       E                     dE             d eps       ncg     rms          rms(c)
DAV:   1    -0.599376156204E+02    0.49658E-09   -0.29841E-12    84   0.388E-10    0.577E-04
RMM:   2    -0.599376156206E+02   -0.20191E-09    0.00000E+00     1   0.280E-10
 968 F= -.59937616E+02 E0= -.59923857E+02  d E =-.132786E-09
quench:  g(F)=  0.000E+00 g(S)=  0.000E+00 dE (1.order)= 0.000E+00
 bond charge predicted
       N       E                     dE             d eps       ncg     rms          rms(c)
DAV:   1    -0.599376156201E+02    0.31650E-09   -0.10179E-11    84   0.481E-10    0.577E-04
RMM:   2    -0.599376156205E+02   -0.39472E-09    0.00000E+00     1   0.275E-10
 969 F= -.59937616E+02 E0= -.59923857E+02  d E =0.123691E-09
quench:  g(F)=  0.000E+00 g(S)=  0.000E+00 dE (1.order)= 0.000E+00
 bond charge predicted
       N       E                     dE             d eps       ncg     rms          rms(c)
DAV:   1    -0.599376156203E+02   -0.26921E-09   -0.14598E-11    84   0.279E-10    0.577E-04
RMM:   2    -0.599376156205E+02   -0.16007E-09    0.00000E+00     1   0.293E-10
 970 F= -.59937616E+02 E0= -.59923857E+02  d E =-.345608E-10
quench:  g(F)=  0.000E+00 g(S)=  0.000E+00 dE (1.order)= 0.000E+00
 bond charge predicted
       N       E                     dE             d eps       ncg     rms          rms(c)
DAV:   1    -0.599376156199E+02    0.40018E-09    0.39786E-11    84   0.249E-10    0.577E-04
RMM:   2    -0.599376156205E+02   -0.55115E-09    0.00000E+00     1   0.200E-10
 971 F= -.59937616E+02 E0= -.59923857E+02  d E =0.909495E-11
quench:  g(F)=  0.000E+00 g(S)=  0.000E+00 dE (1.order)= 0.000E+00
 bond charge predicted
       N       E                     dE             d eps       ncg     rms          rms(c)
DAV:   1    -0.599376156203E+02   -0.38017E-09   -0.22717E-11    84   0.182E-10    0.577E-04
RMM:   2    -0.599376156204E+02   -0.10550E-09    0.00000E+00     1   0.267E-10
 972 F= -.59937616E+02 E0= -.59923857E+02  d E =0.654836E-10
quench:  g(F)=  0.000E+00 g(S)=  0.000E+00 dE (1.order)= 0.000E+00
 bond charge predicted
       N       E                     dE             d eps       ncg     rms          rms(c)
DAV:   1    -0.599376156204E+02   -0.83674E-10    0.42693E-11    84   0.375E-10    0.577E-04
RMM:   2    -0.599376156205E+02   -0.12551E-09    0.00000E+00     1   0.331E-10
 973 F= -.59937616E+02 E0= -.59923857E+02  d E =-.103682E-09
quench:  g(F)=  0.000E+00 g(S)=  0.000E+00 dE (1.order)= 0.000E+00
 bond charge predicted
       N       E                     dE             d eps       ncg     rms          rms(c)
DAV:   1    -0.599376156204E+02   -0.21828E-10   -0.10786E-11    84   0.287E-10    0.577E-04
RMM:   2    -0.599376156204E+02    0.12733E-10    0.00000E+00     1   0.199E-10
 974 F= -.59937616E+02 E0= -.59923857E+02  d E =0.116415E-09
quench:  g(F)=  0.000E+00 g(S)=  0.000E+00 dE (1.order)= 0.000E+00
 bond charge predicted
       N       E                     dE             d eps       ncg     rms          rms(c)
DAV:   1    -0.599376156208E+02   -0.36925E-09    0.29308E-11    84   0.302E-10    0.577E-04
RMM:   2    -0.599376156206E+02    0.19099E-09    0.00000E+00     1   0.192E-10
 975 F= -.59937616E+02 E0= -.59923857E+02  d E =-.190994E-09
quench:  g(F)=  0.000E+00 g(S)=  0.000E+00 dE (1.order)= 0.000E+00
 bond charge predicted
       N       E                     dE             d eps       ncg     rms          rms(c)
DAV:   1    -0.599376156201E+02    0.65120E-09    0.74117E-12    84   0.194E-10    0.577E-04
RMM:   2    -0.599376156205E+02   -0.33106E-09    0.00000E+00     1   0.414E-10
 976 F= -.59937616E+02 E0= -.59923857E+02  d E =0.129148E-09
quench:  g(F)=  0.000E+00 g(S)=  0.000E+00 dE (1.order)= 0.000E+00
 bond charge predicted
       N       E                     dE             d eps       ncg     rms          rms(c)
DAV:   1    -0.599376156205E+02   -0.38744E-09   -0.77335E-12    84   0.557E-10    0.577E-04
RMM:   2    -0.599376156205E+02   -0.12733E-10    0.00000E+00     1   0.246E-10
 977 F= -.59937616E+02 E0= -.59923857E+02  d E =-.691216E-10
quench:  g(F)=  0.000E+00 g(S)=  0.000E+00 dE (1.order)= 0.000E+00
 bond charge predicted
       N       E                     dE             d eps       ncg     rms          rms(c)
DAV:   1    -0.599376156202E+02    0.32378E-09    0.13304E-11    84   0.333E-10    0.577E-04
RMM:   2    -0.599376156206E+02   -0.35106E-09    0.00000E+00     1   0.340E-10
 978 F= -.59937616E+02 E0= -.59923857E+02  d E =-.145519E-10
quench:  g(F)=  0.000E+00 g(S)=  0.000E+00 dE (1.order)= 0.000E+00
 bond charge predicted
       N       E                     dE             d eps       ncg     rms          rms(c)
DAV:   1    -0.599376156207E+02   -0.47839E-09   -0.11827E-11    84   0.448E-10    0.577E-04
RMM:   2    -0.599376156204E+02    0.26193E-09    0.00000E+00     1   0.514E-10
 979 F= -.59937616E+02 E0= -.59923857E+02  d E =0.134605E-09
quench:  g(F)=  0.000E+00 g(S)=  0.000E+00 dE (1.order)= 0.000E+00
 bond charge predicted
       N       E                     dE             d eps       ncg     rms          rms(c)
DAV:   1    -0.599376156208E+02   -0.11096E-09    0.63959E-12    84   0.483E-10    0.577E-04
RMM:   2    -0.599376156204E+02    0.37471E-09    0.00000E+00     1   0.316E-10
 980 F= -.59937616E+02 E0= -.59923857E+02  d E =0.181899E-11
quench:  g(F)=  0.000E+00 g(S)=  0.000E+00 dE (1.order)= 0.000E+00
 bond charge predicted
       N       E                     dE             d eps       ncg     rms          rms(c)
DAV:   1    -0.599376156209E+02   -0.13461E-09   -0.30472E-11    84   0.434E-10    0.577E-04
RMM:   2    -0.599376156204E+02    0.54024E-09    0.00000E+00     1   0.425E-10
 981 F= -.59937616E+02 E0= -.59923857E+02  d E =0.309228E-10
quench:  g(F)=  0.000E+00 g(S)=  0.000E+00 dE (1.order)= 0.000E+00
 bond charge predicted
       N       E                     dE             d eps       ncg     rms          rms(c)
DAV:   1    -0.599376156199E+02    0.10750E-08    0.55408E-11    84   0.258E-10    0.577E-04
RMM:   2    -0.599376156204E+02   -0.58208E-09    0.00000E+00     1   0.158E-10
 982 F= -.59937616E+02 E0= -.59923857E+02  d E =-.472937E-10
quench:  g(F)=  0.000E+00 g(S)=  0.000E+00 dE (1.order)= 0.000E+00
 bond charge predicted
       N       E                     dE             d eps       ncg     rms          rms(c)
DAV:   1    -0.599376156209E+02   -0.10914E-08    0.62325E-12    84   0.242E-10    0.577E-04
RMM:   2    -0.599376156204E+02    0.55115E-09    0.00000E+00     1   0.238E-10
 983 F= -.59937616E+02 E0= -.59923857E+02  d E =0.418368E-10
quench:  g(F)=  0.000E+00 g(S)=  0.000E+00 dE (1.order)= 0.000E+00
 bond charge predicted
       N       E                     dE             d eps       ncg     rms          rms(c)
DAV:   1    -0.599376156205E+02    0.42564E-09   -0.10171E-11    84   0.212E-10    0.577E-04
RMM:   2    -0.599376156205E+02   -0.23647E-10    0.00000E+00     1   0.332E-10
 984 F= -.59937616E+02 E0= -.59923857E+02  d E =-.149157E-09
quench:  g(F)=  0.000E+00 g(S)=  0.000E+00 dE (1.order)= 0.000E+00
 bond charge predicted
       N       E                     dE             d eps       ncg     rms          rms(c)
DAV:   1    -0.599376156212E+02   -0.64938E-09    0.25661E-11    84   0.433E-10    0.577E-04
RMM:   2    -0.599376156204E+02    0.79308E-09    0.00000E+00     1   0.596E-10
 985 F= -.59937616E+02 E0= -.59923857E+02  d E =0.167347E-09
quench:  g(F)=  0.000E+00 g(S)=  0.000E+00 dE (1.order)= 0.000E+00
 bond charge predicted
       N       E                     dE             d eps       ncg     rms          rms(c)
DAV:   1    -0.599376156205E+02    0.62028E-09   -0.36929E-11    84   0.703E-10    0.577E-04
RMM:   2    -0.599376156206E+02   -0.29104E-10    0.00000E+00     1   0.407E-10
 986 F= -.59937616E+02 E0= -.59923857E+02  d E =-.201908E-09
quench:  g(F)=  0.000E+00 g(S)=  0.000E+00 dE (1.order)= 0.000E+00
 bond charge predicted
       N       E                     dE             d eps       ncg     rms          rms(c)
DAV:   1    -0.599376156206E+02   -0.69122E-10    0.16507E-11    84   0.599E-10    0.577E-04
RMM:   2    -0.599376156205E+02    0.72760E-10    0.00000E+00     1   0.236E-10
 987 F= -.59937616E+02 E0= -.59923857E+02  d E =0.327418E-10
quench:  g(F)=  0.000E+00 g(S)=  0.000E+00 dE (1.order)= 0.000E+00
 bond charge predicted
       N       E                     dE             d eps       ncg     rms          rms(c)
DAV:   1    -0.599376156206E+02    0.58208E-10    0.28421E-11    84   0.377E-10    0.577E-04
RMM:   2    -0.599376156204E+02    0.17644E-09    0.00000E+00     1   0.254E-10
 988 F= -.59937616E+02 E0= -.59923857E+02  d E =0.161890E-09
quench:  g(F)=  0.000E+00 g(S)=  0.000E+00 dE (1.order)= 0.000E+00
 bond charge predicted
       N       E                     dE             d eps       ncg     rms          rms(c)
DAV:   1    -0.599376156210E+02   -0.47294E-09    0.66080E-12    84   0.436E-10    0.577E-04
RMM:   2    -0.599376156205E+02    0.54388E-09    0.00000E+00     1   0.273E-10
 989 F= -.59937616E+02 E0= -.59923857E+02  d E =-.105501E-09
quench:  g(F)=  0.000E+00 g(S)=  0.000E+00 dE (1.order)= 0.000E+00
 bond charge predicted
       N       E                     dE             d eps       ncg     rms          rms(c)
DAV:   1    -0.599376156204E+02    0.66757E-09    0.15525E-11    84   0.502E-10    0.577E-04
RMM:   2    -0.599376156205E+02   -0.89130E-10    0.00000E+00     1   0.313E-10
 990 F= -.59937616E+02 E0= -.59923857E+02  d E =0.345608E-10
quench:  g(F)=  0.000E+00 g(S)=  0.000E+00 dE (1.order)= 0.000E+00
 bond charge predicted
       N       E                     dE             d eps       ncg     rms          rms(c)
DAV:   1    -0.599376156205E+02   -0.13824E-09    0.32951E-11    84   0.436E-10    0.577E-04
RMM:   2    -0.599376156205E+02   -0.90949E-11    0.00000E+00     1   0.224E-10
 991 F= -.59937616E+02 E0= -.59923857E+02  d E =-.582077E-10
quench:  g(F)=  0.000E+00 g(S)=  0.000E+00 dE (1.order)= 0.000E+00
 bond charge predicted
       N       E                     dE             d eps       ncg     rms          rms(c)
DAV:   1    -0.599376156204E+02    0.10186E-09   -0.27242E-12    84   0.354E-10    0.577E-04
RMM:   2    -0.599376156204E+02   -0.32742E-10    0.00000E+00     1   0.295E-10
 992 F= -.59937616E+02 E0= -.59923857E+02  d E =0.782165E-10
quench:  g(F)=  0.000E+00 g(S)=  0.000E+00 dE (1.order)= 0.000E+00
 bond charge predicted
       N       E                     dE             d eps       ncg     rms          rms(c)
DAV:   1    -0.599376156207E+02   -0.30013E-09    0.60682E-11    84   0.559E-10    0.577E-04
RMM:   2    -0.599376156205E+02    0.19281E-09    0.00000E+00     1   0.379E-10
 993 F= -.59937616E+02 E0= -.59923857E+02  d E =-.745786E-10
quench:  g(F)=  0.000E+00 g(S)=  0.000E+00 dE (1.order)= 0.000E+00
 bond charge predicted
       N       E                     dE             d eps       ncg     rms          rms(c)
DAV:   1    -0.599376156207E+02   -0.16371E-10    0.44973E-11    84   0.651E-10    0.577E-04
RMM:   2    -0.599376156205E+02    0.17826E-09    0.00000E+00     1   0.403E-10
 994 F= -.59937616E+02 E0= -.59923857E+02  d E =-.309228E-10
quench:  g(F)=  0.000E+00 g(S)=  0.000E+00 dE (1.order)= 0.000E+00
 bond charge predicted
       N       E                     dE             d eps       ncg     rms          rms(c)
DAV:   1    -0.599376156205E+02    0.19099E-09    0.21368E-11    84   0.413E-10    0.577E-04
RMM:   2    -0.599376156204E+02    0.85493E-10    0.00000E+00     1   0.294E-10
 995 F= -.59937616E+02 E0= -.59923857E+02  d E =0.982254E-10
quench:  g(F)=  0.000E+00 g(S)=  0.000E+00 dE (1.order)= 0.000E+00
 bond charge predicted
       N       E                     dE             d eps       ncg     rms          rms(c)
DAV:   1    -0.599376156203E+02    0.20555E-09   -0.31459E-11    84   0.239E-10    0.577E-04
RMM:   2    -0.599376156205E+02   -0.17099E-09    0.00000E+00     1   0.285E-10
 996 F= -.59937616E+02 E0= -.59923857E+02  d E =-.509317E-10
quench:  g(F)=  0.000E+00 g(S)=  0.000E+00 dE (1.order)= 0.000E+00
 bond charge predicted
       N       E                     dE             d eps       ncg     rms          rms(c)
DAV:   1    -0.599376156211E+02   -0.77307E-09    0.16562E-11    84   0.356E-10    0.577E-04
RMM:   2    -0.599376156205E+02    0.58208E-09    0.00000E+00     1   0.297E-10
 997 F= -.59937616E+02 E0= -.59923857E+02  d E =-.200089E-10
quench:  g(F)=  0.000E+00 g(S)=  0.000E+00 dE (1.order)= 0.000E+00
 bond charge predicted
       N       E                     dE             d eps       ncg     rms          rms(c)
DAV:   1    -0.599376156202E+02    0.93678E-09    0.59448E-11    84   0.503E-10    0.577E-04
RMM:   2    -0.599376156205E+02   -0.37653E-09    0.00000E+00     1   0.276E-10
 998 F= -.59937616E+02 E0= -.59923857E+02  d E =-.218279E-10
quench:  g(F)=  0.000E+00 g(S)=  0.000E+00 dE (1.order)= 0.000E+00
 bond charge predicted
       N       E                     dE             d eps       ncg     rms          rms(c)
DAV:   1    -0.599376156212E+02   -0.10095E-08   -0.19695E-11    84   0.423E-10    0.577E-04
RMM:   2    -0.599376156205E+02    0.70213E-09    0.00000E+00     1   0.258E-10
 999 F= -.59937616E+02 E0= -.59923857E+02  d E =0.691216E-10
quench:  g(F)=  0.000E+00 g(S)=  0.000E+00 dE (1.order)= 0.000E+00
 bond charge predicted
       N       E                     dE             d eps       ncg     rms          rms(c)
DAV:   1    -0.599376156205E+02    0.67848E-09    0.25257E-11    84   0.279E-10    0.577E-04
RMM:   2    -0.599376156205E+02   -0.16371E-10    0.00000E+00     1   0.294E-10
1000 F= -.59937616E+02 E0= -.59923857E+02  d E =-.400178E-10
quench:  g(F)=  0.000E+00 g(S)=  0.000E+00 dE (1.order)= 0.000E+00
