  55  55   0   0
  0.2301251E+02  0.1218282E-08  0.7661564E-09  0.1373046E-08  0.0000000E+00
   1.0000000000000000E-004
  CAR 
 NEB_refined                             
      9.30612855    -23.66015278  301      1.29256603      1.00000000
    -23.660  0.0000E+00  0.0000E+00
    -23.550  0.0000E+00  0.0000E+00
    -23.440  0.0000E+00  0.0000E+00
    -23.330 -0.4375E-31 -0.4807E-32
    -23.221 -0.2933E-27 -0.3223E-28
    -23.111 -0.1068E-23 -0.1174E-24
    -23.001 -0.2118E-20 -0.2329E-21
    -22.891 -0.2285E-17 -0.2514E-18
    -22.781 -0.1301E-14 -0.1433E-15
    -22.671 -0.4125E-12 -0.4547E-13
    -22.561 -0.7118E-10 -0.7867E-11
    -22.451 -0.6688E-08 -0.7428E-09
    -22.342 -0.3432E-06 -0.3846E-07
    -22.232 -0.9653E-05 -0.1099E-05
    -22.122 -0.1490E-03 -0.1748E-04
    -22.012 -0.1250E-02 -0.1549E-03
    -21.902 -0.5382E-02 -0.7463E-03
    -21.792 -0.8716E-02 -0.1704E-02
    -21.682  0.1696E-01  0.1594E-03
    -21.572  0.1192E+00  0.1326E-01
    -21.462  0.3208E+00  0.4851E-01
    -21.353  0.5488E+00  0.1088E+00
    -21.243  0.6385E+00  0.1790E+00
    -21.133  0.5247E+00  0.2366E+00
    -21.023  0.2916E+00  0.2687E+00
    -20.913  0.8555E-01  0.2781E+00
    -20.803 -0.3203E-02  0.2777E+00
    -20.693 -0.1145E-01  0.2765E+00
    -20.583 -0.3749E-02  0.2761E+00
    -20.473 -0.5704E-03  0.2760E+00
    -20.364 -0.4553E-04  0.2760E+00
    -20.254 -0.1960E-05  0.2760E+00
    -20.144 -0.4584E-07  0.2760E+00
    -20.034 -0.5836E-09  0.2760E+00
    -19.924 -0.4046E-11  0.2760E+00
    -19.814 -0.1528E-13  0.2760E+00
    -19.704 -0.3233E-16  0.2760E+00
    -19.594  0.0000E+00  0.2760E+00
    -19.484  0.0000E+00  0.2760E+00
    -19.375  0.0000E+00  0.2760E+00
    -19.265  0.0000E+00  0.2760E+00
    -19.155  0.0000E+00  0.2760E+00
    -19.045  0.0000E+00  0.2760E+00
    -18.935  0.0000E+00  0.2760E+00
    -18.825  0.0000E+00  0.2760E+00
    -18.715  0.0000E+00  0.2760E+00
    -18.605  0.0000E+00  0.2760E+00
    -18.495  0.0000E+00  0.2760E+00
    -18.386  0.0000E+00  0.2760E+00
    -18.276  0.0000E+00  0.2760E+00
    -18.166  0.0000E+00  0.2760E+00
    -18.056  0.0000E+00  0.2760E+00
    -17.946  0.0000E+00  0.2760E+00
    -17.836  0.0000E+00  0.2760E+00
    -17.726  0.0000E+00  0.2760E+00
    -17.616  0.0000E+00  0.2760E+00
    -17.506  0.0000E+00  0.2760E+00
    -17.397  0.0000E+00  0.2760E+00
    -17.287  0.0000E+00  0.2760E+00
    -17.177  0.0000E+00  0.2760E+00
    -17.067  0.0000E+00  0.2760E+00
    -16.957  0.0000E+00  0.2760E+00
    -16.847  0.0000E+00  0.2760E+00
    -16.737  0.0000E+00  0.2760E+00
    -16.627  0.0000E+00  0.2760E+00
    -16.517  0.0000E+00  0.2760E+00
    -16.408  0.0000E+00  0.2760E+00
    -16.298  0.0000E+00  0.2760E+00
    -16.188  0.0000E+00  0.2760E+00
    -16.078  0.0000E+00  0.2760E+00
    -15.968  0.0000E+00  0.2760E+00
    -15.858  0.0000E+00  0.2760E+00
    -15.748  0.0000E+00  0.2760E+00
    -15.638  0.0000E+00  0.2760E+00
    -15.528  0.0000E+00  0.2760E+00
    -15.419  0.0000E+00  0.2760E+00
    -15.309  0.0000E+00  0.2760E+00
    -15.199  0.0000E+00  0.2760E+00
    -15.089  0.0000E+00  0.2760E+00
    -14.979  0.0000E+00  0.2760E+00
    -14.869  0.0000E+00  0.2760E+00
    -14.759  0.0000E+00  0.2760E+00
    -14.649  0.0000E+00  0.2760E+00
    -14.539  0.0000E+00  0.2760E+00
    -14.430  0.0000E+00  0.2760E+00
    -14.320  0.0000E+00  0.2760E+00
    -14.210  0.0000E+00  0.2760E+00
    -14.100  0.0000E+00  0.2760E+00
    -13.990  0.0000E+00  0.2760E+00
    -13.880  0.0000E+00  0.2760E+00
    -13.770  0.0000E+00  0.2760E+00
    -13.660  0.0000E+00  0.2760E+00
    -13.550  0.0000E+00  0.2760E+00
    -13.441  0.0000E+00  0.2760E+00
    -13.331  0.0000E+00  0.2760E+00
    -13.221  0.0000E+00  0.2760E+00
    -13.111  0.0000E+00  0.2760E+00
    -13.001  0.0000E+00  0.2760E+00
    -12.891  0.0000E+00  0.2760E+00
    -12.781  0.0000E+00  0.2760E+00
    -12.671  0.0000E+00  0.2760E+00
    -12.562 -0.5174E-31  0.2760E+00
    -12.452 -0.3429E-27  0.2760E+00
    -12.342 -0.1235E-23  0.2760E+00
    -12.232 -0.2419E-20  0.2760E+00
    -12.122 -0.2576E-17  0.2760E+00
    -12.012 -0.1444E-14  0.2760E+00
    -11.902 -0.4504E-12  0.2760E+00
    -11.792 -0.7600E-10  0.2760E+00
    -11.682 -0.6920E-08  0.2760E+00
    -11.573 -0.3386E-06  0.2760E+00
    -11.463 -0.8827E-05  0.2760E+00
    -11.353 -0.1203E-03  0.2760E+00
    -11.243 -0.8135E-03  0.2759E+00
    -11.133 -0.2192E-02  0.2757E+00
    -11.023  0.1912E-02  0.2759E+00
    -10.913  0.2401E-01  0.2785E+00
    -10.803  0.5305E-01  0.2843E+00
    -10.693  0.5131E-01  0.2900E+00
    -10.584  0.2093E-01  0.2923E+00
    -10.474  0.3865E-03  0.2923E+00
    -10.364 -0.2945E-02  0.2920E+00
    -10.254 -0.2770E-02  0.2917E+00
    -10.144  0.6010E-03  0.2918E+00
    -10.034  0.1840E-01  0.2938E+00
     -9.924  0.4941E-01  0.2992E+00
     -9.814  0.7541E-01  0.3075E+00
     -9.704  0.8487E-01  0.3168E+00
     -9.595  0.8635E-01  0.3263E+00
     -9.485  0.1047E+00  0.3378E+00
     -9.375  0.1311E+00  0.3522E+00
     -9.265  0.1183E+00  0.3652E+00
     -9.155  0.5986E-01  0.3718E+00
     -9.045  0.9233E-02  0.3728E+00
     -8.935 -0.4652E-02  0.3723E+00
     -8.825 -0.2327E-02  0.3720E+00
     -8.715 -0.4051E-03  0.3720E+00
     -8.606 -0.3378E-04  0.3720E+00
     -8.496 -0.1449E-05  0.3720E+00
     -8.386 -0.3288E-07  0.3720E+00
     -8.276 -0.3993E-09  0.3720E+00
     -8.166 -0.2613E-11  0.3720E+00
     -8.056 -0.9263E-14  0.3720E+00
     -7.946 -0.1617E-16  0.3720E+00
     -7.836  0.0000E+00  0.3720E+00
     -7.726  0.0000E+00  0.3720E+00
     -7.617  0.0000E+00  0.3720E+00
     -7.507  0.0000E+00  0.3720E+00
     -7.397  0.0000E+00  0.3720E+00
     -7.287  0.0000E+00  0.3720E+00
     -7.177  0.0000E+00  0.3720E+00
     -7.067  0.0000E+00  0.3720E+00
     -6.957  0.0000E+00  0.3720E+00
     -6.847  0.0000E+00  0.3720E+00
     -6.737  0.0000E+00  0.3720E+00
     -6.628  0.0000E+00  0.3720E+00
     -6.518  0.0000E+00  0.3720E+00
     -6.408  0.0000E+00  0.3720E+00
     -6.298  0.0000E+00  0.3720E+00
     -6.188  0.0000E+00  0.3720E+00
     -6.078  0.0000E+00  0.3720E+00
     -5.968  0.0000E+00  0.3720E+00
     -5.858  0.0000E+00  0.3720E+00
     -5.748  0.0000E+00  0.3720E+00
     -5.639  0.0000E+00  0.3720E+00
     -5.529  0.0000E+00  0.3720E+00
     -5.419  0.0000E+00  0.3720E+00
     -5.309  0.0000E+00  0.3720E+00
     -5.199  0.0000E+00  0.3720E+00
     -5.089  0.0000E+00  0.3720E+00
     -4.979  0.0000E+00  0.3720E+00
     -4.869 -0.1059E-31  0.3720E+00
     -4.759 -0.7996E-28  0.3720E+00
     -4.650 -0.3220E-24  0.3720E+00
     -4.540 -0.7066E-21  0.3720E+00
     -4.430 -0.8443E-18  0.3720E+00
     -4.320 -0.5310E-15  0.3720E+00
     -4.210 -0.1871E-12  0.3720E+00
     -4.100 -0.3563E-10  0.3720E+00
     -3.990 -0.3664E-08  0.3720E+00
     -3.880 -0.2024E-06  0.3720E+00
     -3.770 -0.5948E-05  0.3720E+00
     -3.661 -0.9110E-04  0.3720E+00
     -3.551 -0.6942E-03  0.3719E+00
     -3.441 -0.2257E-02  0.3717E+00
     -3.331 -0.2269E-03  0.3716E+00
     -3.221  0.1767E-01  0.3736E+00
     -3.111  0.5325E-01  0.3794E+00
     -3.001  0.8597E-01  0.3889E+00
     -2.891  0.8578E-01  0.3983E+00
     -2.782  0.4728E-01  0.4035E+00
     -2.672  0.9501E-02  0.4045E+00
     -2.562 -0.2706E-02  0.4042E+00
     -2.452 -0.1829E-02  0.4040E+00
     -2.342 -0.4095E-03  0.4040E+00
     -2.232 -0.3034E-03  0.4040E+00
     -2.122 -0.1330E-02  0.4038E+00
     -2.012 -0.2124E-02  0.4036E+00
     -1.902  0.6347E-02  0.4043E+00
     -1.793  0.3277E-01  0.4079E+00
     -1.683  0.6065E-01  0.4146E+00
     -1.573  0.6906E-01  0.4221E+00
     -1.463  0.6962E-01  0.4298E+00
     -1.353  0.7169E-01  0.4377E+00
     -1.243  0.6227E-01  0.4445E+00
     -1.133  0.4476E-01  0.4494E+00
     -1.023  0.4059E-01  0.4539E+00
     -0.913  0.5177E-01  0.4596E+00
     -0.804  0.5601E-01  0.4657E+00
     -0.694  0.4243E-01  0.4704E+00
     -0.584  0.3929E-01  0.4747E+00
     -0.474  0.7459E-01  0.4829E+00
     -0.364  0.1237E+00  0.4965E+00
     -0.254  0.1375E+00  0.5116E+00
     -0.144  0.1087E+00  0.5236E+00
     -0.034  0.7484E-01  0.5318E+00
      0.076  0.6916E-01  0.5394E+00
      0.185  0.8533E-01  0.5488E+00
      0.295  0.8583E-01  0.5582E+00
      0.405  0.6854E-01  0.5657E+00
      0.515  0.7174E-01  0.5736E+00
      0.625  0.1089E+00  0.5856E+00
      0.735  0.1463E+00  0.6016E+00
      0.845  0.1498E+00  0.6181E+00
      0.955  0.1268E+00  0.6320E+00
      1.065  0.9707E-01  0.6427E+00
      1.174  0.7733E-01  0.6512E+00
      1.284  0.5874E-01  0.6577E+00
      1.394  0.2463E-01  0.6604E+00
      1.504  0.5599E-03  0.6604E+00
      1.614 -0.2869E-02  0.6601E+00
      1.724 -0.8806E-03  0.6600E+00
      1.834 -0.1112E-03  0.6600E+00
      1.944 -0.6936E-05  0.6600E+00
      2.054 -0.2256E-06  0.6600E+00
      2.163 -0.3912E-08  0.6600E+00
      2.273 -0.3656E-10  0.6600E+00
      2.383 -0.1850E-12  0.6600E+00
      2.493 -0.5092E-15  0.6600E+00
      2.603 -0.1712E-29  0.6600E+00
      2.713 -0.8925E-26  0.6600E+00
      2.823 -0.2531E-22  0.6600E+00
      2.933 -0.3899E-19  0.6600E+00
      3.043 -0.3260E-16  0.6600E+00
      3.152 -0.1427E-13  0.6600E+00
      3.262 -0.3465E-11  0.6600E+00
      3.372 -0.4519E-09  0.6600E+00
      3.482 -0.3141E-07  0.6600E+00
      3.592 -0.1149E-05  0.6600E+00
      3.702 -0.2160E-04  0.6600E+00
      3.812 -0.1972E-03  0.6600E+00
      3.922 -0.7301E-03  0.6599E+00
      4.032  0.9540E-04  0.6599E+00
      4.141  0.6949E-02  0.6607E+00
      4.251  0.1559E-01  0.6624E+00
      4.361  0.1276E-01  0.6638E+00
      4.471  0.3238E-02  0.6641E+00
      4.581 -0.7104E-03  0.6641E+00
      4.691 -0.4865E-03  0.6640E+00
      4.801 -0.1033E-03  0.6640E+00
      4.911 -0.2072E-03  0.6640E+00
      5.021 -0.1130E-02  0.6639E+00
      5.130 -0.2134E-02  0.6636E+00
      5.240  0.4852E-02  0.6642E+00
      5.350  0.2889E-01  0.6673E+00
      5.460  0.5522E-01  0.6734E+00
      5.570  0.5738E-01  0.6797E+00
      5.680  0.4287E-01  0.6844E+00
      5.790  0.4303E-01  0.6891E+00
      5.900  0.4897E-01  0.6945E+00
      6.010  0.4261E-01  0.6992E+00
      6.119  0.4845E-01  0.7045E+00
      6.229  0.6769E-01  0.7120E+00
      6.339  0.6860E-01  0.7195E+00
      6.449  0.5682E-01  0.7257E+00
      6.559  0.5848E-01  0.7322E+00
      6.669  0.6898E-01  0.7398E+00
      6.779  0.6868E-01  0.7473E+00
      6.889  0.7034E-01  0.7550E+00
      6.998  0.9309E-01  0.7653E+00
      7.108  0.1065E+00  0.7770E+00
      7.218  0.8122E-01  0.7859E+00
      7.328  0.4276E-01  0.7906E+00
      7.438  0.1476E-01  0.7922E+00
      7.548  0.6880E-03  0.7923E+00
      7.658 -0.1817E-02  0.7921E+00
      7.768 -0.6870E-03  0.7920E+00
      7.878 -0.1053E-03  0.7920E+00
      7.987 -0.7897E-05  0.7920E+00
      8.097 -0.3060E-06  0.7920E+00
      8.207 -0.6268E-08  0.7920E+00
      8.317 -0.6863E-10  0.7920E+00
      8.427 -0.4041E-12  0.7920E+00
      8.537 -0.1293E-14  0.7920E+00
      8.647  0.0000E+00  0.7920E+00
      8.757  0.0000E+00  0.7920E+00
      8.867  0.0000E+00  0.7920E+00
      8.976  0.0000E+00  0.7920E+00
      9.086  0.0000E+00  0.7920E+00
      9.196  0.0000E+00  0.7920E+00
      9.306  0.0000E+00  0.7920E+00
