  10  10   0   0
  0.2132948E+02  0.5909977E-09  0.6437355E-09  0.7108024E-09  0.1500000E-16
   1.0000000000000000E-004
  CAR 
 unknown system                          
     10.33978101    -23.12212563  301      1.43054837      1.00000000
    -23.122  0.0000E+00  0.0000E+00
    -23.011  0.0000E+00  0.0000E+00
    -22.899  0.0000E+00  0.0000E+00
    -22.788  0.0000E+00  0.0000E+00
    -22.676  0.0000E+00  0.0000E+00
    -22.564  0.0000E+00  0.0000E+00
    -22.453  0.0000E+00  0.0000E+00
    -22.341  0.0000E+00  0.0000E+00
    -22.230  0.0000E+00  0.0000E+00
    -22.118  0.0000E+00  0.0000E+00
    -22.007  0.0000E+00  0.0000E+00
    -21.895  0.4755E-17  0.5304E-18
    -21.784  0.1850E-07  0.2063E-08
    -21.672  0.6544E-02  0.7299E-03
    -21.561  0.7435E+00  0.8366E-01
    -21.449  0.6155E+00  0.1523E+00
    -21.337  0.4932E-02  0.1529E+00
    -21.226  0.2039E-07  0.1529E+00
    -21.114  0.0000E+00  0.1529E+00
    -21.003  0.0000E+00  0.1529E+00
    -20.891  0.0000E+00  0.1529E+00
    -20.780  0.0000E+00  0.1529E+00
    -20.668  0.0000E+00  0.1529E+00
    -20.557  0.0000E+00  0.1529E+00
    -20.445  0.0000E+00  0.1529E+00
    -20.334  0.0000E+00  0.1529E+00
    -20.222  0.0000E+00  0.1529E+00
    -20.111  0.0000E+00  0.1529E+00
    -19.999  0.0000E+00  0.1529E+00
    -19.887  0.0000E+00  0.1529E+00
    -19.776  0.0000E+00  0.1529E+00
    -19.664  0.0000E+00  0.1529E+00
    -19.553  0.0000E+00  0.1529E+00
    -19.441  0.0000E+00  0.1529E+00
    -19.330  0.0000E+00  0.1529E+00
    -19.218  0.0000E+00  0.1529E+00
    -19.107  0.0000E+00  0.1529E+00
    -18.995  0.0000E+00  0.1529E+00
    -18.884  0.0000E+00  0.1529E+00
    -18.772  0.0000E+00  0.1529E+00
    -18.661  0.0000E+00  0.1529E+00
    -18.549  0.0000E+00  0.1529E+00
    -18.437  0.0000E+00  0.1529E+00
    -18.326  0.0000E+00  0.1529E+00
    -18.214  0.0000E+00  0.1529E+00
    -18.103  0.0000E+00  0.1529E+00
    -17.991  0.0000E+00  0.1529E+00
    -17.880  0.0000E+00  0.1529E+00
    -17.768  0.0000E+00  0.1529E+00
    -17.657  0.0000E+00  0.1529E+00
    -17.545  0.0000E+00  0.1529E+00
    -17.434  0.0000E+00  0.1529E+00
    -17.322  0.0000E+00  0.1529E+00
    -17.211  0.0000E+00  0.1529E+00
    -17.099  0.0000E+00  0.1529E+00
    -16.987  0.0000E+00  0.1529E+00
    -16.876  0.0000E+00  0.1529E+00
    -16.764  0.0000E+00  0.1529E+00
    -16.653  0.0000E+00  0.1529E+00
    -16.541  0.0000E+00  0.1529E+00
    -16.430  0.0000E+00  0.1529E+00
    -16.318  0.0000E+00  0.1529E+00
    -16.207  0.0000E+00  0.1529E+00
    -16.095  0.0000E+00  0.1529E+00
    -15.984  0.0000E+00  0.1529E+00
    -15.872  0.0000E+00  0.1529E+00
    -15.761  0.0000E+00  0.1529E+00
    -15.649  0.0000E+00  0.1529E+00
    -15.537  0.0000E+00  0.1529E+00
    -15.426  0.0000E+00  0.1529E+00
    -15.314  0.0000E+00  0.1529E+00
    -15.203  0.0000E+00  0.1529E+00
    -15.091  0.0000E+00  0.1529E+00
    -14.980  0.0000E+00  0.1529E+00
    -14.868  0.0000E+00  0.1529E+00
    -14.757  0.0000E+00  0.1529E+00
    -14.645  0.0000E+00  0.1529E+00
    -14.534  0.0000E+00  0.1529E+00
    -14.422  0.0000E+00  0.1529E+00
    -14.310  0.0000E+00  0.1529E+00
    -14.199  0.0000E+00  0.1529E+00
    -14.087  0.0000E+00  0.1529E+00
    -13.976  0.0000E+00  0.1529E+00
    -13.864  0.0000E+00  0.1529E+00
    -13.753  0.0000E+00  0.1529E+00
    -13.641  0.0000E+00  0.1529E+00
    -13.530  0.0000E+00  0.1529E+00
    -13.418  0.0000E+00  0.1529E+00
    -13.307  0.0000E+00  0.1529E+00
    -13.195  0.0000E+00  0.1529E+00
    -13.084  0.0000E+00  0.1529E+00
    -12.972  0.0000E+00  0.1529E+00
    -12.860  0.0000E+00  0.1529E+00
    -12.749  0.0000E+00  0.1529E+00
    -12.637  0.0000E+00  0.1529E+00
    -12.526  0.0000E+00  0.1529E+00
    -12.414  0.0000E+00  0.1529E+00
    -12.303  0.0000E+00  0.1529E+00
    -12.191  0.0000E+00  0.1529E+00
    -12.080  0.0000E+00  0.1529E+00
    -11.968  0.0000E+00  0.1529E+00
    -11.857  0.0000E+00  0.1529E+00
    -11.745  0.0000E+00  0.1529E+00
    -11.634  0.0000E+00  0.1529E+00
    -11.522  0.0000E+00  0.1529E+00
    -11.410  0.0000E+00  0.1529E+00
    -11.299  0.0000E+00  0.1529E+00
    -11.187  0.0000E+00  0.1529E+00
    -11.076  0.0000E+00  0.1529E+00
    -10.964  0.0000E+00  0.1529E+00
    -10.853  0.2295E-10  0.1529E+00
    -10.741  0.1899E-04  0.1529E+00
    -10.630  0.2526E-02  0.1532E+00
    -10.518  0.2244E-01  0.1557E+00
    -10.407  0.4398E-01  0.1606E+00
    -10.295  0.1728E-01  0.1625E+00
    -10.184  0.2605E-01  0.1654E+00
    -10.072  0.2999E-01  0.1687E+00
     -9.960  0.6860E-02  0.1695E+00
     -9.849  0.1061E+00  0.1813E+00
     -9.737  0.1726E+00  0.2006E+00
     -9.626  0.2888E-01  0.2038E+00
     -9.514  0.5805E-04  0.2038E+00
     -9.403  0.8535E-10  0.2038E+00
     -9.291  0.0000E+00  0.2038E+00
     -9.180  0.0000E+00  0.2038E+00
     -9.068  0.0000E+00  0.2038E+00
     -8.957  0.0000E+00  0.2038E+00
     -8.845  0.0000E+00  0.2038E+00
     -8.734  0.0000E+00  0.2038E+00
     -8.622  0.0000E+00  0.2038E+00
     -8.510  0.0000E+00  0.2038E+00
     -8.399  0.0000E+00  0.2038E+00
     -8.287  0.0000E+00  0.2038E+00
     -8.176  0.0000E+00  0.2038E+00
     -8.064  0.0000E+00  0.2038E+00
     -7.953  0.0000E+00  0.2038E+00
     -7.841  0.0000E+00  0.2038E+00
     -7.730  0.0000E+00  0.2038E+00
     -7.618  0.0000E+00  0.2038E+00
     -7.507  0.0000E+00  0.2038E+00
     -7.395  0.0000E+00  0.2038E+00
     -7.283  0.0000E+00  0.2038E+00
     -7.172  0.0000E+00  0.2038E+00
     -7.060  0.0000E+00  0.2038E+00
     -6.949  0.0000E+00  0.2038E+00
     -6.837  0.0000E+00  0.2038E+00
     -6.726  0.0000E+00  0.2038E+00
     -6.614  0.0000E+00  0.2038E+00
     -6.503  0.0000E+00  0.2038E+00
     -6.391  0.0000E+00  0.2038E+00
     -6.280  0.0000E+00  0.2038E+00
     -6.168  0.0000E+00  0.2038E+00
     -6.057  0.0000E+00  0.2038E+00
     -5.945  0.0000E+00  0.2038E+00
     -5.833  0.0000E+00  0.2038E+00
     -5.722  0.0000E+00  0.2038E+00
     -5.610  0.0000E+00  0.2038E+00
     -5.499  0.0000E+00  0.2038E+00
     -5.387  0.0000E+00  0.2038E+00
     -5.276  0.5283E-18  0.2038E+00
     -5.164  0.1147E-08  0.2038E+00
     -5.053  0.2459E-03  0.2038E+00
     -4.941  0.2167E-01  0.2063E+00
     -4.830  0.5355E-01  0.2122E+00
     -4.718  0.5499E-01  0.2184E+00
     -4.607  0.3348E+00  0.2557E+00
     -4.495  0.3484E+00  0.2946E+00
     -4.383  0.2637E+00  0.3240E+00
     -4.272  0.6452E-01  0.3312E+00
     -4.160  0.1837E-03  0.3312E+00
     -4.049  0.8667E-10  0.3312E+00
     -3.937  0.0000E+00  0.3312E+00
     -3.826  0.0000E+00  0.3312E+00
     -3.714  0.0000E+00  0.3312E+00
     -3.603  0.0000E+00  0.3312E+00
     -3.491  0.0000E+00  0.3312E+00
     -3.380  0.0000E+00  0.3312E+00
     -3.268  0.0000E+00  0.3312E+00
     -3.157  0.0000E+00  0.3312E+00
     -3.045  0.2720E-12  0.3312E+00
     -2.933  0.3732E-05  0.3312E+00
     -2.822  0.6187E-02  0.3319E+00
     -2.710  0.5477E-01  0.3380E+00
     -2.599  0.6432E-01  0.3452E+00
     -2.487  0.6566E-01  0.3525E+00
     -2.376  0.1110E-01  0.3537E+00
     -2.264  0.1132E-01  0.3550E+00
     -2.153  0.1462E-01  0.3566E+00
     -2.041  0.4249E-03  0.3567E+00
     -1.930  0.3179E-08  0.3567E+00
     -1.818  0.3136E-06  0.3567E+00
     -1.707  0.2324E-02  0.3569E+00
     -1.595  0.1373E-01  0.3585E+00
     -1.483  0.3697E-01  0.3626E+00
     -1.372  0.3750E-01  0.3668E+00
     -1.260  0.3237E-01  0.3704E+00
     -1.149  0.2140E-01  0.3728E+00
     -1.037  0.3297E-01  0.3765E+00
     -0.926  0.1997E-01  0.3787E+00
     -0.814  0.1086E-01  0.3799E+00
     -0.703  0.6208E-01  0.3868E+00
     -0.591  0.2686E-01  0.3898E+00
     -0.480  0.2409E-01  0.3925E+00
     -0.368  0.4612E-01  0.3977E+00
     -0.256  0.3407E-01  0.4015E+00
     -0.145  0.4525E-01  0.4065E+00
     -0.033  0.3384E-01  0.4103E+00
      0.078  0.5052E-01  0.4159E+00
      0.190  0.7575E-01  0.4244E+00
      0.301  0.7517E-01  0.4327E+00
      0.413  0.5382E-01  0.4387E+00
      0.524  0.6867E-01  0.4464E+00
      0.636  0.5861E-01  0.4529E+00
      0.747  0.5974E-01  0.4596E+00
      0.859  0.8349E-01  0.4689E+00
      0.970  0.9098E-01  0.4791E+00
      1.082  0.3324E-01  0.4828E+00
      1.194  0.1065E-01  0.4840E+00
      1.305  0.1046E-02  0.4841E+00
      1.417  0.2252E-06  0.4841E+00
      1.528  0.5159E-14  0.4841E+00
      1.640  0.0000E+00  0.4841E+00
      1.751  0.0000E+00  0.4841E+00
      1.863  0.0000E+00  0.4841E+00
      1.974  0.0000E+00  0.4841E+00
      2.086  0.0000E+00  0.4841E+00
      2.197  0.0000E+00  0.4841E+00
      2.309  0.0000E+00  0.4841E+00
      2.420  0.0000E+00  0.4841E+00
      2.532  0.0000E+00  0.4841E+00
      2.644  0.0000E+00  0.4841E+00
      2.755  0.0000E+00  0.4841E+00
      2.867  0.0000E+00  0.4841E+00
      2.978  0.0000E+00  0.4841E+00
      3.090  0.0000E+00  0.4841E+00
      3.201  0.0000E+00  0.4841E+00
      3.313  0.6379E-15  0.4841E+00
      3.424  0.6553E-07  0.4841E+00
      3.536  0.5465E-03  0.4841E+00
      3.647  0.2583E-02  0.4844E+00
      3.759  0.4304E-04  0.4844E+00
      3.870  0.1288E-09  0.4844E+00
      3.982  0.0000E+00  0.4844E+00
      4.094  0.0000E+00  0.4844E+00
      4.205  0.0000E+00  0.4844E+00
      4.317  0.4862E-12  0.4844E+00
      4.428  0.3696E-05  0.4844E+00
      4.540  0.2935E-02  0.4848E+00
      4.651  0.3429E-02  0.4851E+00
      4.763  0.5457E-02  0.4857E+00
      4.874  0.3777E-01  0.4900E+00
      4.986  0.2108E-01  0.4923E+00
      5.097  0.3211E-01  0.4959E+00
      5.209  0.3461E-01  0.4998E+00
      5.320  0.2433E-01  0.5025E+00
      5.432  0.3266E-02  0.5028E+00
      5.544  0.1841E-01  0.5049E+00
      5.655  0.3927E-01  0.5093E+00
      5.767  0.2289E-01  0.5118E+00
      5.878  0.3726E-01  0.5160E+00
      5.990  0.5402E-01  0.5220E+00
      6.101  0.6045E-01  0.5287E+00
      6.213  0.4288E-01  0.5335E+00
      6.324  0.1022E-01  0.5347E+00
      6.436  0.6448E-02  0.5354E+00
      6.547  0.2416E-01  0.5381E+00
      6.659  0.4201E-01  0.5428E+00
      6.771  0.1733E-01  0.5447E+00
      6.882  0.3776E-01  0.5489E+00
      6.994  0.4057E-01  0.5534E+00
      7.105  0.2160E-01  0.5558E+00
      7.217  0.3938E-01  0.5602E+00
      7.328  0.3628E-01  0.5643E+00
      7.440  0.3489E-01  0.5682E+00
      7.551  0.5371E-01  0.5742E+00
      7.663  0.5054E-01  0.5798E+00
      7.774  0.4102E-01  0.5844E+00
      7.886  0.3863E-01  0.5887E+00
      7.997  0.5492E-01  0.5948E+00
      8.109  0.3943E-01  0.5992E+00
      8.221  0.1225E-01  0.6006E+00
      8.332  0.2978E-01  0.6039E+00
      8.444  0.3585E-01  0.6079E+00
      8.555  0.8532E-02  0.6088E+00
      8.667  0.1087E-01  0.6101E+00
      8.778  0.6620E-02  0.6108E+00
      8.890  0.5831E-02  0.6114E+00
      9.001  0.1418E-03  0.6115E+00
      9.113  0.7733E-09  0.6115E+00
      9.224  0.0000E+00  0.6115E+00
      9.336  0.0000E+00  0.6115E+00
      9.447  0.0000E+00  0.6115E+00
      9.559  0.0000E+00  0.6115E+00
      9.671  0.0000E+00  0.6115E+00
      9.782  0.0000E+00  0.6115E+00
      9.894  0.0000E+00  0.6115E+00
     10.005  0.0000E+00  0.6115E+00
     10.117  0.0000E+00  0.6115E+00
     10.228  0.0000E+00  0.6115E+00
     10.340  0.0000E+00  0.6115E+00
