       N       E                     dE             d eps       ncg     rms          rms(c)
DAV:   1     0.674538409678E+03    0.67454E+03   -0.31628E+04  1344   0.151E+03
DAV:   2     0.525240194790E+02   -0.62201E+03   -0.60000E+03  1384   0.424E+02
DAV:   3    -0.319217827647E+02   -0.84446E+02   -0.83308E+02  1624   0.158E+02
DAV:   4    -0.359710558030E+02   -0.40493E+01   -0.40337E+01  1632   0.340E+01
DAV:   5    -0.360725035207E+02   -0.10145E+00   -0.10141E+00  1640   0.573E+00    0.109E+01
DAV:   6    -0.337951450040E+02    0.22774E+01   -0.47851E+00  1992   0.391E+01    0.916E+00
DAV:   7    -0.337958901362E+02   -0.74513E-03   -0.36134E+00  1536   0.746E+00    0.496E+00
DAV:   8    -0.337963230718E+02   -0.43294E-03   -0.11076E-01  1672   0.196E+00    0.201E+00
DAV:   9    -0.338025040927E+02   -0.61810E-02   -0.27875E-02  1560   0.129E+00    0.505E-01
DAV:  10    -0.338027968802E+02   -0.29279E-03   -0.26263E-03  1696   0.368E-01    0.294E-01
DAV:  11    -0.338039337061E+02   -0.11368E-02   -0.27272E-03  1544   0.242E-01    0.265E-01
DAV:  12    -0.338038710141E+02    0.62692E-04   -0.32901E-04  1832   0.164E-01    0.229E-02
DAV:  13    -0.338038746839E+02   -0.36698E-05   -0.36784E-05  1520   0.245E-02    0.233E-02
DAV:  14    -0.338038804374E+02   -0.57535E-05   -0.11330E-05  1440   0.186E-02    0.123E-02
DAV:  15    -0.338038801076E+02    0.32977E-06   -0.12232E-06  1208   0.800E-03
   1 F= -.33803880E+02 E0= -.33803880E+02  d E =-.136751E-17
 Found     5 degrees of freedom:
 Adding 6 more for cell shape distortion
       N       E                     dE             d eps       ncg     rms          rms(c)
DAV:   1    -0.344105735076E+02   -0.60669E+00   -0.17804E+01  2200   0.385E+01    0.604E+00
DAV:   2    -0.339165952042E+02    0.49398E+00   -0.20816E+00  2216   0.164E+01    0.295E+00
DAV:   3    -0.337949575212E+02    0.12164E+00   -0.19686E-01  2200   0.296E+00    0.129E+00
DAV:   4    -0.337690849560E+02    0.25873E-01   -0.28089E-02  2144   0.145E+00    0.604E-01
DAV:   5    -0.337661687835E+02    0.29162E-02   -0.10250E-02  2136   0.662E-01    0.167E-01
DAV:   6    -0.337661304594E+02    0.38324E-04   -0.91384E-04  2136   0.275E-01    0.785E-02
DAV:   7    -0.337661398077E+02   -0.93483E-05   -0.21069E-04  2160   0.132E-01    0.372E-02
DAV:   8    -0.337661451226E+02   -0.53149E-05   -0.16129E-05  2080   0.414E-02    0.759E-03
DAV:   9    -0.337661453186E+02   -0.19599E-06   -0.55175E-06  1872   0.281E-02
   2 F= -.33766145E+02 E0= -.33766145E+02  d E =-.678766E-16
       N       E                     dE             d eps       ncg     rms          rms(c)
DAV:   1    -0.339515786132E+02   -0.18543E+00   -0.48286E+00  2216   0.185E+01    0.306E+00
DAV:   2    -0.338305666499E+02    0.12101E+00   -0.54963E-01  2184   0.928E+00    0.147E+00
DAV:   3    -0.338016558490E+02    0.28911E-01   -0.52691E-02  2264   0.188E+00    0.642E-01
DAV:   4    -0.337958227178E+02    0.58331E-02   -0.90683E-03  2136   0.737E-01    0.359E-01
DAV:   5    -0.337950462135E+02    0.77650E-03   -0.21858E-03  2240   0.303E-01    0.998E-02
DAV:   6    -0.337950331101E+02    0.13103E-04   -0.34433E-04  2104   0.123E-01    0.452E-02
DAV:   7    -0.337950342536E+02   -0.11435E-05   -0.23903E-05  2120   0.526E-02    0.131E-02
DAV:   8    -0.337950347127E+02   -0.45915E-06   -0.61985E-06  2000   0.220E-02
   3 F= -.33795035E+02 E0= -.33795035E+02  d E =-.700084E-11
       N       E                     dE             d eps       ncg     rms          rms(c)
DAV:   1    -0.344482765426E+02   -0.65324E+00   -0.17163E+01  2216   0.359E+01    0.632E+00
DAV:   2    -0.339387810251E+02    0.50950E+00   -0.22385E+00  2208   0.207E+01    0.304E+00
DAV:   3    -0.338185395276E+02    0.12024E+00   -0.21722E-01  2272   0.417E+00    0.133E+00
DAV:   4    -0.337936479406E+02    0.24892E-01   -0.43527E-02  2128   0.156E+00    0.818E-01
DAV:   5    -0.337903717540E+02    0.32762E-02   -0.83489E-03  2272   0.628E-01    0.264E-01
DAV:   6    -0.337901634902E+02    0.20826E-03   -0.19411E-03  2168   0.346E-01    0.983E-02
DAV:   7    -0.337901608852E+02    0.26050E-05   -0.19470E-04  2184   0.174E-01    0.257E-02
DAV:   8    -0.337901634050E+02   -0.25198E-05   -0.42182E-05  1968   0.611E-02    0.991E-03
DAV:   9    -0.337901631345E+02    0.27043E-06   -0.52944E-06  1928   0.186E-02
   4 F= -.33790163E+02 E0= -.33790163E+02  d E =-.621385E-17
       N       E                     dE             d eps       ncg     rms          rms(c)
DAV:   1    -0.339201796818E+02   -0.13002E+00   -0.53121E+00  2216   0.195E+01    0.322E+00
DAV:   2    -0.337906838845E+02    0.12950E+00   -0.61392E-01  2208   0.102E+01    0.156E+00
DAV:   3    -0.337588487523E+02    0.31835E-01   -0.54718E-02  2272   0.207E+00    0.682E-01
DAV:   4    -0.337520606121E+02    0.67881E-02   -0.11478E-02  2144   0.822E-01    0.392E-01
DAV:   5    -0.337512628884E+02    0.79772E-03   -0.24638E-03  2288   0.330E-01    0.126E-01
DAV:   6    -0.337512212346E+02    0.41654E-04   -0.40001E-04  2152   0.139E-01    0.498E-02
DAV:   7    -0.337512220401E+02   -0.80551E-06   -0.32804E-05  2144   0.653E-02    0.152E-02
DAV:   8    -0.337512223464E+02   -0.30626E-06   -0.83343E-06  2008   0.243E-02
   5 F= -.33751222E+02 E0= -.33751222E+02  d E =-.226294E-17
       N       E                     dE             d eps       ncg     rms          rms(c)
DAV:   1    -0.359022006252E+02   -0.21510E+01   -0.49366E+01  2272   0.770E+01    0.107E+01
DAV:   2    -0.341735993572E+02    0.17286E+01   -0.64909E+00  2176   0.300E+01    0.493E+00
DAV:   3    -0.338479236583E+02    0.32568E+00   -0.70310E-01  2104   0.486E+00    0.220E+00
DAV:   4    -0.337732604464E+02    0.74663E-01   -0.55456E-02  2216   0.162E+00    0.101E+00
DAV:   5    -0.337606103471E+02    0.12650E-01   -0.10458E-02  2544   0.870E-01    0.264E-01
DAV:   6    -0.337608162639E+02   -0.20592E-03   -0.64502E-03  2096   0.594E-01    0.134E-01
DAV:   7    -0.337607815095E+02    0.34754E-04   -0.51830E-04  2312   0.255E-01    0.683E-02
DAV:   8    -0.337607879622E+02   -0.64526E-05   -0.12624E-04  2128   0.965E-02    0.166E-02
DAV:   9    -0.337607879396E+02    0.22535E-07   -0.18620E-05  2192   0.429E-02    0.653E-03
DAV:  10    -0.337607883537E+02   -0.41409E-06   -0.18258E-06  1568   0.128E-02
   6 F= -.33760788E+02 E0= -.33760788E+02  d E =-.178519E-15
       N       E                     dE             d eps       ncg     rms          rms(c)
DAV:   1    -0.339523120159E+02   -0.19152E+00   -0.62649E+00  2152   0.202E+01    0.307E+00
DAV:   2    -0.338283764126E+02    0.12394E+00   -0.62898E-01  2256   0.101E+01    0.146E+00
DAV:   3    -0.338000089075E+02    0.28368E-01   -0.59174E-02  2208   0.189E+00    0.639E-01
DAV:   4    -0.337935125097E+02    0.64964E-02   -0.93661E-03  2216   0.732E-01    0.335E-01
DAV:   5    -0.337928946069E+02    0.61790E-03   -0.22110E-03  2224   0.338E-01    0.104E-01
DAV:   6    -0.337929084480E+02   -0.13841E-04   -0.43218E-04  2152   0.152E-01    0.397E-02
DAV:   7    -0.337929090156E+02   -0.56764E-06   -0.27585E-05  2280   0.617E-02    0.164E-02
DAV:   8    -0.337929102023E+02   -0.11867E-05   -0.84984E-06  1960   0.253E-02    0.502E-03
DAV:   9    -0.337929097288E+02    0.47347E-06   -0.16903E-06  1336   0.107E-02
   7 F= -.33792910E+02 E0= -.33792910E+02  d E =-.513080E-12
       N       E                     dE             d eps       ncg     rms          rms(c)
DAV:   1    -0.344788231680E+02   -0.68591E+00   -0.16543E+01  2168   0.367E+01    0.634E+00
DAV:   2    -0.339407072023E+02    0.53812E+00   -0.23662E+00  2232   0.225E+01    0.299E+00
DAV:   3    -0.338219347460E+02    0.11877E+00   -0.23393E-01  2240   0.403E+00    0.133E+00
DAV:   4    -0.337941605953E+02    0.27774E-01   -0.42918E-02  2168   0.152E+00    0.752E-01
DAV:   5    -0.337914075470E+02    0.27530E-02   -0.90255E-03  2216   0.684E-01    0.213E-01
DAV:   6    -0.337914167138E+02   -0.91668E-05   -0.23049E-03  2152   0.399E-01    0.914E-02
DAV:   7    -0.337914105363E+02    0.61776E-05   -0.16733E-04  2224   0.159E-01    0.442E-02
DAV:   8    -0.337914160351E+02   -0.54988E-05   -0.44386E-05  1992   0.459E-02    0.102E-02
DAV:   9    -0.337914149657E+02    0.10694E-05   -0.52137E-06  2064   0.175E-02    0.620E-03
DAV:  10    -0.337914149274E+02    0.38274E-07   -0.76423E-07  1320   0.779E-03
   8 F= -.33791415E+02 E0= -.33791415E+02  d E =-.150778E-15
       N       E                     dE             d eps       ncg     rms          rms(c)
DAV:   1    -0.339229422461E+02   -0.13153E+00   -0.70481E+00  2144   0.212E+01    0.328E+00
DAV:   2    -0.337921418566E+02    0.13080E+00   -0.72960E-01  2256   0.112E+01    0.154E+00
DAV:   3    -0.337610937503E+02    0.31048E-01   -0.60275E-02  2224   0.206E+00    0.705E-01
DAV:   4    -0.337532005503E+02    0.78932E-02   -0.12196E-02  2264   0.791E-01    0.361E-01
DAV:   5    -0.337525264905E+02    0.67406E-03   -0.23846E-03  2240   0.343E-01    0.120E-01
DAV:   6    -0.337525174749E+02    0.90156E-05   -0.51341E-04  2208   0.167E-01    0.448E-02
DAV:   7    -0.337525173749E+02    0.99983E-07   -0.33457E-05  2240   0.731E-02    0.190E-02
DAV:   8    -0.337525180136E+02   -0.63870E-06   -0.11403E-05  2064   0.230E-02    0.438E-03
DAV:   9    -0.337525175740E+02    0.43964E-06   -0.15131E-06  1328   0.101E-02
   9 F= -.33752518E+02 E0= -.33752518E+02  d E =-.134590E-15
       N       E                     dE             d eps       ncg     rms          rms(c)
DAV:   1    -0.359037719490E+02   -0.21513E+01   -0.52660E+01  2248   0.789E+01    0.108E+01
DAV:   2    -0.341576760671E+02    0.17461E+01   -0.69623E+00  2176   0.314E+01    0.493E+00
DAV:   3    -0.338429983848E+02    0.31468E+00   -0.74294E-01  2152   0.491E+00    0.224E+00
DAV:   4    -0.337662469280E+02    0.76751E-01   -0.54673E-02  2192   0.161E+00    0.952E-01
DAV:   5    -0.337548830555E+02    0.11364E-01   -0.71085E-03  2712   0.117E+00    0.250E-01
DAV:   6    -0.337551746222E+02   -0.29157E-03   -0.64499E-03  2168   0.646E-01    0.108E-01
DAV:   7    -0.337551664761E+02    0.81460E-05   -0.37683E-04  2200   0.141E-01    0.586E-02
DAV:   8    -0.337551786550E+02   -0.12179E-04   -0.55936E-05  2064   0.546E-02    0.106E-02
DAV:   9    -0.337551787828E+02   -0.12782E-06   -0.13267E-05  2232   0.448E-02    0.569E-03
DAV:  10    -0.337551790462E+02   -0.26345E-06   -0.18603E-06  1496   0.119E-02
  10 F= -.33755179E+02 E0= -.33755179E+02  d E =-.357388E-18
       N       E                     dE             d eps       ncg     rms          rms(c)
DAV:   1    -0.339502058129E+02   -0.19503E+00   -0.61923E+00  2184   0.201E+01    0.307E+00
DAV:   2    -0.338267132050E+02    0.12349E+00   -0.63097E-01  2224   0.101E+01    0.146E+00
DAV:   3    -0.337981450293E+02    0.28568E-01   -0.58229E-02  2240   0.192E+00    0.638E-01
DAV:   4    -0.337917623745E+02    0.63827E-02   -0.10105E-02  2184   0.767E-01    0.331E-01
DAV:   5    -0.337911882129E+02    0.57416E-03   -0.25536E-03  2280   0.373E-01    0.101E-01
DAV:   6    -0.337912102453E+02   -0.22032E-04   -0.51091E-04  2104   0.180E-01    0.421E-02
DAV:   7    -0.337912091864E+02    0.10589E-05   -0.35926E-05  2224   0.763E-02    0.175E-02
DAV:   8    -0.337912107809E+02   -0.15944E-05   -0.10623E-05  1944   0.255E-02    0.523E-03
DAV:   9    -0.337912102555E+02    0.52542E-06   -0.14410E-06  1328   0.101E-02
  11 F= -.33791210E+02 E0= -.33791210E+02  d E =-.215771E-12
       N       E                     dE             d eps       ncg     rms          rms(c)
DAV:   1    -0.344753088716E+02   -0.68410E+00   -0.16676E+01  2216   0.368E+01    0.634E+00
DAV:   2    -0.339408555454E+02    0.53445E+00   -0.23862E+00  2200   0.225E+01    0.299E+00
DAV:   3    -0.338207593322E+02    0.12010E+00   -0.22918E-01  2264   0.409E+00    0.133E+00
DAV:   4    -0.337931004200E+02    0.27659E-01   -0.45336E-02  2168   0.159E+00    0.750E-01
DAV:   5    -0.337904997434E+02    0.26007E-02   -0.10115E-02  2272   0.765E-01    0.225E-01
DAV:   6    -0.337905266166E+02   -0.26873E-04   -0.28012E-03  2224   0.478E-01    0.956E-02
DAV:   7    -0.337905154576E+02    0.11159E-04   -0.23512E-04  2232   0.194E-01    0.433E-02
DAV:   8    -0.337905226691E+02   -0.72115E-05   -0.54235E-05  2064   0.527E-02    0.115E-02
DAV:   9    -0.337905215685E+02    0.11006E-05   -0.48834E-06  2080   0.176E-02    0.494E-03
DAV:  10    -0.337905214308E+02    0.13771E-06   -0.81684E-07  1296   0.869E-03
  12 F= -.33790521E+02 E0= -.33790521E+02  d E =-.192443E-15
       N       E                     dE             d eps       ncg     rms          rms(c)
DAV:   1    -0.339186144367E+02   -0.12809E+00   -0.69452E+00  2184   0.212E+01    0.328E+00
DAV:   2    -0.337883009786E+02    0.13031E+00   -0.72865E-01  2224   0.112E+01    0.154E+00
DAV:   3    -0.337569556339E+02    0.31345E-01   -0.59370E-02  2248   0.210E+00    0.702E-01
DAV:   4    -0.337490910554E+02    0.78646E-02   -0.12565E-02  2176   0.834E-01    0.358E-01
DAV:   5    -0.337484945633E+02    0.59649E-03   -0.28175E-03  2192   0.384E-01    0.124E-01
DAV:   6    -0.337484939635E+02    0.59982E-06   -0.55612E-04  2200   0.185E-01    0.471E-02
DAV:   7    -0.337484931515E+02    0.81200E-06   -0.39704E-05  2272   0.797E-02    0.210E-02
DAV:   8    -0.337484942645E+02   -0.11130E-05   -0.12323E-05  2032   0.236E-02    0.528E-03
DAV:   9    -0.337484938177E+02    0.44678E-06   -0.14707E-06  1328   0.957E-03
  13 F= -.33748494E+02 E0= -.33748494E+02  d E =-.360005E-19
       N       E                     dE             d eps       ncg     rms          rms(c)
DAV:   1    -0.346234032238E+02   -0.87491E+00   -0.25295E+01  2176   0.444E+01    0.691E+00
DAV:   2    -0.340029830282E+02    0.62042E+00   -0.28729E+00  2208   0.195E+01    0.347E+00
DAV:   3    -0.338274553324E+02    0.17553E+00   -0.26248E-01  2144   0.342E+00    0.153E+00
DAV:   4    -0.337866084198E+02    0.40847E-01   -0.48921E-02  2184   0.165E+00    0.609E-01
DAV:   5    -0.337847582460E+02    0.18502E-02   -0.15319E-02  2184   0.766E-01    0.210E-01
DAV:   6    -0.337847824951E+02   -0.24249E-04   -0.11801E-03  2160   0.211E-01    0.816E-02
DAV:   7    -0.337847862287E+02   -0.37336E-05   -0.93419E-05  2280   0.759E-02    0.339E-02
DAV:   8    -0.337847930022E+02   -0.67735E-05   -0.28139E-05  1984   0.444E-02    0.124E-02
DAV:   9    -0.337847940273E+02   -0.10251E-05   -0.52624E-06  2008   0.257E-02    0.378E-03
DAV:  10    -0.337847944611E+02   -0.43376E-06   -0.96470E-07  1384   0.117E-02
  14 F= -.33784794E+02 E0= -.33784794E+02  d E =-.967760E-12
       N       E                     dE             d eps       ncg     rms          rms(c)
DAV:   1    -0.338303542089E+02   -0.45560E-01   -0.32064E+00  1960   0.972E+00    0.138E+00
DAV:   2    -0.338122037957E+02    0.18150E-01   -0.89501E-02  2272   0.226E+00    0.822E-01
DAV:   3    -0.337985290559E+02    0.13675E-01   -0.15578E-02  2344   0.101E+00    0.137E-01
DAV:   4    -0.337988981770E+02   -0.36912E-03   -0.55099E-03  2096   0.478E-01    0.929E-02
DAV:   5    -0.337988842907E+02    0.13886E-04   -0.20339E-04  2336   0.902E-02    0.471E-02
DAV:   6    -0.337988828575E+02    0.14332E-05   -0.46294E-05  2368   0.481E-02    0.188E-02
DAV:   7    -0.337988836474E+02   -0.78989E-06   -0.72179E-06  1952   0.192E-02
  15 F= -.33798884E+02 E0= -.33798884E+02  d E =-.601715E-14
       N       E                     dE             d eps       ncg     rms          rms(c)
DAV:   1    -0.339414697970E+02   -0.14259E+00   -0.54796E+00  1944   0.129E+01    0.280E+00
DAV:   2    -0.338550296672E+02    0.86440E-01   -0.20464E-01  2296   0.368E+00    0.165E+00
DAV:   3    -0.337992899199E+02    0.55740E-01   -0.53359E-02  2232   0.174E+00    0.339E-01
DAV:   4    -0.337998752687E+02   -0.58535E-03   -0.18084E-02  2112   0.811E-01    0.169E-01
DAV:   5    -0.337998339711E+02    0.41298E-04   -0.11231E-03  2264   0.213E-01    0.896E-02
DAV:   6    -0.337998310684E+02    0.29027E-05   -0.19051E-04  2536   0.100E-01    0.441E-02
DAV:   7    -0.337998333877E+02   -0.23194E-05   -0.28121E-05  2184   0.371E-02    0.300E-02
DAV:   8    -0.337998351627E+02   -0.17749E-05   -0.76315E-06  1872   0.173E-02    0.463E-03
DAV:   9    -0.337998353898E+02   -0.22712E-06   -0.16906E-06  1448   0.815E-03
  16 F= -.33799835E+02 E0= -.33799835E+02  d E =-.362533E-14
       N       E                     dE             d eps       ncg     rms          rms(c)
DAV:   1    -0.338174183066E+02   -0.17583E-01   -0.34983E+00  1976   0.960E+00    0.142E+00
DAV:   2    -0.338005671108E+02    0.16851E-01   -0.95872E-02  2272   0.231E+00    0.830E-01
DAV:   3    -0.337868842779E+02    0.13683E-01   -0.11746E-02  2320   0.891E-01    0.219E-01
DAV:   4    -0.337867196766E+02    0.16460E-03   -0.51686E-03  2120   0.421E-01    0.879E-02
DAV:   5    -0.337867188661E+02    0.81055E-06   -0.44247E-04  2208   0.141E-01    0.490E-02
DAV:   6    -0.337867207387E+02   -0.18726E-05   -0.51874E-05  2320   0.522E-02    0.216E-02
DAV:   7    -0.337867212438E+02   -0.50507E-06   -0.69906E-06  1960   0.194E-02
  17 F= -.33786721E+02 E0= -.33786721E+02  d E =-.543297E-12
       N       E                     dE             d eps       ncg     rms          rms(c)
DAV:   1    -0.340640596394E+02   -0.27734E+00   -0.13661E+01  1872   0.210E+01    0.402E+00
DAV:   2    -0.338959268127E+02    0.16813E+00   -0.44987E-01  2272   0.541E+00    0.233E+00
DAV:   3    -0.337903633026E+02    0.10556E+00   -0.97258E-02  2432   0.218E+00    0.683E-01
DAV:   4    -0.337876602809E+02    0.27030E-02   -0.35535E-02  2184   0.103E+00    0.266E-01
DAV:   5    -0.337874550269E+02    0.20525E-03   -0.34093E-03  2248   0.360E-01    0.166E-01
DAV:   6    -0.337874444951E+02    0.10532E-04   -0.71124E-04  2496   0.163E-01    0.803E-02
DAV:   7    -0.337874518259E+02   -0.73308E-05   -0.92883E-05  2408   0.583E-02    0.366E-02
DAV:   8    -0.337874544747E+02   -0.26488E-05   -0.19794E-05  2104   0.259E-02    0.993E-03
DAV:   9    -0.337874554625E+02   -0.98780E-06   -0.38791E-06  1848   0.117E-02
  18 F= -.33787455E+02 E0= -.33787455E+02  d E =-.227178E-13
       N       E                     dE             d eps       ncg     rms          rms(c)
DAV:   1    -0.338322098953E+02   -0.44755E-01   -0.25252E+00  1888   0.890E+00    0.139E+00
DAV:   2    -0.338124907021E+02    0.19719E-01   -0.70033E-02  2280   0.212E+00    0.825E-01
DAV:   3    -0.337991031284E+02    0.13388E-01   -0.14198E-02  2392   0.100E+00    0.193E-01
DAV:   4    -0.337992547587E+02   -0.15163E-03   -0.57306E-03  2096   0.465E-01    0.128E-01
DAV:   5    -0.337992271850E+02    0.27574E-04   -0.35939E-04  2320   0.122E-01    0.653E-02
DAV:   6    -0.337992246575E+02    0.25274E-05   -0.78100E-05  2512   0.625E-02    0.230E-02
DAV:   7    -0.337992250551E+02   -0.39752E-06   -0.12320E-05  2184   0.277E-02    0.154E-02
DAV:   8    -0.337992256408E+02   -0.58577E-06   -0.28443E-06  1768   0.126E-02
  19 F= -.33799226E+02 E0= -.33799226E+02  d E =-.192035E-14
       N       E                     dE             d eps       ncg     rms          rms(c)
DAV:   1    -0.339415930711E+02   -0.14237E+00   -0.59176E+00  1872   0.136E+01    0.282E+00
DAV:   2    -0.338556794342E+02    0.85914E-01   -0.19789E-01  2280   0.365E+00    0.165E+00
DAV:   3    -0.338021296422E+02    0.53550E-01   -0.48775E-02  2408   0.167E+00    0.446E-01
DAV:   4    -0.338016161297E+02    0.51351E-03   -0.18608E-02  2136   0.790E-01    0.197E-01
DAV:   5    -0.338015268949E+02    0.89235E-04   -0.17835E-03  2248   0.271E-01    0.101E-01
DAV:   6    -0.338015352654E+02   -0.83705E-05   -0.29464E-04  2384   0.997E-02    0.619E-02
DAV:   7    -0.338015364508E+02   -0.11854E-05   -0.35510E-05  2432   0.369E-02    0.373E-02
DAV:   8    -0.338015384681E+02   -0.20173E-05   -0.92545E-06  1928   0.247E-02    0.682E-03
DAV:   9    -0.338015392829E+02   -0.81476E-06   -0.37659E-06  1816   0.103E-02
  20 F= -.33801539E+02 E0= -.33801539E+02  d E =-.369524E-15
       N       E                     dE             d eps       ncg     rms          rms(c)
DAV:   1    -0.338246770805E+02   -0.23139E-01   -0.26241E+00  1896   0.873E+00    0.143E+00
DAV:   2    -0.338057213079E+02    0.18956E-01   -0.72724E-02  2288   0.213E+00    0.831E-01
DAV:   3    -0.337926829915E+02    0.13038E-01   -0.10612E-02  2472   0.893E-01    0.268E-01
DAV:   4    -0.337922202182E+02    0.46277E-03   -0.54715E-03  2128   0.439E-01    0.957E-02
DAV:   5    -0.337922052259E+02    0.14992E-04   -0.57738E-04  2224   0.177E-01    0.553E-02
DAV:   6    -0.337922100119E+02   -0.47860E-05   -0.10160E-04  2320   0.651E-02    0.253E-02
DAV:   7    -0.337922102452E+02   -0.23333E-06   -0.94983E-06  2040   0.225E-02
  21 F= -.33792210E+02 E0= -.33792210E+02  d E =-.146144E-14
       N       E                     dE             d eps       ncg     rms          rms(c)
DAV:   1    -0.340697961882E+02   -0.27759E+00   -0.13505E+01  1880   0.209E+01    0.394E+00
DAV:   2    -0.338946186416E+02    0.17518E+00   -0.41892E-01  2264   0.545E+00    0.233E+00
DAV:   3    -0.337873858619E+02    0.10723E+00   -0.10447E-01  2312   0.217E+00    0.571E-01
DAV:   4    -0.337862235822E+02    0.11623E-02   -0.28788E-02  2240   0.936E-01    0.231E-01
DAV:   5    -0.337860903756E+02    0.13321E-03   -0.20281E-03  2232   0.266E-01    0.143E-01
DAV:   6    -0.337860557018E+02    0.34674E-04   -0.36178E-04  2536   0.107E-01    0.329E-02
DAV:   7    -0.337860659357E+02   -0.10234E-04   -0.51927E-05  2096   0.418E-02    0.273E-02
DAV:   8    -0.337860683725E+02   -0.24367E-05   -0.38694E-06  2000   0.147E-02    0.117E-02
DAV:   9    -0.337860685538E+02   -0.18133E-06   -0.21374E-06  1616   0.741E-03
  22 F= -.33786069E+02 E0= -.33786069E+02  d E =-.351442E-14
       N       E                     dE             d eps       ncg     rms          rms(c)
DAV:   1    -0.338318865401E+02   -0.45818E-01   -0.23096E+00  1944   0.857E+00    0.139E+00
DAV:   2    -0.338118597234E+02    0.20027E-01   -0.65574E-02  2288   0.211E+00    0.825E-01
DAV:   3    -0.337985763271E+02    0.13283E-01   -0.12748E-02  2272   0.966E-01    0.183E-01
DAV:   4    -0.337986640866E+02   -0.87759E-04   -0.50950E-03  2112   0.458E-01    0.110E-01
DAV:   5    -0.337986474857E+02    0.16601E-04   -0.34449E-04  2288   0.153E-01    0.565E-02
DAV:   6    -0.337986470584E+02    0.42728E-06   -0.71724E-05  2224   0.797E-02    0.183E-02
DAV:   7    -0.337986478699E+02   -0.81153E-06   -0.16216E-05  2280   0.409E-02    0.136E-02
DAV:   8    -0.337986484893E+02   -0.61938E-06   -0.29741E-06  1904   0.149E-02
  23 F= -.33798648E+02 E0= -.33798648E+02  d E =-.271218E-15
       N       E                     dE             d eps       ncg     rms          rms(c)
DAV:   1    -0.339407134386E+02   -0.14207E+00   -0.60227E+00  1904   0.137E+01    0.280E+00
DAV:   2    -0.338551827041E+02    0.85531E-01   -0.19958E-01  2288   0.366E+00    0.165E+00
DAV:   3    -0.338019884016E+02    0.53194E-01   -0.46044E-02  2312   0.167E+00    0.409E-01
DAV:   4    -0.338015801602E+02    0.40824E-03   -0.17443E-02  2128   0.803E-01    0.187E-01
DAV:   5    -0.338015234939E+02    0.56666E-04   -0.16135E-03  2272   0.319E-01    0.902E-02
DAV:   6    -0.338015333825E+02   -0.98886E-05   -0.29821E-04  2352   0.145E-01    0.471E-02
DAV:   7    -0.338015355670E+02   -0.21845E-05   -0.39773E-05  2176   0.561E-02    0.335E-02
DAV:   8    -0.338015380523E+02   -0.24853E-05   -0.10890E-05  1976   0.236E-02    0.578E-03
DAV:   9    -0.338015385869E+02   -0.53469E-06   -0.38897E-06  1800   0.122E-02
  24 F= -.33801539E+02 E0= -.33801539E+02  d E =-.302130E-13
       N       E                     dE             d eps       ncg     rms          rms(c)
DAV:   1    -0.338241587575E+02   -0.22621E-01   -0.24317E+00  1960   0.846E+00    0.142E+00
DAV:   2    -0.338047846780E+02    0.19374E-01   -0.68638E-02  2280   0.212E+00    0.829E-01
DAV:   3    -0.337917280431E+02    0.13057E-01   -0.10548E-02  2320   0.875E-01    0.242E-01
DAV:   4    -0.337913964179E+02    0.33163E-03   -0.50585E-03  2120   0.436E-01    0.936E-02
DAV:   5    -0.337913887103E+02    0.77076E-05   -0.55469E-04  2256   0.204E-01    0.469E-02
DAV:   6    -0.337913913424E+02   -0.26322E-05   -0.95101E-05  2312   0.823E-02    0.225E-02
DAV:   7    -0.337913920313E+02   -0.68886E-06   -0.91291E-06  1976   0.187E-02
  25 F= -.33791392E+02 E0= -.33791392E+02  d E =-.832176E-13
       N       E                     dE             d eps       ncg     rms          rms(c)
DAV:   1    -0.339333433301E+02   -0.14195E+00   -0.97867E+00  2008   0.163E+01    0.281E+00
DAV:   2    -0.338564242728E+02    0.76919E-01   -0.29515E-01  2280   0.442E+00    0.165E+00
DAV:   3    -0.338042169979E+02    0.52207E-01   -0.51936E-02  2312   0.170E+00    0.424E-01
DAV:   4    -0.338033852291E+02    0.83177E-03   -0.15712E-02  2216   0.804E-01    0.193E-01
DAV:   5    -0.338033596314E+02    0.25598E-04   -0.18129E-03  2264   0.516E-01    0.121E-01
DAV:   6    -0.338033469357E+02    0.12696E-04   -0.44010E-04  2504   0.371E-01    0.434E-02
DAV:   7    -0.338033553796E+02   -0.84439E-05   -0.11811E-04  2432   0.133E-01    0.284E-02
DAV:   8    -0.338033588149E+02   -0.34354E-05   -0.22345E-05  2032   0.422E-02    0.106E-02
DAV:   9    -0.338033600621E+02   -0.12472E-05   -0.12182E-05  1960   0.491E-02    0.586E-03
DAV:  10    -0.338033601157E+02   -0.53617E-07   -0.74694E-07  1304   0.124E-02
  26 F= -.33803360E+02 E0= -.33803360E+02  d E =-.440473E-15
       N       E                     dE             d eps       ncg     rms          rms(c)
DAV:   1    -0.338009380962E+02    0.24220E-02   -0.18371E+00  1984   0.408E+00    0.350E-02
DAV:   2    -0.338036662540E+02   -0.27282E-02   -0.27381E-02  2096   0.658E-01    0.113E-02
DAV:   3    -0.338037432860E+02   -0.77032E-04   -0.80022E-04  2344   0.130E-01    0.726E-03
DAV:   4    -0.338037465481E+02   -0.32621E-05   -0.39493E-05  2016   0.452E-02    0.469E-03
DAV:   5    -0.338037468799E+02   -0.33181E-06   -0.33448E-06  1560   0.242E-02
  27 F= -.33803747E+02 E0= -.33803747E+02  d E =-.423857E-15
       N       E                     dE             d eps       ncg     rms          rms(c)
DAV:   1    -0.337991147312E+02    0.46318E-02   -0.30034E+00  2024   0.566E+00    0.915E-02
DAV:   2    -0.338036839220E+02   -0.45692E-02   -0.46619E-02  2240   0.101E+00    0.325E-02
DAV:   3    -0.338037370182E+02   -0.53096E-04   -0.81118E-04  2400   0.203E-01    0.171E-02
DAV:   4    -0.338037386325E+02   -0.16143E-05   -0.50365E-05  2680   0.680E-02    0.988E-03
DAV:   5    -0.338037394995E+02   -0.86703E-06   -0.70720E-06  2216   0.402E-02
  28 F= -.33803739E+02 E0= -.33803739E+02  d E =-.407153E-15
       N       E                     dE             d eps       ncg     rms          rms(c)
DAV:   1    -0.338005414225E+02    0.31972E-02   -0.18371E+00  1960   0.405E+00    0.568E-02
DAV:   2    -0.338032446133E+02   -0.27032E-02   -0.27343E-02  2096   0.681E-01    0.150E-02
DAV:   3    -0.338033309507E+02   -0.86337E-04   -0.90226E-04  2312   0.146E-01    0.128E-02
DAV:   4    -0.338033347649E+02   -0.38142E-05   -0.51006E-05  2040   0.431E-02    0.952E-03
DAV:   5    -0.338033344079E+02    0.35701E-06   -0.35728E-06  1656   0.383E-02
  29 F= -.33803334E+02 E0= -.33803334E+02  d E =-.403331E-15
       N       E                     dE             d eps       ncg     rms          rms(c)
DAV:   1    -0.337921484314E+02    0.11186E-01   -0.70126E+00  1976   0.882E+00    0.114E-01
DAV:   2    -0.338028618081E+02   -0.10713E-01   -0.10877E-01  2104   0.134E+00    0.410E-02
DAV:   3    -0.338031317463E+02   -0.26994E-03   -0.31712E-03  2368   0.226E-01    0.281E-02
DAV:   4    -0.338031312659E+02    0.48037E-06   -0.17639E-04  2480   0.878E-02    0.149E-02
DAV:   5    -0.338031288479E+02    0.24181E-05   -0.20066E-05  2568   0.456E-02    0.913E-03
DAV:   6    -0.338031280083E+02    0.83961E-06   -0.54291E-06  2336   0.266E-02
  30 F= -.33803128E+02 E0= -.33803128E+02  d E =-.295766E-15
       N       E                     dE             d eps       ncg     rms          rms(c)
DAV:   1    -0.338009470112E+02    0.21818E-02   -0.18359E+00  1976   0.395E+00    0.381E-02
DAV:   2    -0.338036617993E+02   -0.27148E-02   -0.27269E-02  2056   0.612E-01    0.107E-02
DAV:   3    -0.338037450458E+02   -0.83247E-04   -0.85649E-04  2272   0.107E-01    0.811E-03
DAV:   4    -0.338037486581E+02   -0.36123E-05   -0.41179E-05  1896   0.291E-02    0.616E-03
DAV:   5    -0.338037489073E+02   -0.24921E-06   -0.27778E-06  1480   0.145E-02
  31 F= -.33803749E+02 E0= -.33803749E+02  d E =-.351386E-15
       N       E                     dE             d eps       ncg     rms          rms(c)
DAV:   1    -0.337987649291E+02    0.49837E-02   -0.29997E+00  2032   0.561E+00    0.950E-02
DAV:   2    -0.338033969130E+02   -0.46320E-02   -0.47183E-02  2128   0.903E-01    0.266E-02
DAV:   3    -0.338035069184E+02   -0.11001E-03   -0.12688E-03  2296   0.150E-01    0.187E-02
DAV:   4    -0.338035110379E+02   -0.41195E-05   -0.67025E-05  2440   0.487E-02    0.122E-02
DAV:   5    -0.338035117475E+02   -0.70953E-06   -0.61724E-06  1904   0.211E-02
  32 F= -.33803512E+02 E0= -.33803512E+02  d E =-.503141E-15
       N       E                     dE             d eps       ncg     rms          rms(c)
DAV:   1    -0.337998287656E+02    0.36823E-02   -0.18357E+00  1976   0.404E+00    0.598E-02
DAV:   2    -0.338025755420E+02   -0.27468E-02   -0.27815E-02  2080   0.634E-01    0.158E-02
DAV:   3    -0.338026581886E+02   -0.82647E-04   -0.87446E-04  2320   0.109E-01    0.142E-02
DAV:   4    -0.338026613050E+02   -0.31165E-05   -0.45200E-05  2120   0.304E-02    0.962E-03
DAV:   5    -0.338026611410E+02    0.16398E-06   -0.25201E-06  1672   0.178E-02
  33 F= -.33802661E+02 E0= -.33802661E+02  d E =-.608355E-15
       N       E                     dE             d eps       ncg     rms          rms(c)
DAV:   1    -0.337937284041E+02    0.89329E-02   -0.80137E+00  1872   0.124E+01    0.402E-01
DAV:   2    -0.338005341452E+02   -0.68057E-02   -0.70088E-02  2168   0.147E+00    0.115E-01
DAV:   3    -0.338006771358E+02   -0.14299E-03   -0.21182E-03  2320   0.445E-01    0.704E-02
DAV:   4    -0.338006749003E+02    0.22355E-05   -0.22758E-04  2280   0.252E-01    0.435E-02
DAV:   5    -0.338006714492E+02    0.34512E-05   -0.66745E-05  2368   0.110E-01    0.163E-02
DAV:   6    -0.338006721862E+02   -0.73705E-06   -0.20314E-05  2272   0.454E-02    0.151E-02
DAV:   7    -0.338006723668E+02   -0.18061E-06   -0.65315E-06  1888   0.318E-02
  34 F= -.33800672E+02 E0= -.33800672E+02  d E =-.465445E-15
       N       E                     dE             d eps       ncg     rms          rms(c)
DAV:   1    -0.338018483637E+02   -0.11762E-02   -0.28154E+00  1848   0.528E+00    0.102E-01
DAV:   2    -0.338030518820E+02   -0.12035E-02   -0.12294E-02  2112   0.451E-01    0.734E-02
DAV:   3    -0.338030616821E+02   -0.98002E-05   -0.27709E-04  2312   0.947E-02    0.460E-02
DAV:   4    -0.338030604192E+02    0.12629E-05   -0.27155E-05  2208   0.376E-02    0.133E-02
DAV:   5    -0.338030600456E+02    0.37362E-06   -0.55552E-06  1936   0.196E-02
  35 F= -.33803060E+02 E0= -.33803060E+02  d E =-.433022E-15
       N       E                     dE             d eps       ncg     rms          rms(c)
DAV:   1    -0.338018239953E+02    0.12364E-02   -0.36858E+00  1864   0.648E+00    0.308E-01
DAV:   2    -0.338030585569E+02   -0.12346E-02   -0.13681E-02  2144   0.538E-01    0.121E-01
DAV:   3    -0.338030586355E+02   -0.78579E-07   -0.55102E-04  2392   0.200E-01    0.514E-02
DAV:   4    -0.338030527353E+02    0.59002E-05   -0.93869E-05  2304   0.153E-01    0.312E-02
DAV:   5    -0.338030496505E+02    0.30848E-05   -0.27505E-05  2128   0.990E-02    0.114E-02
DAV:   6    -0.338030496913E+02   -0.40830E-07   -0.99056E-06  2248   0.384E-02
  36 F= -.33803050E+02 E0= -.33803050E+02  d E =-.404317E-15
       N       E                     dE             d eps       ncg     rms          rms(c)
DAV:   1    -0.337994425437E+02    0.36071E-02   -0.28122E+00  1832   0.527E+00    0.242E-01
DAV:   2    -0.338005942559E+02   -0.11517E-02   -0.12104E-02  2160   0.455E-01    0.557E-02
DAV:   3    -0.338006085527E+02   -0.14297E-04   -0.30940E-04  2072   0.166E-01    0.438E-02
DAV:   4    -0.338006062114E+02    0.23413E-05   -0.57306E-05  2096   0.130E-01    0.276E-02
DAV:   5    -0.338006045096E+02    0.17018E-05   -0.19932E-05  2216   0.646E-02    0.886E-03
DAV:   6    -0.338006046657E+02   -0.15614E-06   -0.63889E-06  2008   0.206E-02
  37 F= -.33800605E+02 E0= -.33800605E+02  d E =-.459241E-15
       N       E                     dE             d eps       ncg     rms          rms(c)
DAV:   1    -0.337950295698E+02    0.55749E-02   -0.54416E+00  1832   0.842E+00    0.524E-01
DAV:   2    -0.338017138838E+02   -0.66843E-02   -0.73623E-02  2192   0.137E+00    0.203E-01
DAV:   3    -0.338016128547E+02    0.10103E-03   -0.30043E-03  2296   0.524E-01    0.162E-01
DAV:   4    -0.338014992701E+02    0.11358E-03   -0.56929E-04  2456   0.491E-01    0.931E-02
DAV:   5    -0.338014868834E+02    0.12387E-04   -0.29012E-04  2680   0.182E-01    0.275E-02
DAV:   6    -0.338014869890E+02   -0.10555E-06   -0.32419E-05  2472   0.875E-02    0.178E-02
DAV:   7    -0.338014869103E+02    0.78664E-07   -0.18640E-05  2328   0.319E-02    0.120E-02
DAV:   8    -0.338014870011E+02   -0.90798E-07   -0.49226E-06  1800   0.248E-02
  38 F= -.33801487E+02 E0= -.33801487E+02  d E =-.532285E-15
       N       E                     dE             d eps       ncg     rms          rms(c)
DAV:   1    -0.338011388501E+02    0.34806E-03   -0.47226E-01  1848   0.171E+00    0.155E-01
DAV:   2    -0.338031821417E+02   -0.20433E-02   -0.21686E-02  2160   0.662E-01    0.552E-02
DAV:   3    -0.338032258483E+02   -0.43707E-04   -0.83744E-04  2480   0.199E-01    0.436E-02
DAV:   4    -0.338032176507E+02    0.81976E-05   -0.68628E-05  2272   0.147E-01    0.188E-02
DAV:   5    -0.338032178451E+02   -0.19432E-06   -0.25174E-05  2120   0.645E-02    0.518E-03
DAV:   6    -0.338032178923E+02   -0.47232E-07   -0.41554E-06  1696   0.220E-02
  39 F= -.33803218E+02 E0= -.33803218E+02  d E =-.531306E-15
       N       E                     dE             d eps       ncg     rms          rms(c)
DAV:   1    -0.338003961651E+02    0.28217E-02   -0.81714E-01  1832   0.235E+00    0.414E-01
DAV:   2    -0.338036180497E+02   -0.32219E-02   -0.36562E-02  2208   0.106E+00    0.143E-01
DAV:   3    -0.338035257872E+02    0.92262E-04   -0.13265E-03  2344   0.279E-01    0.113E-01
DAV:   4    -0.338034386750E+02    0.87112E-04   -0.42555E-04  2384   0.255E-01    0.489E-02
DAV:   5    -0.338034457341E+02   -0.70590E-05   -0.11967E-04  2128   0.150E-01    0.155E-02
DAV:   6    -0.338034456189E+02    0.11518E-06   -0.13860E-05  2400   0.478E-02    0.953E-03
DAV:   7    -0.338034457470E+02   -0.12814E-06   -0.81150E-06  1872   0.314E-02
  40 F= -.33803446E+02 E0= -.33803446E+02  d E =-.260375E-15
       N       E                     dE             d eps       ncg     rms          rms(c)
DAV:   1    -0.337996236017E+02    0.38220E-02   -0.48523E-01  1832   0.169E+00    0.275E-01
DAV:   2    -0.338018514582E+02   -0.22279E-02   -0.23697E-02  2176   0.687E-01    0.978E-02
DAV:   3    -0.338018439149E+02    0.75433E-05   -0.73528E-04  2256   0.171E-01    0.792E-02
DAV:   4    -0.338018061615E+02    0.37753E-04   -0.15936E-04  2360   0.165E-01    0.380E-02
DAV:   5    -0.338018084686E+02   -0.23072E-05   -0.48811E-05  2032   0.908E-02    0.841E-03
DAV:   6    -0.338018085346E+02   -0.65940E-07   -0.45731E-06  1840   0.354E-02
  41 F= -.33801809E+02 E0= -.33801809E+02  d E =-.155103E-15
       N       E                     dE             d eps       ncg     rms          rms(c)
DAV:   1    -0.337915418344E+02    0.10267E-01   -0.18673E+00  1832   0.367E+00    0.499E-01
DAV:   2    -0.337996872731E+02   -0.81454E-02   -0.91564E-02  2192   0.137E+00    0.225E-01
DAV:   3    -0.337994630606E+02    0.22421E-03   -0.26317E-03  2448   0.283E-01    0.176E-01
DAV:   4    -0.337991890694E+02    0.27399E-03   -0.86988E-04  2320   0.181E-01    0.437E-02
DAV:   5    -0.337991852924E+02    0.37770E-05   -0.26276E-04  2080   0.882E-02    0.412E-02
DAV:   6    -0.337991682702E+02    0.17022E-04   -0.34974E-05  2376   0.521E-02    0.275E-02
DAV:   7    -0.337991640225E+02    0.42476E-05   -0.15325E-05  2072   0.287E-02    0.134E-02
DAV:   8    -0.337991622617E+02    0.17609E-05   -0.58322E-06  1888   0.293E-02    0.234E-03
DAV:   9    -0.337991625620E+02   -0.30029E-06   -0.42713E-06  1680   0.135E-02
  42 F= -.33799163E+02 E0= -.33799163E+02  d E =-.329080E-15
       N       E                     dE             d eps       ncg     rms          rms(c)
DAV:   1    -0.338002444508E+02   -0.10822E-02   -0.46572E-01  1848   0.168E+00    0.204E-01
DAV:   2    -0.338023413894E+02   -0.20969E-02   -0.23000E-02  2184   0.601E-01    0.645E-02
DAV:   3    -0.338023650190E+02   -0.23630E-04   -0.74557E-04  2656   0.118E-01    0.426E-02
DAV:   4    -0.338023567609E+02    0.82581E-05   -0.59865E-05  2256   0.366E-02    0.148E-02
DAV:   5    -0.338023571804E+02   -0.41941E-06   -0.10814E-05  2048   0.167E-02    0.102E-02
DAV:   6    -0.338023571636E+02    0.16734E-07   -0.62085E-07  1376   0.706E-03
  43 F= -.33802357E+02 E0= -.33802357E+02  d E =-.332182E-15
       N       E                     dE             d eps       ncg     rms          rms(c)
DAV:   1    -0.338007210028E+02    0.16362E-02   -0.81178E-01  1840   0.234E+00    0.491E-01
DAV:   2    -0.338039444437E+02   -0.32234E-02   -0.38536E-02  2160   0.878E-01    0.148E-01
DAV:   3    -0.338037830257E+02    0.16142E-03   -0.11924E-03  2520   0.193E-01    0.104E-01
DAV:   4    -0.338037113127E+02    0.71713E-04   -0.41123E-04  2136   0.105E-01    0.367E-02
DAV:   5    -0.338037182941E+02   -0.69814E-05   -0.96998E-05  2040   0.464E-02    0.275E-02
DAV:   6    -0.338037180521E+02    0.24203E-06   -0.36503E-06  1984   0.185E-02
  44 F= -.33803718E+02 E0= -.33803718E+02  d E =-.685784E-15
       N       E                     dE             d eps       ncg     rms          rms(c)
DAV:   1    -0.337995300700E+02    0.41882E-02   -0.48101E-01  1840   0.170E+00    0.320E-01
DAV:   2    -0.338018641757E+02   -0.23341E-02   -0.25079E-02  2184   0.636E-01    0.921E-02
DAV:   3    -0.338018457234E+02    0.18452E-04   -0.75814E-04  2400   0.125E-01    0.703E-02
DAV:   4    -0.338018096856E+02    0.36038E-04   -0.21420E-04  2128   0.570E-02    0.259E-02
DAV:   5    -0.338018129247E+02   -0.32391E-05   -0.53238E-05  2056   0.321E-02    0.147E-02
DAV:   6    -0.338018129194E+02    0.52951E-08   -0.15917E-06  1832   0.962E-03
  45 F= -.33801813E+02 E0= -.33801813E+02  d E =-.134513E-14
