   3   3   0   0
  0.2662414E+02  0.5089440E-09  0.5089440E-09  0.3560626E-09  0.5000000E-15
   1.0000000000000000E-004
  CAR 
 unknown system                          
     24.76635902    -23.51747126  301      3.84935390      1.00000000
    -23.517  0.0000E+00  0.0000E+00
    -23.357  0.0000E+00  0.0000E+00
    -23.196  0.0000E+00  0.0000E+00
    -23.035  0.0000E+00  0.0000E+00
    -22.874  0.0000E+00  0.0000E+00
    -22.713  0.0000E+00  0.0000E+00
    -22.552  0.0000E+00  0.0000E+00
    -22.391  0.0000E+00  0.0000E+00
    -22.230  0.0000E+00  0.0000E+00
    -22.069  0.0000E+00  0.0000E+00
    -21.908  0.0000E+00  0.0000E+00
    -21.747  0.0000E+00  0.0000E+00
    -21.586  0.1823E-14  0.2934E-15
    -21.425  0.1757E-03  0.2827E-04
    -21.264  0.3265E+00  0.5258E-01
    -21.103  0.4612E-01  0.6000E-01
    -20.942  0.2640E-08  0.6000E-01
    -20.781  0.0000E+00  0.6000E-01
    -20.620  0.0000E+00  0.6000E-01
    -20.459  0.0000E+00  0.6000E-01
    -20.299  0.0000E+00  0.6000E-01
    -20.138  0.0000E+00  0.6000E-01
    -19.977  0.0000E+00  0.6000E-01
    -19.816  0.0000E+00  0.6000E-01
    -19.655  0.0000E+00  0.6000E-01
    -19.494  0.0000E+00  0.6000E-01
    -19.333  0.0000E+00  0.6000E-01
    -19.172  0.0000E+00  0.6000E-01
    -19.011  0.0000E+00  0.6000E-01
    -18.850  0.0000E+00  0.6000E-01
    -18.689  0.0000E+00  0.6000E-01
    -18.528  0.0000E+00  0.6000E-01
    -18.367  0.1974E-13  0.6000E-01
    -18.206  0.5627E-03  0.6009E-01
    -18.045  0.2407E+00  0.9884E-01
    -17.884  0.3628E+00  0.1572E+00
    -17.723  0.1723E-01  0.1600E+00
    -17.562  0.3631E-08  0.1600E+00
    -17.402  0.0000E+00  0.1600E+00
    -17.241  0.0000E+00  0.1600E+00
    -17.080  0.0000E+00  0.1600E+00
    -16.919  0.0000E+00  0.1600E+00
    -16.758  0.0000E+00  0.1600E+00
    -16.597  0.0000E+00  0.1600E+00
    -16.436  0.0000E+00  0.1600E+00
    -16.275  0.0000E+00  0.1600E+00
    -16.114  0.0000E+00  0.1600E+00
    -15.953  0.0000E+00  0.1600E+00
    -15.792  0.0000E+00  0.1600E+00
    -15.631  0.0000E+00  0.1600E+00
    -15.470  0.0000E+00  0.1600E+00
    -15.309  0.0000E+00  0.1600E+00
    -15.148  0.0000E+00  0.1600E+00
    -14.987  0.0000E+00  0.1600E+00
    -14.826  0.0000E+00  0.1600E+00
    -14.665  0.0000E+00  0.1600E+00
    -14.504  0.0000E+00  0.1600E+00
    -14.344  0.0000E+00  0.1600E+00
    -14.183  0.0000E+00  0.1600E+00
    -14.022  0.0000E+00  0.1600E+00
    -13.861  0.0000E+00  0.1600E+00
    -13.700  0.0000E+00  0.1600E+00
    -13.539  0.0000E+00  0.1600E+00
    -13.378  0.0000E+00  0.1600E+00
    -13.217  0.0000E+00  0.1600E+00
    -13.056  0.0000E+00  0.1600E+00
    -12.895  0.0000E+00  0.1600E+00
    -12.734  0.0000E+00  0.1600E+00
    -12.573  0.0000E+00  0.1600E+00
    -12.412  0.0000E+00  0.1600E+00
    -12.251  0.0000E+00  0.1600E+00
    -12.090  0.0000E+00  0.1600E+00
    -11.929  0.0000E+00  0.1600E+00
    -11.768  0.0000E+00  0.1600E+00
    -11.607  0.0000E+00  0.1600E+00
    -11.447  0.0000E+00  0.1600E+00
    -11.286  0.0000E+00  0.1600E+00
    -11.125  0.0000E+00  0.1600E+00
    -10.964  0.0000E+00  0.1600E+00
    -10.803  0.0000E+00  0.1600E+00
    -10.642  0.0000E+00  0.1600E+00
    -10.481  0.0000E+00  0.1600E+00
    -10.320  0.0000E+00  0.1600E+00
    -10.159  0.0000E+00  0.1600E+00
     -9.998  0.0000E+00  0.1600E+00
     -9.837  0.0000E+00  0.1600E+00
     -9.676  0.0000E+00  0.1600E+00
     -9.515  0.0000E+00  0.1600E+00
     -9.354  0.0000E+00  0.1600E+00
     -9.193  0.0000E+00  0.1600E+00
     -9.032  0.5381E-09  0.1600E+00
     -8.871  0.4630E-03  0.1601E+00
     -8.710  0.6995E-02  0.1612E+00
     -8.549  0.2595E-01  0.1654E+00
     -8.389  0.4896E-01  0.1733E+00
     -8.228  0.3565E-01  0.1790E+00
     -8.067  0.6248E-02  0.1800E+00
     -7.906  0.3660E-07  0.1800E+00
     -7.745  0.0000E+00  0.1800E+00
     -7.584  0.0000E+00  0.1800E+00
     -7.423  0.0000E+00  0.1800E+00
     -7.262  0.0000E+00  0.1800E+00
     -7.101  0.0000E+00  0.1800E+00
     -6.940  0.0000E+00  0.1800E+00
     -6.779  0.0000E+00  0.1800E+00
     -6.618  0.0000E+00  0.1800E+00
     -6.457  0.0000E+00  0.1800E+00
     -6.296  0.0000E+00  0.1800E+00
     -6.135  0.0000E+00  0.1800E+00
     -5.974  0.0000E+00  0.1800E+00
     -5.813  0.0000E+00  0.1800E+00
     -5.652  0.0000E+00  0.1800E+00
     -5.492  0.0000E+00  0.1800E+00
     -5.331  0.0000E+00  0.1800E+00
     -5.170  0.0000E+00  0.1800E+00
     -5.009  0.0000E+00  0.1800E+00
     -4.848  0.0000E+00  0.1800E+00
     -4.687  0.0000E+00  0.1800E+00
     -4.526  0.0000E+00  0.1800E+00
     -4.365  0.1246E-08  0.1800E+00
     -4.204  0.1568E-02  0.1803E+00
     -4.043  0.1037E-01  0.1819E+00
     -3.882  0.2174E-01  0.1854E+00
     -3.721  0.1294E-02  0.1856E+00
     -3.560  0.7432E-02  0.1868E+00
     -3.399  0.2936E-01  0.1915E+00
     -3.238  0.9794E-02  0.1931E+00
     -3.077  0.7140E-02  0.1943E+00
     -2.916  0.1068E-01  0.1960E+00
     -2.755  0.1079E-01  0.1977E+00
     -2.594  0.3089E-02  0.1982E+00
     -2.434  0.7124E-02  0.1994E+00
     -2.273  0.7709E-05  0.1994E+00
     -2.112  0.2351E-02  0.1998E+00
     -1.951  0.2363E-03  0.1998E+00
     -1.790  0.3694E-04  0.1998E+00
     -1.629  0.1252E-02  0.2000E+00
     -1.468  0.5217E-05  0.2000E+00
     -1.307  0.0000E+00  0.2000E+00
     -1.146  0.0000E+00  0.2000E+00
     -0.985  0.2854E-15  0.2000E+00
     -0.824  0.1320E-04  0.2000E+00
     -0.663  0.7439E-02  0.2012E+00
     -0.502  0.1552E-01  0.2037E+00
     -0.341  0.3816E-03  0.2038E+00
     -0.180  0.1807E-01  0.2067E+00
     -0.019  0.1652E-01  0.2093E+00
      0.142  0.1740E-01  0.2121E+00
      0.303  0.1951E-01  0.2153E+00
      0.463  0.2887E-01  0.2199E+00
      0.624  0.1033E-01  0.2216E+00
      0.785  0.9038E-02  0.2230E+00
      0.946  0.3216E-01  0.2282E+00
      1.107  0.2238E-01  0.2318E+00
      1.268  0.1334E-01  0.2340E+00
      1.429  0.1836E-01  0.2369E+00
      1.590  0.1712E-01  0.2397E+00
      1.751  0.9158E-02  0.2411E+00
      1.912  0.5425E-02  0.2420E+00
      2.073  0.1539E-01  0.2445E+00
      2.234  0.1623E-01  0.2471E+00
      2.395  0.3066E-01  0.2520E+00
      2.556  0.3023E-01  0.2569E+00
      2.717  0.1006E-01  0.2585E+00
      2.878  0.3124E-03  0.2586E+00
      3.039  0.7236E-02  0.2597E+00
      3.200  0.2725E-01  0.2641E+00
      3.361  0.1359E-01  0.2663E+00
      3.521  0.3529E-02  0.2669E+00
      3.682  0.5616E-03  0.2670E+00
      3.843  0.1741E-01  0.2698E+00
      4.004  0.1826E-01  0.2727E+00
      4.165  0.2564E-01  0.2768E+00
      4.326  0.9323E-02  0.2783E+00
      4.487  0.2541E-02  0.2787E+00
      4.648  0.1432E-01  0.2810E+00
      4.809  0.3358E-01  0.2865E+00
      4.970  0.4514E-02  0.2872E+00
      5.131  0.2438E-01  0.2911E+00
      5.292  0.1263E-01  0.2931E+00
      5.453  0.1909E-01  0.2962E+00
      5.614  0.1588E-01  0.2988E+00
      5.775  0.1225E-01  0.3007E+00
      5.936  0.3076E-01  0.3057E+00
      6.097  0.1269E-01  0.3077E+00
      6.258  0.3598E-01  0.3135E+00
      6.419  0.8183E-02  0.3148E+00
      6.579  0.1946E-02  0.3151E+00
      6.740  0.1061E-01  0.3169E+00
      6.901  0.1302E-03  0.3169E+00
      7.062  0.3715E-02  0.3175E+00
      7.223  0.9328E-02  0.3190E+00
      7.384  0.1811E-01  0.3219E+00
      7.545  0.1105E-01  0.3237E+00
      7.706  0.2189E-01  0.3272E+00
      7.867  0.6544E-03  0.3273E+00
      8.028  0.1969E-01  0.3305E+00
      8.189  0.2195E-01  0.3340E+00
      8.350  0.6851E-02  0.3351E+00
      8.511  0.3406E-01  0.3406E+00
      8.672  0.6726E-02  0.3417E+00
      8.833  0.3521E-04  0.3417E+00
      8.994  0.7527E-02  0.3429E+00
      9.155  0.2422E-03  0.3429E+00
      9.316  0.1263E-01  0.3450E+00
      9.476  0.4218E-02  0.3456E+00
      9.637  0.7650E-02  0.3469E+00
      9.798  0.1346E-01  0.3490E+00
      9.959  0.1206E-01  0.3510E+00
     10.120  0.2036E-01  0.3543E+00
     10.281  0.4987E-01  0.3623E+00
     10.442  0.3707E-01  0.3682E+00
     10.603  0.1956E-01  0.3714E+00
     10.764  0.5140E-02  0.3722E+00
     10.925  0.2390E-01  0.3761E+00
     11.086  0.2792E-01  0.3806E+00
     11.247  0.1714E-01  0.3833E+00
     11.408  0.1743E-01  0.3861E+00
     11.569  0.2236E-01  0.3897E+00
     11.730  0.1751E-01  0.3925E+00
     11.891  0.2806E-01  0.3971E+00
     12.052  0.1207E-01  0.3990E+00
     12.213  0.2443E-01  0.4029E+00
     12.374  0.1136E-01  0.4048E+00
     12.534  0.2155E-01  0.4082E+00
     12.695  0.4275E-01  0.4151E+00
     12.856  0.2185E-01  0.4186E+00
     13.017  0.4051E-01  0.4251E+00
     13.178  0.1259E-01  0.4272E+00
     13.339  0.3786E-02  0.4278E+00
     13.500  0.2121E-01  0.4312E+00
     13.661  0.3527E-01  0.4369E+00
     13.822  0.3658E-01  0.4428E+00
     13.983  0.3048E-01  0.4477E+00
     14.144  0.8236E-02  0.4490E+00
     14.305  0.4605E-01  0.4564E+00
     14.466  0.4470E-01  0.4636E+00
     14.627  0.2422E-01  0.4675E+00
     14.788  0.1963E-01  0.4707E+00
     14.949  0.2936E-01  0.4754E+00
     15.110  0.2099E-01  0.4788E+00
     15.271  0.2689E-01  0.4831E+00
     15.431  0.4258E-01  0.4899E+00
     15.592  0.3415E-01  0.4954E+00
     15.753  0.1916E-01  0.4985E+00
     15.914  0.1101E-01  0.5003E+00
     16.075  0.7836E-02  0.5015E+00
     16.236  0.2735E-01  0.5059E+00
     16.397  0.3039E-02  0.5064E+00
     16.558  0.2051E-01  0.5097E+00
     16.719  0.2245E-01  0.5134E+00
     16.880  0.2675E-01  0.5177E+00
     17.041  0.3804E-01  0.5238E+00
     17.202  0.2419E-01  0.5277E+00
     17.363  0.2521E-01  0.5317E+00
     17.524  0.4252E-01  0.5386E+00
     17.685  0.4582E-01  0.5459E+00
     17.846  0.3080E-01  0.5509E+00
     18.007  0.1045E-01  0.5526E+00
     18.168  0.2715E-01  0.5570E+00
     18.329  0.2591E-01  0.5611E+00
     18.489  0.5135E-02  0.5620E+00
     18.650  0.3317E-01  0.5673E+00
     18.811  0.4739E-01  0.5749E+00
     18.972  0.4094E-01  0.5815E+00
     19.133  0.3328E-01  0.5869E+00
     19.294  0.2258E-01  0.5905E+00
     19.455  0.5168E-01  0.5988E+00
     19.616  0.8641E-02  0.6002E+00
     19.777  0.1543E-01  0.6027E+00
     19.938  0.5630E-01  0.6118E+00
     20.099  0.3128E-01  0.6168E+00
     20.260  0.5699E-01  0.6260E+00
     20.421  0.5109E-02  0.6268E+00
     20.582  0.8711E-02  0.6282E+00
     20.743  0.2398E-01  0.6320E+00
     20.904  0.1155E-01  0.6339E+00
     21.065  0.1652E-02  0.6342E+00
     21.226  0.3759E-02  0.6348E+00
     21.386  0.1094E-03  0.6348E+00
     21.547  0.1196E-02  0.6350E+00
     21.708  0.1497E-02  0.6352E+00
     21.869  0.2172E-01  0.6387E+00
     22.030  0.1800E-03  0.6387E+00
     22.191  0.0000E+00  0.6388E+00
     22.352  0.2089E-11  0.6388E+00
     22.513  0.3800E-03  0.6388E+00
     22.674  0.7372E-02  0.6400E+00
     22.835  0.1464E-04  0.6400E+00
     22.996  0.0000E+00  0.6400E+00
     23.157  0.0000E+00  0.6400E+00
     23.318  0.0000E+00  0.6400E+00
     23.479  0.0000E+00  0.6400E+00
     23.640  0.0000E+00  0.6400E+00
     23.801  0.0000E+00  0.6400E+00
     23.962  0.0000E+00  0.6400E+00
     24.123  0.0000E+00  0.6400E+00
     24.284  0.0000E+00  0.6400E+00
     24.444  0.0000E+00  0.6400E+00
     24.605  0.0000E+00  0.6400E+00
     24.766  0.0000E+00  0.6400E+00
