 vasp.6.3.2 27Jun22 (build Jun 14 2024 17:29:11) complex                         
 executed on             LinuxGNU date 2026.03.29  20:14:35
 running on   32 total cores
 distrk:  each k-point on   32 cores,    1 groups
 distr:  one band on NCORE=   1 cores,   32 groups


--------------------------------------------------------------------------------------------------------


 INCAR:
   EDIFF = 1e-05
   EDIFFG = -0.05
   ENCUT = 400.0
   IBRION = 2
   ISIF = 3
   ISMEAR = 0
   LCHARG = False
   LREAL = Auto
   LWAVE = False
   NSW = 100
   SIGMA = 0.05

 POTCAR:    PAW_PBE Na_pv 19Sep2006               
 POTCAR:    PAW_PBE Sn_d 06Sep2000                
 POTCAR:    PAW_PBE S 06Sep2000                   
 -----------------------------------------------------------------------------
|                                                                             |
|           W    W    AA    RRRRR   N    N  II  N    N   GGGG   !!!           |
|           W    W   A  A   R    R  NN   N  II  NN   N  G    G  !!!           |
|           W    W  A    A  R    R  N N  N  II  N N  N  G       !!!           |
|           W WW W  AAAAAA  RRRRR   N  N N  II  N  N N  G  GGG   !            |
|           WW  WW  A    A  R   R   N   NN  II  N   NN  G    G                |
|           W    W  A    A  R    R  N    N  II  N    N   GGGG   !!!           |
|                                                                             |
|     For optimal performance we recommend to set                             |
|       NCORE = 2 up to number-of-cores-per-socket                            |
|     NCORE specifies how many cores store one orbital (NPAR=cpu/NCORE).      |
|     This setting can greatly improve the performance of VASP for DFT.       |
|     The default, NCORE=1 might be grossly inefficient on modern             |
|     multi-core architectures or massively parallel machines. Do your        |
|     own testing! More info at https://www.vasp.at/wiki/index.php/NCORE      |
|     Unfortunately you need to use the default for GW and RPA                |
|     calculations (for HF NCORE is supported but not extensively tested      |
|     yet).                                                                   |
|                                                                             |
 -----------------------------------------------------------------------------

 POTCAR:    PAW_PBE Na_pv 19Sep2006               
   SHA256 =  6a2f546d9e11350984debacf3dc457d8cffc0868e817d445faca461816a32b94 Na_pv/POTCAR          
   COPYR  = (c) Copyright 19Sep2006 Georg Kresse                                                    
   COPYR  = This file is part of the software VASP. Any use, copying, and all other rights are regul
   COPYR  = If you do not have a valid VASP license, you may not use, copy or distribute this file. 
   VRHFIN =Na: p6s1                                                                                 
   LEXCH  = PE                                                                                      
   EATOM  =   766.0439 eV,   56.3026 Ry                                                             
                                                                                                    
   TITEL  = PAW_PBE Na_pv 19Sep2006                                                                 
   LULTRA =        F    use ultrasoft PP ?                                                          
   IUNSCR =        1    unscreen: 0-lin 1-nonlin 2-no                                               
   RPACOR =    1.800    partial core radius                                                         
   POMASS =   22.990; ZVAL   =    7.000    mass and valenz                                          
   RCORE  =    2.200    outmost cutoff radius                                                       
   RWIGS  =    2.200; RWIGS  =    1.164    wigner-seitz radius (au A)                               
   ENMAX  =  259.561; ENMIN  =  194.671 eV                                                          
   ICORE  =        2    local potential                                                             
   LCOR   =        T    correct aug charges                                                         
   LPAW   =        T    paw PP                                                                      
   EAUG   =  368.056                                                                                
   DEXC   =    0.000                                                                                
   RMAX   =    2.245    core radius for proj-oper                                                   
   RAUG   =    1.300    factor for augmentation sphere                                              
   RDEP   =    2.259    radius for radial grids                                                     
   RDEPT  =    1.738    core radius for aug-charge                                                  
                                                                                                    
   Atomic configuration                                                                             
    5 entries                                                                                       
     n  l   j            E        occ.                                                              
     1  0  0.50     -1033.6933   2.0000                                                             
     2  0  0.50       -56.7526   2.0000                                                             
     2  1  1.50       -28.6721   6.0000                                                             
     3  0  0.50        -2.7440   1.0000                                                             
     3  2  1.50        -1.3606   0.0000                                                             
   Description                                                                                      
     l       E           TYP  RCUT    TYP  RCUT                                                     
     1    -28.6720912     23  2.000                                                                 
     1      6.8029130     23  2.000                                                                 
     0     -2.7439560     23  2.200                                                                 
     0     34.0145650     23  2.200                                                                 
     2     -1.3605826     23  2.200                                                                 
  local pseudopotential read in
  partial core-charges read in
  partial kinetic energy density read in
  atomic valenz-charges read in
  non local Contribution for L=           1  read in
    real space projection operators read in
  non local Contribution for L=           1  read in
    real space projection operators read in
  non local Contribution for L=           0  read in
    real space projection operators read in
  non local Contribution for L=           0  read in
    real space projection operators read in
    PAW grid and wavefunctions read in

   number of l-projection  operators is LMAX  =           4
   number of lm-projection operators is LMMAX =           8

 POTCAR:    PAW_PBE Sn_d 06Sep2000                
   SHA256 =  385b269c1887fa92a2bd1b595c4ea1490c7eb92f9f3d87257729a4a813cde741 Sn_d/POTCAR           
   COPYR  = (c) Copyright 06Sep2000 Georg Kresse                                                    
   COPYR  = This file is part of the software VASP. Any use, copying, and all other rights are regul
   COPYR  = If you do not have a valid VASP license, you may not use, copy or distribute this file. 
   VRHFIN =Sn: s2p2                                                                                 
   LEXCH  = PE                                                                                      
   EATOM  =  1893.1092 eV,  139.1396 Ry                                                             
                                                                                                    
   TITEL  = PAW_PBE Sn_d 06Sep2000                                                                  
   LULTRA =        F    use ultrasoft PP ?                                                          
   IUNSCR =        1    unscreen: 0-lin 1-nonlin 2-no                                               
   RPACOR =    2.300    partial core radius                                                         
   POMASS =  118.710; ZVAL   =   14.000    mass and valenz                                          
   RCORE  =    2.500    outmost cutoff radius                                                       
   RWIGS  =    2.960; RWIGS  =    1.566    wigner-seitz radius (au A)                               
   ENMAX  =  241.083; ENMIN  =  180.812 eV                                                          
   ICORE  =        3    local potential                                                             
   LCOR   =        T    correct aug charges                                                         
   LPAW   =        T    paw PP                                                                      
   EAUG   =  439.825                                                                                
   DEXC   =    0.000                                                                                
   RMAX   =    2.560    core radius for proj-oper                                                   
   RAUG   =    1.300    factor for augmentation sphere                                              
   RDEP   =    2.659    radius for radial grids                                                     
   RDEPT  =    2.046    core radius for aug-charge                                                  
                                                                                                    
   Atomic configuration                                                                             
   12 entries                                                                                       
     n  l   j            E        occ.                                                              
     1  0  0.50    -29007.2859   2.0000                                                             
     2  0  0.50     -4378.8056   2.0000                                                             
     2  1  1.50     -3930.4293   6.0000                                                             
     3  0  0.50      -845.0264   2.0000                                                             
     3  1  1.50      -698.5725   6.0000                                                             
     3  2  2.50      -473.2839  10.0000                                                             
     4  0  0.50      -133.9036   2.0000                                                             
     4  1  1.50       -89.6752   6.0000                                                             
     4  2  2.50       -25.8375  10.0000                                                             
     5  0  0.50       -10.5484   2.0000                                                             
     5  1  0.50        -3.6940   2.0000                                                             
     4  3  2.50        -2.7416   0.0000                                                             
   Description                                                                                      
     l       E           TYP  RCUT    TYP  RCUT                                                     
     2    -25.8374624     23  2.500                                                                 
     2     -5.4423304     23  2.500                                                                 
     0    -10.5483727     23  2.500                                                                 
     0     13.6058260     23  2.500                                                                 
     1     -3.6939829     23  2.500                                                                 
     1      1.9821976     23  2.500                                                                 
     3     -1.3605826      7  2.500                                                                 
  local pseudopotential read in
  partial core-charges read in
  partial kinetic energy density read in
  atomic valenz-charges read in
  non local Contribution for L=           2  read in
    real space projection operators read in
  non local Contribution for L=           2  read in
    real space projection operators read in
  non local Contribution for L=           0  read in
    real space projection operators read in
  non local Contribution for L=           0  read in
    real space projection operators read in
  non local Contribution for L=           1  read in
    real space projection operators read in
  non local Contribution for L=           1  read in
    real space projection operators read in
    PAW grid and wavefunctions read in

   number of l-projection  operators is LMAX  =           6
   number of lm-projection operators is LMMAX =          18

 POTCAR:    PAW_PBE S 06Sep2000                   
   SHA256 =  0fc7481fb0695f01bdc6462160264c5c84044ae9ec85a907d398b887a2bc3132 S/POTCAR              
   COPYR  = (c) Copyright 06Sep2000 Georg Kresse                                                    
   COPYR  = This file is part of the software VASP. Any use, copying, and all other rights are regul
   COPYR  = If you do not have a valid VASP license, you may not use, copy or distribute this file. 
   VRHFIN =S : s2p4                                                                                 
   LEXCH  = PE                                                                                      
   EATOM  =   276.8230 eV,   20.3459 Ry                                                             
                                                                                                    
   TITEL  = PAW_PBE S 06Sep2000                                                                     
   LULTRA =        F    use ultrasoft PP ?                                                          
   IUNSCR =        1    unscreen: 0-lin 1-nonlin 2-no                                               
   RPACOR =    1.500    partial core radius                                                         
   POMASS =   32.066; ZVAL   =    6.000    mass and valenz                                          
   RCORE  =    1.900    outmost cutoff radius                                                       
   RWIGS  =    2.200; RWIGS  =    1.164    wigner-seitz radius (au A)                               
   ENMAX  =  258.689; ENMIN  =  194.016 eV                                                          
   ICORE  =        2    local potential                                                             
   LCOR   =        T    correct aug charges                                                         
   LPAW   =        T    paw PP                                                                      
   EAUG   =  335.092                                                                                
   DEXC   =    0.000                                                                                
   RMAX   =    1.942    core radius for proj-oper                                                   
   RAUG   =    1.300    factor for augmentation sphere                                              
   RDEP   =    1.954    radius for radial grids                                                     
   RDEPT  =    1.744    core radius for aug-charge                                                  
                                                                                                    
   Atomic configuration                                                                             
    6 entries                                                                                       
     n  l   j            E        occ.                                                              
     1  0  0.50     -2405.8406   2.0000                                                             
     2  0  0.50      -211.7007   2.0000                                                             
     2  1  1.50      -156.4958   6.0000                                                             
     3  0  0.50       -17.2562   2.0000                                                             
     3  1  0.50        -7.0085   4.0000                                                             
     3  2  1.50        -6.8029   0.0000                                                             
   Description                                                                                      
     l       E           TYP  RCUT    TYP  RCUT                                                     
     0    -17.2561641     23  1.900                                                                 
     0    -15.8743224     23  1.900                                                                 
     1     -7.0085400     23  1.900                                                                 
     1     -2.7779785     23  1.900                                                                 
     2     -6.8029130     23  1.900                                                                 
  local pseudopotential read in
  partial core-charges read in
  partial kinetic energy density read in
  atomic valenz-charges read in
  non local Contribution for L=           0  read in
    real space projection operators read in
  non local Contribution for L=           0  read in
    real space projection operators read in
  non local Contribution for L=           1  read in
    real space projection operators read in
  non local Contribution for L=           1  read in
    real space projection operators read in
    PAW grid and wavefunctions read in

   number of l-projection  operators is LMAX  =           4
   number of lm-projection operators is LMMAX =           8

 -----------------------------------------------------------------------------
|                                                                             |
|               ----> ADVICE to this user running VASP <----                  |
|                                                                             |
|     You have a (more or less) 'small supercell' and for smaller cells       |
|     it is recommended to use the reciprocal-space projection scheme!        |
|     The real-space optimization is not efficient for small cells and it     |
|     is also less accurate ...                                               |
|     Therefore, set LREAL=.FALSE. in the INCAR file.                         |
|                                                                             |
 -----------------------------------------------------------------------------

 Optimization of the real space projectors (new method)

 maximal supplied QI-value         = 17.01
 optimisation between [QCUT,QGAM] = [ 10.20, 20.41] = [ 29.16,116.64] Ry 
 Optimized for a Real-space Cutoff    1.30 Angstroem

   l    n(q)    QCUT    max X(q) W(low)/X(q) W(high)/X(q)  e(spline) 
   1      7    10.205     4.940    0.23E-03    0.84E-03    0.11E-06
   1      7    10.205     6.253    0.40E-03    0.13E-02    0.18E-06
   0      8    10.205    37.438    0.23E-03    0.37E-03    0.42E-07
   0      8    10.205     9.606    0.16E-03    0.26E-03    0.31E-07
 Optimization of the real space projectors (new method)

 maximal supplied QI-value         = 15.12
 optimisation between [QCUT,QGAM] = [ 10.13, 20.41] = [ 28.73,116.64] Ry 
 Optimized for a Real-space Cutoff    1.38 Angstroem

   l    n(q)    QCUT    max X(q) W(low)/X(q) W(high)/X(q)  e(spline) 
   2      7    10.129     5.880    0.15E-03    0.14E-04    0.57E-07
   2      7    10.129     7.804    0.33E-03    0.17E-03    0.10E-06
   0      8    10.129    20.557    0.11E-03    0.15E-03    0.82E-07
   0      8    10.129     9.400    0.14E-03    0.19E-03    0.10E-06
   1      8    10.129    94.178    0.28E-03    0.18E-03    0.13E-06
   1      8    10.129    56.401    0.27E-03    0.17E-03    0.13E-06
 Optimization of the real space projectors (new method)

 maximal supplied QI-value         = 19.84
 optimisation between [QCUT,QGAM] = [ 10.12, 20.44] = [ 28.68,116.96] Ry 
 Optimized for a Real-space Cutoff    1.23 Angstroem

   l    n(q)    QCUT    max X(q) W(low)/X(q) W(high)/X(q)  e(spline) 
   0      7    10.119   187.594    0.62E-04    0.28E-03    0.52E-07
   0      7    10.119   164.243    0.61E-04    0.28E-03    0.52E-07
   1      7    10.119    67.533    0.45E-03    0.63E-03    0.13E-06
   1      7    10.119    50.729    0.44E-03    0.62E-03    0.12E-06
  PAW_PBE Na_pv 19Sep2006               :
 energy of atom  1       EATOM= -766.0439
 kinetic energy error for atom=    0.0103 (will be added to EATOM!!)
  PAW_PBE Sn_d 06Sep2000                :
 energy of atom  2       EATOM=-1893.1092
 kinetic energy error for atom=    0.0047 (will be added to EATOM!!)
  PAW_PBE S 06Sep2000                   :
 energy of atom  3       EATOM= -276.8230
 kinetic energy error for atom=    0.0046 (will be added to EATOM!!)


 POSCAR: Na1 Sn1 S1
  positions in direct lattice
  No initial velocities read in
 exchange correlation table for  LEXCH =        8
   RHO(1)=    0.500       N(1)  =     2000
   RHO(2)=  100.500       N(2)  =     4000



--------------------------------------------------------------------------------------------------------


 ion  position               nearest neighbor table
   1  0.000  0.000  0.000-   2 2.94   2 2.94   2 2.94
   2  0.667  0.333  0.000-   3 2.94   1 2.94   3 2.94   1 2.94   1 2.94   3 2.94
   3  0.333  0.667  0.000-   2 2.94   2 2.94   2 2.94

  LATTYP: Found a hexagonal cell.
 ALAT       =     5.0894397056
 C/A-ratio  =     0.6996105339
  
  Lattice vectors:
  
 A1 = (   5.0894397056,   0.0000000000,  -0.0000000000)
 A2 = (  -2.5447198528,   4.4075840761,   0.0000000000)
 A3 = (  -0.0000000000,   0.0000000000,   3.5606256299)


Analysis of symmetry for initial positions (statically):
=====================================================================
 Subroutine PRICEL returns:
 Original cell was already a primitive cell.
 

 Routine SETGRP: Setting up the symmetry group for a 
 hexagonal supercell.


 Subroutine GETGRP returns: Found 12 space group operations
 (whereof 12 operations were pure point group operations)
 out of a pool of 24 trial point group operations.


The static configuration has the point symmetry D_3h.


Analysis of symmetry for dynamics (positions and initial velocities):
=====================================================================
 Subroutine PRICEL returns:
 Original cell was already a primitive cell.
 

 Routine SETGRP: Setting up the symmetry group for a 
 hexagonal supercell.


 Subroutine GETGRP returns: Found 12 space group operations
 (whereof 12 operations were pure point group operations)
 out of a pool of 24 trial point group operations.


The dynamic configuration has the point symmetry D_3h.


 Subroutine INISYM returns: Found 12 space group operations
 (whereof 12 operations are pure point group operations),
 and found     1 'primitive' translations


----------------------------------------------------------------------------------------

                                     Primitive cell                                     

  volume of cell :      79.8724

  direct lattice vectors                    reciprocal lattice vectors
     5.089439706  0.000000000 -0.000000000     0.196485283  0.113440831  0.000000000
    -2.544719853  4.407584076  0.000000000    -0.000000000  0.226881662 -0.000000000
    -0.000000000  0.000000000  3.560625630     0.000000000  0.000000000  0.280849520

  length of vectors
     5.089439706  5.089439706  3.560625630     0.226881662  0.226881662  0.280849520

  position of ions in fractional coordinates (direct lattice)
     0.000000000  0.000000000  0.000000000
     0.666666792  0.333333141  0.000000000
     0.333333141  0.666666282  0.000000000

  ion indices of the primitive-cell ions
   primitive index   ion index
                 1           1
                 2           2
                 3           3

----------------------------------------------------------------------------------------



 KPOINTS: pymatgen with grid density = 500 / numbe

Automatic generation of k-mesh.
 Grid dimensions read from file:
 generate k-points for:    4    4    6

 Generating k-lattice:

  Cartesian coordinates                     Fractional coordinates (reciprocal lattice)
     0.049121321  0.028360208  0.000000000     0.250000000 -0.000000000  0.000000000
    -0.000000000  0.056720415 -0.000000000     0.000000000  0.250000000  0.000000000
     0.000000000  0.000000000  0.046808253     0.000000000  0.000000000  0.166666667

  Length of vectors
     0.056720415  0.056720415  0.046808253

  Shift w.r.t. Gamma in fractional coordinates (k-lattice)
     0.000000000  0.000000000  0.000000000

 
 Subroutine IBZKPT returns following result:
 ===========================================
 
 Found     16 irreducible k-points:
 
 Following reciprocal coordinates:
            Coordinates               Weight
  0.000000  0.000000  0.000000      1.000000
  0.250000  0.000000  0.000000      6.000000
  0.500000  0.000000  0.000000      3.000000
  0.250000  0.250000  0.000000      6.000000
  0.000000  0.000000  0.166667      2.000000
  0.250000  0.000000  0.166667     12.000000
  0.500000  0.000000  0.166667      6.000000
  0.250000  0.250000  0.166667     12.000000
  0.000000  0.000000  0.333333      2.000000
  0.250000  0.000000  0.333333     12.000000
  0.500000  0.000000  0.333333      6.000000
  0.250000  0.250000  0.333333     12.000000
  0.000000  0.000000  0.500000      1.000000
  0.250000  0.000000  0.500000      6.000000
  0.500000  0.000000  0.500000      3.000000
  0.250000  0.250000  0.500000      6.000000
 
 Following cartesian coordinates:
            Coordinates               Weight
  0.000000  0.000000  0.000000      1.000000
  0.049121  0.028360  0.000000      6.000000
  0.098243  0.056720  0.000000      3.000000
  0.049121  0.085081  0.000000      6.000000
  0.000000  0.000000  0.046808      2.000000
  0.049121  0.028360  0.046808     12.000000
  0.098243  0.056720  0.046808      6.000000
  0.049121  0.085081  0.046808     12.000000
  0.000000  0.000000  0.093617      2.000000
  0.049121  0.028360  0.093617     12.000000
  0.098243  0.056720  0.093617      6.000000
  0.049121  0.085081  0.093617     12.000000
  0.000000  0.000000  0.140425      1.000000
  0.049121  0.028360  0.140425      6.000000
  0.098243  0.056720  0.140425      3.000000
  0.049121  0.085081  0.140425      6.000000
 


--------------------------------------------------------------------------------------------------------




 Dimension of arrays:
   k-points           NKPTS =     16   k-points in BZ     NKDIM =     16   number of bands    NBANDS=     32
   number of dos      NEDOS =    301   number of ions     NIONS =      3
   non local maximal  LDIM  =      6   non local SUM 2l+1 LMDIM =     18
   total plane-waves  NPLWV =  14112
   max r-space proj   IRMAX =   1997   max aug-charges    IRDMAX=   8089
   dimension x,y,z NGX =    28 NGY =   28 NGZ =   18
   dimension x,y,z NGXF=    56 NGYF=   56 NGZF=   36
   support grid    NGXF=    56 NGYF=   56 NGZF=   36
   ions per type =               1   1   1
   NGX,Y,Z   is equivalent  to a cutoff of   9.15,  9.15,  8.40 a.u.
   NGXF,Y,Z  is equivalent  to a cutoff of  18.29, 18.29, 16.81 a.u.

 SYSTEM =  unknown system                          
 POSCAR =  Na1 Sn1 S1                              

 Startparameter for this run:
   NWRITE =      2    write-flag & timer
   PREC   = normal    normal or accurate (medium, high low for compatibility)
   ISTART =      0    job   : 0-new  1-cont  2-samecut
   ICHARG =      2    charge: 1-file 2-atom 10-const
   ISPIN  =      1    spin polarized calculation?
   LNONCOLLINEAR =      F non collinear calculations
   LSORBIT =      F    spin-orbit coupling
   INIWAV =      1    electr: 0-lowe 1-rand  2-diag
   LASPH  =      F    aspherical Exc in radial PAW
 Electronic Relaxation 1
   ENCUT  =  400.0 eV  29.40 Ry    5.42 a.u.   8.30  8.30  5.81*2*pi/ulx,y,z
   ENINI  =  400.0     initial cutoff
   ENAUG  =  439.8 eV  augmentation charge cutoff
   NELM   =     60;   NELMIN=  2; NELMDL= -5     # of ELM steps 
   EDIFF  = 0.1E-04   stopping-criterion for ELM
   LREAL  =      T    real-space projection
   NLSPLINE    = F    spline interpolate recip. space projectors
   LCOMPAT=      F    compatible to vasp.4.4
   GGA_COMPAT  = T    GGA compatible to vasp.4.4-vasp.4.6
   LMAXPAW     = -100 max onsite density
   LMAXMIX     =    2 max onsite mixed and CHGCAR
   VOSKOWN=      0    Vosko Wilk Nusair interpolation
   ROPT   =   -0.00050  -0.00050  -0.00050
 Ionic relaxation
   EDIFFG = -.5E-01   stopping-criterion for IOM
   NSW    =    100    number of steps for IOM
   NBLOCK =      1;   KBLOCK =    100    inner block; outer block 
   IBRION =      2    ionic relax: 0-MD 1-quasi-New 2-CG
   NFREE  =      1    steps in history (QN), initial steepest desc. (CG)
   ISIF   =      3    stress and relaxation
   IWAVPR =     11    prediction:  0-non 1-charg 2-wave 3-comb
   ISYM   =      2    0-nonsym 1-usesym 2-fastsym
   LCORR  =      T    Harris-Foulkes like correction to forces

   POTIM  = 0.5000    time-step for ionic-motion
   TEIN   =    0.0    initial temperature
   TEBEG  =    0.0;   TEEND  =   0.0 temperature during run
   SMASS  =  -3.00    Nose mass-parameter (am)
   estimated Nose-frequenzy (Omega)   =  0.10E-29 period in steps = 0.13E+47 mass=  -0.592E-27a.u.
   SCALEE = 1.0000    scale energy and forces
   NPACO  =    256;   APACO  = 10.0  distance and # of slots for P.C.
   PSTRESS=    0.0 pullay stress

  Mass of Ions in am
   POMASS =  22.99118.71 32.07
  Ionic Valenz
   ZVAL   =   7.00 14.00  6.00
  Atomic Wigner-Seitz radii
   RWIGS  =  -1.00 -1.00 -1.00
  virtual crystal weights 
   VCA    =   1.00  1.00  1.00
   NELECT =      27.0000    total number of electrons
   NUPDOWN=      -1.0000    fix difference up-down

 DOS related values:
   EMIN   =  10.00;   EMAX   =-10.00  energy-range for DOS
   EFERMI =   0.00
   ISMEAR =     0;   SIGMA  =   0.05  broadening in eV -4-tet -1-fermi 0-gaus

 Electronic relaxation 2 (details)
   IALGO  =     38    algorithm
   LDIAG  =      T    sub-space diagonalisation (order eigenvalues)
   LSUBROT=      F    optimize rotation matrix (better conditioning)
   TURBO    =      0    0=normal 1=particle mesh
   IRESTART =      0    0=no restart 2=restart with 2 vectors
   NREBOOT  =      0    no. of reboots
   NMIN     =      0    reboot dimension
   EREF     =   0.00    reference energy to select bands
   IMIX   =      4    mixing-type and parameters
     AMIX     =   0.40;   BMIX     =  1.00
     AMIX_MAG =   1.60;   BMIX_MAG =  1.00
     AMIN     =   0.10
     WC   =   100.;   INIMIX=   1;  MIXPRE=   1;  MAXMIX= -45

 Intra band minimization:
   WEIMIN = 0.0010     energy-eigenvalue tresh-hold
   EBREAK =  0.78E-07  absolut break condition
   DEPER  =   0.30     relativ break condition  

   TIME   =   0.40     timestep for ELM

  volume/ion in A,a.u.               =      26.62       179.67
  Fermi-wavevector in a.u.,A,eV,Ry     =   1.140417  2.155076 17.695078  1.300552
  Thomas-Fermi vector in A             =   2.277119

 Write flags
   LWAVE        =      F    write WAVECAR
   LDOWNSAMPLE  =      F    k-point downsampling of WAVECAR
   LCHARG       =      F    write CHGCAR
   LVTOT        =      F    write LOCPOT, total local potential
   LVHAR        =      F    write LOCPOT, Hartree potential only
   LELF         =      F    write electronic localiz. function (ELF)
   LORBIT       =      0    0 simple, 1 ext, 2 COOP (PROOUT), +10 PAW based schemes


 Dipole corrections
   LMONO  =      F    monopole corrections only (constant potential shift)
   LDIPOL =      F    correct potential (dipole corrections)
   IDIPOL =      0    1-x, 2-y, 3-z, 4-all directions 
   EPSILON=  1.0000000 bulk dielectric constant

 Exchange correlation treatment:
   GGA     =    --    GGA type
   LEXCH   =     8    internal setting for exchange type
   LIBXC   =     F    Libxc                    
   VOSKOWN =     0    Vosko Wilk Nusair interpolation
   LHFCALC =     F    Hartree Fock is set to
   LHFONE  =     F    Hartree Fock one center treatment
   AEXX    =    0.0000 exact exchange contribution

 Linear response parameters
   LEPSILON=     F    determine dielectric tensor
   LRPA    =     F    only Hartree local field effects (RPA)
   LNABLA  =     F    use nabla operator in PAW spheres
   LVEL    =     F    velocity operator in full k-point grid
   CSHIFT  =0.1000    complex shift for real part using Kramers Kronig
   OMEGAMAX=  -1.0    maximum frequency
   DEG_THRESHOLD= 0.2000000E-02 threshold for treating states as degnerate
   RTIME   =   -0.100 relaxation time in fs
  (WPLASMAI=    0.000 imaginary part of plasma frequency in eV, 0.658/RTIME)
   DFIELD  = 0.0000000 0.0000000 0.0000000 field for delta impulse in time

  Optional k-point grid parameters
   LKPOINTS_OPT  =     F    use optional k-point grid
   KPOINTS_OPT_MODE=     1    mode for optional k-point grid

 Orbital magnetization related:
   ORBITALMAG=     F  switch on orbital magnetization
   LCHIMAG   =     F  perturbation theory with respect to B field
   DQ        =  0.001000  dq finite difference perturbation B field
   LLRAUG    =     F  two centre corrections for induced B field



--------------------------------------------------------------------------------------------------------


 conjugate gradient relaxation of ions
 charge density and potential will be updated during run
 non-spin polarized calculation
 Variant of blocked Davidson
 Davidson routine will perform the subspace rotation
 perform sub-space diagonalisation
    after iterative eigenvector-optimisation
 modified Broyden-mixing scheme, WC =      100.0
 initial mixing is a Kerker type mixing with AMIX =  0.4000 and BMIX =      1.0000
 Hartree-type preconditioning will be used
 using additional bands           18
 real space projection scheme for non local part
 use partial core corrections
 calculate Harris-corrections to forces   (improved forces if not selfconsistent)
 use gradient corrections 
 use of overlap-Matrix (Vanderbilt PP)
 Gauss-broadening in eV      SIGMA  =   0.05


--------------------------------------------------------------------------------------------------------


  energy-cutoff  :      400.00
  volume of cell :       79.87
      direct lattice vectors                 reciprocal lattice vectors
     5.089439706  0.000000000 -0.000000000     0.196485283  0.113440831  0.000000000
    -2.544719853  4.407584076  0.000000000    -0.000000000  0.226881662 -0.000000000
    -0.000000000  0.000000000  3.560625630     0.000000000  0.000000000  0.280849520

  length of vectors
     5.089439706  5.089439706  3.560625630     0.226881662  0.226881662  0.280849520



 k-points in units of 2pi/SCALE and weight: pymatgen with grid density = 500 / numbe
   0.00000000  0.00000000  0.00000000       0.010
   0.04912132  0.02836021  0.00000000       0.062
   0.09824264  0.05672042  0.00000000       0.031
   0.04912132  0.08508062  0.00000000       0.062
   0.00000000  0.00000000  0.04680825       0.021
   0.04912132  0.02836021  0.04680825       0.125
   0.09824264  0.05672042  0.04680825       0.062
   0.04912132  0.08508062  0.04680825       0.125
   0.00000000  0.00000000  0.09361651       0.021
   0.04912132  0.02836021  0.09361651       0.125
   0.09824264  0.05672042  0.09361651       0.062
   0.04912132  0.08508062  0.09361651       0.125
   0.00000000  0.00000000  0.14042476       0.010
   0.04912132  0.02836021  0.14042476       0.062
   0.09824264  0.05672042  0.14042476       0.031
   0.04912132  0.08508062  0.14042476       0.062

 k-points in reciprocal lattice and weights: pymatgen with grid density = 500 / numbe
   0.00000000  0.00000000  0.00000000       0.010
   0.25000000  0.00000000  0.00000000       0.062
   0.50000000  0.00000000  0.00000000       0.031
   0.25000000  0.25000000  0.00000000       0.062
   0.00000000  0.00000000  0.16666667       0.021
   0.25000000  0.00000000  0.16666667       0.125
   0.50000000  0.00000000  0.16666667       0.062
   0.25000000  0.25000000  0.16666667       0.125
   0.00000000  0.00000000  0.33333333       0.021
   0.25000000  0.00000000  0.33333333       0.125
   0.50000000  0.00000000  0.33333333       0.062
   0.25000000  0.25000000  0.33333333       0.125
   0.00000000  0.00000000  0.50000000       0.010
   0.25000000  0.00000000  0.50000000       0.062
   0.50000000  0.00000000  0.50000000       0.031
   0.25000000  0.25000000  0.50000000       0.062

 position of ions in fractional coordinates (direct lattice) 
   0.00000000  0.00000000  0.00000000
   0.66666679  0.33333314  0.00000000
   0.33333314  0.66666628  0.00000000

 position of ions in cartesian coordinates  (Angst):
   0.00000000  0.00000000  0.00000000
   2.54472098  1.46919384  0.00000000
   0.00000000  2.93838769  0.00000000



--------------------------------------------------------------------------------------------------------


 k-point   1 :   0.0000 0.0000 0.0000  plane waves:    1469
 k-point   2 :   0.2500 0.0000 0.0000  plane waves:    1444
 k-point   3 :   0.5000 0.0000 0.0000  plane waves:    1450
 k-point   4 :   0.2500 0.2500 0.0000  plane waves:    1454
 k-point   5 :   0.0000 0.0000 0.1667  plane waves:    1457
 k-point   6 :   0.2500 0.0000 0.1667  plane waves:    1444
 k-point   7 :   0.5000 0.0000 0.1667  plane waves:    1454
 k-point   8 :   0.2500 0.2500 0.1667  plane waves:    1451
 k-point   9 :   0.0000 0.0000 0.3333  plane waves:    1446
 k-point  10 :   0.2500 0.0000 0.3333  plane waves:    1459
 k-point  11 :   0.5000 0.0000 0.3333  plane waves:    1458
 k-point  12 :   0.2500 0.2500 0.3333  plane waves:    1452
 k-point  13 :   0.0000 0.0000 0.5000  plane waves:    1440
 k-point  14 :   0.2500 0.0000 0.5000  plane waves:    1464
 k-point  15 :   0.5000 0.0000 0.5000  plane waves:    1448
 k-point  16 :   0.2500 0.2500 0.5000  plane waves:    1448

 maximum and minimum number of plane-waves per node :      1469     1440

 maximum number of plane-waves:      1469
 maximum index in each direction: 
   IXMAX=    8   IYMAX=    8   IZMAX=    5
   IXMIN=   -8   IYMIN=   -8   IZMIN=   -6


 serial   3D FFT for wavefunctions
 parallel 3D FFT for charge:
    minimum data exchange during FFTs selected (reduces bandwidth)


 total amount of memory used by VASP MPI-rank0    32096. kBytes
=======================================================================

   base      :      30000. kBytes
   nonlr-proj:        607. kBytes
   fftplans  :        205. kBytes
   grid      :        845. kBytes
   one-center:         46. kBytes
   wavefun   :        393. kBytes

     INWAV:  cpu time      0.0000: real time      0.0002
 Broyden mixing: mesh for mixing (old mesh)
   NGX = 17   NGY = 17   NGZ = 11
  (NGX  = 56   NGY  = 56   NGZ  = 36)
  gives a total of   3179 points

 initial charge density was supplied:
 charge density of overlapping atoms calculated
 number of electron      27.0000000 magnetization 
 keeping initial charge density in first step


--------------------------------------------------------------------------------------------------------


 Maximum index for non-local projection operator         1893
 Maximum index for augmentation-charges          355 (set IRDMAX)


--------------------------------------------------------------------------------------------------------


 First call to EWALD:  gamma=   0.412
 Maximum number of real-space cells 3x 3x 3
 Maximum number of reciprocal cells 3x 3x 2

    FEWALD:  cpu time      0.0007: real time      0.0008


--------------------------------------- Iteration      1(   1)  ---------------------------------------


    POTLOK:  cpu time      0.0071: real time      0.0074
    SETDIJ:  cpu time      0.0024: real time      0.0028
     EDDAV:  cpu time      0.2605: real time      0.2612
       DOS:  cpu time      0.0006: real time      0.0007
    --------------------------------------------
      LOOP:  cpu time      0.2706: real time      0.2720

 eigenvalue-minimisations  :  1024
 total energy-change (2. order) : 0.4558625E+02  (-0.1406045E+04)
 number of electron      27.0000000 magnetization 
 augmentation part       27.0000000 magnetization 

 Free energy of the ion-electron system (eV)
  ---------------------------------------------------
  alpha Z        PSCENC =        50.26817456
  Ewald energy   TEWEN  =     -1772.71715058
  -Hartree energ DENC   =      -884.34547201
  -exchange      EXHF   =         0.00000000
  -V(xc)+E(xc)   XCENC  =        93.30741040
  PAW double counting   =      2288.71403020    -2411.32759722
  entropy T*S    EENTRO =        -0.00338456
  eigenvalues    EBANDS =      -254.26621283
  atomic energy  EATOM  =      2935.95644725
  Solvation  Ediel_sol  =         0.00000000
  ---------------------------------------------------
  free energy    TOTEN  =        45.58624521 eV

  energy without entropy =       45.58962976  energy(sigma->0) =       45.58793748


--------------------------------------------------------------------------------------------------------




--------------------------------------- Iteration      1(   2)  ---------------------------------------


     EDDAV:  cpu time      0.4107: real time      0.4112
       DOS:  cpu time      0.0003: real time      0.0004
    --------------------------------------------
      LOOP:  cpu time      0.4110: real time      0.4116

 eigenvalue-minimisations  :  1376
 total energy-change (2. order) :-0.5472775E+02  (-0.5444483E+02)
 number of electron      27.0000000 magnetization 
 augmentation part       27.0000000 magnetization 

 Free energy of the ion-electron system (eV)
  ---------------------------------------------------
  alpha Z        PSCENC =        50.26817456
  Ewald energy   TEWEN  =     -1772.71715058
  -Hartree energ DENC   =      -884.34547201
  -exchange      EXHF   =         0.00000000
  -V(xc)+E(xc)   XCENC  =        93.30741040
  PAW double counting   =      2288.71403020    -2411.32759722
  entropy T*S    EENTRO =        -0.00375924
  eigenvalues    EBANDS =      -308.99358952
  atomic energy  EATOM  =      2935.95644725
  Solvation  Ediel_sol  =         0.00000000
  ---------------------------------------------------
  free energy    TOTEN  =        -9.14150616 eV

  energy without entropy =       -9.13774693  energy(sigma->0) =       -9.13962654


--------------------------------------------------------------------------------------------------------




--------------------------------------- Iteration      1(   3)  ---------------------------------------


     EDDAV:  cpu time      0.3416: real time      0.3428
       DOS:  cpu time      0.0003: real time      0.0004
    --------------------------------------------
      LOOP:  cpu time      0.3419: real time      0.3432

 eigenvalue-minimisations  :  1216
 total energy-change (2. order) :-0.9206334E+00  (-0.9206270E+00)
 number of electron      27.0000000 magnetization 
 augmentation part       27.0000000 magnetization 

 Free energy of the ion-electron system (eV)
  ---------------------------------------------------
  alpha Z        PSCENC =        50.26817456
  Ewald energy   TEWEN  =     -1772.71715058
  -Hartree energ DENC   =      -884.34547201
  -exchange      EXHF   =         0.00000000
  -V(xc)+E(xc)   XCENC  =        93.30741040
  PAW double counting   =      2288.71403020    -2411.32759722
  entropy T*S    EENTRO =        -0.00382967
  eigenvalues    EBANDS =      -309.91415251
  atomic energy  EATOM  =      2935.95644725
  Solvation  Ediel_sol  =         0.00000000
  ---------------------------------------------------
  free energy    TOTEN  =       -10.06213959 eV

  energy without entropy =      -10.05830992  energy(sigma->0) =      -10.06022476


--------------------------------------------------------------------------------------------------------




--------------------------------------- Iteration      1(   4)  ---------------------------------------


     EDDAV:  cpu time      0.6601: real time      0.6606
       DOS:  cpu time      0.0004: real time      0.0005
    --------------------------------------------
      LOOP:  cpu time      0.6606: real time      0.6612

 eigenvalue-minimisations  :  1728
 total energy-change (2. order) :-0.3579388E-02  (-0.3579387E-02)
 number of electron      27.0000000 magnetization 
 augmentation part       27.0000000 magnetization 

 Free energy of the ion-electron system (eV)
  ---------------------------------------------------
  alpha Z        PSCENC =        50.26817456
  Ewald energy   TEWEN  =     -1772.71715058
  -Hartree energ DENC   =      -884.34547201
  -exchange      EXHF   =         0.00000000
  -V(xc)+E(xc)   XCENC  =        93.30741040
  PAW double counting   =      2288.71403020    -2411.32759722
  entropy T*S    EENTRO =        -0.00382856
  eigenvalues    EBANDS =      -309.91773301
  atomic energy  EATOM  =      2935.95644725
  Solvation  Ediel_sol  =         0.00000000
  ---------------------------------------------------
  free energy    TOTEN  =       -10.06571898 eV

  energy without entropy =      -10.06189042  energy(sigma->0) =      -10.06380470


--------------------------------------------------------------------------------------------------------




--------------------------------------- Iteration      1(   5)  ---------------------------------------


     EDDAV:  cpu time      0.4535: real time      0.4551
       DOS:  cpu time      0.0004: real time      0.0005
    CHARGE:  cpu time      0.0088: real time      0.0090
    MIXING:  cpu time      0.0007: real time      0.0010
    --------------------------------------------
      LOOP:  cpu time      0.4634: real time      0.4656

 eigenvalue-minimisations  :  1344
 total energy-change (2. order) :-0.6773315E-05  (-0.6773354E-05)
 number of electron      27.0000043 magnetization 
 augmentation part       10.8667838 magnetization 

 Broyden mixing:
  rms(total) = 0.46735E+00    rms(broyden)= 0.46734E+00
  rms(prec ) = 0.11142E+01
  weight for this iteration     100.00

 Free energy of the ion-electron system (eV)
  ---------------------------------------------------
  alpha Z        PSCENC =        50.26817456
  Ewald energy   TEWEN  =     -1772.71715058
  -Hartree energ DENC   =      -884.34547201
  -exchange      EXHF   =         0.00000000
  -V(xc)+E(xc)   XCENC  =        93.30741040
  PAW double counting   =      2288.71403020    -2411.32759722
  entropy T*S    EENTRO =        -0.00382856
  eigenvalues    EBANDS =      -309.91773978
  atomic energy  EATOM  =      2935.95644725
  Solvation  Ediel_sol  =         0.00000000
  ---------------------------------------------------
  free energy    TOTEN  =       -10.06572575 eV

  energy without entropy =      -10.06189719  energy(sigma->0) =      -10.06381147


--------------------------------------------------------------------------------------------------------




--------------------------------------- Iteration      1(   6)  ---------------------------------------


    POTLOK:  cpu time      0.0057: real time      0.0059
    SETDIJ:  cpu time      0.0015: real time      0.0015
     EDDAV:  cpu time      0.4904: real time      0.4908
       DOS:  cpu time      0.0003: real time      0.0004
    CHARGE:  cpu time      0.0080: real time      0.0080
    MIXING:  cpu time      0.0004: real time      0.0004
    --------------------------------------------
      LOOP:  cpu time      0.5064: real time      0.5070

 eigenvalue-minimisations  :  1536
 total energy-change (2. order) : 0.6384662E+00  (-0.3315057E+00)
 number of electron      27.0000042 magnetization 
 augmentation part       10.9141944 magnetization 

 Broyden mixing:
  rms(total) = 0.34691E+00    rms(broyden)= 0.34691E+00
  rms(prec ) = 0.44937E+00
  weight for this iteration     100.00

 eigenvalues of (default mixing * dielectric matrix)
  average eigenvalue GAMMA=   1.1587
  1.1587

 Free energy of the ion-electron system (eV)
  ---------------------------------------------------
  alpha Z        PSCENC =        50.26817456
  Ewald energy   TEWEN  =     -1772.71715058
  -Hartree energ DENC   =      -881.76507252
  -exchange      EXHF   =         0.00000000
  -V(xc)+E(xc)   XCENC  =        93.56178479
  PAW double counting   =      2406.00388459    -2527.89116369
  entropy T*S    EENTRO =        -0.00408331
  eigenvalues    EBANDS =      -312.84008064
  atomic energy  EATOM  =      2935.95644725
  Solvation  Ediel_sol  =         0.00000000
  ---------------------------------------------------
  free energy    TOTEN  =        -9.42725956 eV

  energy without entropy =       -9.42317625  energy(sigma->0) =       -9.42521790


--------------------------------------------------------------------------------------------------------




--------------------------------------- Iteration      1(   7)  ---------------------------------------


    POTLOK:  cpu time      0.0053: real time      0.0055
    SETDIJ:  cpu time      0.0014: real time      0.0014
     EDDAV:  cpu time      0.4499: real time      0.4517
       DOS:  cpu time      0.0003: real time      0.0005
    CHARGE:  cpu time      0.0080: real time      0.0080
    MIXING:  cpu time      0.0002: real time      0.0002
    --------------------------------------------
      LOOP:  cpu time      0.4653: real time      0.4674

 eigenvalue-minimisations  :  1472
 total energy-change (2. order) : 0.3988193E-01  (-0.4299443E-02)
 number of electron      27.0000042 magnetization 
 augmentation part       10.9167431 magnetization 

 Broyden mixing:
  rms(total) = 0.19126E+00    rms(broyden)= 0.19126E+00
  rms(prec ) = 0.24671E+00
  weight for this iteration     100.00

 eigenvalues of (default mixing * dielectric matrix)
  average eigenvalue GAMMA=   1.6909
  1.0458  2.3360

 Free energy of the ion-electron system (eV)
  ---------------------------------------------------
  alpha Z        PSCENC =        50.26817456
  Ewald energy   TEWEN  =     -1772.71715058
  -Hartree energ DENC   =      -880.62554465
  -exchange      EXHF   =         0.00000000
  -V(xc)+E(xc)   XCENC  =        93.58324770
  PAW double counting   =      2533.63715251    -2656.15162698
  entropy T*S    EENTRO =        -0.00502622
  eigenvalues    EBANDS =      -313.33305123
  atomic energy  EATOM  =      2935.95644725
  Solvation  Ediel_sol  =         0.00000000
  ---------------------------------------------------
  free energy    TOTEN  =        -9.38737763 eV

  energy without entropy =       -9.38235141  energy(sigma->0) =       -9.38486452


--------------------------------------------------------------------------------------------------------




--------------------------------------- Iteration      1(   8)  ---------------------------------------


    POTLOK:  cpu time      0.0054: real time      0.0056
    SETDIJ:  cpu time      0.0014: real time      0.0014
     EDDAV:  cpu time      0.5410: real time      0.5415
       DOS:  cpu time      0.0003: real time      0.0004
    CHARGE:  cpu time      0.0080: real time      0.0080
    MIXING:  cpu time      0.0002: real time      0.0002
    --------------------------------------------
      LOOP:  cpu time      0.5563: real time      0.5570

 eigenvalue-minimisations  :  1568
 total energy-change (2. order) : 0.1435272E-01  (-0.2837186E-02)
 number of electron      27.0000042 magnetization 
 augmentation part       10.9158430 magnetization 

 Broyden mixing:
  rms(total) = 0.19109E-01    rms(broyden)= 0.19108E-01
  rms(prec ) = 0.38594E-01
  weight for this iteration     100.00

 eigenvalues of (default mixing * dielectric matrix)
  average eigenvalue GAMMA=   1.6100
  1.0243  1.9029  1.9029

 Free energy of the ion-electron system (eV)
  ---------------------------------------------------
  alpha Z        PSCENC =        50.26817456
  Ewald energy   TEWEN  =     -1772.71715058
  -Hartree energ DENC   =      -879.12264427
  -exchange      EXHF   =         0.00000000
  -V(xc)+E(xc)   XCENC  =        93.59152192
  PAW double counting   =      2692.28914259    -2815.60755226
  entropy T*S    EENTRO =        -0.00529253
  eigenvalues    EBANDS =      -314.02567158
  atomic energy  EATOM  =      2935.95644725
  Solvation  Ediel_sol  =         0.00000000
  ---------------------------------------------------
  free energy    TOTEN  =        -9.37302491 eV

  energy without entropy =       -9.36773238  energy(sigma->0) =       -9.37037864


--------------------------------------------------------------------------------------------------------




--------------------------------------- Iteration      1(   9)  ---------------------------------------


    POTLOK:  cpu time      0.0054: real time      0.0055
    SETDIJ:  cpu time      0.0015: real time      0.0015
     EDDAV:  cpu time      0.3660: real time      0.3662
       DOS:  cpu time      0.0004: real time      0.0005
    CHARGE:  cpu time      0.0081: real time      0.0081
    MIXING:  cpu time      0.0002: real time      0.0002
    --------------------------------------------
      LOOP:  cpu time      0.3816: real time      0.3820

 eigenvalue-minimisations  :  1248
 total energy-change (2. order) :-0.7765573E-04  (-0.9033481E-04)
 number of electron      27.0000042 magnetization 
 augmentation part       10.9158707 magnetization 

 Broyden mixing:
  rms(total) = 0.10581E-01    rms(broyden)= 0.10581E-01
  rms(prec ) = 0.19665E-01
  weight for this iteration     100.00

 eigenvalues of (default mixing * dielectric matrix)
  average eigenvalue GAMMA=   1.7618
  2.3527  2.3527  1.0419  1.3001

 Free energy of the ion-electron system (eV)
  ---------------------------------------------------
  alpha Z        PSCENC =        50.26817456
  Ewald energy   TEWEN  =     -1772.71715058
  -Hartree energ DENC   =      -878.96615290
  -exchange      EXHF   =         0.00000000
  -V(xc)+E(xc)   XCENC  =        93.58292879
  PAW double counting   =      2685.89303187    -2809.25645250
  entropy T*S    EENTRO =        -0.00532656
  eigenvalues    EBANDS =      -314.12860249
  atomic energy  EATOM  =      2935.95644725
  Solvation  Ediel_sol  =         0.00000000
  ---------------------------------------------------
  free energy    TOTEN  =        -9.37310256 eV

  energy without entropy =       -9.36777600  energy(sigma->0) =       -9.37043928


--------------------------------------------------------------------------------------------------------




--------------------------------------- Iteration      1(  10)  ---------------------------------------


    POTLOK:  cpu time      0.0053: real time      0.0054
    SETDIJ:  cpu time      0.0014: real time      0.0014
     EDDAV:  cpu time      0.3660: real time      0.3663
       DOS:  cpu time      0.0004: real time      0.0005
    CHARGE:  cpu time      0.0080: real time      0.0080
    MIXING:  cpu time      0.0003: real time      0.0003
    --------------------------------------------
      LOOP:  cpu time      0.3814: real time      0.3820

 eigenvalue-minimisations  :  1248
 total energy-change (2. order) :-0.2031628E-03  (-0.4698803E-04)
 number of electron      27.0000042 magnetization 
 augmentation part       10.9160126 magnetization 

 Broyden mixing:
  rms(total) = 0.35741E-02    rms(broyden)= 0.35741E-02
  rms(prec ) = 0.51887E-02
  weight for this iteration     100.00

 eigenvalues of (default mixing * dielectric matrix)
  average eigenvalue GAMMA=   1.7822
  2.9760  2.2255  0.9849  1.0151  1.7097

 Free energy of the ion-electron system (eV)
  ---------------------------------------------------
  alpha Z        PSCENC =        50.26817456
  Ewald energy   TEWEN  =     -1772.71715058
  -Hartree energ DENC   =      -878.86472315
  -exchange      EXHF   =         0.00000000
  -V(xc)+E(xc)   XCENC  =        93.57867824
  PAW double counting   =      2680.73990450    -2804.15372965
  entropy T*S    EENTRO =        -0.00532586
  eigenvalues    EBANDS =      -314.17558103
  atomic energy  EATOM  =      2935.95644725
  Solvation  Ediel_sol  =         0.00000000
  ---------------------------------------------------
  free energy    TOTEN  =        -9.37330573 eV

  energy without entropy =       -9.36797987  energy(sigma->0) =       -9.37064280


--------------------------------------------------------------------------------------------------------




--------------------------------------- Iteration      1(  11)  ---------------------------------------


    POTLOK:  cpu time      0.0063: real time      0.0064
    SETDIJ:  cpu time      0.0017: real time      0.0017
     EDDAV:  cpu time      0.6345: real time      0.6347
       DOS:  cpu time      0.0004: real time      0.0005
    CHARGE:  cpu time      0.0082: real time      0.0082
    MIXING:  cpu time      0.0003: real time      0.0003
    --------------------------------------------
      LOOP:  cpu time      0.6513: real time      0.6519

 eigenvalue-minimisations  :  1696
 total energy-change (2. order) :-0.1619090E-04  (-0.3503443E-05)
 number of electron      27.0000042 magnetization 
 augmentation part       10.9161781 magnetization 

 Broyden mixing:
  rms(total) = 0.47381E-03    rms(broyden)= 0.47376E-03
  rms(prec ) = 0.10850E-02
  weight for this iteration     100.00

 eigenvalues of (default mixing * dielectric matrix)
  average eigenvalue GAMMA=   1.7875
  3.1861  2.2950  1.0083  1.0083  1.6136  1.6136

 Free energy of the ion-electron system (eV)
  ---------------------------------------------------
  alpha Z        PSCENC =        50.26817456
  Ewald energy   TEWEN  =     -1772.71715058
  -Hartree energ DENC   =      -878.87686455
  -exchange      EXHF   =         0.00000000
  -V(xc)+E(xc)   XCENC  =        93.57952620
  PAW double counting   =      2678.64347054    -2802.05616328
  entropy T*S    EENTRO =        -0.00532859
  eigenvalues    EBANDS =      -314.16543348
  atomic energy  EATOM  =      2935.95644725
  Solvation  Ediel_sol  =         0.00000000
  ---------------------------------------------------
  free energy    TOTEN  =        -9.37332192 eV

  energy without entropy =       -9.36799333  energy(sigma->0) =       -9.37065763


--------------------------------------------------------------------------------------------------------




--------------------------------------- Iteration      1(  12)  ---------------------------------------


    POTLOK:  cpu time      0.0055: real time      0.0057
    SETDIJ:  cpu time      0.0015: real time      0.0015
     EDDAV:  cpu time      0.3364: real time      0.3368
       DOS:  cpu time      0.0003: real time      0.0004
    --------------------------------------------
      LOOP:  cpu time      0.3437: real time      0.3444

 eigenvalue-minimisations  :  1184
 total energy-change (2. order) :-0.2674282E-05  (-0.4546716E-06)
 number of electron      27.0000042 magnetization 
 augmentation part       10.9161781 magnetization 

 Free energy of the ion-electron system (eV)
  ---------------------------------------------------
  alpha Z        PSCENC =        50.26817456
  Ewald energy   TEWEN  =     -1772.71715058
  -Hartree energ DENC   =      -878.88713763
  -exchange      EXHF   =         0.00000000
  -V(xc)+E(xc)   XCENC  =        93.57960157
  PAW double counting   =      2678.12678205    -2801.53540302
  entropy T*S    EENTRO =        -0.00532896
  eigenvalues    EBANDS =      -314.15930982
  atomic energy  EATOM  =      2935.95644725
  Solvation  Ediel_sol  =         0.00000000
  ---------------------------------------------------
  free energy    TOTEN  =        -9.37332459 eV

  energy without entropy =       -9.36799563  energy(sigma->0) =       -9.37066011


--------------------------------------------------------------------------------------------------------




 average (electrostatic) potential at core
  the test charge radii are     0.9254  1.0894  0.9698
  (the norm of the test charge is              1.0000)
       1 -46.8200       2-103.3814       3 -87.3106



 E-fermi :   4.0549     XC(G=0):  -8.6589     alpha+bet : -9.2715

 Fermi energy:         4.0549163216

 k-point     1 :       0.0000    0.0000    0.0000
  band No.  band energies     occupation 
      1     -21.0238      2.00000
      2     -21.0214      2.00000
      3     -21.0214      2.00000
      4     -17.8159      2.00000
      5     -17.8159      2.00000
      6     -17.7007      2.00000
      7     -17.6746      2.00000
      8     -17.6746      2.00000
      9      -8.6238      2.00000
     10      -2.7602      2.00000
     11       0.5849      2.00000
     12       0.5849      2.00000
     13       3.4564      2.00000
     14       4.2041      0.00002
     15       4.2041      0.00002
     16       6.6694      0.00000
     17       8.7389      0.00000
     18      10.2460      0.00000
     19      13.0650      0.00000
     20      13.0650      0.00000
     21      15.0222      0.00000
     22      15.0612      0.00000
     23      15.0612      0.00000
     24      16.4119      0.00000
     25      16.4119      0.00000
     26      16.9534      0.00000
     27      16.9534      0.00000
     28      17.4750      0.00000
     29      17.8714      0.00000
     30      17.8714      0.00000
     31      18.2443      0.00000
     32      19.9039      0.00000

 k-point     2 :       0.2500    0.0000    0.0000
  band No.  band energies     occupation 
      1     -21.0236      2.00000
      2     -21.0218      2.00000
      3     -21.0209      2.00000
      4     -17.8194      2.00000
      5     -17.8159      2.00000
      6     -17.6983      2.00000
      7     -17.6747      2.00000
      8     -17.6747      2.00000
      9      -8.4688      2.00000
     10      -3.4707      2.00000
     11       0.2640      2.00000
     12       1.1463      2.00000
     13       3.5584      2.00000
     14       3.9710      1.98242
     15       5.1456      0.00000
     16       8.2679      0.00000
     17       8.4193      0.00000
     18      10.6522      0.00000
     19      11.2125      0.00000
     20      12.0383      0.00000
     21      14.1795      0.00000
     22      14.4867      0.00000
     23      14.4909      0.00000
     24      15.5825      0.00000
     25      15.7104      0.00000
     26      16.8693      0.00000
     27      16.9598      0.00000
     28      18.1980      0.00000
     29      18.2909      0.00000
     30      19.3036      0.00000
     31      19.6271      0.00000
     32      19.9972      0.00000

 k-point     3 :       0.5000    0.0000    0.0000
  band No.  band energies     occupation 
      1     -21.0237      2.00000
      2     -21.0225      2.00000
      3     -21.0202      2.00000
      4     -17.8229      2.00000
      5     -17.8159      2.00000
      6     -17.6960      2.00000
      7     -17.6748      2.00000
      8     -17.6747      2.00000
      9      -8.2918      2.00000
     10      -4.0391      2.00000
     11       0.0139      2.00000
     12       1.1875      2.00000
     13       3.6700      2.00000
     14       4.8924      0.00000
     15       6.3279      0.00000
     16       8.1095      0.00000
     17       8.2069      0.00000
     18      10.5929      0.00000
     19      10.6478      0.00000
     20      12.5027      0.00000
     21      13.4794      0.00000
     22      13.7252      0.00000
     23      13.9838      0.00000
     24      14.1431      0.00000
     25      14.7602      0.00000
     26      16.8664      0.00000
     27      17.3004      0.00000
     28      18.5069      0.00000
     29      19.1783      0.00000
     30      20.0791      0.00000
     31      20.2144      0.00000
     32      20.2462      0.00000

 k-point     4 :       0.2500    0.2500    0.0000
  band No.  band energies     occupation 
      1     -21.0237      2.00000
      2     -21.0219      2.00000
      3     -21.0209      2.00000
      4     -17.8213      2.00000
      5     -17.8175      2.00000
      6     -17.6960      2.00000
      7     -17.6750      2.00000
      8     -17.6746      2.00000
      9      -8.2939      2.00000
     10      -3.9905      2.00000
     11      -0.5108      2.00000
     12       2.2540      2.00000
     13       3.6697      2.00000
     14       4.0639      0.79834
     15       6.1239      0.00000
     16       8.1192      0.00000
     17       8.5491      0.00000
     18      10.4521      0.00000
     19      11.4966      0.00000
     20      12.4396      0.00000
     21      12.8613      0.00000
     22      13.2123      0.00000
     23      14.2599      0.00000
     24      14.6802      0.00000
     25      15.7886      0.00000
     26      16.1522      0.00000
     27      16.9794      0.00000
     28      17.4896      0.00000
     29      18.6664      0.00000
     30      19.4948      0.00000
     31      19.4952      0.00000
     32      21.3161      0.00000

 k-point     5 :       0.0000    0.0000    0.1667
  band No.  band energies     occupation 
      1     -21.0308      2.00000
      2     -21.0206      2.00000
      3     -21.0206      2.00000
      4     -17.8153      2.00000
      5     -17.8153      2.00000
      6     -17.6810      2.00000
      7     -17.6809      2.00000
      8     -17.6809      2.00000
      9      -8.5124      2.00000
     10      -2.5257      2.00000
     11       0.7063      2.00000
     12       0.7063      2.00000
     13       2.4991      2.00000
     14       4.4355      0.00000
     15       4.4356      0.00000
     16       6.5785      0.00000
     17       7.4083      0.00000
     18      12.0698      0.00000
     19      12.0698      0.00000
     20      12.2390      0.00000
     21      13.4863      0.00000
     22      13.4864      0.00000
     23      15.1688      0.00000
     24      15.2060      0.00000
     25      15.2061      0.00000
     26      16.7624      0.00000
     27      18.0205      0.00000
     28      18.0205      0.00000
     29      19.7379      0.00000
     30      20.1180      0.00000
     31      20.2964      0.00000
     32      20.2965      0.00000

 k-point     6 :       0.2500    0.0000    0.1667
  band No.  band energies     occupation 
      1     -21.0308      2.00000
      2     -21.0210      2.00000
      3     -21.0201      2.00000
      4     -17.8187      2.00000
      5     -17.8153      2.00000
      6     -17.6810      2.00000
      7     -17.6809      2.00000
      8     -17.6785      2.00000
      9      -8.3651      2.00000
     10      -3.2342      2.00000
     11       0.3996      2.00000
     12       1.2816      2.00000
     13       2.6768      2.00000
     14       4.2429      0.00000
     15       5.3524      0.00000
     16       6.3374      0.00000
     17       8.7193      0.00000
     18      10.9383      0.00000
     19      11.3026      0.00000
     20      12.2288      0.00000
     21      13.1307      0.00000
     22      13.2301      0.00000
     23      14.8365      0.00000
     24      15.3012      0.00000
     25      16.1007      0.00000
     26      17.0094      0.00000
     27      17.5324      0.00000
     28      18.0624      0.00000
     29      19.0933      0.00000
     30      19.7025      0.00000
     31      20.4037      0.00000
     32      20.6554      0.00000

 k-point     7 :       0.5000    0.0000    0.1667
  band No.  band energies     occupation 
      1     -21.0309      2.00000
      2     -21.0216      2.00000
      3     -21.0196      2.00000
      4     -17.8222      2.00000
      5     -17.8153      2.00000
      6     -17.6811      2.00000
      7     -17.6810      2.00000
      8     -17.6761      2.00000
      9      -8.1984      2.00000
     10      -3.7943      2.00000
     11       0.1575      2.00000
     12       1.3759      2.00000
     13       2.8919      2.00000
     14       4.8970      0.00000
     15       6.1975      0.00000
     16       6.4976      0.00000
     17       8.4059      0.00000
     18      10.5712      0.00000
     19      10.7767      0.00000
     20      11.8858      0.00000
     21      12.7236      0.00000
     22      13.9359      0.00000
     23      14.6510      0.00000
     24      15.2494      0.00000
     25      16.4224      0.00000
     26      17.0079      0.00000
     27      17.5875      0.00000
     28      17.7723      0.00000
     29      18.9177      0.00000
     30      19.0995      0.00000
     31      19.7988      0.00000
     32      20.0285      0.00000

 k-point     8 :       0.2500    0.2500    0.1667
  band No.  band energies     occupation 
      1     -21.0309      2.00000
      2     -21.0211      2.00000
      3     -21.0200      2.00000
      4     -17.8206      2.00000
      5     -17.8169      2.00000
      6     -17.6813      2.00000
      7     -17.6809      2.00000
      8     -17.6762      2.00000
      9      -8.2003      2.00000
     10      -3.7463      2.00000
     11      -0.3365      2.00000
     12       2.3316      2.00000
     13       2.8859      2.00000
     14       4.3563      0.00000
     15       5.8264      0.00000
     16       6.4653      0.00000
     17       8.6424      0.00000
     18      10.5972      0.00000
     19      11.3747      0.00000
     20      11.8025      0.00000
     21      13.2948      0.00000
     22      14.2027      0.00000
     23      14.2572      0.00000
     24      15.1467      0.00000
     25      15.4675      0.00000
     26      16.1672      0.00000
     27      17.2339      0.00000
     28      18.0393      0.00000
     29      18.4561      0.00000
     30      19.6729      0.00000
     31      20.4813      0.00000
     32      20.8446      0.00000

 k-point     9 :       0.0000    0.0000    0.3333
  band No.  band energies     occupation 
      1     -21.0451      2.00000
      2     -21.0190      2.00000
      3     -21.0190      2.00000
      4     -17.8141      2.00000
      5     -17.8141      2.00000
      6     -17.6933      2.00000
      7     -17.6933      2.00000
      8     -17.6415      2.00000
      9      -8.2705      2.00000
     10      -1.8878      2.00000
     11       0.9579      2.00000
     12       0.9699      2.00000
     13       0.9699      2.00000
     14       4.6345      0.00000
     15       5.0160      0.00000
     16       5.0161      0.00000
     17       8.3174      0.00000
     18      10.5642      0.00000
     19      10.5642      0.00000
     20      11.1910      0.00000
     21      11.1910      0.00000
     22      12.1691      0.00000
     23      15.4318      0.00000
     24      15.4319      0.00000
     25      16.2341      0.00000
     26      18.4531      0.00000
     27      18.4531      0.00000
     28      19.2173      0.00000
     29      20.6415      0.00000
     30      21.2813      0.00000
     31      22.2290      0.00000
     32      22.2290      0.00000

 k-point    10 :       0.2500    0.0000    0.3333
  band No.  band energies     occupation 
      1     -21.0452      2.00000
      2     -21.0195      2.00000
      3     -21.0186      2.00000
      4     -17.8174      2.00000
      5     -17.8141      2.00000
      6     -17.6935      2.00000
      7     -17.6934      2.00000
      8     -17.6389      2.00000
      9      -8.1415      2.00000
     10      -2.6168      2.00000
     11       0.6977      2.00000
     12       1.0861      2.00000
     13       1.8085      2.00000
     14       4.0574      0.94295
     15       4.9417      0.00000
     16       5.8784      0.00000
     17       8.3163      0.00000
     18       9.5536      0.00000
     19      10.5733      0.00000
     20      12.3871      0.00000
     21      12.8527      0.00000
     22      12.9225      0.00000
     23      13.8782      0.00000
     24      14.8415      0.00000
     25      16.4273      0.00000
     26      17.6493      0.00000
     27      18.0921      0.00000
     28      19.4013      0.00000
     29      20.1858      0.00000
     30      20.4563      0.00000
     31      20.8974      0.00000
     32      22.4867      0.00000

 k-point    11 :       0.5000    0.0000    0.3333
  band No.  band energies     occupation 
      1     -21.0452      2.00000
      2     -21.0199      2.00000
      3     -21.0181      2.00000
      4     -17.8209      2.00000
      5     -17.8141      2.00000
      6     -17.6937      2.00000
      7     -17.6935      2.00000
      8     -17.6364      2.00000
      9      -7.9982      2.00000
     10      -3.1701      2.00000
     11       0.4765      2.00000
     12       1.4683      2.00000
     13       2.0463      2.00000
     14       3.3664      2.00000
     15       5.7431      0.00000
     16       6.9390      0.00000
     17       7.7346      0.00000
     18       9.2053      0.00000
     19      10.4222      0.00000
     20      11.6786      0.00000
     21      13.0112      0.00000
     22      14.5681      0.00000
     23      15.5764      0.00000
     24      15.7070      0.00000
     25      15.9683      0.00000
     26      17.0830      0.00000
     27      17.6766      0.00000
     28      17.7833      0.00000
     29      18.8707      0.00000
     30      19.5446      0.00000
     31      19.8690      0.00000
     32      20.5875      0.00000

 k-point    12 :       0.2500    0.2500    0.3333
  band No.  band energies     occupation 
      1     -21.0452      2.00000
      2     -21.0194      2.00000
      3     -21.0185      2.00000
      4     -17.8193      2.00000
      5     -17.8157      2.00000
      6     -17.6938      2.00000
      7     -17.6934      2.00000
      8     -17.6364      2.00000
      9      -7.9995      2.00000
     10      -3.1223      2.00000
     11       0.0607      2.00000
     12       1.5396      2.00000
     13       2.6626      2.00000
     14       3.5972      2.00000
     15       4.9787      0.00000
     16       6.4704      0.00000
     17       7.9597      0.00000
     18      10.0948      0.00000
     19      10.5921      0.00000
     20      11.4703      0.00000
     21      13.1873      0.00000
     22      14.2999      0.00000
     23      14.6586      0.00000
     24      15.0305      0.00000
     25      15.9745      0.00000
     26      17.6047      0.00000
     27      18.0409      0.00000
     28      18.1506      0.00000
     29      19.1517      0.00000
     30      19.8611      0.00000
     31      20.1572      0.00000
     32      21.1848      0.00000

 k-point    13 :       0.0000    0.0000    0.5000
  band No.  band energies     occupation 
      1     -21.0523      2.00000
      2     -21.0182      2.00000
      3     -21.0182      2.00000
      4     -17.8134      2.00000
      5     -17.8134      2.00000
      6     -17.6995      2.00000
      7     -17.6995      2.00000
      8     -17.6217      2.00000
      9      -8.1382      2.00000
     10      -1.3261      2.00000
     11       0.1060      2.00000
     12       1.1143      2.00000
     13       1.1143      2.00000
     14       3.7687      2.00000
     15       5.4124      0.00000
     16       5.4124      0.00000
     17       9.4269      0.00000
     18       9.8841      0.00000
     19       9.8841      0.00000
     20      10.2686      0.00000
     21      10.2686      0.00000
     22      10.6302      0.00000
     23      15.6013      0.00000
     24      15.6013      0.00000
     25      18.6761      0.00000
     26      18.6761      0.00000
     27      19.2189      0.00000
     28      19.3927      0.00000
     29      20.9815      0.00000
     30      21.9567      0.00000
     31      21.9567      0.00000
     32      22.4526      0.00000

 k-point    14 :       0.2500    0.0000    0.5000
  band No.  band energies     occupation 
      1     -21.0523      2.00000
      2     -21.0187      2.00000
      3     -21.0179      2.00000
      4     -17.8168      2.00000
      5     -17.8135      2.00000
      6     -17.6998      2.00000
      7     -17.6997      2.00000
      8     -17.6191      2.00000
      9      -8.0201      2.00000
     10      -2.1550      2.00000
     11       0.4373      2.00000
     12       0.8638      2.00000
     13       1.9655      2.00000
     14       3.1481      2.00000
     15       5.4280      0.00000
     16       6.2630      0.00000
     17       7.5630      0.00000
     18       8.7056      0.00000
     19      10.7726      0.00000
     20      12.0852      0.00000
     21      12.3414      0.00000
     22      13.2614      0.00000
     23      13.5750      0.00000
     24      13.8215      0.00000
     25      17.1470      0.00000
     26      17.9580      0.00000
     27      19.0944      0.00000
     28      19.5175      0.00000
     29      20.7266      0.00000
     30      21.0916      0.00000
     31      21.2985      0.00000
     32      23.2618      0.00000

 k-point    15 :       0.5000    0.0000    0.5000
  band No.  band energies     occupation 
      1     -21.0524      2.00000
      2     -21.0190      2.00000
      3     -21.0172      2.00000
      4     -17.8202      2.00000
      5     -17.8135      2.00000
      6     -17.7000      2.00000
      7     -17.6998      2.00000
      8     -17.6164      2.00000
      9      -7.8902      2.00000
     10      -2.7326      2.00000
     11       0.6563      2.00000
     12       0.9930      2.00000
     13       2.3030      2.00000
     14       2.3287      2.00000
     15       6.1871      0.00000
     16       6.8095      0.00000
     17       7.3550      0.00000
     18       8.2559      0.00000
     19      10.7814      0.00000
     20      12.0330      0.00000
     21      12.6038      0.00000
     22      14.3750      0.00000
     23      14.9395      0.00000
     24      15.7876      0.00000
     25      16.1897      0.00000
     26      16.6881      0.00000
     27      17.9644      0.00000
     28      18.1588      0.00000
     29      18.4265      0.00000
     30      19.3224      0.00000
     31      21.8237      0.00000
     32      22.1198      0.00000

 k-point    16 :       0.2500    0.2500    0.5000
  band No.  band energies     occupation 
      1     -21.0523      2.00000
      2     -21.0186      2.00000
      3     -21.0177      2.00000
      4     -17.8186      2.00000
      5     -17.8151      2.00000
      6     -17.7001      2.00000
      7     -17.6996      2.00000
      8     -17.6164      2.00000
      9      -7.8912      2.00000
     10      -2.6829      2.00000
     11       0.2930      2.00000
     12       0.9702      2.00000
     13       2.4024      2.00000
     14       2.9887      2.00000
     15       5.4892      0.00000
     16       6.2557      0.00000
     17       7.5347      0.00000
     18       9.7608      0.00000
     19      10.5950      0.00000
     20      10.9623      0.00000
     21      13.2372      0.00000
     22      13.9369      0.00000
     23      14.9536      0.00000
     24      15.3614      0.00000
     25      15.7351      0.00000
     26      16.7274      0.00000
     27      18.6694      0.00000
     28      18.9957      0.00000
     29      19.5531      0.00000
     30      20.0171      0.00000
     31      21.1164      0.00000
     32      21.2214      0.00000


--------------------------------------------------------------------------------------------------------


 soft charge-density along one line, spin component           1
         0         1         2         3         4         5         6         7         8         9
 total charge-density along one line

 pseudopotential strength for first ion, spin component:           1
-25.154   0.000   0.000   2.467  -0.000  -0.000   0.000   0.000
[...]
     23      14.2514      0.00000
     24      14.8857      0.00000
     25      15.3647      0.00000
     26      16.5995      0.00000
     27      16.9063      0.00000
     28      17.4962      0.00000
     29      18.7773      0.00000
     30      18.8695      0.00000
     31      19.8604      0.00000
     32      20.1504      0.00000

 k-point     7 :       0.5000    0.0000    0.1667
  band No.  band energies     occupation 
      1     -21.3078      2.00000
      2     -21.3038      2.00000
      3     -21.3018      2.00000
      4     -18.1104      2.00000
      5     -18.1035      2.00000
      6     -17.9625      2.00000
      7     -17.9624      2.00000
      8     -17.9454      2.00000
      9      -8.4619      2.00000
     10      -3.9803      2.00000
     11      -0.0896      2.00000
     12       1.1648      2.00000
     13       2.5048      2.00000
     14       4.6370      0.00000
     15       5.7104      0.00000
     16       6.2839      0.00000
     17       8.1491      0.00000
     18      10.2482      0.00000
     19      10.3000      0.00000
     20      11.4736      0.00000
     21      12.1685      0.00000
     22      13.6827      0.00000
     23      14.2271      0.00000
     24      14.3447      0.00000
     25      16.1182      0.00000
     26      16.5497      0.00000
     27      16.9623      0.00000
     28      17.2822      0.00000
     29      18.3188      0.00000
     30      18.6804      0.00000
     31      19.1392      0.00000
     32      19.4828      0.00000

 k-point     8 :       0.2500    0.2500    0.1667
  band No.  band energies     occupation 
      1     -21.3078      2.00000
      2     -21.3034      2.00000
      3     -21.3023      2.00000
      4     -18.1088      2.00000
      5     -18.1051      2.00000
      6     -17.9626      2.00000
      7     -17.9622      2.00000
      8     -17.9454      2.00000
      9      -8.4637      2.00000
     10      -3.9315      2.00000
     11      -0.5740      2.00000
     12       2.0889      2.00000
     13       2.5147      2.00000
     14       4.1443      0.00000
     15       5.3878      0.00000
     16       6.1583      0.00000
     17       8.3850      0.00000
     18      10.1315      0.00000
     19      10.9254      0.00000
     20      11.4218      0.00000
     21      13.0080      0.00000
     22      13.6681      0.00000
     23      13.8896      0.00000
     24      14.5029      0.00000
     25      14.9394      0.00000
     26      15.5334      0.00000
     27      16.8790      0.00000
     28      17.4029      0.00000
     29      18.0637      0.00000
     30      19.1175      0.00000
     31      19.9058      0.00000
     32      20.2006      0.00000

 k-point     9 :       0.0000    0.0000    0.3333
  band No.  band energies     occupation 
      1     -21.3177      2.00000
      2     -21.3018      2.00000
      3     -21.3018      2.00000
      4     -18.1026      2.00000
      5     -18.1026      2.00000
      6     -17.9707      2.00000
      7     -17.9707      2.00000
      8     -17.9228      2.00000
      9      -8.5808      2.00000
     10      -2.1588      2.00000
     11       0.6626      2.00000
     12       0.6626      2.00000
     13       0.7149      2.00000
     14       4.4144      0.00000
     15       4.7226      0.00000
     16       4.7226      0.00000
     17       8.1060      0.00000
     18      10.3394      0.00000
     19      10.3394      0.00000
     20      10.9158      0.00000
     21      10.9158      0.00000
     22      11.6405      0.00000
     23      15.0559      0.00000
     24      15.0559      0.00000
     25      15.2522      0.00000
     26      18.1410      0.00000
     27      18.1410      0.00000
     28      18.5892      0.00000
     29      20.3514      0.00000
     30      20.4392      0.00000
     31      21.7578      0.00000
     32      21.7578      0.00000

 k-point    10 :       0.2500    0.0000    0.3333
  band No.  band energies     occupation 
      1     -21.3177      2.00000
      2     -21.3023      2.00000
      3     -21.3013      2.00000
      4     -18.1060      2.00000
      5     -18.1027      2.00000
      6     -17.9709      2.00000
      7     -17.9708      2.00000
      8     -17.9202      2.00000
      9      -8.4514      2.00000
     10      -2.9046      2.00000
     11       0.3904      2.00000
     12       0.8688      2.00000
     13       1.5039      2.00000
     14       3.8383      1.24455
     15       4.6517      0.00000
     16       5.5896      0.00000
     17       8.0291      0.00000
     18       9.2936      0.00000
     19      10.3133      0.00000
     20      12.0302      0.00000
     21      12.5616      0.00000
     22      12.6169      0.00000
     23      13.5378      0.00000
     24      14.3804      0.00000
     25      15.7073      0.00000
     26      17.3100      0.00000
     27      17.5464      0.00000
     28      18.9811      0.00000
     29      19.7606      0.00000
     30      19.9231      0.00000
     31      20.2074      0.00000
     32      21.7887      0.00000

 k-point    11 :       0.5000    0.0000    0.3333
  band No.  band energies     occupation 
      1     -21.3178      2.00000
      2     -21.3027      2.00000
      3     -21.3008      2.00000
      4     -18.1095      2.00000
      5     -18.1027      2.00000
      6     -17.9710      2.00000
      7     -17.9709      2.00000
      8     -17.9177      2.00000
      9      -8.3076      2.00000
     10      -3.4648      2.00000
     11       0.1691      2.00000
     12       1.2595      2.00000
     13       1.7590      2.00000
     14       3.1409      2.00000
     15       5.4501      0.00000
     16       6.6642      0.00000
     17       7.4270      0.00000
     18       8.9252      0.00000
     19      10.0629      0.00000
     20      11.3731      0.00000
     21      12.6388      0.00000
     22      14.2922      0.00000
     23      15.3218      0.00000
     24      15.3633      0.00000
     25      15.5972      0.00000
     26      16.8206      0.00000
     27      17.0059      0.00000
     28      17.4066      0.00000
     29      18.0461      0.00000
     30      18.9770      0.00000
     31      19.3602      0.00000
     32      20.0686      0.00000

 k-point    12 :       0.2500    0.2500    0.3333
  band No.  band energies     occupation 
      1     -21.3177      2.00000
      2     -21.3022      2.00000
      3     -21.3012      2.00000
      4     -18.1079      2.00000
      5     -18.1043      2.00000
      6     -17.9712      2.00000
      7     -17.9707      2.00000
      8     -17.9177      2.00000
      9      -8.3089      2.00000
     10      -3.4163      2.00000
     11      -0.2459      2.00000
     12       1.3327      2.00000
     13       2.4020      2.00000
     14       3.3341      2.00000
     15       4.6930      0.00000
     16       6.2162      0.00000
     17       7.6031      0.00000
     18       9.7880      0.00000
     19      10.2672      0.00000
     20      11.2323      0.00000
     21      12.8497      0.00000
     22      13.9841      0.00000
     23      14.2882      0.00000
     24      14.7430      0.00000
     25      15.4995      0.00000
     26      17.1188      0.00000
     27      17.6551      0.00000
     28      17.7517      0.00000
     29      18.6062      0.00000
     30      18.7182      0.00000
     31      19.7951      0.00000
     32      20.7037      0.00000

 k-point    13 :       0.0000    0.0000    0.5000
  band No.  band energies     occupation 
      1     -21.3226      2.00000
      2     -21.3012      2.00000
      3     -21.3012      2.00000
      4     -18.1022      2.00000
      5     -18.1022      2.00000
      6     -17.9749      2.00000
      7     -17.9749      2.00000
      8     -17.9091      2.00000
      9      -8.4793      2.00000
     10      -1.7225      2.00000
     11      -0.0111      2.00000
     12       0.7763      2.00000
     13       0.7763      2.00000
     14       3.6889      1.99999
     15       5.0433      0.00000
     16       5.0433      0.00000
     17       9.2220      0.00000
     18       9.7219      0.00000
     19       9.7219      0.00000
     20      10.1039      0.00000
     21      10.1039      0.00000
     22      10.1420      0.00000
     23      15.2113      0.00000
     24      15.2113      0.00000
     25      18.2914      0.00000
     26      18.3277      0.00000
     27      18.3278      0.00000
     28      18.5332      0.00000
     29      20.6273      0.00000
     30      21.4966      0.00000
     31      21.7260      0.00000
     32      21.7260      0.00000

 k-point    14 :       0.2500    0.0000    0.5000
  band No.  band energies     occupation 
      1     -21.3227      2.00000
      2     -21.3017      2.00000
      3     -21.3009      2.00000
      4     -18.1056      2.00000
      5     -18.1023      2.00000
      6     -17.9751      2.00000
      7     -17.9750      2.00000
      8     -17.9064      2.00000
      9      -8.3586      2.00000
     10      -2.5454      2.00000
     11       0.3199      2.00000
     12       0.5220      2.00000
     13       1.6143      2.00000
     14       3.0699      2.00000
     15       5.0530      0.00000
     16       5.9006      0.00000
     17       7.3645      0.00000
     18       8.5380      0.00000
     19      10.5880      0.00000
     20      11.6125      0.00000
     21      12.1847      0.00000
     22      12.8701      0.00000
     23      13.4035      0.00000
     24      13.4493      0.00000
     25      16.7967      0.00000
     26      17.5829      0.00000
     27      18.5493      0.00000
     28      19.3625      0.00000
     29      20.0417      0.00000
     30      20.1111      0.00000
     31      20.6281      0.00000
     32      22.5716      0.00000

 k-point    15 :       0.5000    0.0000    0.5000
  band No.  band energies     occupation 
      1     -21.3228      2.00000
      2     -21.3020      2.00000
      3     -21.3002      2.00000
      4     -18.1090      2.00000
      5     -18.1023      2.00000
      6     -17.9753      2.00000
      7     -17.9751      2.00000
      8     -17.9038      2.00000
      9      -8.2256      2.00000
     10      -3.1239      2.00000
     11       0.3120      2.00000
     12       0.8695      2.00000
     13       1.9394      2.00000
     14       2.2568      2.00000
     15       5.8237      0.00000
     16       6.6067      0.00000
     17       7.0015      0.00000
     18       8.0866      0.00000
     19      10.3685      0.00000
     20      11.6593      0.00000
     21      12.3559      0.00000
     22      14.2149      0.00000
     23      14.7978      0.00000
     24      15.3713      0.00000
     25      16.0283      0.00000
     26      16.2097      0.00000
     27      17.5864      0.00000
     28      17.8893      0.00000
     29      18.2411      0.00000
     30      18.7844      0.00000
     31      20.7802      0.00000
     32      21.1579      0.00000

 k-point    16 :       0.2500    0.2500    0.5000
  band No.  band energies     occupation 
      1     -21.3227      2.00000
      2     -21.3017      2.00000
      3     -21.3007      2.00000
      4     -18.1075      2.00000
      5     -18.1038      2.00000
      6     -17.9754      2.00000
      7     -17.9750      2.00000
      8     -17.9038      2.00000
      9      -8.2267      2.00000
     10      -3.0743      2.00000
     11      -0.0585      2.00000
     12       0.8465      2.00000
     13       2.3350      2.00000
     14       2.6424      2.00000
     15       5.1152      0.00000
     16       6.0522      0.00000
     17       7.1742      0.00000
     18       9.5625      0.00000
     19      10.1934      0.00000
     20      10.8078      0.00000
     21      12.8627      0.00000
     22      13.7424      0.00000
     23      14.5396      0.00000
     24      15.1422      0.00000
     25      15.3327      0.00000
     26      16.5733      0.00000
     27      18.2497      0.00000
     28      18.6195      0.00000
     29      19.3656      0.00000
     30      19.4088      0.00000
     31      20.1337      0.00000
     32      20.8752      0.00000


--------------------------------------------------------------------------------------------------------


 soft charge-density along one line, spin component           1
         0         1         2         3         4         5         6         7         8         9
 total charge-density along one line

 pseudopotential strength for first ion, spin component:           1
-25.365   0.000   0.000   2.570  -0.000  -0.000   0.000   0.000
  0.000 -25.387   0.000  -0.000   2.579  -0.000  -0.000  -0.000
  0.000   0.000 -25.365  -0.000  -0.000   2.570  -0.000  -0.000
  2.570  -0.000  -0.000   6.567  -0.000  -0.000  -0.000   0.000
 -0.000   2.579  -0.000  -0.000   6.564  -0.000   0.000  -0.000
 -0.000  -0.000   2.570  -0.000  -0.000   6.567   0.000  -0.000
  0.000  -0.000  -0.000  -0.000   0.000   0.000   1.432   7.011
  0.000  -0.000  -0.000   0.000  -0.000  -0.000   7.011  34.072
 total augmentation occupancy for first ion, spin component:           1
  2.001   0.000   0.000  -0.001   0.000   0.000   0.000   0.000
  0.000   2.001   0.000   0.000   0.002   0.000   0.000   0.000
  0.000   0.000   2.001  -0.000   0.000  -0.001   0.000   0.000
 -0.001   0.000   0.000   0.026  -0.000  -0.000  -0.000   0.000
  0.000   0.002   0.000  -0.000   0.008   0.000   0.000   0.000
 -0.000   0.000  -0.001  -0.000   0.000   0.026  -0.000   0.000
  0.000   0.000   0.000  -0.000   0.000   0.000   0.641  -0.001
  0.000   0.000   0.000   0.000   0.000  -0.000  -0.001   0.000


------------------------ aborting loop because EDIFF is reached ----------------------------------------


    CHARGE:  cpu time      0.0082: real time      0.0082
    FORLOC:  cpu time      0.0002: real time      0.0002
    FORNL :  cpu time      0.0317: real time      0.0317
    STRESS:  cpu time      0.0946: real time      0.0946
    FORCOR:  cpu time      0.0046: real time      0.0046
    FORHAR:  cpu time      0.0013: real time      0.0013
    MIXING:  cpu time      0.0003: real time      0.0003
    OFIELD:  cpu time      0.0000: real time      0.0000

  FORCE on cell =-STRESS in cart. coord.  units (eV):
  Direction    XX          YY          ZZ          XY          YZ          ZX
  --------------------------------------------------------------------------------------
  Alpha Z    48.60075    48.60075    48.60075
  Ewald    -436.77803  -436.77862  -870.05633    -0.00006    -0.00000     0.00000
  Hartree   384.48932   384.48933   129.93262    -0.00003    -0.00000    -0.00000
  E(xc)    -128.96031  -128.96047  -129.41799    -0.00013     0.00000     0.00000
  Local    -406.41177  -406.41143   263.46159    -0.00002    -0.00000    -0.00000
  n-local   121.06379   120.36598   122.88291     1.35416     0.18498     0.23654
  augment   202.68153   202.68179   201.75545     0.00021     0.00000     0.00000
  Kinetic   215.32012   215.82210   232.81362    -3.24775    -0.04093    -0.11160
  Fock        0.00000     0.00000     0.00000     0.00000     0.00000     0.00000
  -------------------------------------------------------------------------------------
  Total      -0.09259    -0.09259    -0.02738    -0.00000    -0.00000     0.00000
  in kB      -1.79572    -1.79572    -0.53102    -0.00000    -0.00000     0.00000
  external pressure =       -1.37 kB  Pullay stress =        0.00 kB


 VOLUME and BASIS-vectors are now :
 -----------------------------------------------------------------------------
  energy-cutoff  :      400.00
  volume of cell :       82.61
      direct lattice vectors                 reciprocal lattice vectors
     5.086855820  0.000000000  0.000000000     0.196585088  0.113498454 -0.000000000
    -2.543427910  4.405346366  0.000000000    -0.000000000  0.226996907 -0.000000000
     0.000000000  0.000000000  3.686528404     0.000000000 -0.000000000  0.271257913

  length of vectors
     5.086855820  5.086855820  3.686528404     0.226996907  0.226996907  0.271257913


 FORCES acting on ions
    electron-ion (+dipol)            ewald-force                    non-local-force                 convergence-correction
 -----------------------------------------------------------------------------------------------
   -.769E-04 0.447E-04 0.537E-13   0.149E-03 -.209E-03 -.406E-15   0.499E-17 -.160E-17 0.173E-18   -.135E-07 0.381E-08 0.295E-13
   -.512E-03 0.360E-03 -.236E-11   -.277E-03 0.160E-04 -.147E-15   0.140E-16 -.342E-15 -.423E-18   0.142E-07 -.202E-07 0.433E-13
   -.653E-04 0.869E-03 -.529E-10   0.128E-03 0.192E-03 -.444E-15   -.217E-15 -.450E-16 -.259E-18   -.308E-08 0.109E-07 -.154E-14
 -----------------------------------------------------------------------------------------------
   -.654E-03 0.127E-02 -.552E-10   -.118E-14 -.142E-15 -.997E-15   -.198E-15 -.389E-15 -.509E-18   -.238E-08 -.551E-08 0.713E-13


 POSITION                                       TOTAL-FORCE (eV/Angst)
 -----------------------------------------------------------------------------------
      0.00000     -0.00000     -0.00000        -0.000000      0.000000     -0.000000
      2.54343      1.46845      0.00000         0.000000     -0.000000     -0.000000
     -0.00000      2.93690      0.00000        -0.000000      0.000000      0.000000
 -----------------------------------------------------------------------------------
    total drift:                               -0.000654      0.001274     -0.000000


--------------------------------------------------------------------------------------------------------



  FREE ENERGIE OF THE ION-ELECTRON SYSTEM (eV)
  ---------------------------------------------------
  free  energy   TOTEN  =        -9.38643603 eV

  energy  without entropy=       -9.38163570  energy(sigma->0) =       -9.38403586

 d Force = 0.0000000E+00[ 0.000E+00, 0.000E+00]  d Energy = 0.5039302E-03-0.504E-03
 d Force = 0.0000000E+00[ 0.000E+00, 0.000E+00]  d Ewald  =-0.7323752E+01 0.732E+01


--------------------------------------------------------------------------------------------------------


    POTLOK:  cpu time      0.0066: real time      0.0066


--------------------------------------------------------------------------------------------------------


 Conjugate gradient step on ions:
 trial-energy change:   -0.000504  1 .order   -0.000691   -0.002289    0.000907
  (g-gl).g = 0.155E-02      g.g   = 0.176E-02  gl.gl    = 0.109E-01
 g(Force)  = 0.181E-40   g(Stress)= 0.176E-02 ortho     = 0.211E-03
 gamma     =   0.14160
 trial     =   1.28069
 opt step  =   0.81303  (harmonic =   0.91724) maximal distance =0.00000000
 next E    =    -9.386611   (d E  =  -0.00068)


--------------------------------------------------------------------------------------------------------


  
 reached required accuracy - stopping structural energy minimisation
     LOOP+:  cpu time      2.1801: real time      2.1925
    4ORBIT:  cpu time      0.0000: real time      0.0000

 total amount of memory used by VASP MPI-rank0    32096. kBytes
=======================================================================

   base      :      30000. kBytes
   nonlr-proj:        607. kBytes
   fftplans  :        205. kBytes
   grid      :        845. kBytes
   one-center:         46. kBytes
   wavefun   :        393. kBytes

  
  
 General timing and accounting informations for this job:
 ========================================================
  
                  Total CPU time used (sec):       15.627
                            User time (sec):       14.230
                          System time (sec):        1.397
                         Elapsed time (sec):       16.291
  
                   Maximum memory used (kb):      119264.
                   Average memory used (kb):          N/A
  
                          Minor page faults:        20233
                          Major page faults:          143
                 Voluntary context switches:         1208
