  56  56   0   0
  0.2260158E+02  0.1218282E-08  0.7661564E-09  0.1373046E-08  0.1500000E-16
   1.0000000000000000E-004
  CAR 
 unknown system                          
      9.25050364    -22.85304710  301      1.55902795      1.00000000
    -22.853  0.0000E+00  0.0000E+00
    -22.746  0.0000E+00  0.0000E+00
    -22.639  0.0000E+00  0.0000E+00
    -22.532  0.0000E+00  0.0000E+00
    -22.425  0.0000E+00  0.0000E+00
    -22.318  0.0000E+00  0.0000E+00
    -22.211  0.0000E+00  0.0000E+00
    -22.104  0.0000E+00  0.0000E+00
    -21.997  0.0000E+00  0.0000E+00
    -21.890  0.0000E+00  0.0000E+00
    -21.783  0.0000E+00  0.0000E+00
    -21.676  0.2536E-16  0.2714E-17
    -21.569  0.1796E-07  0.1922E-08
    -21.462  0.2388E-02  0.2556E-03
    -21.355  0.2017E+00  0.2184E-01
    -21.248  0.4440E+00  0.6935E-01
    -21.141  0.8412E+00  0.1594E+00
    -21.034  0.3288E+00  0.1946E+00
    -20.927  0.7974E-01  0.2031E+00
    -20.820  0.1491E-03  0.2031E+00
    -20.713  0.1095E-09  0.2031E+00
    -20.606  0.0000E+00  0.2031E+00
    -20.499  0.0000E+00  0.2031E+00
    -20.392  0.0000E+00  0.2031E+00
    -20.285  0.0000E+00  0.2031E+00
    -20.178  0.0000E+00  0.2031E+00
    -20.071  0.0000E+00  0.2031E+00
    -19.964  0.0000E+00  0.2031E+00
    -19.857  0.0000E+00  0.2031E+00
    -19.750  0.0000E+00  0.2031E+00
    -19.643  0.0000E+00  0.2031E+00
    -19.536  0.0000E+00  0.2031E+00
    -19.429  0.0000E+00  0.2031E+00
    -19.322  0.0000E+00  0.2031E+00
    -19.215  0.0000E+00  0.2031E+00
    -19.108  0.0000E+00  0.2031E+00
    -19.001  0.0000E+00  0.2031E+00
    -18.894  0.0000E+00  0.2031E+00
    -18.787  0.0000E+00  0.2031E+00
    -18.680  0.0000E+00  0.2031E+00
    -18.573  0.0000E+00  0.2031E+00
    -18.466  0.0000E+00  0.2031E+00
    -18.359  0.0000E+00  0.2031E+00
    -18.252  0.0000E+00  0.2031E+00
    -18.145  0.0000E+00  0.2031E+00
    -18.038  0.0000E+00  0.2031E+00
    -17.931  0.0000E+00  0.2031E+00
    -17.823  0.0000E+00  0.2031E+00
    -17.716  0.0000E+00  0.2031E+00
    -17.609  0.0000E+00  0.2031E+00
    -17.502  0.0000E+00  0.2031E+00
    -17.395  0.0000E+00  0.2031E+00
    -17.288  0.0000E+00  0.2031E+00
    -17.181  0.0000E+00  0.2031E+00
    -17.074  0.0000E+00  0.2031E+00
    -16.967  0.0000E+00  0.2031E+00
    -16.860  0.0000E+00  0.2031E+00
    -16.753  0.0000E+00  0.2031E+00
    -16.646  0.0000E+00  0.2031E+00
    -16.539  0.0000E+00  0.2031E+00
    -16.432  0.0000E+00  0.2031E+00
    -16.325  0.0000E+00  0.2031E+00
    -16.218  0.0000E+00  0.2031E+00
    -16.111  0.0000E+00  0.2031E+00
    -16.004  0.0000E+00  0.2031E+00
    -15.897  0.0000E+00  0.2031E+00
    -15.790  0.0000E+00  0.2031E+00
    -15.683  0.0000E+00  0.2031E+00
    -15.576  0.0000E+00  0.2031E+00
    -15.469  0.0000E+00  0.2031E+00
    -15.362  0.0000E+00  0.2031E+00
    -15.255  0.0000E+00  0.2031E+00
    -15.148  0.0000E+00  0.2031E+00
    -15.041  0.0000E+00  0.2031E+00
    -14.934  0.0000E+00  0.2031E+00
    -14.827  0.0000E+00  0.2031E+00
    -14.720  0.0000E+00  0.2031E+00
    -14.613  0.0000E+00  0.2031E+00
    -14.506  0.0000E+00  0.2031E+00
    -14.399  0.0000E+00  0.2031E+00
    -14.292  0.0000E+00  0.2031E+00
    -14.185  0.0000E+00  0.2031E+00
    -14.078  0.0000E+00  0.2031E+00
    -13.971  0.0000E+00  0.2031E+00
    -13.864  0.0000E+00  0.2031E+00
    -13.757  0.0000E+00  0.2031E+00
    -13.650  0.0000E+00  0.2031E+00
    -13.543  0.0000E+00  0.2031E+00
    -13.436  0.0000E+00  0.2031E+00
    -13.329  0.0000E+00  0.2031E+00
    -13.222  0.0000E+00  0.2031E+00
    -13.115  0.0000E+00  0.2031E+00
    -13.008  0.0000E+00  0.2031E+00
    -12.901  0.0000E+00  0.2031E+00
    -12.794  0.0000E+00  0.2031E+00
    -12.687  0.0000E+00  0.2031E+00
    -12.580  0.0000E+00  0.2031E+00
    -12.473  0.0000E+00  0.2031E+00
    -12.366  0.0000E+00  0.2031E+00
    -12.259  0.0000E+00  0.2031E+00
    -12.152  0.0000E+00  0.2031E+00
    -12.045  0.0000E+00  0.2031E+00
    -11.938  0.0000E+00  0.2031E+00
    -11.831  0.0000E+00  0.2031E+00
    -11.724  0.0000E+00  0.2031E+00
    -11.617  0.0000E+00  0.2031E+00
    -11.510  0.0000E+00  0.2031E+00
    -11.403  0.0000E+00  0.2031E+00
    -11.296  0.0000E+00  0.2031E+00
    -11.189  0.0000E+00  0.2031E+00
    -11.082  0.2439E-17  0.2031E+00
    -10.975  0.1739E-08  0.2031E+00
    -10.868  0.2099E-03  0.2031E+00
    -10.761  0.2178E-01  0.2055E+00
    -10.654  0.3132E-01  0.2088E+00
    -10.547  0.3835E-01  0.2129E+00
    -10.440  0.1377E-01  0.2144E+00
    -10.333  0.1303E-04  0.2144E+00
    -10.226  0.3168E-11  0.2144E+00
    -10.119  0.2923E-09  0.2144E+00
    -10.012  0.1245E-03  0.2144E+00
     -9.905  0.2749E-01  0.2173E+00
     -9.798  0.2576E-01  0.2201E+00
     -9.691  0.5547E-01  0.2260E+00
     -9.584  0.5905E-01  0.2324E+00
     -9.477  0.5903E-01  0.2387E+00
     -9.370  0.5413E-01  0.2445E+00
     -9.263  0.9461E-01  0.2546E+00
     -9.156  0.9516E-01  0.2648E+00
     -9.049  0.5570E-01  0.2707E+00
     -8.942  0.6714E-03  0.2708E+00
     -8.834  0.4671E-08  0.2708E+00
     -8.727  0.5853E-17  0.2708E+00
     -8.620  0.0000E+00  0.2708E+00
     -8.513  0.0000E+00  0.2708E+00
     -8.406  0.0000E+00  0.2708E+00
     -8.299  0.0000E+00  0.2708E+00
     -8.192  0.0000E+00  0.2708E+00
     -8.085  0.0000E+00  0.2708E+00
     -7.978  0.0000E+00  0.2708E+00
     -7.871  0.0000E+00  0.2708E+00
     -7.764  0.0000E+00  0.2708E+00
     -7.657  0.0000E+00  0.2708E+00
     -7.550  0.0000E+00  0.2708E+00
     -7.443  0.0000E+00  0.2708E+00
     -7.336  0.0000E+00  0.2708E+00
     -7.229  0.0000E+00  0.2708E+00
     -7.122  0.0000E+00  0.2708E+00
     -7.015  0.0000E+00  0.2708E+00
     -6.908  0.0000E+00  0.2708E+00
     -6.801  0.0000E+00  0.2708E+00
     -6.694  0.0000E+00  0.2708E+00
     -6.587  0.0000E+00  0.2708E+00
     -6.480  0.0000E+00  0.2708E+00
     -6.373  0.0000E+00  0.2708E+00
     -6.266  0.0000E+00  0.2708E+00
     -6.159  0.0000E+00  0.2708E+00
     -6.052  0.0000E+00  0.2708E+00
     -5.945  0.0000E+00  0.2708E+00
     -5.838  0.0000E+00  0.2708E+00
     -5.731  0.0000E+00  0.2708E+00
     -5.624  0.0000E+00  0.2708E+00
     -5.517  0.0000E+00  0.2708E+00
     -5.410  0.0000E+00  0.2708E+00
     -5.303  0.0000E+00  0.2708E+00
     -5.196  0.0000E+00  0.2708E+00
     -5.089  0.0000E+00  0.2708E+00
     -4.982  0.0000E+00  0.2708E+00
     -4.875  0.0000E+00  0.2708E+00
     -4.768  0.0000E+00  0.2708E+00
     -4.661  0.0000E+00  0.2708E+00
     -4.554  0.0000E+00  0.2708E+00
     -4.447  0.0000E+00  0.2708E+00
     -4.340  0.0000E+00  0.2708E+00
     -4.233  0.0000E+00  0.2708E+00
     -4.126  0.0000E+00  0.2708E+00
     -4.019  0.0000E+00  0.2708E+00
     -3.912  0.0000E+00  0.2708E+00
     -3.805  0.0000E+00  0.2708E+00
     -3.698  0.0000E+00  0.2708E+00
     -3.591  0.0000E+00  0.2708E+00
     -3.484  0.0000E+00  0.2708E+00
     -3.377  0.3024E-16  0.2708E+00
     -3.270  0.8532E-08  0.2708E+00
     -3.163  0.3805E-03  0.2708E+00
     -3.056  0.1979E-01  0.2730E+00
     -2.949  0.5556E-01  0.2789E+00
     -2.842  0.5954E-01  0.2853E+00
     -2.735  0.6976E-01  0.2927E+00
     -2.628  0.5856E-02  0.2934E+00
     -2.521  0.1201E-05  0.2934E+00
     -2.414  0.5393E-13  0.2934E+00
     -2.307  0.0000E+00  0.2934E+00
     -2.200  0.0000E+00  0.2934E+00
     -2.093  0.0000E+00  0.2934E+00
     -1.986  0.3902E-17  0.2934E+00
     -1.879  0.2404E-08  0.2934E+00
     -1.772  0.2485E-03  0.2934E+00
     -1.665  0.1621E-01  0.2951E+00
     -1.558  0.4880E-01  0.3004E+00
     -1.451  0.5297E-01  0.3060E+00
     -1.344  0.5247E-01  0.3116E+00
     -1.237  0.5607E-01  0.3176E+00
     -1.130  0.6014E-01  0.3241E+00
     -1.023  0.2343E-01  0.3266E+00
     -0.916  0.1812E-01  0.3285E+00
     -0.809  0.2534E-01  0.3312E+00
     -0.702  0.3756E-01  0.3353E+00
     -0.595  0.6567E-01  0.3423E+00
     -0.488  0.4744E-01  0.3474E+00
     -0.381  0.4040E-01  0.3517E+00
     -0.274  0.6425E-01  0.3586E+00
     -0.167  0.9445E-01  0.3687E+00
     -0.060  0.6268E-01  0.3754E+00
      0.047  0.7251E-01  0.3831E+00
      0.154  0.3230E-01  0.3866E+00
      0.262  0.4766E-01  0.3917E+00
      0.369  0.6317E-01  0.3984E+00
      0.476  0.6642E-01  0.4056E+00
      0.583  0.6426E-01  0.4124E+00
      0.690  0.9518E-01  0.4226E+00
      0.797  0.7117E-01  0.4302E+00
      0.904  0.9639E-01  0.4405E+00
      1.011  0.9584E-01  0.4508E+00
      1.118  0.8297E-01  0.4597E+00
      1.225  0.6894E-01  0.4671E+00
      1.332  0.5708E-01  0.4732E+00
      1.439  0.6938E-02  0.4739E+00
      1.546  0.2881E-05  0.4739E+00
      1.653  0.4579E-12  0.4739E+00
      1.760  0.0000E+00  0.4739E+00
      1.867  0.0000E+00  0.4739E+00
      1.974  0.0000E+00  0.4739E+00
      2.081  0.0000E+00  0.4739E+00
      2.188  0.0000E+00  0.4739E+00
      2.295  0.0000E+00  0.4739E+00
      2.402  0.0000E+00  0.4739E+00
      2.509  0.0000E+00  0.4739E+00
      2.616  0.0000E+00  0.4739E+00
      2.723  0.0000E+00  0.4739E+00
      2.830  0.0000E+00  0.4739E+00
      2.937  0.0000E+00  0.4739E+00
      3.044  0.0000E+00  0.4739E+00
      3.151  0.0000E+00  0.4739E+00
      3.258  0.0000E+00  0.4739E+00
      3.365  0.0000E+00  0.4739E+00
      3.472  0.0000E+00  0.4739E+00
      3.579  0.0000E+00  0.4739E+00
      3.686  0.0000E+00  0.4739E+00
      3.793  0.0000E+00  0.4739E+00
      3.900  0.0000E+00  0.4739E+00
      4.007  0.5002E-12  0.4739E+00
      4.114  0.2746E-05  0.4739E+00
      4.221  0.3045E-02  0.4742E+00
      4.328  0.5702E-02  0.4748E+00
      4.435  0.3719E-04  0.4748E+00
      4.542  0.6662E-10  0.4748E+00
      4.649  0.0000E+00  0.4748E+00
      4.756  0.3725E-11  0.4748E+00
      4.863  0.1133E-04  0.4748E+00
      4.970  0.7441E-02  0.4756E+00
      5.077  0.1008E-01  0.4767E+00
      5.184  0.5072E-04  0.4767E+00
      5.291  0.7382E-02  0.4775E+00
      5.398  0.1795E-01  0.4794E+00
      5.505  0.1959E-01  0.4815E+00
      5.612  0.3524E-01  0.4853E+00
      5.719  0.4186E-01  0.4898E+00
      5.826  0.4916E-01  0.4950E+00
      5.933  0.2130E-01  0.4973E+00
      6.040  0.7583E-01  0.5054E+00
      6.147  0.2755E-01  0.5084E+00
      6.254  0.4225E-01  0.5129E+00
      6.361  0.6147E-01  0.5195E+00
      6.468  0.6348E-01  0.5263E+00
      6.575  0.5772E-01  0.5325E+00
      6.682  0.3146E-01  0.5358E+00
      6.789  0.4942E-01  0.5411E+00
      6.896  0.3833E-01  0.5452E+00
      7.003  0.5044E-01  0.5506E+00
      7.110  0.3831E-01  0.5547E+00
      7.217  0.4969E-01  0.5600E+00
      7.324  0.3492E-01  0.5638E+00
      7.431  0.4598E-01  0.5687E+00
      7.538  0.3637E-01  0.5726E+00
      7.645  0.5836E-01  0.5788E+00
      7.752  0.4697E-01  0.5839E+00
      7.859  0.2672E-01  0.5867E+00
      7.966  0.2876E-03  0.5867E+00
      8.073  0.3271E-08  0.5867E+00
      8.180  0.5853E-17  0.5867E+00
      8.287  0.0000E+00  0.5867E+00
      8.394  0.0000E+00  0.5867E+00
      8.501  0.0000E+00  0.5867E+00
      8.608  0.0000E+00  0.5867E+00
      8.715  0.0000E+00  0.5867E+00
      8.822  0.0000E+00  0.5867E+00
      8.929  0.0000E+00  0.5867E+00
      9.036  0.0000E+00  0.5867E+00
      9.143  0.0000E+00  0.5867E+00
      9.251  0.0000E+00  0.5867E+00
