  80  80   0   0
  0.2323530E+02  0.1210264E-08  0.7093817E-09  0.2165102E-08  0.2000000E-14
   800.00000000000000     
  CAR 
 NVT-AIMD user_Na5AlS4_Na5AlS4 800K      
      9.17227836    -24.34353273  301      1.65689081      1.00000000
    -24.344  0.0000E+00  0.0000E+00
    -24.232  0.0000E+00  0.0000E+00
    -24.120  0.0000E+00  0.0000E+00
    -24.008 -0.4451E-28 -0.4994E-29
    -23.897 -0.3489E-24 -0.3917E-25
    -23.785 -0.1447E-20 -0.1626E-21
    -23.673 -0.3190E-17 -0.3584E-18
    -23.561 -0.3729E-14 -0.4193E-15
    -23.450 -0.2236E-11 -0.2516E-12
    -23.338 -0.7282E-09 -0.8206E-10
    -23.226 -0.1252E-06 -0.1415E-07
    -23.115 -0.1135E-04 -0.1289E-05
    -23.003 -0.5408E-03 -0.6197E-04
    -22.891 -0.1343E-01 -0.1568E-02
    -22.779 -0.1708E+00 -0.2070E-01
    -22.668 -0.1052E+01 -0.1383E+00
    -22.556 -0.2488E+01 -0.4156E+00
    -22.444  0.2536E+01 -0.1284E+00
    -22.333  0.2563E+02  0.2740E+01
    -22.221  0.6237E+02  0.9699E+01
    -22.109  0.9974E+02  0.2081E+02
    -21.997  0.1359E+03  0.3593E+02
    -21.886  0.1646E+03  0.5425E+02
    -21.774  0.1837E+03  0.7474E+02
    -21.662  0.2004E+03  0.9714E+02
    -21.551  0.2048E+03  0.1201E+03
    -21.439  0.1872E+03  0.1411E+03
    -21.327  0.1617E+03  0.1593E+03
    -21.215  0.1452E+03  0.1756E+03
    -21.104  0.1352E+03  0.1908E+03
    -20.992  0.1200E+03  0.2044E+03
    -20.880  0.1008E+03  0.2158E+03
    -20.769  0.7955E+02  0.2247E+03
    -20.657  0.5431E+02  0.2309E+03
    -20.545  0.3215E+02  0.2345E+03
    -20.433  0.1917E+02  0.2367E+03
    -20.322  0.1267E+02  0.2381E+03
    -20.210  0.8467E+01  0.2391E+03
    -20.098  0.5352E+01  0.2397E+03
    -19.986  0.2578E+01  0.2400E+03
    -19.875  0.4275E+00  0.2400E+03
    -19.763 -0.2118E+00  0.2400E+03
    -19.651 -0.1061E+00  0.2400E+03
    -19.540 -0.1752E-01  0.2400E+03
    -19.428 -0.1332E-02  0.2400E+03
    -19.316 -0.5034E-04  0.2400E+03
    -19.204 -0.9724E-06  0.2400E+03
    -19.093 -0.9733E-08  0.2400E+03
    -18.981 -0.5083E-10  0.2400E+03
    -18.869 -0.1392E-12  0.2400E+03
    -18.758 -0.7821E-16  0.2400E+03
    -18.646  0.0000E+00  0.2400E+03
    -18.534  0.0000E+00  0.2400E+03
    -18.422  0.0000E+00  0.2400E+03
    -18.311  0.0000E+00  0.2400E+03
    -18.199  0.0000E+00  0.2400E+03
    -18.087  0.0000E+00  0.2400E+03
    -17.976  0.0000E+00  0.2400E+03
    -17.864  0.0000E+00  0.2400E+03
    -17.752  0.0000E+00  0.2400E+03
    -17.640  0.0000E+00  0.2400E+03
    -17.529  0.0000E+00  0.2400E+03
    -17.417  0.0000E+00  0.2400E+03
    -17.305  0.0000E+00  0.2400E+03
    -17.193  0.0000E+00  0.2400E+03
    -17.082  0.0000E+00  0.2400E+03
    -16.970  0.0000E+00  0.2400E+03
    -16.858  0.0000E+00  0.2400E+03
    -16.747  0.0000E+00  0.2400E+03
    -16.635  0.0000E+00  0.2400E+03
    -16.523  0.0000E+00  0.2400E+03
    -16.411  0.0000E+00  0.2400E+03
    -16.300  0.0000E+00  0.2400E+03
    -16.188  0.0000E+00  0.2400E+03
    -16.076  0.0000E+00  0.2400E+03
    -15.965  0.0000E+00  0.2400E+03
    -15.853  0.0000E+00  0.2400E+03
    -15.741  0.0000E+00  0.2400E+03
    -15.629  0.0000E+00  0.2400E+03
    -15.518  0.0000E+00  0.2400E+03
    -15.406  0.0000E+00  0.2400E+03
    -15.294  0.0000E+00  0.2400E+03
    -15.183  0.0000E+00  0.2400E+03
    -15.071  0.0000E+00  0.2400E+03
    -14.959  0.0000E+00  0.2400E+03
    -14.847  0.0000E+00  0.2400E+03
    -14.736  0.0000E+00  0.2400E+03
    -14.624  0.0000E+00  0.2400E+03
    -14.512  0.0000E+00  0.2400E+03
    -14.401  0.0000E+00  0.2400E+03
    -14.289  0.0000E+00  0.2400E+03
    -14.177  0.0000E+00  0.2400E+03
    -14.065  0.0000E+00  0.2400E+03
    -13.954  0.0000E+00  0.2400E+03
    -13.842  0.0000E+00  0.2400E+03
    -13.730  0.0000E+00  0.2400E+03
    -13.618  0.0000E+00  0.2400E+03
    -13.507  0.0000E+00  0.2400E+03
    -13.395  0.0000E+00  0.2400E+03
    -13.283  0.0000E+00  0.2400E+03
    -13.172  0.0000E+00  0.2400E+03
    -13.060  0.0000E+00  0.2400E+03
    -12.948  0.0000E+00  0.2400E+03
    -12.836  0.0000E+00  0.2400E+03
    -12.725  0.0000E+00  0.2400E+03
    -12.613 -0.6983E-30  0.2400E+03
    -12.501 -0.5853E-26  0.2400E+03
    -12.390 -0.2570E-22  0.2400E+03
    -12.278 -0.6032E-19  0.2400E+03
    -12.166 -0.7573E-16  0.2400E+03
    -12.054 -0.4939E-13  0.2400E+03
    -11.943 -0.1768E-10  0.2400E+03
    -11.831 -0.3401E-08  0.2400E+03
    -11.719 -0.3519E-06  0.2400E+03
    -11.608 -0.1960E-04  0.2400E+03
    -11.496 -0.5867E-03  0.2400E+03
    -11.384 -0.9330E-02  0.2400E+03
    -11.272 -0.7597E-01  0.2400E+03
    -11.161 -0.2784E+00  0.2400E+03
    -11.049 -0.1388E+00  0.2399E+03
    -10.937  0.2006E+01  0.2402E+03
    -10.825  0.6601E+01  0.2409E+03
    -10.714  0.1124E+02  0.2422E+03
    -10.602  0.1499E+02  0.2438E+03
    -10.490  0.1796E+02  0.2458E+03
    -10.379  0.1871E+02  0.2479E+03
    -10.267  0.1894E+02  0.2501E+03
    -10.155  0.2314E+02  0.2527E+03
    -10.043  0.3183E+02  0.2562E+03
     -9.932  0.3935E+02  0.2606E+03
     -9.820  0.4164E+02  0.2653E+03
     -9.708  0.4395E+02  0.2702E+03
     -9.597  0.4814E+02  0.2756E+03
     -9.485  0.4849E+02  0.2810E+03
     -9.373  0.4392E+02  0.2859E+03
     -9.261  0.3738E+02  0.2901E+03
     -9.150  0.3192E+02  0.2937E+03
     -9.038  0.2637E+02  0.2967E+03
     -8.926  0.1932E+02  0.2989E+03
     -8.815  0.1408E+02  0.3005E+03
     -8.703  0.1086E+02  0.3017E+03
     -8.591  0.7625E+01  0.3026E+03
     -8.479  0.5099E+01  0.3031E+03
     -8.368  0.3379E+01  0.3035E+03
     -8.256  0.1786E+01  0.3037E+03
     -8.144  0.7949E+00  0.3038E+03
     -8.033  0.6068E+00  0.3039E+03
     -7.921  0.6642E+00  0.3039E+03
     -7.809  0.4249E+00  0.3040E+03
     -7.697  0.8333E-01  0.3040E+03
     -7.586 -0.2945E-01  0.3040E+03
     -7.474 -0.1524E-01  0.3040E+03
     -7.362 -0.2395E-02  0.3040E+03
     -7.250 -0.1695E-03  0.3040E+03
     -7.139 -0.5882E-05  0.3040E+03
     -7.027 -0.1032E-06  0.3040E+03
     -6.915 -0.9304E-09  0.3040E+03
     -6.804 -0.4338E-11  0.3040E+03
     -6.692 -0.1051E-13  0.3040E+03
     -6.580  0.0000E+00  0.3040E+03
     -6.468  0.0000E+00  0.3040E+03
     -6.357  0.0000E+00  0.3040E+03
     -6.245  0.0000E+00  0.3040E+03
     -6.133  0.0000E+00  0.3040E+03
     -6.022  0.0000E+00  0.3040E+03
     -5.910  0.0000E+00  0.3040E+03
     -5.798  0.0000E+00  0.3040E+03
     -5.686  0.0000E+00  0.3040E+03
     -5.575  0.0000E+00  0.3040E+03
     -5.463  0.0000E+00  0.3040E+03
     -5.351  0.0000E+00  0.3040E+03
     -5.240 -0.1852E-28  0.3040E+03
     -5.128 -0.1321E-24  0.3040E+03
     -5.016 -0.5046E-21  0.3040E+03
     -4.904 -0.1031E-17  0.3040E+03
     -4.793 -0.1125E-14  0.3040E+03
     -4.681 -0.6318E-12  0.3040E+03
     -4.569 -0.1932E-09  0.3040E+03
     -4.457 -0.3114E-07  0.3040E+03
     -4.346 -0.2627E-05  0.3040E+03
     -4.234 -0.1149E-03  0.3040E+03
     -4.122 -0.2558E-02  0.3040E+03
     -4.011 -0.2791E-01  0.3040E+03
     -3.899 -0.1348E+00  0.3040E+03
     -3.787 -0.1651E+00  0.3040E+03
     -3.675  0.6902E+00  0.3040E+03
     -3.564  0.2706E+01  0.3043E+03
     -3.452  0.5513E+01  0.3050E+03
     -3.340  0.1088E+02  0.3062E+03
     -3.229  0.1815E+02  0.3082E+03
     -3.117  0.2193E+02  0.3107E+03
     -3.005  0.2047E+02  0.3129E+03
     -2.893  0.1758E+02  0.3149E+03
     -2.782  0.1574E+02  0.3167E+03
     -2.670  0.1352E+02  0.3182E+03
     -2.558  0.9535E+01  0.3193E+03
     -2.447  0.4771E+01  0.3198E+03
     -2.335  0.1379E+01  0.3200E+03
     -2.223  0.3648E+00  0.3200E+03
     -2.111  0.1481E+01  0.3202E+03
     -2.000  0.4173E+01  0.3207E+03
     -1.888  0.9521E+01  0.3217E+03
     -1.776  0.1949E+02  0.3239E+03
     -1.665  0.3281E+02  0.3276E+03
     -1.553  0.4530E+02  0.3326E+03
     -1.441  0.5373E+02  0.3386E+03
     -1.329  0.5629E+02  0.3449E+03
     -1.218  0.5309E+02  0.3509E+03
     -1.106  0.4678E+02  0.3562E+03
     -0.994  0.4131E+02  0.3608E+03
     -0.882  0.3805E+02  0.3651E+03
     -0.771  0.3711E+02  0.3693E+03
     -0.659  0.3964E+02  0.3737E+03
     -0.547  0.4438E+02  0.3787E+03
     -0.436  0.4959E+02  0.3842E+03
     -0.324  0.5555E+02  0.3904E+03
     -0.212  0.6293E+02  0.3975E+03
     -0.100  0.6943E+02  0.4053E+03
      0.011  0.7210E+02  0.4134E+03
      0.123  0.7206E+02  0.4214E+03
      0.235  0.7296E+02  0.4296E+03
      0.346  0.7448E+02  0.4379E+03
      0.458  0.7536E+02  0.4464E+03
      0.570  0.7630E+02  0.4549E+03
      0.682  0.7469E+02  0.4633E+03
      0.793  0.6819E+02  0.4709E+03
      0.905  0.5728E+02  0.4774E+03
      1.017  0.4534E+02  0.4825E+03
      1.128  0.3585E+02  0.4865E+03
      1.240  0.2799E+02  0.4897E+03
      1.352  0.2054E+02  0.4920E+03
      1.464  0.1436E+02  0.4936E+03
      1.575  0.1005E+02  0.4947E+03
      1.687  0.6761E+01  0.4955E+03
      1.799  0.3606E+01  0.4959E+03
      1.911  0.1088E+01  0.4960E+03
      2.022 -0.3220E-01  0.4960E+03
      2.134 -0.1453E+00  0.4960E+03
      2.246 -0.4588E-01  0.4960E+03
      2.357 -0.6367E-02  0.4960E+03
      2.469 -0.4432E-03  0.4960E+03
      2.581 -0.7531E-04  0.4960E+03
      2.693 -0.1284E-02  0.4960E+03
      2.804 -0.1457E-01  0.4960E+03
      2.916 -0.8376E-01  0.4960E+03
      3.028 -0.1903E+00  0.4960E+03
      3.139  0.2842E+00  0.4960E+03
      3.251  0.2552E+01  0.4963E+03
      3.363  0.5678E+01  0.4969E+03
      3.475  0.5981E+01  0.4976E+03
      3.586  0.3105E+01  0.4979E+03
      3.698  0.6410E+00  0.4980E+03
      3.810  0.6309E+00  0.4981E+03
      3.921  0.2626E+01  0.4984E+03
      4.033  0.5044E+01  0.4989E+03
      4.145  0.7043E+01  0.4997E+03
      4.257  0.8679E+01  0.5007E+03
      4.368  0.8252E+01  0.5016E+03
      4.480  0.6617E+01  0.5024E+03
      4.592  0.7252E+01  0.5032E+03
      4.704  0.9623E+01  0.5043E+03
      4.815  0.1217E+02  0.5056E+03
      4.927  0.1592E+02  0.5074E+03
      5.039  0.2223E+02  0.5099E+03
      5.150  0.2856E+02  0.5131E+03
      5.262  0.3212E+02  0.5167E+03
      5.374  0.3511E+02  0.5207E+03
      5.486  0.3841E+02  0.5250E+03
      5.597  0.3940E+02  0.5294E+03
      5.709  0.3980E+02  0.5338E+03
      5.821  0.4177E+02  0.5385E+03
      5.932  0.4211E+02  0.5432E+03
      6.044  0.4060E+02  0.5478E+03
      6.156  0.4072E+02  0.5524E+03
      6.268  0.4308E+02  0.5572E+03
      6.379  0.4485E+02  0.5622E+03
      6.491  0.4561E+02  0.5673E+03
      6.603  0.4808E+02  0.5727E+03
      6.714  0.4956E+02  0.5783E+03
      6.826  0.4705E+02  0.5836E+03
      6.938  0.4500E+02  0.5886E+03
      7.050  0.4417E+02  0.5935E+03
      7.161  0.3678E+02  0.5977E+03
      7.273  0.1932E+02  0.5998E+03
      7.385  0.3585E+01  0.6002E+03
      7.496 -0.1306E+01  0.6001E+03
      7.608 -0.7441E+00  0.6000E+03
      7.720 -0.1341E+00  0.6000E+03
      7.832 -0.1120E-01  0.6000E+03
      7.943 -0.4693E-03  0.6000E+03
      8.055 -0.1012E-04  0.6000E+03
      8.167 -0.1136E-06  0.6000E+03
      8.279 -0.6685E-09  0.6000E+03
      8.390 -0.2066E-11  0.6000E+03
      8.502 -0.3155E-14  0.6000E+03
      8.614  0.0000E+00  0.6000E+03
      8.725  0.0000E+00  0.6000E+03
      8.837  0.0000E+00  0.6000E+03
      8.949  0.0000E+00  0.6000E+03
      9.061  0.0000E+00  0.6000E+03
      9.172  0.0000E+00  0.6000E+03
      9.10774017    -24.27356788  301      1.33303537      1.00000000
    -24.274  0.0000E+00  0.0000E+00
    -24.162  0.0000E+00  0.0000E+00
    -24.051  0.0000E+00  0.0000E+00
    -23.940 -0.4819E-28 -0.5404E-29
    -23.828 -0.3780E-24 -0.4241E-25
    -23.717 -0.1572E-20 -0.1764E-21
    -23.606 -0.3471E-17 -0.3897E-18
    -23.495 -0.4069E-14 -0.4571E-15
    -23.383 -0.2448E-11 -0.2752E-12
    -23.272 -0.7990E-09 -0.8994E-10
    -23.161 -0.1375E-06 -0.1552E-07
    -23.050 -0.1242E-04 -0.1409E-05
    -22.938 -0.5854E-03 -0.6707E-04
    -22.827 -0.1421E-01 -0.1660E-02
    -22.716 -0.1727E+00 -0.2102E-01
    -22.605 -0.9730E+00 -0.1300E+00
    -22.493 -0.1770E+01 -0.3276E+00
    -22.382  0.4156E+01  0.1396E+00
    -22.271  0.2280E+02  0.2692E+01
    -22.159  0.4458E+02  0.7673E+01
    -22.048  0.6752E+02  0.1521E+02
    -21.937  0.1062E+03  0.2707E+02
    -21.826  0.1570E+03  0.4461E+02
    -21.714  0.2059E+03  0.6762E+02
    -21.603  0.2454E+03  0.9507E+02
    -21.492  0.2611E+03  0.1243E+03
    -21.381  0.2410E+03  0.1513E+03
    -21.269  0.1999E+03  0.1737E+03
    -21.158  0.1588E+03  0.1915E+03
    -21.047  0.1250E+03  0.2055E+03
    -20.935  0.1001E+03  0.2168E+03
    -20.824  0.7795E+02  0.2255E+03
    -20.713  0.5439E+02  0.2316E+03
    -20.602  0.3298E+02  0.2354E+03
    -20.490  0.1846E+02  0.2374E+03
    -20.379  0.1218E+02  0.2388E+03
    -20.268  0.8048E+01  0.2397E+03
    -20.157  0.2908E+01  0.2401E+03
    -20.045  0.8639E-02  0.2401E+03
    -19.934 -0.3373E+00  0.2400E+03
    -19.823 -0.1071E+00  0.2400E+03
    -19.711 -0.1494E-01  0.2400E+03
    -19.600 -0.1066E-02  0.2400E+03
    -19.489 -0.4018E-04  0.2400E+03
    -19.378 -0.8049E-06  0.2400E+03
    -19.266 -0.8562E-08  0.2400E+03
    -19.155 -0.4828E-10  0.2400E+03
    -19.044 -0.1440E-12  0.2400E+03
    -18.933 -0.1958E-15  0.2400E+03
    -18.821  0.0000E+00  0.2400E+03
    -18.710  0.0000E+00  0.2400E+03
    -18.599  0.0000E+00  0.2400E+03
    -18.487  0.0000E+00  0.2400E+03
    -18.376  0.0000E+00  0.2400E+03
    -18.265  0.0000E+00  0.2400E+03
    -18.154  0.0000E+00  0.2400E+03
    -18.042  0.0000E+00  0.2400E+03
    -17.931  0.0000E+00  0.2400E+03
    -17.820  0.0000E+00  0.2400E+03
    -17.709  0.0000E+00  0.2400E+03
    -17.597  0.0000E+00  0.2400E+03
    -17.486  0.0000E+00  0.2400E+03
    -17.375  0.0000E+00  0.2400E+03
    -17.263  0.0000E+00  0.2400E+03
    -17.152  0.0000E+00  0.2400E+03
    -17.041  0.0000E+00  0.2400E+03
    -16.930  0.0000E+00  0.2400E+03
    -16.818  0.0000E+00  0.2400E+03
    -16.707  0.0000E+00  0.2400E+03
    -16.596  0.0000E+00  0.2400E+03
    -16.485  0.0000E+00  0.2400E+03
    -16.373  0.0000E+00  0.2400E+03
    -16.262  0.0000E+00  0.2400E+03
    -16.151  0.0000E+00  0.2400E+03
    -16.040  0.0000E+00  0.2400E+03
    -15.928  0.0000E+00  0.2400E+03
    -15.817  0.0000E+00  0.2400E+03
    -15.706  0.0000E+00  0.2400E+03
    -15.594  0.0000E+00  0.2400E+03
    -15.483  0.0000E+00  0.2400E+03
    -15.372  0.0000E+00  0.2400E+03
    -15.261  0.0000E+00  0.2400E+03
    -15.149  0.0000E+00  0.2400E+03
    -15.038  0.0000E+00  0.2400E+03
    -14.927  0.0000E+00  0.2400E+03
    -14.816  0.0000E+00  0.2400E+03
    -14.704  0.0000E+00  0.2400E+03
    -14.593  0.0000E+00  0.2400E+03
    -14.482  0.0000E+00  0.2400E+03
    -14.370  0.0000E+00  0.2400E+03
    -14.259  0.0000E+00  0.2400E+03
    -14.148  0.0000E+00  0.2400E+03
    -14.037  0.0000E+00  0.2400E+03
    -13.925  0.0000E+00  0.2400E+03
    -13.814  0.0000E+00  0.2400E+03
    -13.703  0.0000E+00  0.2400E+03
    -13.592  0.0000E+00  0.2400E+03
    -13.480  0.0000E+00  0.2400E+03
    -13.369  0.0000E+00  0.2400E+03
    -13.258  0.0000E+00  0.2400E+03
    -13.146  0.0000E+00  0.2400E+03
    -13.035  0.0000E+00  0.2400E+03
    -12.924  0.0000E+00  0.2400E+03
    -12.813  0.0000E+00  0.2400E+03
    -12.701 -0.2711E-30  0.2400E+03
    -12.590 -0.2344E-26  0.2400E+03
    -12.479 -0.1056E-22  0.2400E+03
    -12.368 -0.2554E-19  0.2400E+03
    -12.256 -0.3313E-16  0.2400E+03
    -12.145 -0.2237E-13  0.2400E+03
    -12.034 -0.8279E-11  0.2400E+03
    -11.922 -0.1639E-08  0.2400E+03
    -11.811 -0.1731E-06  0.2400E+03
    -11.700 -0.9706E-05  0.2400E+03
    -11.589 -0.2869E-03  0.2400E+03
    -11.477 -0.4405E-02  0.2400E+03
    -11.366 -0.3393E-01  0.2400E+03
    -11.255 -0.1172E+00  0.2400E+03
    -11.144 -0.6996E-01  0.2400E+03
    -11.032  0.7077E+00  0.2401E+03
    -10.921  0.2685E+01  0.2404E+03
    -10.810  0.5710E+01  0.2410E+03
    -10.699  0.9052E+01  0.2420E+03
    -10.587  0.1213E+02  0.2434E+03
    -10.476  0.1571E+02  0.2451E+03
    -10.365  0.1998E+02  0.2474E+03
    -10.253  0.2346E+02  0.2500E+03
    -10.142  0.2675E+02  0.2530E+03
    -10.031  0.3173E+02  0.2565E+03
     -9.920  0.3673E+02  0.2606E+03
     -9.808  0.4095E+02  0.2652E+03
     -9.697  0.4495E+02  0.2703E+03
     -9.586  0.4740E+02  0.2756E+03
     -9.475  0.4972E+02  0.2811E+03
     -9.363  0.5051E+02  0.2868E+03
     -9.252  0.4447E+02  0.2918E+03
     -9.141  0.3353E+02  0.2955E+03
     -9.029  0.2351E+02  0.2982E+03
     -8.918  0.1691E+02  0.3001E+03
     -8.807  0.1271E+02  0.3015E+03
     -8.696  0.8380E+01  0.3024E+03
     -8.584  0.4559E+01  0.3029E+03
     -8.473  0.2536E+01  0.3032E+03
     -8.362  0.1698E+01  0.3034E+03
     -8.251  0.1319E+01  0.3036E+03
     -8.139  0.1013E+01  0.3037E+03
     -8.028  0.6349E+00  0.3037E+03
     -7.917  0.3479E+00  0.3038E+03
     -7.805  0.3131E+00  0.3038E+03
     -7.694  0.4628E+00  0.3039E+03
     -7.583  0.5984E+00  0.3039E+03
     -7.472  0.4276E+00  0.3040E+03
     -7.360  0.1074E+00  0.3040E+03
     -7.249 -0.2235E-01  0.3040E+03
     -7.138 -0.1577E-01  0.3040E+03
     -7.027 -0.2791E-02  0.3040E+03
     -6.915 -0.2173E-03  0.3040E+03
     -6.804 -0.8241E-05  0.3040E+03
     -6.693 -0.1578E-06  0.3040E+03
     -6.581 -0.1550E-08  0.3040E+03
     -6.470 -0.7881E-11  0.3040E+03
     -6.359 -0.2091E-13  0.3040E+03
     -6.248  0.0000E+00  0.3040E+03
     -6.136  0.0000E+00  0.3040E+03
     -6.025  0.0000E+00  0.3040E+03
     -5.914  0.0000E+00  0.3040E+03
     -5.803  0.0000E+00  0.3040E+03
     -5.691  0.0000E+00  0.3040E+03
     -5.580  0.0000E+00  0.3040E+03
     -5.469  0.0000E+00  0.3040E+03
     -5.357 -0.2007E-29  0.3040E+03
     -5.246 -0.1553E-25  0.3040E+03
     -5.135 -0.6429E-22  0.3040E+03
     -5.024 -0.1428E-18  0.3040E+03
     -4.912 -0.1702E-15  0.3040E+03
     -4.801 -0.1052E-12  0.3040E+03
     -4.690 -0.3565E-10  0.3040E+03
     -4.579 -0.6434E-08  0.3040E+03
     -4.467 -0.6155E-06  0.3040E+03
     -4.356 -0.3099E-04  0.3040E+03
     -4.245 -0.8102E-03  0.3040E+03
     -4.134 -0.1071E-01  0.3040E+03
     -4.022 -0.6706E-01  0.3040E+03
     -3.911 -0.1545E+00  0.3040E+03
     -3.800  0.1735E+00  0.3040E+03
     -3.688  0.1528E+01  0.3042E+03
     -3.577  0.3592E+01  0.3046E+03
     -3.466  0.6263E+01  0.3053E+03
     -3.355  0.1044E+02  0.3064E+03
     -3.243  0.1561E+02  0.3082E+03
     -3.132  0.1968E+02  0.3104E+03
     -3.021  0.2079E+02  0.3127E+03
     -2.910  0.1896E+02  0.3148E+03
     -2.798  0.1649E+02  0.3167E+03
     -2.687  0.1356E+02  0.3182E+03
     -2.576  0.9250E+01  0.3192E+03
     -2.464  0.4832E+01  0.3198E+03
     -2.353  0.1658E+01  0.3200E+03
     -2.242  0.1022E+00  0.3200E+03
     -2.131  0.8032E+00  0.3201E+03
     -2.019  0.4932E+01  0.3206E+03
     -1.908  0.1230E+02  0.3220E+03
     -1.797  0.2084E+02  0.3243E+03
     -1.686  0.3110E+02  0.3278E+03
     -1.574  0.4304E+02  0.3326E+03
     -1.463  0.5262E+02  0.3385E+03
     -1.352  0.5638E+02  0.3448E+03
     -1.240  0.5450E+02  0.3509E+03
     -1.129  0.4952E+02  0.3565E+03
     -1.018  0.4379E+02  0.3614E+03
     -0.907  0.3893E+02  0.3658E+03
     -0.795  0.3753E+02  0.3700E+03
     -0.684  0.4021E+02  0.3745E+03
     -0.573  0.4421E+02  0.3794E+03
     -0.462  0.4878E+02  0.3849E+03
     -0.350  0.5593E+02  0.3911E+03
     -0.239  0.6483E+02  0.3984E+03
     -0.128  0.7072E+02  0.4063E+03
     -0.016  0.7270E+02  0.4145E+03
      0.095  0.7377E+02  0.4227E+03
      0.206  0.7469E+02  0.4311E+03
      0.317  0.7449E+02  0.4394E+03
      0.429  0.7302E+02  0.4476E+03
      0.540  0.7086E+02  0.4555E+03
      0.651  0.6966E+02  0.4633E+03
      0.762  0.6677E+02  0.4708E+03
      0.874  0.5786E+02  0.4773E+03
      0.985  0.4545E+02  0.4824E+03
      1.096  0.3484E+02  0.4863E+03
      1.207  0.2899E+02  0.4895E+03
      1.319  0.2444E+02  0.4923E+03
      1.430  0.1617E+02  0.4941E+03
      1.541  0.7415E+01  0.4949E+03
      1.653  0.2858E+01  0.4952E+03
      1.764  0.1313E+01  0.4954E+03
      1.875  0.7518E+00  0.4955E+03
      1.986  0.7176E+00  0.4956E+03
      2.098  0.9447E+00  0.4957E+03
      2.209  0.1277E+01  0.4958E+03
      2.320  0.1200E+01  0.4959E+03
      2.431  0.5126E+00  0.4960E+03
      2.543  0.1038E-01  0.4960E+03
      2.654 -0.5390E-01  0.4960E+03
      2.765 -0.2750E-01  0.4960E+03
      2.877 -0.9297E-01  0.4960E+03
      2.988 -0.2613E+00  0.4960E+03
      3.099  0.2024E+00  0.4960E+03
      3.210  0.2961E+01  0.4963E+03
      3.322  0.6688E+01  0.4971E+03
      3.433  0.6334E+01  0.4978E+03
      3.544  0.2365E+01  0.4980E+03
      3.655 -0.1687E+00  0.4980E+03
      3.767 -0.5007E+00  0.4980E+03
      3.878  0.4723E+00  0.4980E+03
      3.989  0.3726E+01  0.4984E+03
      4.101  0.8976E+01  0.4994E+03
      4.212  0.1181E+02  0.5008E+03
      4.323  0.8790E+01  0.5017E+03
      4.434  0.3810E+01  0.5022E+03
      4.546  0.2910E+01  0.5025E+03
      4.657  0.7199E+01  0.5033E+03
      4.768  0.1389E+02  0.5049E+03
      4.879  0.2015E+02  0.5071E+03
      4.991  0.2477E+02  0.5099E+03
      5.102  0.2764E+02  0.5130E+03
      5.213  0.2982E+02  0.5163E+03
      5.325  0.3447E+02  0.5202E+03
      5.436  0.4103E+02  0.5248E+03
      5.547  0.4479E+02  0.5298E+03
      5.658  0.4393E+02  0.5347E+03
      5.770  0.4132E+02  0.5393E+03
      5.881  0.3936E+02  0.5438E+03
      5.992  0.3970E+02  0.5482E+03
      6.103  0.4214E+02  0.5529E+03
      6.215  0.4353E+02  0.5578E+03
      6.326  0.4362E+02  0.5627E+03
      6.437  0.4468E+02  0.5677E+03
      6.549  0.4597E+02  0.5728E+03
      6.660  0.4672E+02  0.5781E+03
      6.771  0.4818E+02  0.5835E+03
      6.882  0.4848E+02  0.5889E+03
      6.994  0.4488E+02  0.5939E+03
      7.105  0.3514E+02  0.5979E+03
      7.216  0.1804E+02  0.5999E+03
      7.327  0.3234E+01  0.6002E+03
      7.439 -0.1284E+01  0.6001E+03
      7.550 -0.7066E+00  0.6000E+03
      7.661 -0.1253E+00  0.6000E+03
      7.772 -0.1034E-01  0.6000E+03
      7.884 -0.4289E-03  0.6000E+03
      7.995 -0.9180E-05  0.6000E+03
      8.106 -0.1027E-06  0.6000E+03
      8.218 -0.6033E-09  0.6000E+03
      8.329 -0.1869E-11  0.6000E+03
      8.440 -0.3923E-14  0.6000E+03
      8.551  0.0000E+00  0.6000E+03
      8.663  0.0000E+00  0.6000E+03
      8.774  0.0000E+00  0.6000E+03
      8.885  0.0000E+00  0.6000E+03
      8.996  0.0000E+00  0.6000E+03
      9.108  0.0000E+00  0.6000E+03
      9.20340888    -24.27898378  301      1.09482050      1.00000000
    -24.279  0.0000E+00  0.0000E+00
    -24.167  0.0000E+00  0.0000E+00
    -24.056  0.0000E+00  0.0000E+00
    -23.944 -0.3811E-28 -0.4257E-29
    -23.833 -0.2925E-24 -0.3269E-25
    -23.721 -0.1190E-20 -0.1330E-21
    -23.609 -0.2588E-17 -0.2893E-18
    -23.498 -0.3009E-14 -0.3365E-15
    -23.386 -0.1810E-11 -0.2026E-12
    -23.275 -0.5964E-09 -0.6685E-10
    -23.163 -0.1047E-06 -0.1177E-07
    -23.051 -0.9774E-05 -0.1104E-05
    -22.940 -0.4836E-03 -0.5513E-04
    -22.828 -0.1258E-01 -0.1460E-02
    -22.716 -0.1690E+00 -0.2033E-01
    -22.605 -0.1114E+01 -0.1447E+00
    -22.493 -0.2954E+01 -0.4742E+00
    -22.382  0.1752E+01 -0.2776E+00
    -22.270  0.2750E+02  0.2792E+01
    -22.158  0.7100E+02  0.1071E+02
    -22.047  0.1162E+03  0.2367E+02
    -21.935  0.1597E+03  0.4147E+02
    -21.824  0.1894E+03  0.6257E+02
    -21.712  0.2037E+03  0.8528E+02
    -21.600  0.2300E+03  0.1109E+03
    -21.489  0.2614E+03  0.1401E+03
    -21.377  0.2586E+03  0.1690E+03
    -21.266  0.2124E+03  0.1928E+03
    -21.154  0.1564E+03  0.2103E+03
    -21.042  0.1147E+03  0.2231E+03
    -20.931  0.7851E+02  0.2319E+03
    -20.819  0.4358E+02  0.2368E+03
    -20.708  0.1732E+02  0.2387E+03
    -20.596  0.5448E+01  0.2393E+03
    -20.484  0.3389E+01  0.2397E+03
    -20.373  0.2307E+01  0.2400E+03
    -20.261  0.5782E+00  0.2400E+03
    -20.149 -0.1421E+00  0.2400E+03
    -20.038 -0.1101E+00  0.2400E+03
    -19.926 -0.2370E-01  0.2400E+03
    -19.815 -0.2378E-02  0.2400E+03
    -19.703 -0.1212E-03  0.2400E+03
    -19.591 -0.3220E-05  0.2400E+03
    -19.480 -0.4509E-07  0.2400E+03
    -19.368 -0.3342E-09  0.2400E+03
    -19.257 -0.1314E-11  0.2400E+03
    -19.145 -0.2773E-14  0.2400E+03
    -19.033  0.0000E+00  0.2400E+03
    -18.922  0.0000E+00  0.2400E+03
    -18.810  0.0000E+00  0.2400E+03
    -18.699  0.0000E+00  0.2400E+03
    -18.587  0.0000E+00  0.2400E+03
    -18.475  0.0000E+00  0.2400E+03
    -18.364  0.0000E+00  0.2400E+03
    -18.252  0.0000E+00  0.2400E+03
    -18.141  0.0000E+00  0.2400E+03
    -18.029  0.0000E+00  0.2400E+03
    -17.917  0.0000E+00  0.2400E+03
    -17.806  0.0000E+00  0.2400E+03
    -17.694  0.0000E+00  0.2400E+03
    -17.583  0.0000E+00  0.2400E+03
    -17.471  0.0000E+00  0.2400E+03
    -17.359  0.0000E+00  0.2400E+03
    -17.248  0.0000E+00  0.2400E+03
    -17.136  0.0000E+00  0.2400E+03
    -17.024  0.0000E+00  0.2400E+03
    -16.913  0.0000E+00  0.2400E+03
    -16.801  0.0000E+00  0.2400E+03
    -16.690  0.0000E+00  0.2400E+03
    -16.578  0.0000E+00  0.2400E+03
    -16.466  0.0000E+00  0.2400E+03
    -16.355  0.0000E+00  0.2400E+03
    -16.243  0.0000E+00  0.2400E+03
    -16.132  0.0000E+00  0.2400E+03
    -16.020  0.0000E+00  0.2400E+03
    -15.908  0.0000E+00  0.2400E+03
    -15.797  0.0000E+00  0.2400E+03
    -15.685  0.0000E+00  0.2400E+03
    -15.574  0.0000E+00  0.2400E+03
    -15.462  0.0000E+00  0.2400E+03
    -15.350  0.0000E+00  0.2400E+03
    -15.239  0.0000E+00  0.2400E+03
    -15.127  0.0000E+00  0.2400E+03
    -15.016  0.0000E+00  0.2400E+03
    -14.904  0.0000E+00  0.2400E+03
    -14.792  0.0000E+00  0.2400E+03
    -14.681  0.0000E+00  0.2400E+03
    -14.569  0.0000E+00  0.2400E+03
    -14.457  0.0000E+00  0.2400E+03
    -14.346  0.0000E+00  0.2400E+03
    -14.234  0.0000E+00  0.2400E+03
    -14.123  0.0000E+00  0.2400E+03
    -14.011  0.0000E+00  0.2400E+03
    -13.899  0.0000E+00  0.2400E+03
    -13.788  0.0000E+00  0.2400E+03
    -13.676  0.0000E+00  0.2400E+03
    -13.565  0.0000E+00  0.2400E+03
    -13.453  0.0000E+00  0.2400E+03
    -13.341  0.0000E+00  0.2400E+03
    -13.230  0.0000E+00  0.2400E+03
    -13.118  0.0000E+00  0.2400E+03
    -13.007  0.0000E+00  0.2400E+03
    -12.895  0.0000E+00  0.2400E+03
    -12.783 -0.2149E-28  0.2400E+03
    -12.672 -0.1251E-24  0.2400E+03
    -12.560 -0.3906E-21  0.2400E+03
    -12.449 -0.6546E-18  0.2400E+03
    -12.337 -0.5685E-15  0.2400E+03
    -12.225 -0.2738E-12  0.2400E+03
    -12.114 -0.7005E-10  0.2400E+03
    -12.002 -0.9550E-08  0.2400E+03
    -11.890 -0.6907E-06  0.2400E+03
    -11.779 -0.2629E-04  0.2400E+03
    -11.667 -0.5181E-03  0.2400E+03
    -11.556 -0.5099E-02  0.2400E+03
    -11.444 -0.2261E-01  0.2400E+03
    -11.332 -0.2578E-01  0.2400E+03
    -11.221  0.9796E-01  0.2400E+03
    -11.109  0.3297E+00  0.2400E+03
    -10.998  0.6241E+00  0.2401E+03
    -10.886  0.1917E+01  0.2403E+03
    -10.774  0.5593E+01  0.2409E+03
    -10.663  0.1145E+02  0.2422E+03
    -10.551  0.1787E+02  0.2442E+03
    -10.440  0.2349E+02  0.2468E+03
    -10.328  0.2703E+02  0.2499E+03
    -10.216  0.2667E+02  0.2528E+03
    -10.105  0.2433E+02  0.2556E+03
     -9.993  0.2506E+02  0.2584E+03
     -9.882  0.3035E+02  0.2617E+03
     -9.770  0.3938E+02  0.2661E+03
     -9.658  0.5043E+02  0.2718E+03
     -9.547  0.5821E+02  0.2783E+03
     -9.435  0.5739E+02  0.2847E+03
     -9.324  0.5070E+02  0.2903E+03
     -9.212  0.4215E+02  0.2950E+03
     -9.100  0.3287E+02  0.2987E+03
     -8.989  0.2395E+02  0.3014E+03
     -8.877  0.1440E+02  0.3030E+03
     -8.765  0.5548E+01  0.3036E+03
     -8.654  0.1519E+01  0.3038E+03
     -8.542  0.1134E+01  0.3039E+03
     -8.431  0.7493E+00  0.3040E+03
     -8.319  0.1068E+00  0.3040E+03
     -8.207 -0.7433E-01  0.3040E+03
     -8.096 -0.3123E-01  0.3040E+03
     -7.984 -0.4682E-02  0.3040E+03
     -7.873 -0.3329E-03  0.3040E+03
     -7.761 -0.1205E-04  0.3040E+03
     -7.649 -0.2281E-06  0.3040E+03
     -7.538 -0.2282E-08  0.3040E+03
     -7.426 -0.1213E-10  0.3040E+03
     -7.315 -0.3443E-13  0.3040E+03
     -7.203  0.0000E+00  0.3040E+03
     -7.091  0.0000E+00  0.3040E+03
     -6.980  0.0000E+00  0.3040E+03
     -6.868  0.0000E+00  0.3040E+03
     -6.757  0.0000E+00  0.3040E+03
     -6.645  0.0000E+00  0.3040E+03
     -6.533  0.0000E+00  0.3040E+03
     -6.422  0.0000E+00  0.3040E+03
     -6.310  0.0000E+00  0.3040E+03
     -6.198  0.0000E+00  0.3040E+03
     -6.087  0.0000E+00  0.3040E+03
     -5.975  0.0000E+00  0.3040E+03
     -5.864  0.0000E+00  0.3040E+03
     -5.752  0.0000E+00  0.3040E+03
     -5.640  0.0000E+00  0.3040E+03
     -5.529  0.0000E+00  0.3040E+03
     -5.417 -0.9874E-31  0.3040E+03
     -5.306 -0.8915E-27  0.3040E+03
     -5.194 -0.4115E-23  0.3040E+03
     -5.082 -0.1019E-19  0.3040E+03
     -4.971 -0.1353E-16  0.3040E+03
     -4.859 -0.9315E-14  0.3040E+03
     -4.748 -0.3532E-11  0.3040E+03
     -4.636 -0.7135E-09  0.3040E+03
     -4.524 -0.7673E-07  0.3040E+03
     -4.413 -0.4373E-05  0.3040E+03
     -4.301 -0.1309E-03  0.3040E+03
     -4.190 -0.2022E-02  0.3040E+03
     -4.078 -0.1546E-01  0.3040E+03
     -3.966 -0.5128E-01  0.3040E+03
     -3.855 -0.2174E-01  0.3040E+03
     -3.743  0.2907E+00  0.3040E+03
     -3.632  0.9200E+00  0.3041E+03
     -3.520  0.1937E+01  0.3043E+03
     -3.408  0.4387E+01  0.3048E+03
     -3.297  0.1035E+02  0.3060E+03
     -3.185  0.1992E+02  0.3082E+03
     -3.073  0.2822E+02  0.3114E+03
     -2.962  0.2904E+02  0.3146E+03
     -2.850  0.2198E+02  0.3171E+03
     -2.739  0.1334E+02  0.3185E+03
     -2.627  0.7326E+01  0.3194E+03
     -2.515  0.3813E+01  0.3198E+03
     -2.404  0.1671E+01  0.3200E+03
     -2.292  0.1923E+00  0.3200E+03
     -2.181 -0.3276E+00  0.3200E+03
     -2.069  0.6367E+00  0.3200E+03
     -1.957  0.3596E+01  0.3204E+03
     -1.846  0.9018E+01  0.3214E+03
     -1.734  0.1958E+02  0.3236E+03
     -1.623  0.3717E+02  0.3278E+03
     -1.511  0.5606E+02  0.3340E+03
     -1.399  0.6665E+02  0.3415E+03
     -1.288  0.6444E+02  0.3487E+03
     -1.176  0.5555E+02  0.3549E+03
     -1.065  0.4707E+02  0.3601E+03
     -0.953  0.3830E+02  0.3644E+03
     -0.841  0.2998E+02  0.3678E+03
     -0.730  0.2897E+02  0.3710E+03
     -0.618  0.3659E+02  0.3751E+03
     -0.506  0.4628E+02  0.3802E+03
     -0.395  0.5458E+02  0.3863E+03
     -0.283  0.6219E+02  0.3933E+03
     -0.172  0.6867E+02  0.4009E+03
     -0.060  0.7180E+02  0.4090E+03
      0.052  0.7060E+02  0.4168E+03
      0.163  0.6851E+02  0.4245E+03