       N       E                     dE             d eps       ncg     rms          rms(c)
DAV:   1     0.479997296424E+04    0.48000E+04   -0.20267E+05   648   0.141E+03
DAV:   2     0.374095753024E+03   -0.44259E+04   -0.42585E+04   640   0.403E+02
DAV:   3    -0.284099068744E+03   -0.65819E+03   -0.64921E+03   708   0.168E+02
DAV:   4    -0.326294604898E+03   -0.42196E+02   -0.41969E+02   688   0.389E+01
DAV:   5    -0.328152878078E+03   -0.18583E+01   -0.18559E+01   856   0.850E+00    0.269E+01
RMM:   6    -0.309591864496E+03    0.18561E+02   -0.31900E+01   645   0.590E+00    0.180E+01
RMM:   7    -0.308640678758E+03    0.95119E+00   -0.40719E+01   626   0.557E+00    0.105E+01
RMM:   8    -0.308913517238E+03   -0.27284E+00   -0.96774E+00   611   0.402E+00    0.529E+00
RMM:   9    -0.308167229579E+03    0.74629E+00   -0.16063E+00   664   0.207E+00    0.874E-01
RMM:  10    -0.308301495591E+03   -0.13427E+00   -0.11241E+00   699   0.117E+00    0.238E+00
RMM:  11    -0.308226962224E+03    0.74533E-01   -0.15099E-01   642   0.621E-01    0.957E-01
RMM:  12    -0.308221621934E+03    0.53403E-02   -0.64799E-02   692   0.344E-01    0.180E-01
RMM:  13    -0.308222900809E+03   -0.12789E-02   -0.24710E-02   845   0.211E-01    0.212E-01
RMM:  14    -0.308223027017E+03   -0.12621E-03   -0.12038E-03   625   0.617E-02    0.264E-01
RMM:  15    -0.308222877708E+03    0.14931E-03   -0.26595E-04   647   0.305E-02    0.239E-01
RMM:  16    -0.308222799517E+03    0.78191E-04   -0.10728E-04   530   0.163E-02    0.195E-01
RMM:  17    -0.308222721723E+03    0.77794E-04   -0.87707E-04   690   0.329E-02    0.481E-02
RMM:  18    -0.308222783364E+03   -0.61641E-04   -0.28865E-04   661   0.187E-02    0.189E-01
RMM:  19    -0.308222793619E+03   -0.10255E-04   -0.34859E-05   482   0.103E-02    0.162E-01
RMM:  20    -0.308222796365E+03   -0.27460E-05   -0.52626E-06   352   0.464E-03
      1 T=   800. E= -.30005471E+03 F= -.30822280E+03 E0= -.30828723E+03  EK= 0.81681E+01 SP= 0.00E+00 SK= 0.00E+00
       N       E                     dE             d eps       ncg     rms          rms(c)
DAV:   1    -0.308010588424E+03    0.21221E+00   -0.54374E+01   680   0.129E+01    0.257E+00
RMM:   2    -0.308135322725E+03   -0.12473E+00   -0.13753E+00   789   0.268E+00    0.776E-01
RMM:   3    -0.308150350811E+03   -0.15028E-01   -0.20349E-01   630   0.119E+00    0.547E-01
RMM:   4    -0.308153870032E+03   -0.35192E-02   -0.68962E-02   838   0.606E-01    0.425E-01
RMM:   5    -0.308152965293E+03    0.90474E-03   -0.55261E-03   700   0.154E-01    0.308E-01
RMM:   6    -0.308152752891E+03    0.21240E-03   -0.30976E-03   687   0.966E-02    0.104E-01
RMM:   7    -0.308152847023E+03   -0.94132E-04   -0.10334E-03   803   0.609E-02    0.532E-02
RMM:   8    -0.308152796436E+03    0.50587E-04   -0.26754E-04   569   0.281E-02    0.307E-02
RMM:   9    -0.308152798684E+03   -0.22481E-05   -0.56460E-05   600   0.182E-02
      2 T=   793. E= -.30005365E+03 F= -.30815280E+03 E0= -.30821874E+03  EK= 0.80992E+01 SP= -.29E-04 SK= 0.85E-08
       N       E                     dE             d eps       ncg     rms          rms(c)
DAV:   1    -0.307948249170E+03    0.20455E+00   -0.27878E-01   888   0.282E+00    0.672E-01
RMM:   2    -0.307956410380E+03   -0.81612E-02   -0.84439E-02   600   0.605E-01    0.119E-01
RMM:   3    -0.307957858616E+03   -0.14482E-02   -0.14565E-02   794   0.271E-01    0.228E-01
RMM:   4    -0.307958049350E+03   -0.19073E-03   -0.24626E-03   741   0.119E-01    0.184E-01
RMM:   5    -0.307958107913E+03   -0.58563E-04   -0.67211E-04   896   0.525E-02    0.179E-01
RMM:   6    -0.307958116596E+03   -0.86838E-05   -0.27029E-05   380   0.116E-02
      3 T=   774. E= -.30005381E+03 F= -.30795812E+03 E0= -.30802332E+03  EK= 0.79061E+01 SP= -.18E-02 SK= 0.29E-04
       N       E                     dE             d eps       ncg     rms          rms(c)
DAV:   1    -0.307639103809E+03    0.31900E+00   -0.31817E-01   836   0.243E+00    0.717E-01
RMM:   2    -0.307649249906E+03   -0.10146E-01   -0.10756E-01   616   0.628E-01    0.279E-01
RMM:   3    -0.307651177077E+03   -0.19272E-02   -0.21064E-02   792   0.302E-01    0.427E-01
RMM:   4    -0.307651421807E+03   -0.24473E-03   -0.29851E-03   739   0.123E-01    0.315E-01
RMM:   5    -0.307651559225E+03   -0.13742E-03   -0.14489E-03   643   0.622E-02    0.138E-01
RMM:   6    -0.307651454245E+03    0.10498E-03   -0.23777E-04   638   0.363E-02    0.104E-01
RMM:   7    -0.307651423752E+03    0.30494E-04   -0.21004E-04   513   0.204E-02    0.237E-02
RMM:   8    -0.307651429693E+03   -0.59413E-05   -0.72911E-05   656   0.136E-02
      4 T=   745. E= -.30005295E+03 F= -.30765143E+03 E0= -.30771442E+03  EK= 0.76081E+01 SP= -.10E-01 SK= 0.42E-03
       N       E                     dE             d eps       ncg     rms          rms(c)
DAV:   1    -0.307246464722E+03    0.40496E+00   -0.10964E-01   904   0.209E+00    0.796E-01
RMM:   2    -0.307251647858E+03   -0.51831E-02   -0.55222E-02   628   0.468E-01    0.240E-01
RMM:   3    -0.307252808375E+03   -0.11605E-02   -0.12442E-02   792   0.227E-01    0.154E-01
RMM:   4    -0.307253005868E+03   -0.19749E-03   -0.20644E-03   736   0.100E-01    0.104E-01
RMM:   5    -0.307252951316E+03    0.54552E-04   -0.45515E-04   800   0.416E-02    0.599E-02
RMM:   6    -0.307252951519E+03   -0.20320E-06   -0.49206E-05   478   0.146E-02
      5 T=   708. E= -.30005117E+03 F= -.30725295E+03 E0= -.30731333E+03  EK= 0.72314E+01 SP= -.32E-01 SK= 0.24E-02
       N       E                     dE             d eps       ncg     rms          rms(c)
DAV:   1    -0.306782856833E+03    0.47009E+00   -0.88548E-02   872   0.192E+00    0.383E-01
RMM:   2    -0.306787766308E+03   -0.49095E-02   -0.48364E-02   638   0.413E-01    0.952E-02
RMM:   3    -0.306788722803E+03   -0.95650E-03   -0.10009E-02   792   0.205E-01    0.190E-01
RMM:   4    -0.306788863864E+03   -0.14106E-03   -0.16110E-03   808   0.830E-02    0.164E-01
RMM:   5    -0.306788856503E+03    0.73611E-05   -0.17803E-04   711   0.229E-02    0.111E-01
RMM:   6    -0.306788853788E+03    0.27145E-05   -0.48776E-05   549   0.128E-02
      6 T=   667. E= -.30004897E+03 F= -.30678885E+03 E0= -.30684690E+03  EK= 0.68083E+01 SP= -.77E-01 SK= 0.87E-02
       N       E                     dE             d eps       ncg     rms          rms(c)
DAV:   1    -0.306284552998E+03    0.50430E+00   -0.63840E-02   880   0.181E+00    0.413E-01
RMM:   2    -0.306288447658E+03   -0.38947E-02   -0.38357E-02   654   0.360E-01    0.611E-02
RMM:   3    -0.306289267338E+03   -0.81968E-03   -0.84920E-03   792   0.181E-01    0.138E-01
RMM:   4    -0.306289372431E+03   -0.10509E-03   -0.13327E-03   802   0.745E-02    0.111E-01
RMM:   5    -0.306289382061E+03   -0.96303E-05   -0.14822E-04   698   0.210E-02    0.677E-02
RMM:   6    -0.306289380464E+03    0.15971E-05   -0.17458E-05   379   0.891E-03
      7 T=   624. E= -.30004753E+03 F= -.30628938E+03 E0= -.30634567E+03  EK= 0.63736E+01 SP= -.16E+00 SK= 0.24E-01
       N       E                     dE             d eps       ncg     rms          rms(c)
DAV:   1    -0.305779776862E+03    0.50961E+00   -0.56543E-02   876   0.172E+00    0.362E-01
RMM:   2    -0.305783344605E+03   -0.35677E-02   -0.34468E-02   662   0.329E-01    0.463E-02
RMM:   3    -0.305783996858E+03   -0.65225E-03   -0.68337E-03   793   0.164E-01    0.115E-01
RMM:   4    -0.305784089294E+03   -0.92435E-04   -0.10865E-03   810   0.667E-02    0.824E-02
RMM:   5    -0.305784092460E+03   -0.31666E-05   -0.11906E-04   659   0.184E-02    0.572E-02
RMM:   6    -0.305784091987E+03    0.47323E-06   -0.16115E-05   368   0.818E-03
      8 T=   584. E= -.30004603E+03 F= -.30578409E+03 E0= -.30583906E+03  EK= 0.59623E+01 SP= -.28E+00 SK= 0.54E-01
       N       E                     dE             d eps       ncg     rms          rms(c)
DAV:   1    -0.305295802681E+03    0.48829E+00   -0.33162E-02   904   0.166E+00    0.184E-01
RMM:   2    -0.305298655826E+03   -0.28531E-02   -0.27243E-02   680   0.287E-01    0.812E-02
RMM:   3    -0.305299133228E+03   -0.47740E-03   -0.49382E-03   793   0.138E-01    0.127E-01
RMM:   4    -0.305299218107E+03   -0.84879E-04   -0.86543E-04   809   0.582E-02    0.114E-01
RMM:   5    -0.305299222500E+03   -0.43930E-05   -0.77644E-05   523   0.155E-02
      9 T=   549. E= -.30004527E+03 F= -.30529922E+03 E0= -.30535321E+03  EK= 0.56033E+01 SP= -.45E+00 SK= 0.11E+00
       N       E                     dE             d eps       ncg     rms          rms(c)
DAV:   1    -0.304847557792E+03    0.45166E+00   -0.35758E-02   892   0.161E+00    0.929E-02
RMM:   2    -0.304850220667E+03   -0.26629E-02   -0.25558E-02   687   0.275E-01    0.141E-01
RMM:   3    -0.304850642637E+03   -0.42197E-03   -0.44795E-03   792   0.131E-01    0.193E-01
RMM:   4    -0.304850719093E+03   -0.76456E-04   -0.77558E-04   809   0.544E-02    0.195E-01
RMM:   5    -0.304850724023E+03   -0.49300E-05   -0.77336E-05   497   0.152E-02
     10 T=   520. E= -.30004497E+03 F= -.30485072E+03 E0= -.30490398E+03  EK= 0.53151E+01 SP= -.69E+00 SK= 0.19E+00
       N       E                     dE             d eps       ncg     rms          rms(c)
DAV:   1    -0.304442702755E+03    0.40802E+00   -0.31422E-02   912   0.157E+00    0.163E-01
RMM:   2    -0.304444861167E+03   -0.21584E-02   -0.20720E-02   688   0.247E-01    0.252E-01
RMM:   3    -0.304445299851E+03   -0.43868E-03   -0.36846E-03   792   0.117E-01    0.362E-01
RMM:   4    -0.304445244000E+03    0.55852E-04   -0.56843E-04   688   0.583E-02    0.180E-01
RMM:   5    -0.304445229828E+03    0.14172E-04   -0.23771E-04   752   0.290E-02    0.105E-01
RMM:   6    -0.304445230916E+03   -0.10887E-05   -0.28237E-05   396   0.120E-02
     11 T=   500. E= -.30004449E+03 F= -.30444523E+03 E0= -.30449809E+03  EK= 0.51075E+01 SP= -.10E+01 SK= 0.30E+00
       N       E                     dE             d eps       ncg     rms          rms(c)
DAV:   1    -0.304077949141E+03    0.36728E+00   -0.37484E-02   892   0.160E+00    0.507E-01
RMM:   2    -0.304079854868E+03   -0.19057E-02   -0.21432E-02   681   0.265E-01    0.163E-01
RMM:   3    -0.304080365892E+03   -0.51102E-03   -0.42445E-03   791   0.123E-01    0.987E-02
RMM:   4    -0.304080183605E+03    0.18229E-03   -0.75368E-04   711   0.530E-02    0.568E-02
RMM:   5    -0.304080204573E+03   -0.20968E-04   -0.18891E-04   695   0.225E-02    0.352E-02
RMM:   6    -0.304080184973E+03    0.19600E-04   -0.37698E-05   475   0.107E-02    0.118E-02
RMM:   7    -0.304080184392E+03    0.58156E-06   -0.95511E-06   361   0.666E-03
     12 T=   488. E= -.30004436E+03 F= -.30408018E+03 E0= -.30413267E+03  EK= 0.49801E+01 SP= -.14E+01 SK= 0.45E+00
       N       E                     dE             d eps       ncg     rms          rms(c)
DAV:   1    -0.303745017924E+03    0.33517E+00   -0.32962E-02   896   0.158E+00    0.368E-01
RMM:   2    -0.303747109782E+03   -0.20919E-02   -0.21303E-02   695   0.240E-01    0.885E-02
RMM:   3    -0.303747442159E+03   -0.33238E-03   -0.35394E-03   794   0.113E-01    0.905E-02
RMM:   4    -0.303747373692E+03    0.68466E-04   -0.58693E-04   733   0.469E-02    0.604E-02
RMM:   5    -0.303747378120E+03   -0.44282E-05   -0.10959E-04   667   0.181E-02    0.278E-02
RMM:   6    -0.303747370817E+03    0.73036E-05   -0.24126E-05   406   0.858E-03
     13 T=   483. E= -.30004488E+03 F= -.30374737E+03 E0= -.30379970E+03  EK= 0.49275E+01 SP= -.19E+01 SK= 0.63E+00
       N       E                     dE             d eps       ncg     rms          rms(c)
DAV:   1    -0.303432708426E+03    0.31467E+00   -0.28859E-02   896   0.161E+00    0.190E-01
RMM:   2    -0.303434671659E+03   -0.19632E-02   -0.19300E-02   685   0.244E-01    0.937E-02
RMM:   3    -0.303434973761E+03   -0.30210E-03   -0.33048E-03   793   0.112E-01    0.137E-01
RMM:   4    -0.303435018696E+03   -0.44935E-04   -0.51902E-04   798   0.461E-02    0.126E-01
RMM:   5    -0.303435020175E+03   -0.14792E-05   -0.48795E-05   457   0.126E-02
     14 T=   484. E= -.30004480E+03 F= -.30343502E+03 E0= -.30348751E+03  EK= 0.49431E+01 SP= -.24E+01 SK= 0.84E+00
       N       E                     dE             d eps       ncg     rms          rms(c)
DAV:   1    -0.303130724655E+03    0.30429E+00   -0.31053E-02   884   0.162E+00    0.108E-01
RMM:   2    -0.303132794132E+03   -0.20695E-02   -0.19967E-02   679   0.245E-01    0.147E-01
RMM:   3    -0.303133077972E+03   -0.28384E-03   -0.35848E-03   792   0.116E-01    0.184E-01
RMM:   4    -0.303133127570E+03   -0.49597E-04   -0.50920E-04   803   0.461E-02    0.180E-01
RMM:   5    -0.303133128265E+03   -0.69539E-06   -0.63730E-05   484   0.152E-02
     15 T=   492. E= -.30004473E+03 F= -.30313313E+03 E0= -.30318613E+03  EK= 0.50208E+01 SP= -.30E+01 SK= 0.11E+01
       N       E                     dE             d eps       ncg     rms          rms(c)
DAV:   1    -0.302832248998E+03    0.30088E+00   -0.23395E-02   900   0.169E+00    0.266E-01
RMM:   2    -0.302834122698E+03   -0.18737E-02   -0.18952E-02   688   0.244E-01    0.194E-01
RMM:   3    -0.302834385136E+03   -0.26244E-03   -0.33933E-03   792   0.111E-01    0.184E-01
RMM:   4    -0.302834286109E+03    0.99027E-04   -0.55701E-04   720   0.480E-02    0.145E-01
RMM:   5    -0.302834287567E+03   -0.14575E-05   -0.18822E-04   642   0.232E-02    0.297E-02
RMM:   6    -0.302834280232E+03    0.73348E-05   -0.37561E-05   488   0.114E-02
     16 T=   505. E= -.30004395E+03 F= -.30283428E+03 E0= -.30288840E+03  EK= 0.51585E+01 SP= -.37E+01 SK= 0.14E+01
       N       E                     dE             d eps       ncg     rms          rms(c)
DAV:   1    -0.302532445420E+03    0.30184E+00   -0.26026E-02   928   0.166E+00    0.545E-01
RMM:   2    -0.302534931040E+03   -0.24856E-02   -0.24972E-02   686   0.247E-01    0.181E-01
RMM:   3    -0.302536137612E+03   -0.12066E-02   -0.47858E-03   789   0.124E-01    0.195E-01
RMM:   4    -0.302535134262E+03    0.10033E-02   -0.10240E-03   697   0.575E-02    0.586E-02
RMM:   5    -0.302535145735E+03   -0.11473E-04   -0.27435E-04   717   0.276E-02    0.290E-02
RMM:   6    -0.302535138795E+03    0.69400E-05   -0.49189E-05   531   0.123E-02
     17 T=   525. E= -.30004287E+03 F= -.30253514E+03 E0= -.30259168E+03  EK= 0.53583E+01 SP= -.45E+01 SK= 0.16E+01
       N       E                     dE             d eps       ncg     rms          rms(c)
DAV:   1    -0.302231168978E+03    0.30398E+00   -0.27038E-02   896   0.167E+00    0.154E-01
RMM:   2    -0.302233364223E+03   -0.21952E-02   -0.22103E-02   687   0.251E-01    0.129E-01
RMM:   3    -0.302233678696E+03   -0.31447E-03   -0.36516E-03   793   0.116E-01    0.160E-01
RMM:   4    -0.302233717060E+03   -0.38364E-04   -0.48886E-04   790   0.466E-02    0.151E-01
RMM:   5    -0.302233736281E+03   -0.19221E-04   -0.10234E-04   626   0.166E-02    0.975E-02
RMM:   6    -0.302233717904E+03    0.18377E-04   -0.71777E-05   538   0.114E-02    0.323E-02
RMM:   7    -0.302233715509E+03    0.23954E-05   -0.29925E-05   480   0.801E-03
     18 T=   551. E= -.30004139E+03 F= -.30223372E+03 E0= -.30229335E+03  EK= 0.56247E+01 SP= -.53E+01 SK= 0.19E+01
       N       E                     dE             d eps       ncg     rms          rms(c)
DAV:   1    -0.301928150795E+03    0.30557E+00   -0.25796E-02   944   0.167E+00    0.326E-01
RMM:   2    -0.301930247157E+03   -0.20964E-02   -0.21675E-02   689   0.240E-01    0.549E-02
RMM:   3    -0.301930544684E+03   -0.29753E-03   -0.33992E-03   793   0.113E-01    0.524E-02
RMM:   4    -0.301930582083E+03   -0.37399E-04   -0.49216E-04   795   0.467E-02    0.430E-02
RMM:   5    -0.301930570103E+03    0.11980E-04   -0.77109E-05   623   0.155E-02    0.221E-02
RMM:   6    -0.301930566724E+03    0.33790E-05   -0.14067E-05   368   0.752E-03
     19 T=   584. E= -.30003986E+03 F= -.30193057E+03 E0= -.30199271E+03  EK= 0.59647E+01 SP= -.62E+01 SK= 0.22E+01
       N       E                     dE             d eps       ncg     rms          rms(c)
DAV:   1    -0.301624417435E+03    0.30615E+00   -0.39439E-02   920   0.173E+00    0.163E-01
RMM:   2    -0.301626595676E+03   -0.21782E-02   -0.22582E-02   686   0.252E-01    0.930E-02
RMM:   3    -0.301626914291E+03   -0.31861E-03   -0.36107E-03   792   0.117E-01    0.133E-01
RMM:   4    -0.301626956486E+03   -0.42194E-04   -0.47571E-04   803   0.470E-02    0.127E-01
RMM:   5    -0.301626960836E+03   -0.43506E-05   -0.63787E-05   488   0.140E-02
     20 T=   626. E= -.30003832E+03 F= -.30162696E+03 E0= -.30168946E+03  EK= 0.63874E+01 SP= -.72E+01 SK= 0.24E+01
       N       E                     dE             d eps       ncg     rms          rms(c)
DAV:   1    -0.301319697097E+03    0.30726E+00   -0.46450E-02   872   0.177E+00    0.107E-01
RMM:   2    -0.301322308116E+03   -0.26110E-02   -0.26412E-02   680   0.272E-01    0.208E-01
RMM:   3    -0.301322548160E+03   -0.24004E-03   -0.44673E-03   792   0.129E-01    0.251E-01
RMM:   4    -0.301322603897E+03   -0.55737E-04   -0.57545E-04   806   0.504E-02    0.267E-01
RMM:   5    -0.301322617208E+03   -0.13312E-04   -0.97819E-05   533   0.167E-02    0.293E-01
RMM:   6    -0.301322542411E+03    0.74797E-04   -0.13149E-04   561   0.229E-02    0.102E-01
RMM:   7    -0.301322560659E+03   -0.18247E-04   -0.31365E-04   610   0.240E-02    0.177E-01
RMM:   8    -0.301322562402E+03   -0.17430E-05   -0.28762E-05   431   0.944E-03
     21 T=   676. E= -.30003649E+03 F= -.30132256E+03 E0= -.30138284E+03  EK= 0.68999E+01 SP= -.82E+01 SK= 0.26E+01
       N       E                     dE             d eps       ncg     rms          rms(c)
DAV:   1    -0.301012061278E+03    0.31050E+00   -0.34796E-02   880   0.188E+00    0.104E+00
RMM:   2    -0.301013787992E+03   -0.17267E-02   -0.30501E-02   678   0.275E-01    0.453E-01
RMM:   3    -0.301014306272E+03   -0.51828E-03   -0.58488E-03   792   0.141E-01    0.124E-01
RMM:   4    -0.301014263677E+03    0.42596E-04   -0.10358E-03   689   0.624E-02    0.851E-02
RMM:   5    -0.301014150128E+03    0.11355E-03   -0.28116E-04   747   0.307E-02    0.433E-02
RMM:   6    -0.301014133123E+03    0.17005E-04   -0.55166E-05   553   0.130E-02    0.174E-02
RMM:   7    -0.301014132543E+03    0.58004E-06   -0.13712E-05   377   0.743E-03
     22 T=   735. E= -.30003553E+03 F= -.30101413E+03 E0= -.30106759E+03  EK= 0.75036E+01 SP= -.92E+01 SK= 0.27E+01
       N       E                     dE             d eps       ncg     rms          rms(c)
DAV:   1    -0.300690501235E+03    0.32363E+00   -0.33612E-02   920   0.206E+00    0.506E-01
RMM:   2    -0.300691677947E+03   -0.11767E-02   -0.28669E-02   682   0.313E-01    0.413E-01
RMM:   3    -0.300691394833E+03    0.28311E-03   -0.75695E-03   791   0.147E-01    0.252E-01
RMM:   4    -0.300690709262E+03    0.68557E-03   -0.23355E-03   671   0.766E-02    0.134E-01
RMM:   5    -0.300689852914E+03    0.85635E-03   -0.84285E-04   767   0.481E-02    0.526E-02
RMM:   6    -0.300689434149E+03    0.41877E-03   -0.57503E-04   664   0.300E-02    0.323E-02
RMM:   7    -0.300689193457E+03    0.24069E-03   -0.38252E-04   664   0.243E-02    0.217E-02
RMM:   8    -0.300689077543E+03    0.11591E-03   -0.30433E-04   686   0.219E-02    0.151E-02
RMM:   9    -0.300689069842E+03    0.77009E-05   -0.74911E-05   640   0.129E-02
     23 T=   802. E= -.30003482E+03 F= -.30068907E+03 E0= -.30072281E+03  EK= 0.81880E+01 SP= -.10E+02 SK= 0.28E+01
       N       E                     dE             d eps       ncg     rms          rms(c)
DAV:   1    -0.300365112146E+03    0.32397E+00   -0.15607E-02   960   0.279E+00    0.465E-01
RMM:   2    -0.300351582656E+03    0.13529E-01   -0.43463E-02   676   0.329E-01    0.225E-01
RMM:   3    -0.300344281373E+03    0.73013E-02   -0.18243E-02   768   0.188E-01    0.175E-01
RMM:   4    -0.300342093860E+03    0.21875E-02   -0.29997E-03   747   0.968E-02    0.119E-01
RMM:   5    -0.300340441584E+03    0.16523E-02   -0.22502E-03   644   0.747E-02    0.678E-02
RMM:   6    -0.300340299085E+03    0.14250E-03   -0.93807E-04   793   0.468E-02    0.660E-02
RMM:   7    -0.300340296893E+03    0.21919E-05   -0.11160E-04   625   0.218E-02    0.345E-02
RMM:   8    -0.300340200535E+03    0.96358E-04   -0.26592E-04   624   0.232E-02    0.135E-02
RMM:   9    -0.300340202696E+03   -0.21613E-05   -0.54046E-05   560   0.115E-02
     24 T=   875. E= -.30003525E+03 F= -.30034020E+03 E0= -.30036910E+03  EK= 0.89394E+01 SP= -.11E+02 SK= 0.27E+01
       N       E                     dE             d eps       ncg     rms          rms(c)
DAV:   1    -0.299963544443E+03    0.37666E+00   -0.58687E-02   920   0.209E+00    0.377E-01
RMM:   2    -0.299964416388E+03   -0.87195E-03   -0.38803E-02   683   0.348E-01    0.109E-01
RMM:   3    -0.299964058690E+03    0.35770E-03   -0.78509E-03   794   0.166E-01    0.152E-01
RMM:   4    -0.299963829106E+03    0.22958E-03   -0.10373E-03   757   0.689E-02    0.111E-01
RMM:   5    -0.299963235152E+03    0.59395E-03   -0.67747E-04   635   0.420E-02    0.344E-02
RMM:   6    -0.299963132482E+03    0.10267E-03   -0.41560E-04   683   0.276E-02    0.444E-02
RMM:   7    -0.299963129497E+03    0.29853E-05   -0.64656E-05   616   0.147E-02
     25 T=   954. E= -.30003669E+03 F= -.29996313E+03 E0= -.29998846E+03  EK= 0.97400E+01 SP= -.12E+02 SK= 0.26E+01
       N       E                     dE             d eps       ncg     rms          rms(c)
DAV:   1    -0.299545004725E+03    0.41813E+00   -0.52932E-02   920   0.222E+00    0.364E-01
RMM:   2    -0.299549499065E+03   -0.44943E-02   -0.44574E-02   686   0.377E-01    0.862E-02
RMM:   3    -0.299550181012E+03   -0.68195E-03   -0.77399E-03   795   0.174E-01    0.158E-01
RMM:   4    -0.299550254751E+03   -0.73739E-04   -0.10600E-03   792   0.710E-02    0.127E-01
RMM:   5    -0.299550251253E+03    0.34976E-05   -0.20102E-04   732   0.265E-02    0.960E-02
RMM:   6    -0.299550231298E+03    0.19955E-04   -0.32944E-05   478   0.995E-03    0.433E-02
RMM:   7    -0.299550217806E+03    0.13492E-04   -0.85252E-05   500   0.124E-02    0.432E-02
RMM:   8    -0.299550217961E+03   -0.15441E-06   -0.19284E-05   404   0.671E-03
     26 T=  1034. E= -.30003895E+03 F= -.29955022E+03 E0= -.29957127E+03  EK= 0.10559E+02 SP= -.13E+02 SK= 0.23E+01
       N       E                     dE             d eps       ncg     rms          rms(c)
DAV:   1    -0.299094855923E+03    0.45536E+00   -0.52740E-02   920   0.235E+00    0.535E-01
RMM:   2    -0.299099027099E+03   -0.41712E-02   -0.45493E-02   680   0.386E-01    0.819E-02
RMM:   3    -0.299099651601E+03   -0.62450E-03   -0.88062E-03   792   0.183E-01    0.107E-01
RMM:   4    -0.299099706184E+03   -0.54583E-04   -0.12165E-03   763   0.773E-02    0.689E-02
RMM:   5    -0.299099687840E+03    0.18345E-04   -0.30392E-04   764   0.336E-02    0.358E-02
RMM:   6    -0.299099670825E+03    0.17014E-04   -0.51216E-05   501   0.130E-02    0.150E-02
RMM:   7    -0.299099662678E+03    0.81476E-05   -0.27548E-05   447   0.867E-03
     27 T=  1112. E= -.30004173E+03 F= -.29909966E+03 E0= -.29911879E+03  EK= 0.11359E+02 SP= -.14E+02 SK= 0.20E+01
       N       E                     dE             d eps       ncg     rms          rms(c)
DAV:   1    -0.298613649138E+03    0.48602E+00   -0.50735E-02   952   0.238E+00    0.301E-01
RMM:   2    -0.298618837687E+03   -0.51885E-02   -0.48016E-02   693   0.399E-01    0.126E-01
RMM:   3    -0.298619653423E+03   -0.81574E-03   -0.86718E-03   793   0.187E-01    0.182E-01
RMM:   4    -0.298619777708E+03   -0.12428E-03   -0.14146E-03   816   0.795E-02    0.159E-01
RMM:   5    -0.298619776885E+03    0.82354E-06   -0.18685E-04   699   0.254E-02    0.129E-01
RMM:   6    -0.298619755035E+03    0.21850E-04   -0.59924E-05   496   0.125E-02    0.363E-02
RMM:   7    -0.298619756486E+03   -0.14517E-05   -0.64173E-05   499   0.100E-02
     28 T=  1185. E= -.30004537E+03 F= -.29861976E+03 E0= -.29863805E+03  EK= 0.12103E+02 SP= -.15E+02 SK= 0.16E+01
       N       E                     dE             d eps       ncg     rms          rms(c)
DAV:   1    -0.298119379169E+03    0.50038E+00   -0.56283E-02   928   0.245E+00    0.581E-01
RMM:   2    -0.298124901856E+03   -0.55227E-02   -0.52102E-02   686   0.427E-01    0.926E-02
RMM:   3    -0.298125928018E+03   -0.10262E-02   -0.10546E-02   795   0.207E-01    0.125E-01
RMM:   4    -0.298126065519E+03   -0.13750E-03   -0.16152E-03   793   0.868E-02    0.755E-02
RMM:   5    -0.298126082983E+03   -0.17464E-04   -0.27670E-04   764   0.312E-02    0.358E-02
RMM:   6    -0.298126082688E+03    0.29441E-06   -0.14766E-05   366   0.910E-03
     29 T=  1250. E= -.30004797E+03 F= -.29812608E+03 E0= -.29814386E+03  EK= 0.12761E+02 SP= -.16E+02 SK= 0.12E+01
       N       E                     dE             d eps       ncg     rms          rms(c)
DAV:   1    -0.297637570864E+03    0.48851E+00   -0.61542E-02   944   0.252E+00    0.370E-01
RMM:   2    -0.297643722786E+03   -0.61519E-02   -0.54168E-02   692   0.440E-01    0.122E-01
RMM:   3    -0.297644745967E+03   -0.10232E-02   -0.10491E-02   796   0.211E-01    0.195E-01
RMM:   4    -0.297644927169E+03   -0.18120E-03   -0.19101E-03   848   0.883E-02    0.177E-01
RMM:   5    -0.297644937833E+03   -0.10664E-04   -0.10784E-04   627   0.205E-02    0.186E-01
RMM:   6    -0.297644912514E+03    0.25319E-04   -0.45495E-05   510   0.122E-02    0.119E-01
RMM:   7    -0.297644909182E+03    0.33318E-05   -0.11301E-04   482   0.140E-02    0.298E-02
RMM:   8    -0.297644905981E+03    0.32008E-05   -0.14981E-05   373   0.852E-03
     30 T=  1303. E= -.30005025E+03 F= -.29764491E+03 E0= -.29766229E+03  EK= 0.13304E+02 SP= -.17E+02 SK= 0.84E+00
       N       E                     dE             d eps       ncg     rms          rms(c)
DAV:   1    -0.297197970899E+03    0.44694E+00   -0.61069E-02   936   0.259E+00    0.456E-01
RMM:   2    -0.297204718656E+03   -0.67478E-02   -0.59706E-02   688   0.457E-01    0.839E-02
RMM:   3    -0.297205917143E+03   -0.11985E-02   -0.11990E-02   795   0.224E-01    0.172E-01
RMM:   4    -0.297206117167E+03   -0.20002E-03   -0.21228E-03   842   0.933E-02    0.148E-01
RMM:   5    -0.297206122697E+03   -0.55296E-05   -0.12600E-04   666   0.220E-02    0.138E-01
RMM:   6    -0.297206122637E+03    0.59837E-07   -0.10834E-05   356   0.824E-03
     31 T=  1343. E= -.30005274E+03 F= -.29720612E+03 E0= -.29722309E+03  EK= 0.13717E+02 SP= -.17E+02 SK= 0.50E+00
       N       E                     dE             d eps       ncg     rms          rms(c)
DAV:   1    -0.296824056963E+03    0.38207E+00   -0.66326E-02   936   0.264E+00    0.182E-01
RMM:   2    -0.296830928211E+03   -0.68712E-02   -0.58472E-02   688   0.458E-01    0.285E-01
RMM:   3    -0.296832138673E+03   -0.12105E-02   -0.12042E-02   795   0.223E-01    0.373E-01
RMM:   4    -0.296832348198E+03   -0.20953E-03   -0.20985E-03   844   0.925E-02    0.369E-01
RMM:   5    -0.296832356905E+03   -0.87073E-05   -0.11043E-04   629   0.205E-02    0.377E-01
RMM:   6    -0.296832338420E+03    0.18485E-04   -0.15045E-05   361   0.918E-03    0.340E-01
RMM:   7    -0.296832343239E+03   -0.48187E-05   -0.11922E-03   792   0.460E-02    0.268E-01
RMM:   8    -0.296832302197E+03    0.41042E-04   -0.56709E-05   477   0.171E-02    0.203E-01
RMM:   9    -0.296832267648E+03    0.34549E-04   -0.16070E-04   657   0.193E-02    0.619E-02
RMM:  10    -0.296832267843E+03   -0.19557E-06   -0.79905E-06   351   0.597E-03
     32 T=  1369. E= -.30005539E+03 F= -.29683227E+03 E0= -.29684877E+03  EK= 0.13981E+02 SP= -.17E+02 SK= 0.23E+00
       N       E                     dE             d eps       ncg     rms          rms(c)
DAV:   1    -0.296524205683E+03    0.30806E+00   -0.68294E-02   944   0.267E+00    0.107E+00
RMM:   2    -0.296530933264E+03   -0.67276E-02   -0.62191E-02   682   0.474E-01    0.287E-01
RMM:   3    -0.296532363439E+03   -0.14302E-02   -0.13967E-02   798   0.239E-01    0.812E-02
RMM:   4    -0.296532562161E+03   -0.19872E-03   -0.23122E-03   798   0.983E-02    0.520E-02
RMM:   5    -0.296532550564E+03    0.11597E-04   -0.24280E-04   727   0.293E-02    0.241E-02
RMM:   6    -0.296532549856E+03    0.70786E-06   -0.38995E-05   447   0.122E-02
     33 T=  1379. E= -.30005642E+03 F= -.29653255E+03 E0= -.29654848E+03  EK= 0.14081E+02 SP= -.18E+02 SK= 0.63E-01
       N       E                     dE             d eps       ncg     rms          rms(c)
DAV:   1    -0.296301890215E+03    0.23066E+00   -0.73369E-02   952   0.269E+00    0.308E-01
RMM:   2    -0.296309074768E+03   -0.71846E-02   -0.61268E-02   679   0.478E-01    0.246E-01
RMM:   3    -0.296310441573E+03   -0.13668E-02   -0.13600E-02   799   0.240E-01    0.344E-01
RMM:   4    -0.296310663073E+03   -0.22150E-03   -0.22465E-03   862   0.940E-02    0.343E-01
RMM:   5    -0.296310681498E+03   -0.18425E-04   -0.11159E-04   667   0.208E-02    0.366E-01
RMM:   6    -0.296310603001E+03    0.78497E-04   -0.38993E-04   587   0.351E-02    0.972E-02
RMM:   7    -0.296310660400E+03   -0.57399E-04   -0.45042E-04   566   0.250E-02    0.174E-01
RMM:   8    -0.296310655118E+03    0.52821E-05   -0.48635E-05   593   0.132E-02
     34 T=  1372. E= -.30005713E+03 F= -.29631066E+03 E0= -.29632648E+03  EK= 0.14006E+02 SP= -.18E+02 SK= 0.35E-03
       N       E                     dE             d eps       ncg     rms          rms(c)
DAV:   1    -0.296157020277E+03    0.15364E+00   -0.84224E-02   944   0.268E+00    0.111E+00
RMM:   2    -0.296163474590E+03   -0.64543E-02   -0.67289E-02   674   0.499E-01    0.303E-01
RMM:   3    -0.296165067721E+03   -0.15931E-02   -0.16221E-02   795   0.252E-01    0.133E-01
RMM:   4    -0.296165267298E+03   -0.19958E-03   -0.22105E-03   730   0.106E-01    0.630E-02
RMM:   5    -0.296165307837E+03   -0.40539E-04   -0.71965E-04   772   0.485E-02    0.322E-02
RMM:   6    -0.296165285408E+03    0.22428E-04   -0.61971E-05   512   0.165E-02    0.118E-02
RMM:   7    -0.296165285369E+03    0.39174E-07   -0.16119E-05   387   0.819E-03
     35 T=  1347. E= -.30005610E+03 F= -.29616529E+03 E0= -.29618162E+03  EK= 0.13760E+02 SP= -.18E+02 SK= 0.42E-01
       N       E                     dE             d eps       ncg     rms          rms(c)
DAV:   1    -0.296085971244E+03    0.79314E-01   -0.89347E-02   944   0.264E+00    0.355E-01
RMM:   2    -0.296092555031E+03   -0.65838E-02   -0.58642E-02   669   0.466E-01    0.347E-01
RMM:   3    -0.296093807117E+03   -0.12521E-02   -0.13527E-02   798   0.236E-01    0.411E-01
RMM:   4    -0.296094008175E+03   -0.20106E-03   -0.19792E-03   819   0.923E-02    0.335E-01
RMM:   5    -0.296094004512E+03    0.36635E-05   -0.68358E-04   613   0.384E-02    0.139E-01
RMM:   6    -0.296093981589E+03    0.22923E-04   -0.11618E-03   657   0.465E-02    0.334E-01
RMM:   7    -0.296093864507E+03    0.11708E-03   -0.17232E-04   547   0.238E-02    0.138E-01
RMM:   8    -0.296093844062E+03    0.20445E-04   -0.23090E-04   563   0.188E-02    0.261E-02
RMM:   9    -0.296093849367E+03   -0.53047E-05   -0.28906E-05   457   0.105E-02
     36 T=  1308. E= -.30005415E+03 F= -.29609385E+03 E0= -.29611123E+03  EK= 0.13360E+02 SP= -.17E+02 SK= 0.17E+00
       N       E                     dE             d eps       ncg     rms          rms(c)
DAV:   1    -0.296073998837E+03    0.19845E-01   -0.65258E-02   944   0.260E+00    0.661E-01
RMM:   2    -0.296080025381E+03   -0.60265E-02   -0.56034E-02   675   0.449E-01    0.129E-01
RMM:   3    -0.296081302912E+03   -0.12775E-02   -0.12790E-02   799   0.228E-01    0.110E-01
RMM:   4    -0.296081457966E+03   -0.15505E-03   -0.18728E-03   781   0.922E-02    0.534E-02
RMM:   5    -0.296081490143E+03   -0.32177E-04   -0.34650E-04   769   0.327E-02    0.308E-02
RMM:   6    -0.296081481825E+03    0.83179E-05   -0.26564E-05   412   0.104E-02
     37 T=  1256. E= -.30005244E+03 F= -.29608148E+03 E0= -.29610022E+03  EK= 0.12822E+02 SP= -.17E+02 SK= 0.37E+00
       N       E                     dE             d eps       ncg     rms          rms(c)
DAV:   1    -0.296090608849E+03   -0.91187E-02   -0.45339E-02   936   0.255E+00    0.270E-01
RMM:   2    -0.296096308486E+03   -0.56996E-02   -0.49352E-02   680   0.416E-01    0.139E-01
RMM:   3    -0.296097325077E+03   -0.10166E-02   -0.10225E-02   800   0.207E-01    0.194E-01
RMM:   4    -0.296097473483E+03   -0.14841E-03   -0.17193E-03   828   0.840E-02    0.151E-01
RMM:   5    -0.296097467987E+03    0.54965E-05   -0.16858E-04   684   0.238E-02    0.109E-01
RMM:   6    -0.296097462395E+03    0.55919E-05   -0.33637E-05   449   0.990E-03
     38 T=  1191. E= -.30005037E+03 F= -.29609746E+03 E0= -.29611805E+03  EK= 0.12161E+02 SP= -.17E+02 SK= 0.61E+00
       N       E                     dE             d eps       ncg     rms          rms(c)
DAV:   1    -0.296098564879E+03   -0.10969E-02   -0.36445E-02   960   0.245E+00    0.367E-01
RMM:   2    -0.296103129432E+03   -0.45646E-02   -0.39613E-02   683   0.384E-01    0.741E-02
RMM:   3    -0.296104012969E+03   -0.88354E-03   -0.86053E-03   799   0.190E-01    0.128E-01
RMM:   4    -0.296104163591E+03   -0.15062E-03   -0.14712E-03   829   0.781E-02    0.898E-02
RMM:   5    -0.296104158476E+03    0.51154E-05   -0.14577E-04   657   0.216E-02    0.586E-02
RMM:   6    -0.296104153101E+03    0.53754E-05   -0.19732E-05   381   0.924E-03
     39 T=  1115. E= -.30004801E+03 F= -.29610415E+03 E0= -.29612705E+03  EK= 0.11386E+02 SP= -.16E+02 SK= 0.85E+00
       N       E                     dE             d eps       ncg     rms          rms(c)
DAV:   1    -0.296067022671E+03    0.37136E-01   -0.35657E-02   956   0.233E+00    0.339E-01
RMM:   2    -0.296069981944E+03   -0.29593E-02   -0.37236E-02   673   0.363E-01    0.102E-01
RMM:   3    -0.296070687822E+03   -0.70588E-03   -0.78526E-03   794   0.182E-01    0.147E-01
RMM:   4    -0.296070726753E+03   -0.38930E-04   -0.14151E-03   814   0.754E-02    0.123E-01
RMM:   5    -0.296070704953E+03    0.21800E-04   -0.11374E-04   640   0.192E-02    0.103E-01
RMM:   6    -0.296070661982E+03    0.42971E-04   -0.81451E-05   484   0.130E-02    0.468E-02
RMM:   7    -0.296070649199E+03    0.12783E-04   -0.11091E-04   503   0.114E-02    0.183E-02
RMM:   8    -0.296070647142E+03    0.20564E-05   -0.10558E-05   376   0.634E-03
     40 T=  1030. E= -.30004504E+03 F= -.29607065E+03 E0= -.29609446E+03  EK= 0.10519E+02 SP= -.16E+02 SK= 0.11E+01
       N       E                     dE             d eps       ncg     rms          rms(c)
DAV:   1    -0.295980554837E+03    0.90094E-01   -0.28033E-02   960   0.223E+00    0.337E-01
RMM:   2    -0.295984276985E+03   -0.37221E-02   -0.34988E-02   682   0.346E-01    0.780E-02
RMM:   3    -0.295984908170E+03   -0.63119E-03   -0.65554E-03   793   0.168E-01    0.122E-01
RMM:   4    -0.295984999811E+03   -0.91641E-04   -0.11500E-03   805   0.714E-02    0.892E-02
RMM:   5    -0.295985003175E+03   -0.33641E-05   -0.14742E-04   660   0.223E-02    0.633E-02
RMM:   6    -0.295984991570E+03    0.11605E-04   -0.30237E-05   429   0.984E-03    0.441E-02
RMM:   7    -0.295984988251E+03    0.33184E-05   -0.14132E-05   366   0.635E-03
     41 T=   940. E= -.30004184E+03 F= -.29598499E+03 E0= -.29600959E+03  EK= 0.95964E+01 SP= -.15E+02 SK= 0.12E+01
       N       E                     dE             d eps       ncg     rms          rms(c)
DAV:   1    -0.295851189683E+03    0.13380E+00   -0.31785E-02   928   0.216E+00    0.326E-01
RMM:   2    -0.295854750245E+03   -0.35606E-02   -0.33238E-02   690   0.339E-01    0.670E-02
RMM:   3    -0.295855373860E+03   -0.62362E-03   -0.63610E-03   793   0.163E-01    0.121E-01
RMM:   4    -0.295855472547E+03   -0.98687E-04   -0.10286E-03   815   0.676E-02    0.957E-02
RMM:   5    -0.295855464781E+03    0.77663E-05   -0.13771E-04   646   0.211E-02    0.682E-02
RMM:   6    -0.295855458831E+03    0.59498E-05   -0.19401E-05   380   0.957E-03
     42 T=   849. E= -.30003873E+03 F= -.29585546E+03 E0= -.29588159E+03  EK= 0.86682E+01 SP= -.14E+02 SK= 0.13E+01
       N       E                     dE             d eps       ncg     rms          rms(c)
DAV:   1    -0.295699555029E+03    0.15591E+00   -0.23574E-02   928   0.208E+00    0.265E-01
RMM:   2    -0.295702659994E+03   -0.31050E-02   -0.31217E-02   694   0.324E-01    0.867E-02
RMM:   3    -0.295703093415E+03   -0.43342E-03   -0.57323E-03   796   0.154E-01    0.124E-01
RMM:   4    -0.295703145553E+03   -0.52138E-04   -0.96740E-04   801   0.649E-02    0.107E-01
RMM:   5    -0.295703076023E+03    0.69530E-04   -0.14337E-04   647   0.211E-02    0.761E-02
RMM:   6    -0.295702959886E+03    0.11614E-03   -0.96551E-05   543   0.146E-02    0.324E-02
RMM:   7    -0.295702833010E+03    0.12688E-03   -0.23575E-04   596   0.155E-02    0.281E-02
RMM:   8    -0.295702804938E+03    0.28072E-04   -0.62134E-05   567   0.101E-02    0.200E-02
RMM:   9    -0.295702792608E+03    0.12330E-04   -0.28892E-05   463   0.699E-03    0.811E-03
RMM:  10    -0.295702786992E+03    0.56160E-05   -0.15749E-05   375   0.549E-03
     43 T=   762. E= -.30003657E+03 F= -.29570279E+03 E0= -.29573378E+03  EK= 0.77834E+01 SP= -.13E+02 SK= 0.13E+01
       N       E                     dE             d eps       ncg     rms          rms(c)
DAV:   1    -0.295597766194E+03    0.10503E+00   -0.26799E-01   952   0.211E+00    0.109E+00
RMM:   2    -0.295580215117E+03    0.17551E-01   -0.17093E-01   647   0.465E-01    0.687E-01
RMM:   3    -0.295565238102E+03    0.14977E-01   -0.28548E-02   724   0.284E-01    0.495E-01
RMM:   4    -0.295559514948E+03    0.57232E-02   -0.77268E-03   728   0.135E-01    0.318E-01
RMM:   5    -0.295554690027E+03    0.48249E-02   -0.78498E-03   664   0.911E-02    0.186E-01
RMM:   6    -0.295553341662E+03    0.13484E-02   -0.35954E-03   745   0.606E-02    0.121E-01
RMM:   7    -0.295553362641E+03   -0.20978E-04   -0.20999E-04   564   0.228E-02    0.108E-01
RMM:   8    -0.295552953768E+03    0.40887E-03   -0.31131E-04   577   0.185E-02    0.525E-02
RMM:   9    -0.295552871667E+03    0.82102E-04   -0.48901E-04   621   0.185E-02    0.239E-02
RMM:  10    -0.295552854268E+03    0.17398E-04   -0.28153E-05   458   0.882E-03    0.165E-02
RMM:  11    -0.295552845877E+03    0.83908E-05   -0.18408E-05   416   0.647E-03
     44 T=   684. E= -.30003554E+03 F= -.29555285E+03 E0= -.29558508E+03  EK= 0.69844E+01 SP= -.13E+02 SK= 0.13E+01
       N       E                     dE             d eps       ncg     rms          rms(c)
DAV:   1    -0.295435100092E+03    0.11775E+00   -0.40632E-02   944   0.189E+00    0.346E-01
RMM:   2    -0.295432959464E+03    0.21406E-02   -0.31053E-02   686   0.307E-01    0.137E-01
RMM:   3    -0.295433248377E+03   -0.28891E-03   -0.66866E-03   791   0.152E-01    0.170E-01
RMM:   4    -0.295432861027E+03    0.38735E-03   -0.11069E-03   694   0.669E-02    0.116E-01
RMM:   5    -0.295432837536E+03    0.23491E-04   -0.55263E-04   634   0.348E-02    0.634E-02
RMM:   6    -0.295432705939E+03    0.13160E-03   -0.21993E-04   648   0.216E-02    0.339E-02
RMM:   7    -0.295432683483E+03    0.22457E-04   -0.37863E-05   500   0.107E-02    0.245E-02
RMM:   8    -0.295432689149E+03   -0.56664E-05   -0.13133E-05   382   0.687E-03
     45 T=   617. E= -.30003572E+03 F= -.29543269E+03 E0= -.29546592E+03  EK= 0.63030E+01 SP= -.12E+02 SK= 0.11E+01
       N       E                     dE             d eps       ncg     rms          rms(c)
DAV:   1    -0.295359256177E+03    0.73427E-01   -0.22106E-02   952   0.180E+00    0.221E-01
RMM:   2    -0.295361573377E+03   -0.23172E-02   -0.22565E-02   704   0.277E-01    0.105E-01
RMM:   3    -0.295361846454E+03   -0.27308E-03   -0.40647E-03   779   0.130E-01    0.106E-01
RMM:   4    -0.295361791138E+03    0.55317E-04   -0.78285E-04   766   0.572E-02    0.814E-02
RMM:   5    -0.295361795222E+03   -0.40845E-05   -0.10880E-04   612   0.193E-02    0.691E-02
RMM:   6    -0.295361782721E+03    0.12501E-04   -0.30955E-05   456   0.948E-03    0.367E-02
RMM:   7    -0.295361778900E+03    0.38208E-05   -0.30242E-05   458   0.750E-03
     46 T=   564. E= -.30003697E+03 F= -.29536178E+03 E0= -.29539605E+03  EK= 0.57555E+01 SP= -.11E+02 SK= 0.95E+00
       N       E                     dE             d eps       ncg     rms          rms(c)
DAV:   1    -0.295347306601E+03    0.14476E-01   -0.23139E-02   944   0.171E+00    0.218E-01
RMM:   2    -0.295349262753E+03   -0.19562E-02   -0.18725E-02   695   0.257E-01    0.494E-02
RMM:   3    -0.295349617959E+03   -0.35521E-03   -0.35325E-03   791   0.122E-01    0.753E-02
RMM:   4    -0.295349639868E+03   -0.21910E-04   -0.63442E-04   769   0.525E-02    0.618E-02
RMM:   5    -0.295349643896E+03   -0.40277E-05   -0.87898E-05   542   0.174E-02
     47 T=   523. E= -.30003830E+03 F= -.29534964E+03 E0= -.29538505E+03  EK= 0.53447E+01 SP= -.11E+02 SK= 0.76E+00
       N       E                     dE             d eps       ncg     rms          rms(c)
DAV:   1    -0.295396082861E+03   -0.46443E-01   -0.21228E-02   920   0.165E+00    0.108E-01
RMM:   2    -0.295397783672E+03   -0.17008E-02   -0.15953E-02   693   0.241E-01    0.759E-02
RMM:   3    -0.295398086645E+03   -0.30297E-03   -0.30952E-03   794   0.115E-01    0.104E-01
RMM:   4    -0.295398140254E+03   -0.53610E-04   -0.55455E-04   789   0.488E-02    0.958E-02
RMM:   5    -0.295398143279E+03   -0.30243E-05   -0.70309E-05   439   0.156E-02
     48 T=   496. E= -.30003945E+03 F= -.29539814E+03 E0= -.29543462E+03  EK= 0.50634E+01 SP= -.10E+02 SK= 0.57E+00
       N       E                     dE             d eps       ncg     rms          rms(c)
DAV:   1    -0.295501764072E+03   -0.10362E+00   -0.10663E-02   936   0.162E+00    0.905E-02
RMM:   2    -0.295503033981E+03   -0.12699E-02   -0.12658E-02   694   0.209E-01    0.794E-02
RMM:   3    -0.295503234463E+03   -0.20048E-03   -0.24031E-03   794   0.100E-01    0.923E-02
RMM:   4    -0.295503272297E+03   -0.37834E-04   -0.44474E-04   763   0.434E-02    0.864E-02
RMM:   5    -0.295503255167E+03    0.17130E-04   -0.65616E-05   494   0.155E-02    0.629E-02
RMM:   6    -0.295503209454E+03    0.45713E-04   -0.54598E-05   512   0.117E-02    0.267E-02
RMM:   7    -0.295503153383E+03    0.56070E-04   -0.13475E-04   579   0.122E-02    0.431E-02
RMM:   8    -0.295503138426E+03    0.14957E-04   -0.25030E-05   437   0.727E-03    0.399E-02
RMM:   9    -0.295503141095E+03   -0.26681E-05   -0.36409E-06   348   0.436E-03
     49 T=   480. E= -.30004079E+03 F= -.29550314E+03 E0= -.29553865E+03  EK= 0.48987E+01 SP= -.98E+01 SK= 0.40E+00
       N       E                     dE             d eps       ncg     rms          rms(c)
DAV:   1    -0.295652212590E+03   -0.14907E+00    0.19745E-03   984   0.164E+00    0.359E-01
RMM:   2    -0.295652765722E+03   -0.55313E-03   -0.13225E-02   684   0.213E-01    0.129E-01
RMM:   3    -0.295652619340E+03    0.14638E-03   -0.33099E-03   793   0.106E-01    0.707E-02
RMM:   4    -0.295652464806E+03    0.15453E-03   -0.60175E-04   717   0.495E-02    0.439E-02
RMM:   5    -0.295652234452E+03    0.23035E-03   -0.27973E-04   625   0.269E-02    0.226E-02
RMM:   6    -0.295652099668E+03    0.13478E-03   -0.24875E-04   604   0.205E-02    0.173E-02
RMM:   7    -0.295652036613E+03    0.63055E-04   -0.16207E-04   644   0.162E-02    0.133E-02
RMM:   8    -0.295651990150E+03    0.46463E-04   -0.10183E-04   600   0.131E-02    0.877E-03
RMM:   9    -0.295651969163E+03    0.20987E-04   -0.61390E-05   554   0.101E-02    0.680E-03
RMM:  10    -0.295651948930E+03    0.20233E-04   -0.67498E-05   581   0.972E-03    0.520E-03
RMM:  11    -0.295651939210E+03    0.97196E-05   -0.27513E-05   457   0.717E-03
     50 T=   473. E= -.30003933E+03 F= -.29565194E+03 E0= -.29567840E+03  EK= 0.48344E+01 SP= -.95E+01 SK= 0.25E+00
       N       E                     dE             d eps       ncg     rms          rms(c)
DAV:   1    -0.295857324240E+03   -0.20538E+00    0.24207E-02   952   0.225E+00    0.291E-01
RMM:   2    -0.295847029580E+03    0.10295E-01   -0.23415E-02   667   0.239E-01    0.196E-01
RMM:   3    -0.295842547641E+03    0.44819E-02   -0.12543E-02   733   0.147E-01    0.158E-01
RMM:   4    -0.295841213021E+03    0.13346E-02   -0.23578E-03   776   0.831E-02    0.109E-01
RMM:   5    -0.295840041136E+03    0.11719E-02   -0.15195E-03   642   0.603E-02    0.575E-02
RMM:   6    -0.295839845732E+03    0.19540E-03   -0.82024E-04   732   0.395E-02    0.634E-02
RMM:   7    -0.295839838400E+03    0.73318E-05   -0.96140E-05   641   0.191E-02
     51 T=   476. E= -.30004016E+03 F= -.29583984E+03 E0= -.29586307E+03  EK= 0.48564E+01 SP= -.92E+01 SK= 0.14E+00
       N       E                     dE             d eps       ncg     rms          rms(c)
DAV:   1    -0.296056580951E+03   -0.21674E+00   -0.11035E-02   960   0.167E+00    0.276E-01
RMM:   2    -0.296055578492E+03    0.10025E-02   -0.17571E-02   654   0.245E-01    0.953E-02
RMM:   3    -0.296055202616E+03    0.37588E-03   -0.63663E-03   793   0.129E-01    0.110E-01
RMM:   4    -0.296055040456E+03    0.16216E-03   -0.65954E-04   676   0.559E-02    0.684E-02
RMM:   5    -0.296054656080E+03    0.38438E-03   -0.81082E-04   617   0.432E-02    0.559E-02
RMM:   6    -0.296054599374E+03    0.56706E-04   -0.32432E-04   741   0.254E-02    0.510E-02
RMM:   7    -0.296054589930E+03    0.94441E-05   -0.29078E-05   416   0.100E-02
     52 T=   485. E= -.30004055E+03 F= -.29605459E+03 E0= -.29607388E+03  EK= 0.49523E+01 SP= -.90E+01 SK= 0.61E-01
       N       E                     dE             d eps       ncg     rms          rms(c)
DAV:   1    -0.296283290428E+03   -0.22869E+00   -0.48329E-03   924   0.173E+00    0.238E-01
RMM:   2    -0.296283659645E+03   -0.36922E-03   -0.19917E-02   663   0.244E-01    0.940E-02
RMM:   3    -0.296283653148E+03    0.64969E-05   -0.54576E-03   793   0.125E-01    0.111E-01
RMM:   4    -0.296283583215E+03    0.69933E-04   -0.60464E-04   719   0.544E-02    0.657E-02
RMM:   5    -0.296283411590E+03    0.17163E-03   -0.47789E-04   618   0.351E-02    0.330E-02
RMM:   6    -0.296283384204E+03    0.27386E-04   -0.24294E-04   686   0.198E-02    0.267E-02
RMM:   7    -0.296283371719E+03    0.12485E-04   -0.38137E-05   467   0.937E-03    0.155E-02
RMM:   8    -0.296283347158E+03    0.24561E-04   -0.61103E-05   500   0.929E-03    0.816E-03
RMM:   9    -0.296283337918E+03    0.92398E-05   -0.32279E-05   466   0.675E-03
     53 T=   500. E= -.30003976E+03 F= -.29628334E+03 E0= -.29629302E+03  EK= 0.51090E+01 SP= -.89E+01 SK= 0.16E-01
       N       E                     dE             d eps       ncg     rms          rms(c)
DAV:   1    -0.296521151888E+03   -0.23780E+00   -0.14410E-02   944   0.180E+00    0.293E-01
RMM:   2    -0.296519004106E+03    0.21478E-02   -0.18023E-02   646   0.235E-01    0.127E-01
RMM:   3    -0.296518271202E+03    0.73290E-03   -0.74246E-03   783   0.128E-01    0.106E-01
RMM:   4    -0.296518053188E+03    0.21801E-03   -0.90369E-04   696   0.603E-02    0.531E-02
RMM:   5    -0.296517826402E+03    0.22679E-03   -0.52997E-04   626   0.391E-02    0.354E-02
RMM:   6    -0.296517807351E+03    0.19051E-04   -0.24591E-04   691   0.228E-02    0.301E-02
RMM:   7    -0.296517799044E+03    0.83070E-05   -0.54063E-05   490   0.111E-02
     54 T=   521. E= -.30003872E+03 F= -.29651780E+03 E0= -.29652258E+03  EK= 0.53171E+01 SP= -.88E+01 SK= 0.11E-03
       N       E                     dE             d eps       ncg     rms          rms(c)
DAV:   1    -0.296756890773E+03   -0.23908E+00   -0.97814E-03   936   0.190E+00    0.276E-01
RMM:   2    -0.296754829279E+03    0.20615E-02   -0.20126E-02   672   0.241E-01    0.124E-01
RMM:   3    -0.296754049230E+03    0.78005E-03   -0.60268E-03   790   0.127E-01    0.106E-01
RMM:   4    -0.296753655293E+03    0.39394E-03   -0.88111E-04   671   0.612E-02    0.418E-02
RMM:   5    -0.296753456382E+03    0.19891E-03   -0.64368E-04   673   0.413E-02    0.380E-02
RMM:   6    -0.296753455246E+03    0.11358E-05   -0.15946E-04   691   0.211E-02    0.268E-02
RMM:   7    -0.296753433921E+03    0.21325E-04   -0.57911E-05   501   0.116E-02    0.109E-02
RMM:   8    -0.296753425045E+03    0.88761E-05   -0.32182E-05   457   0.805E-03
     55 T=   546. E= -.30003853E+03 F= -.29675343E+03 E0= -.29675766E+03  EK= 0.55709E+01 SP= -.89E+01 SK= 0.91E-02
       N       E                     dE             d eps       ncg     rms          rms(c)
DAV:   1    -0.296983511683E+03   -0.23008E+00   -0.11871E-02   968   0.178E+00    0.220E-01
RMM:   2    -0.296984278400E+03   -0.76672E-03   -0.16988E-02   676   0.229E-01    0.666E-02
RMM:   3    -0.296984368732E+03   -0.90332E-04   -0.37212E-03   794   0.113E-01    0.902E-02
RMM:   4    -0.296984343627E+03    0.25104E-04   -0.47744E-04   732   0.483E-02    0.565E-02
RMM:   5    -0.296984258370E+03    0.85257E-04   -0.21598E-04   601   0.270E-02    0.183E-02
RMM:   6    -0.296984247235E+03    0.11135E-04   -0.11084E-04   605   0.150E-02    0.202E-02
RMM:   7    -0.296984246286E+03    0.94836E-06   -0.13964E-05   373   0.766E-03
     56 T=   574. E= -.30003856E+03 F= -.29698425E+03 E0= -.29698830E+03  EK= 0.58652E+01 SP= -.90E+01 SK= 0.36E-01
       N       E                     dE             d eps       ncg     rms          rms(c)
DAV:   1    -0.297201492821E+03   -0.21725E+00   -0.11632E-02   968   0.181E+00    0.183E-01
RMM:   2    -0.297203036175E+03   -0.15434E-02   -0.14602E-02   670   0.223E-01    0.417E-02
RMM:   3    -0.297203306999E+03   -0.27082E-03   -0.28477E-03   796   0.108E-01    0.728E-02
RMM:   4    -0.297203343667E+03   -0.36668E-04   -0.43932E-04   755   0.451E-02    0.570E-02
RMM:   5    -0.297203346737E+03   -0.30699E-05   -0.73276E-05   469   0.164E-02
     57 T=   607. E= -.30003834E+03 F= -.29720335E+03 E0= -.29720734E+03  EK= 0.61934E+01 SP= -.91E+01 SK= 0.75E-01
       N       E                     dE             d eps       ncg     rms          rms(c)
DAV:   1    -0.297401808192E+03   -0.19846E+00   -0.87430E-03   960   0.185E+00    0.116E-01
RMM:   2    -0.297403168938E+03   -0.13607E-02   -0.12293E-02   677   0.215E-01    0.680E-02
RMM:   3    -0.297403425880E+03   -0.25694E-03   -0.26430E-03   798   0.105E-01    0.985E-02
RMM:   4    -0.297403462478E+03   -0.36598E-04   -0.39717E-04   751   0.433E-02    0.844E-02
RMM:   5    -0.297403465077E+03   -0.25988E-05   -0.60170E-05   443   0.159E-02
     58 T=   641. E= -.30003812E+03 F= -.29740347E+03 E0= -.29740743E+03  EK= 0.65467E+01 SP= -.93E+01 SK= 0.12E+00
       N       E                     dE             d eps       ncg     rms          rms(c)
DAV:   1    -0.297575266850E+03   -0.17180E+00   -0.76624E-03   964   0.188E+00    0.205E-01
RMM:   2    -0.297576709954E+03   -0.14431E-02   -0.13258E-02   680   0.219E-01    0.453E-02
RMM:   3    -0.297576974774E+03   -0.26482E-03   -0.27380E-03   802   0.108E-01    0.557E-02
RMM:   4    -0.297577010872E+03   -0.36098E-04   -0.41970E-04   750   0.445E-02    0.375E-02
RMM:   5    -0.297577014667E+03   -0.37947E-05   -0.64366E-05   465   0.161E-02
     59 T=   677. E= -.30003810E+03 F= -.29757701E+03 E0= -.29758097E+03  EK= 0.69146E+01 SP= -.95E+01 SK= 0.16E+00
       N       E                     dE             d eps       ncg     rms          rms(c)
DAV:   1    -0.297713824344E+03   -0.13681E+00   -0.82880E-03   976   0.194E+00    0.197E-01
RMM:   2    -0.297715464419E+03   -0.16401E-02   -0.14983E-02   681   0.232E-01    0.353E-02
RMM:   3    -0.297715755463E+03   -0.29104E-03   -0.30099E-03   802   0.113E-01    0.687E-02
RMM:   4    -0.297715796528E+03   -0.41065E-04   -0.45980E-04   774   0.458E-02    0.631E-02
RMM:   5    -0.297715799634E+03   -0.31061E-05   -0.46818E-05   437   0.136E-02
     60 T=   713. E= -.30003832E+03 F= -.29771580E+03 E0= -.29771975E+03  EK= 0.72851E+01 SP= -.98E+01 SK= 0.19E+00
       N       E                     dE             d eps       ncg     rms          rms(c)
DAV:   1    -0.297809550502E+03   -0.93754E-01   -0.13501E-02   940   0.201E+00    0.857E-02
RMM:   2    -0.297811567330E+03   -0.20168E-02   -0.18282E-02   687   0.249E-01    0.124E-01
RMM:   3    -0.297811905853E+03   -0.33852E-03   -0.35334E-03   796   0.121E-01    0.163E-01
RMM:   4    -0.297811957673E+03   -0.51820E-04   -0.53398E-04   793   0.489E-02    0.167E-01
RMM:   5    -0.297811962746E+03   -0.50733E-05   -0.47559E-05   451   0.138E-02
     61 T=   749. E= -.30003890E+03 F= -.29781196E+03 E0= -.29781592E+03  EK= 0.76443E+01 SP= -.10E+02 SK= 0.22E+00
       N       E                     dE             d eps       ncg     rms          rms(c)
DAV:   1    -0.297855569664E+03   -0.43612E-01   -0.18799E-02   932   0.207E+00    0.714E-02
RMM:   2    -0.297857858223E+03   -0.22886E-02   -0.20743E-02   685   0.268E-01    0.191E-01
RMM:   3    -0.297858251795E+03   -0.39357E-03   -0.39876E-03   800   0.129E-01    0.257E-01
RMM:   4    -0.297858306691E+03   -0.54896E-04   -0.58457E-04   819   0.503E-02    0.268E-01
RMM:   5    -0.297858309333E+03   -0.26426E-05   -0.55463E-05   478   0.168E-02
     62 T=   781. E= -.30003966E+03 F= -.29785831E+03 E0= -.29786228E+03  EK= 0.79780E+01 SP= -.10E+02 SK= 0.23E+00
       N       E                     dE             d eps       ncg     rms          rms(c)
DAV:   1    -0.297845681142E+03    0.12626E-01   -0.28470E-02   932   0.220E+00    0.462E-01
RMM:   2    -0.297847913714E+03   -0.22326E-02   -0.25786E-02   690   0.306E-01    0.440E-01
RMM:   3    -0.297848260449E+03   -0.34673E-03   -0.48061E-03   793   0.140E-01    0.355E-01
RMM:   4    -0.297848291032E+03   -0.30583E-04   -0.93485E-04   699   0.706E-02    0.127E-01
RMM:   5    -0.297848287683E+03    0.33488E-05   -0.25975E-04   709   0.404E-02    0.206E-02
RMM:   6    -0.297848293612E+03   -0.59294E-05   -0.68462E-05   537   0.167E-02
     63 T=   810. E= -.30003966E+03 F= -.29784829E+03 E0= -.29785230E+03  EK= 0.82723E+01 SP= -.11E+02 SK= 0.23E+00
       N       E                     dE             d eps       ncg     rms          rms(c)
DAV:   1    -0.297777894519E+03    0.70393E-01   -0.18259E-02   952   0.215E+00    0.117E+00
RMM:   2    -0.297780446339E+03   -0.25518E-02   -0.32470E-02   691   0.299E-01    0.496E-01
RMM:   3    -0.297780883763E+03   -0.43742E-03   -0.67199E-03   800   0.165E-01    0.981E-02
RMM:   4    -0.297780946736E+03   -0.62973E-04   -0.85679E-04   746   0.645E-02    0.258E-02
RMM:   5    -0.297780958348E+03   -0.11612E-04   -0.16557E-04   705   0.245E-02    0.155E-02
RMM:   6    -0.297780958793E+03   -0.44436E-06   -0.16532E-05   368   0.910E-03
     64 T=   834. E= -.30003967E+03 F= -.29778096E+03 E0= -.29778503E+03  EK= 0.85164E+01 SP= -.11E+02 SK= 0.22E+00
       N       E                     dE             d eps       ncg     rms          rms(c)
DAV:   1    -0.297657312459E+03    0.12365E+00   -0.27413E-02   936   0.217E+00    0.198E-01
RMM:   2    -0.297660271013E+03   -0.29586E-02   -0.27918E-02   685   0.310E-01    0.241E-01
RMM:   3    -0.297660767626E+03   -0.49661E-03   -0.52255E-03   797   0.146E-01    0.290E-01
RMM:   4    -0.297660856087E+03   -0.88461E-04   -0.81162E-04   828   0.582E-02    0.320E-01
RMM:   5    -0.297660841840E+03    0.14247E-04   -0.76815E-05   598   0.207E-02    0.254E-01
RMM:   6    -0.297660899104E+03   -0.57264E-04   -0.61931E-04   683   0.515E-02    0.189E-01
RMM:   7    -0.297660848966E+03    0.50139E-04   -0.92406E-05   612   0.257E-02    0.142E-01
RMM:   8    -0.297660835165E+03    0.13801E-04   -0.14059E-05   369   0.949E-03    0.117E-01
RMM:   9    -0.297660826721E+03    0.84441E-05   -0.57284E-06   351   0.549E-03
     65 T=   853. E= -.30003962E+03 F= -.29766083E+03 E0= -.29766509E+03  EK= 0.87066E+01 SP= -.11E+02 SK= 0.21E+00
       N       E                     dE             d eps       ncg     rms          rms(c)
DAV:   1    -0.297492021990E+03    0.16881E+00   -0.17069E-02   928   0.222E+00    0.417E-01
RMM:   2    -0.297495116173E+03   -0.30942E-02   -0.28518E-02   687   0.300E-01    0.505E-02
RMM:   3    -0.297495627112E+03   -0.51094E-03   -0.53627E-03   806   0.148E-01    0.115E-01
RMM:   4    -0.297495671612E+03   -0.44500E-04   -0.63074E-04   790   0.549E-02    0.824E-02
RMM:   5    -0.297495672289E+03   -0.67741E-06   -0.10677E-04   581   0.185E-02    0.528E-02
RMM:   6    -0.297495671512E+03    0.77743E-06   -0.11215E-05   364   0.737E-03
     66 T=   866. E= -.30003879E+03 F= -.29749567E+03 E0= -.29750045E+03  EK= 0.88438E+01 SP= -.12E+02 SK= 0.18E+00
       N       E                     dE             d eps       ncg     rms          rms(c)
DAV:   1    -0.297297572819E+03    0.19810E+00   -0.23231E-02   936   0.217E+00    0.377E-01
RMM:   2    -0.297300770643E+03   -0.31978E-02   -0.29518E-02   684   0.327E-01    0.715E-02
RMM:   3    -0.297301345746E+03   -0.57510E-03   -0.59897E-03   802   0.157E-01    0.154E-01
RMM:   4    -0.297301418693E+03   -0.72947E-04   -0.78019E-04   799   0.612E-02    0.126E-01
RMM:   5    -0.297301424901E+03   -0.62075E-05   -0.11517E-04   542   0.197E-02    0.952E-02
RMM:   6    -0.297301421449E+03    0.34511E-05   -0.12344E-05   362   0.777E-03
     67 T=   875. E= -.30003803E+03 F= -.29730142E+03 E0= -.29730779E+03  EK= 0.89372E+01 SP= -.12E+02 SK= 0.16E+00
       N       E                     dE             d eps       ncg     rms          rms(c)
DAV:   1    -0.297094183276E+03    0.20724E+00   -0.28394E-02   904   0.217E+00    0.520E-01
RMM:   2    -0.297097647609E+03   -0.34643E-02   -0.34903E-02   684   0.332E-01    0.661E-02
RMM:   3    -0.297098142913E+03   -0.49530E-03   -0.67467E-03   798   0.164E-01    0.137E-01
RMM:   4    -0.297098160480E+03   -0.17567E-04   -0.10190E-03   789   0.675E-02    0.928E-02
RMM:   5    -0.297098067374E+03    0.93106E-04   -0.25809E-04   656   0.255E-02    0.396E-02
RMM:   6    -0.297097947475E+03    0.11990E-03   -0.29137E-04   555   0.171E-02    0.219E-02
RMM:   7    -0.297097838804E+03    0.10867E-03   -0.48098E-04   613   0.179E-02    0.291E-02
RMM:   8    -0.297097815919E+03    0.22885E-04   -0.75781E-05   560   0.101E-02    0.179E-02
RMM:   9    -0.297097770226E+03    0.45694E-04   -0.17921E-04   588   0.119E-02    0.962E-03
RMM:  10    -0.297097757929E+03    0.12296E-04   -0.43149E-05   476   0.744E-03    0.994E-03
RMM:  11    -0.297097738863E+03    0.19067E-04   -0.19164E-04   601   0.112E-02    0.895E-03
RMM:  12    -0.297097736314E+03    0.25484E-05   -0.10374E-05   355   0.523E-03
     68 T=   882. E= -.30003701E+03 F= -.29709774E+03 E0= -.29711400E+03  EK= 0.90026E+01 SP= -.12E+02 SK= 0.14E+00
       N       E                     dE             d eps       ncg     rms          rms(c)
DAV:   1    -0.296950613298E+03    0.14713E+00   -0.28399E-01   944   0.228E+00    0.971E-01
RMM:   2    -0.296909655402E+03    0.40958E-01   -0.13383E-01   647   0.433E-01    0.369E-01
RMM:   3    -0.296906955118E+03    0.27003E-02   -0.20714E-02   766   0.243E-01    0.305E-01
RMM:   4    -0.296904795403E+03    0.21597E-02   -0.54365E-03   750   0.105E-01    0.173E-01
RMM:   5    -0.296904227216E+03    0.56819E-03   -0.14139E-03   723   0.516E-02    0.110E-01
RMM:   6    -0.296904013717E+03    0.21350E-03   -0.63185E-04   631   0.334E-02    0.573E-02
RMM:   7    -0.296903906996E+03    0.10672E-03   -0.22625E-04   673   0.207E-02    0.431E-02
RMM:   8    -0.296903856851E+03    0.50144E-04   -0.74956E-05   550   0.130E-02    0.237E-02
RMM:   9    -0.296903794334E+03    0.62517E-04   -0.13240E-04   588   0.135E-02    0.142E-02
RMM:  10    -0.296903774545E+03    0.19789E-04   -0.36453E-05   500   0.810E-03    0.111E-02
RMM:  11    -0.296903762244E+03    0.12301E-04   -0.93708E-06   354   0.552E-03    0.107E-02
RMM:  12    -0.296903720644E+03    0.41601E-04   -0.58222E-05   542   0.730E-03    0.115E-02
RMM:  13    -0.296903695262E+03    0.25381E-04   -0.24008E-05   423   0.550E-03    0.110E-02
RMM:  14    -0.296903744165E+03   -0.48903E-04   -0.44519E-05   525   0.651E-03    0.115E-02
RMM:  15    -0.296903806382E+03   -0.62216E-04   -0.12182E-04   578   0.917E-03    0.103E-02
RMM:  16    -0.296904770548E+03   -0.96417E-03   -0.51355E-03   918   0.584E-02    0.432E-02
RMM:  17    -0.296903817207E+03    0.95334E-03   -0.38018E-03   881   0.526E-02    0.196E-02
RMM:  18    -0.296903820897E+03   -0.36905E-05   -0.13208E-04   575   0.124E-02    0.116E-02
RMM:  19    -0.296903664142E+03    0.15676E-03   -0.67217E-04   704   0.210E-02    0.114E-02
RMM:  20    -0.296903486168E+03    0.17797E-03   -0.93145E-04   758   0.263E-02    0.897E-03
RMM:  21    -0.296903488508E+03   -0.23395E-05   -0.42739E-05   535   0.921E-03
     69 T=   887. E= -.30003303E+03 F= -.29690349E+03 E0= -.29693298E+03  EK= 0.90588E+01 SP= -.12E+02 SK= 0.11E+00
       N       E                     dE             d eps       ncg     rms          rms(c)
DAV:   1    -0.296815924895E+03    0.87561E-01   -0.58171E-01   928   0.268E+00    0.869E-01
RMM:   2    -0.296761709979E+03    0.54215E-01   -0.10991E-01   648   0.447E-01    0.408E-01
RMM:   3    -0.296752770772E+03    0.89392E-02   -0.34751E-02   786   0.264E-01    0.369E-01
RMM:   4    -0.296749425445E+03    0.33453E-02   -0.68437E-03   719   0.123E-01    0.205E-01
RMM:   5    -0.296747092335E+03    0.23331E-02   -0.48099E-03   702   0.827E-02    0.150E-01
RMM:   6    -0.296746848841E+03    0.24349E-03   -0.10449E-03   654   0.496E-02    0.964E-02
RMM:   7    -0.296746431198E+03    0.41764E-03   -0.10953E-03   621   0.394E-02    0.674E-02
RMM:   8    -0.296746412321E+03    0.18877E-04   -0.17028E-04   684   0.213E-02    0.456E-02
RMM:   9    -0.296746358686E+03    0.53636E-04   -0.22127E-04   573   0.188E-02    0.250E-02
RMM:  10    -0.296746349278E+03    0.94073E-05   -0.55269E-05   528   0.105E-02
     70 T=   894. E= -.30003231E+03 F= -.29674635E+03 E0= -.29677675E+03  EK= 0.91254E+01 SP= -.12E+02 SK= 0.88E-01
       N       E                     dE             d eps       ncg     rms          rms(c)
DAV:   1    -0.296645912109E+03    0.10045E+00   -0.64704E-02   936   0.222E+00    0.410E-01
RMM:   2    -0.296643537897E+03    0.23742E-02   -0.32503E-02   668   0.332E-01    0.205E-01
RMM:   3    -0.296639780689E+03    0.37572E-02   -0.11806E-02   793   0.178E-01    0.218E-01
RMM:   4    -0.296638013510E+03    0.17672E-02   -0.24293E-03   737   0.849E-02    0.129E-01
RMM:   5    -0.296637311300E+03    0.70221E-03   -0.88028E-04   667   0.494E-02    0.530E-02
RMM:   6    -0.296637283967E+03    0.27333E-04   -0.31324E-04   707   0.292E-02    0.372E-02
RMM:   7    -0.296637202240E+03    0.81726E-04   -0.16429E-04   563   0.179E-02    0.420E-02
RMM:   8    -0.296637277546E+03   -0.75306E-04   -0.94721E-05   494   0.130E-02    0.357E-02
RMM:   9    -0.296637192067E+03    0.85479E-04   -0.54590E-05   522   0.109E-02    0.964E-03
RMM:  10    -0.296637189910E+03    0.21568E-05   -0.28140E-05   434   0.658E-03
     71 T=   902. E= -.30003285E+03 F= -.29663719E+03 E0= -.29666838E+03  EK= 0.92135E+01 SP= -.13E+02 SK= 0.66E-01
       N       E                     dE             d eps       ncg     rms          rms(c)
DAV:   1    -0.296570888793E+03    0.66303E-01   -0.23877E-02   952   0.218E+00    0.297E-01
RMM:   2    -0.296573493778E+03   -0.26050E-02   -0.27302E-02   683   0.316E-01    0.683E-02
RMM:   3    -0.296573963986E+03   -0.47021E-03   -0.51841E-03   793   0.153E-01    0.110E-01
RMM:   4    -0.296574042558E+03   -0.78572E-04   -0.92372E-04   797   0.646E-02    0.984E-02
RMM:   5    -0.296574041605E+03    0.95237E-06   -0.92628E-05   572   0.181E-02
     72 T=   913. E= -.30003401E+03 F= -.29657404E+03 E0= -.29660667E+03  EK= 0.93193E+01 SP= -.13E+02 SK= 0.46E-01
       N       E                     dE             d eps       ncg     rms          rms(c)
DAV:   1    -0.296542073950E+03    0.31969E-01   -0.26425E-02   952   0.219E+00    0.168E-01
RMM:   2    -0.296544523731E+03   -0.24498E-02   -0.24245E-02   667   0.313E-01    0.124E-01
RMM:   3    -0.296544964926E+03   -0.44120E-03   -0.52530E-03   799   0.155E-01    0.161E-01
RMM:   4    -0.296545053919E+03   -0.88993E-04   -0.90456E-04   800   0.632E-02    0.161E-01
RMM:   5    -0.296545052532E+03    0.13870E-05   -0.70712E-05   500   0.173E-02
     73 T=   923. E= -.30003499E+03 F= -.29654505E+03 E0= -.29657903E+03  EK= 0.94282E+01 SP= -.13E+02 SK= 0.28E-01
       N       E                     dE             d eps       ncg     rms          rms(c)
DAV:   1    -0.296535192880E+03    0.98610E-02   -0.31151E-02   944   0.219E+00    0.222E-01
RMM:   2    -0.296537688524E+03   -0.24956E-02   -0.24389E-02   667   0.320E-01    0.194E-01
RMM:   3    -0.296538195748E+03   -0.50722E-03   -0.56713E-03   796   0.158E-01    0.214E-01
RMM:   4    -0.296538260069E+03   -0.64322E-04   -0.82405E-04   761   0.654E-02    0.178E-01
RMM:   5    -0.296538230730E+03    0.29340E-04   -0.46910E-04   594   0.358E-02    0.521E-02
RMM:   6    -0.296538227290E+03    0.34395E-05   -0.16078E-04   695   0.212E-02    0.698E-02
RMM:   7    -0.296538213518E+03    0.13772E-04   -0.24011E-05   400   0.957E-03    0.481E-02
RMM:   8    -0.296538206682E+03    0.68360E-05   -0.76956E-05   505   0.109E-02
     74 T=   933. E= -.30003565E+03 F= -.29653821E+03 E0= -.29657271E+03  EK= 0.95244E+01 SP= -.13E+02 SK= 0.13E-01
       N       E                     dE             d eps       ncg     rms          rms(c)
DAV:   1    -0.296540838801E+03   -0.26253E-02   -0.28398E-02   952   0.220E+00    0.579E-01
RMM:   2    -0.296543558905E+03   -0.27201E-02   -0.28536E-02   669   0.320E-01    0.197E-01
RMM:   3    -0.296544219107E+03   -0.66020E-03   -0.66292E-03   798   0.164E-01    0.116E-01
RMM:   4    -0.296544037494E+03    0.18161E-03   -0.12129E-03   697   0.697E-02    0.668E-02
RMM:   5    -0.296544028232E+03    0.92618E-05   -0.28718E-04   658   0.296E-02    0.213E-02
RMM:   6    -0.296544029335E+03   -0.11024E-05   -0.58765E-05   578   0.143E-02
     75 T=   940. E= -.30003565E+03 F= -.29654403E+03 E0= -.29657826E+03  EK= 0.95951E+01 SP= -.13E+02 SK= 0.35E-02
       N       E                     dE             d eps       ncg     rms          rms(c)
DAV:   1    -0.296552696324E+03   -0.86681E-02   -0.23658E-02   936   0.216E+00    0.207E-01
RMM:   2    -0.296555864446E+03   -0.31681E-02   -0.29360E-02   668   0.322E-01    0.121E-01
RMM:   3    -0.296556435905E+03   -0.57146E-03   -0.63490E-03   798   0.161E-01    0.149E-01
RMM:   4    -0.296556517281E+03   -0.81376E-04   -0.10136E-03   781   0.669E-02    0.136E-01
RMM:   5    -0.296556495613E+03    0.21668E-04   -0.18190E-04   614   0.233E-02    0.764E-02
RMM:   6    -0.296556502063E+03   -0.64504E-05   -0.19191E-04   537   0.169E-02    0.385E-02
RMM:   7    -0.296556494379E+03    0.76840E-05   -0.28239E-05   521   0.111E-02
     76 T=   943. E= -.30003531E+03 F= -.29655649E+03 E0= -.29659041E+03  EK= 0.96310E+01 SP= -.13E+02 SK= 0.48E-05
       N       E                     dE             d eps       ncg     rms          rms(c)
DAV:   1    -0.296570650252E+03   -0.14148E-01   -0.26794E-02   928   0.217E+00    0.309E-01
RMM:   2    -0.296574081648E+03   -0.34314E-02   -0.32394E-02   673   0.334E-01    0.114E-01
RMM:   3    -0.296574510149E+03   -0.42850E-03   -0.71327E-03   794   0.170E-01    0.123E-01
RMM:   4    -0.296574464837E+03    0.45312E-04   -0.11195E-03   743   0.684E-02    0.910E-02
RMM:   5    -0.296574444673E+03    0.20164E-04   -0.18500E-04   678   0.226E-02    0.555E-02
RMM:   6    -0.296574435254E+03    0.94190E-05   -0.58689E-05   541   0.113E-02
     77 T=   943. E= -.30003526E+03 F= -.29657444E+03 E0= -.29660803E+03  EK= 0.96289E+01 SP= -.13E+02 SK= 0.31E-02
       N       E                     dE             d eps       ncg     rms          rms(c)
DAV:   1    -0.296595049608E+03   -0.20605E-01   -0.35336E-02   928   0.218E+00    0.317E-01
RMM:   2    -0.296598971545E+03   -0.39219E-02   -0.32122E-02   671   0.333E-01    0.238E-01
RMM:   3    -0.296597389460E+03    0.15821E-02   -0.72020E-03   781   0.171E-01    0.120E-01
RMM:   4    -0.296597459271E+03   -0.69810E-04   -0.13337E-03   783   0.717E-02    0.103E-01
RMM:   5    -0.296597428740E+03    0.30531E-04   -0.15580E-04   701   0.218E-02    0.747E-02
RMM:   6    -0.296597377272E+03    0.51468E-04   -0.69225E-05   509   0.127E-02    0.195E-02
RMM:   7    -0.296597365652E+03    0.11620E-04   -0.78673E-05   497   0.101E-02    0.175E-02
RMM:   8    -0.296597366347E+03   -0.69517E-06   -0.11239E-05   385   0.608E-03
     78 T=   939. E= -.30003555E+03 F= -.29659737E+03 E0= -.29662644E+03  EK= 0.95884E+01 SP= -.13E+02 SK= 0.13E-01
       N       E                     dE             d eps       ncg     rms          rms(c)
DAV:   1    -0.296618275745E+03   -0.20910E-01   -0.22747E-02   936   0.222E+00    0.344E-01
RMM:   2    -0.296621148049E+03   -0.28723E-02   -0.34816E-02   671   0.333E-01    0.120E-01
RMM:   3    -0.296621610902E+03   -0.46285E-03   -0.78093E-03   796   0.168E-01    0.136E-01
RMM:   4    -0.296621464233E+03    0.14667E-03   -0.12631E-03   734   0.705E-02    0.995E-02
RMM:   5    -0.296621351849E+03    0.11238E-03   -0.30590E-04   623   0.288E-02    0.438E-02
RMM:   6    -0.296621273094E+03    0.78755E-04   -0.24841E-04   579   0.202E-02    0.241E-02
RMM:   7    -0.296621256490E+03    0.16604E-04   -0.91159E-05   653   0.132E-02    0.134E-02
RMM:   8    -0.296621246350E+03    0.10140E-04   -0.34755E-05   453   0.791E-03    0.578E-03
RMM:   9    -0.296621244191E+03    0.21582E-05   -0.12215E-05   368   0.564E-03
     79 T=   931. E= -.30003436E+03 F= -.29662124E+03 E0= -.29664019E+03  EK= 0.95091E+01 SP= -.13E+02 SK= 0.28E-01
       N       E                     dE             d eps       ncg     rms          rms(c)
DAV:   1    -0.296652865947E+03   -0.31620E-01   -0.20279E-02   936   0.233E+00    0.336E-01
RMM:   2    -0.296650491757E+03    0.23742E-02   -0.35959E-02   662   0.335E-01    0.154E-01
RMM:   3    -0.296649500275E+03    0.99148E-03   -0.11315E-02   794   0.179E-01    0.163E-01
RMM:   4    -0.296649066191E+03    0.43408E-03   -0.15555E-03   718   0.791E-02    0.103E-01
RMM:   5    -0.296648289754E+03    0.77644E-03   -0.12750E-03   627   0.542E-02    0.559E-02
RMM:   6    -0.296648205013E+03    0.84741E-04   -0.57482E-04   772   0.316E-02    0.553E-02
RMM:   7    -0.296648195123E+03    0.98901E-05   -0.56312E-05   512   0.135E-02
     80 T=   920. E= -.30003314E+03 F= -.29664820E+03 E0= -.29666114E+03  EK= 0.93951E+01 SP= -.13E+02 SK= 0.48E-01
       N       E                     dE             d eps       ncg     rms          rms(c)
DAV:   1    -0.296685225280E+03   -0.37020E-01   -0.94474E-03   904   0.221E+00    0.346E-01
RMM:   2    -0.296683476180E+03    0.17491E-02   -0.33838E-02   654   0.335E-01    0.142E-01
RMM:   3    -0.296682547502E+03    0.92868E-03   -0.10486E-02   794   0.178E-01    0.159E-01
RMM:   4    -0.296681999183E+03    0.54832E-03   -0.14513E-03   682   0.798E-02    0.780E-02
RMM:   5    -0.296681338379E+03    0.66080E-03   -0.14543E-03   653   0.558E-02    0.585E-02
RMM:   6    -0.296681297097E+03    0.41283E-04   -0.45227E-04   762   0.308E-02    0.406E-02
RMM:   7    -0.296681271336E+03    0.25761E-04   -0.12759E-04   572   0.159E-02    0.221E-02
RMM:   8    -0.296681234685E+03    0.36651E-04   -0.70373E-05   519   0.124E-02    0.113E-02
RMM:   9    -0.296681231901E+03    0.27835E-05   -0.32797E-05   477   0.806E-03
     81 T=   906. E= -.30003214E+03 F= -.29668123E+03 E0= -.29669361E+03  EK= 0.92537E+01 SP= -.13E+02 SK= 0.70E-01
       N       E                     dE             d eps       ncg     rms          rms(c)
DAV:   1    -0.296718090551E+03   -0.36856E-01   -0.22405E-02   936   0.210E+00    0.325E-01
RMM:   2    -0.296720615494E+03   -0.25249E-02   -0.27979E-02   670   0.312E-01    0.767E-02
RMM:   3    -0.296721119190E+03   -0.50370E-03   -0.67102E-03   794   0.158E-01    0.121E-01
RMM:   4    -0.296721187788E+03   -0.68598E-04   -0.10643E-03   772   0.656E-02    0.922E-02
RMM:   5    -0.296721147167E+03    0.40621E-04   -0.15892E-04   644   0.243E-02    0.424E-02
RMM:   6    -0.296721113042E+03    0.34125E-04   -0.91605E-05   562   0.155E-02    0.190E-02
RMM:   7    -0.296721105992E+03    0.70501E-05   -0.40802E-05   486   0.911E-03
     82 T=   890. E= -.30003193E+03 F= -.29672111E+03 E0= -.29673389E+03  EK= 0.90905E+01 SP= -.12E+02 SK= 0.93E-01
       N       E                     dE             d eps       ncg     rms          rms(c)
DAV:   1    -0.296758658231E+03   -0.37545E-01   -0.23860E-02   952   0.210E+00    0.301E-01
RMM:   2    -0.296761883367E+03   -0.32251E-02   -0.29620E-02   675   0.312E-01    0.693E-02
RMM:   3    -0.296762457066E+03   -0.57370E-03   -0.61666E-03   795   0.156E-01    0.127E-01
RMM:   4    -0.296762529777E+03   -0.72712E-04   -0.10487E-03   794   0.643E-02    0.107E-01
RMM:   5    -0.296762514667E+03    0.15110E-04   -0.10731E-04   651   0.197E-02    0.795E-02
RMM:   6    -0.296762498180E+03    0.16487E-04   -0.38008E-05   475   0.102E-02    0.410E-02
RMM:   7    -0.296762489435E+03    0.87458E-05   -0.68487E-05   478   0.100E-02
     83 T=   872. E= -.30003187E+03 F= -.29676249E+03 E0= -.29677553E+03  EK= 0.89069E+01 SP= -.12E+02 SK= 0.11E+00
       N       E                     dE             d eps       ncg     rms          rms(c)
DAV:   1    -0.296794962479E+03   -0.32464E-01   -0.23700E-02   936   0.209E+00    0.349E-01
RMM:   2    -0.296798047609E+03   -0.30851E-02   -0.27898E-02   683   0.306E-01    0.449E-02
RMM:   3    -0.296798592127E+03   -0.54452E-03   -0.53927E-03   796   0.148E-01    0.103E-01
RMM:   4    -0.296798672291E+03   -0.80163E-04   -0.88738E-04   787   0.617E-02    0.711E-02
RMM:   5    -0.296798679440E+03   -0.71490E-05   -0.12632E-04   596   0.213E-02    0.482E-02
RMM:   6    -0.296798679241E+03    0.19873E-06   -0.11463E-05   364   0.779E-03
     84 T=   852. E= -.30003184E+03 F= -.29679868E+03 E0= -.29681185E+03  EK= 0.87028E+01 SP= -.12E+02 SK= 0.13E+00
       N       E                     dE             d eps       ncg     rms          rms(c)
DAV:   1    -0.296820875103E+03   -0.22196E-01   -0.24732E-02   944   0.207E+00    0.200E-01
RMM:   2    -0.296824131353E+03   -0.32562E-02   -0.28760E-02   688   0.302E-01    0.121E-01
RMM:   3    -0.296824618074E+03   -0.48672E-03   -0.49726E-03   796   0.143E-01    0.159E-01
RMM:   4    -0.296824699956E+03   -0.81881E-04   -0.89231E-04   798   0.600E-02    0.139E-01
RMM:   5    -0.296824696151E+03    0.38048E-05   -0.90976E-05   591   0.179E-02
     85 T=   830. E= -.30003114E+03 F= -.29682470E+03 E0= -.29683798E+03  EK= 0.84806E+01 SP= -.12E+02 SK= 0.14E+00
       N       E                     dE             d eps       ncg     rms          rms(c)
DAV:   1    -0.296836516230E+03   -0.11816E-01   -0.28270E-02   936   0.205E+00    0.162E-01
RMM:   2    -0.296839818827E+03   -0.33026E-02   -0.29255E-02   691   0.306E-01    0.149E-01
RMM:   3    -0.296840314318E+03   -0.49549E-03   -0.53054E-03   796   0.146E-01    0.193E-01
RMM:   4    -0.296840402537E+03   -0.88218E-04   -0.89910E-04   820   0.598E-02    0.182E-01
RMM:   5    -0.296840393716E+03    0.88210E-05   -0.82506E-05   563   0.169E-02
     86 T=   808. E= -.30003026E+03 F= -.29684039E+03 E0= -.29685377E+03  EK= 0.82467E+01 SP= -.12E+02 SK= 0.15E+00
       N       E                     dE             d eps       ncg     rms          rms(c)
DAV:   1    -0.296846655087E+03   -0.62526E-02   -0.30467E-02   936   0.202E+00    0.422E-01
RMM:   2    -0.296849766889E+03   -0.31118E-02   -0.29182E-02   688   0.305E-01    0.883E-02
RMM:   3    -0.296850308882E+03   -0.54199E-03   -0.54197E-03   794   0.146E-01    0.930E-02
RMM:   4    -0.296850351829E+03   -0.42948E-04   -0.10154E-03   783   0.626E-02    0.667E-02
RMM:   5    -0.296850354961E+03   -0.31317E-05   -0.11928E-04   669   0.198E-02    0.225E-02
RMM:   6    -0.296850355467E+03   -0.50590E-06   -0.12337E-05   366   0.777E-03
     87 T=   785. E= -.30002926E+03 F= -.29685036E+03 E0= -.29686382E+03  EK= 0.80119E+01 SP= -.11E+02 SK= 0.15E+00
       N       E                     dE             d eps       ncg     rms          rms(c)
DAV:   1    -0.296860592749E+03   -0.10238E-01   -0.24990E-02   928   0.204E+00    0.339E-01
RMM:   2    -0.296863914079E+03   -0.33213E-02   -0.30631E-02   677   0.304E-01    0.632E-02
RMM:   3    -0.296864415956E+03   -0.50188E-03   -0.54998E-03   794   0.149E-01    0.108E-01
RMM:   4    -0.296864486238E+03   -0.70282E-04   -0.93085E-04   790   0.613E-02    0.903E-02
RMM:   5    -0.296864474924E+03    0.11314E-04   -0.11265E-04   636   0.188E-02    0.580E-02
RMM:   6    -0.296864471389E+03    0.35351E-05   -0.57338E-05   521   0.111E-02
     88 T=   763. E= -.30002773E+03 F= -.29686447E+03 E0= -.29687808E+03  EK= 0.77922E+01 SP= -.11E+02 SK= 0.14E+00
       N       E                     dE             d eps       ncg     rms          rms(c)
DAV:   1    -0.296892856698E+03   -0.28382E-01   -0.26578E-02   936   0.195E+00    0.288E-01
RMM:   2    -0.296895929914E+03   -0.30732E-02   -0.28212E-02   690   0.298E-01    0.688E-02
RMM:   3    -0.296896420746E+03   -0.49083E-03   -0.49881E-03   794   0.142E-01    0.117E-01
RMM:   4    -0.296896498731E+03   -0.77984E-04   -0.82935E-04   805   0.595E-02    0.890E-02
RMM:   5    -0.296896504808E+03   -0.60777E-05   -0.10911E-04   554   0.186E-02    0.580E-02
RMM:   6    -0.296896503974E+03    0.83414E-06   -0.11875E-05   357   0.754E-03
     89 T=   745. E= -.30002695E+03 F= -.29689650E+03 E0= -.29691026E+03  EK= 0.76042E+01 SP= -.11E+02 SK= 0.13E+00
       N       E                     dE             d eps       ncg     rms          rms(c)
DAV:   1    -0.296953428639E+03   -0.56924E-01   -0.26092E-02   920   0.191E+00    0.320E-01
RMM:   2    -0.296956512319E+03   -0.30837E-02   -0.28418E-02   691   0.292E-01    0.480E-02
RMM:   3    -0.296956973509E+03   -0.46119E-03   -0.47450E-03   793   0.139E-01    0.890E-02
RMM:   4    -0.296957045560E+03   -0.72051E-04   -0.81228E-04   798   0.590E-02    0.647E-02
RMM:   5    -0.296957051320E+03   -0.57602E-05   -0.11611E-04   563   0.188E-02    0.426E-02
RMM:   6    -0.296957050380E+03    0.93994E-06   -0.12256E-05   362   0.771E-03
     90 T=   731. E= -.30002679E+03 F= -.29695705E+03 E0= -.29697092E+03  EK= 0.74614E+01 SP= -.11E+02 SK= 0.11E+00
       N       E                     dE             d eps       ncg     rms          rms(c)
DAV:   1    -0.297047633042E+03   -0.90582E-01   -0.19424E-02   920   0.190E+00    0.224E-01
RMM:   2    -0.297050415520E+03   -0.27825E-02   -0.28437E-02   689   0.278E-01    0.855E-02
RMM:   3    -0.297050057190E+03    0.35833E-03   -0.52282E-03   794   0.137E-01    0.151E-01
RMM:   4    -0.297051177259E+03   -0.11201E-02   -0.12779E-03   700   0.633E-02    0.134E-01
RMM:   5    -0.297051337484E+03   -0.16022E-03   -0.62312E-04   661   0.302E-02    0.110E-01
RMM:   6    -0.297051366587E+03   -0.29103E-04   -0.74106E-05   579   0.140E-02    0.100E-01
RMM:   7    -0.297051389048E+03   -0.22461E-04   -0.15319E-05   373   0.674E-03    0.918E-02
RMM:   8    -0.297051446112E+03   -0.57064E-04   -0.51220E-05   504   0.725E-03    0.769E-02
RMM:   9    -0.297051433075E+03    0.13037E-04   -0.41696E-06   355   0.411E-03    0.772E-02
RMM:  10    -0.297051394711E+03    0.38364E-04   -0.15991E-05   392   0.422E-03    0.687E-02
RMM:  11    -0.297051232344E+03    0.16237E-03   -0.30255E-04   627   0.135E-02    0.453E-02
RMM:  12    -0.297051284164E+03   -0.51819E-04   -0.17791E-05   390   0.577E-03    0.441E-02
RMM:  13    -0.297051171610E+03    0.11255E-03   -0.66337E-05   529   0.749E-03    0.550E-02
RMM:  14    -0.297051350350E+03   -0.17874E-03   -0.20443E-04   627   0.121E-02    0.357E-02
RMM:  15    -0.297051513091E+03   -0.16274E-03   -0.40976E-04   651   0.158E-02    0.299E-02
RMM:  16    -0.297051881814E+03   -0.36872E-03   -0.27640E-04   614   0.142E-02    0.744E-02
RMM:  17    -0.297051645398E+03    0.23642E-03   -0.53752E-05   460   0.741E-03    0.475E-02
RMM:  18    -0.297051555308E+03    0.90090E-04   -0.27819E-05   387   0.434E-03    0.355E-02
RMM:  19    -0.297051423483E+03    0.13182E-03   -0.12481E-04   579   0.882E-03    0.193E-02
RMM:  20    -0.297051370908E+03    0.52575E-04   -0.57432E-05   508   0.681E-03    0.171E-02
RMM:  21    -0.297051333716E+03    0.37192E-04   -0.27608E-05   400   0.494E-03    0.191E-02
RMM:  22    -0.297051315766E+03    0.17950E-04   -0.87237E-06   331   0.378E-03    0.209E-02
RMM:  23    -0.297051332461E+03   -0.16695E-04   -0.26568E-06   247   0.300E-03    0.195E-02
[...]
RMM:   4    -0.300493981714E+03    0.35060E-04   -0.60115E-04   748   0.503E-02    0.716E-02
RMM:   5    -0.300493982593E+03   -0.87902E-06   -0.81713E-05   629   0.163E-02
   3733 T=   674. E= -.29809970E+03 F= -.30049398E+03 E0= -.30051712E+03  EK= 0.68831E+01 SP= -.45E+01 SK= 0.22E-01
       N       E                     dE             d eps       ncg     rms          rms(c)
DAV:   1    -0.300435765641E+03    0.58216E-01   -0.15408E-02   952   0.185E+00    0.157E-01
RMM:   2    -0.300437658652E+03   -0.18930E-02   -0.18727E-02   673   0.246E-01    0.850E-02
RMM:   3    -0.300437994297E+03   -0.33565E-03   -0.38311E-03   795   0.121E-01    0.126E-01
RMM:   4    -0.300438044946E+03   -0.50649E-04   -0.60468E-04   804   0.506E-02    0.107E-01
RMM:   5    -0.300438034899E+03    0.10047E-04   -0.74749E-05   576   0.155E-02    0.779E-02
RMM:   6    -0.300438018254E+03    0.16645E-04   -0.18159E-05   384   0.842E-03    0.457E-02
RMM:   7    -0.300437988652E+03    0.29602E-04   -0.63231E-05   527   0.944E-03    0.356E-02
RMM:   8    -0.300437980928E+03    0.77235E-05   -0.23326E-05   441   0.622E-03
   3734 T=   662. E= -.29809935E+03 F= -.30043798E+03 E0= -.30046220E+03  EK= 0.67622E+01 SP= -.44E+01 SK= 0.94E-02
       N       E                     dE             d eps       ncg     rms          rms(c)
DAV:   1    -0.300375100145E+03    0.62889E-01   -0.17711E-02   952   0.184E+00    0.348E-01
RMM:   2    -0.300377161435E+03   -0.20613E-02   -0.20445E-02   669   0.251E-01    0.480E-02
RMM:   3    -0.300377526355E+03   -0.36492E-03   -0.39031E-03   795   0.121E-01    0.614E-02
RMM:   4    -0.300377570639E+03   -0.44284E-04   -0.57050E-04   772   0.492E-02    0.472E-02
RMM:   5    -0.300377569833E+03    0.80608E-06   -0.81012E-05   586   0.169E-02
   3735 T=   653. E= -.29809892E+03 F= -.30037757E+03 E0= -.30040358E+03  EK= 0.66662E+01 SP= -.44E+01 SK= 0.17E-02
       N       E                     dE             d eps       ncg     rms          rms(c)
DAV:   1    -0.300317676868E+03    0.59894E-01   -0.19886E-02   928   0.180E+00    0.154E-01
RMM:   2    -0.300319642913E+03   -0.19660E-02   -0.19064E-02   673   0.250E-01    0.962E-02
RMM:   3    -0.300319994982E+03   -0.35207E-03   -0.37693E-03   795   0.121E-01    0.142E-01
RMM:   4    -0.300320045145E+03   -0.50163E-04   -0.54942E-04   789   0.492E-02    0.128E-01
RMM:   5    -0.300320046208E+03   -0.10626E-05   -0.68535E-05   481   0.159E-02
   3736 T=   647. E= -.29809867E+03 F= -.30032005E+03 E0= -.30034909E+03  EK= 0.66033E+01 SP= -.44E+01 SK= 0.35E-03
       N       E                     dE             d eps       ncg     rms          rms(c)
DAV:   1    -0.300268712812E+03    0.51332E-01   -0.21976E-02   944   0.178E+00    0.268E-01
RMM:   2    -0.300270763380E+03   -0.20506E-02   -0.20784E-02   687   0.251E-01    0.788E-02
RMM:   3    -0.300271099650E+03   -0.33627E-03   -0.37346E-03   793   0.119E-01    0.102E-01
RMM:   4    -0.300271132483E+03   -0.32832E-04   -0.61991E-04   774   0.510E-02    0.820E-02
RMM:   5    -0.300271116088E+03    0.16395E-04   -0.94985E-05   670   0.175E-02    0.348E-02
RMM:   6    -0.300271107734E+03    0.83536E-05   -0.19612E-05   394   0.888E-03
   3737 T=   644. E= -.29809806E+03 F= -.30027111E+03 E0= -.30030534E+03  EK= 0.65803E+01 SP= -.44E+01 SK= 0.64E-02
       N       E                     dE             d eps       ncg     rms          rms(c)
DAV:   1    -0.300237423284E+03    0.33693E-01   -0.32305E-02   952   0.182E+00    0.348E-01
RMM:   2    -0.300239062439E+03   -0.16392E-02   -0.25246E-02   673   0.267E-01    0.886E-02
RMM:   3    -0.300239481296E+03   -0.41886E-03   -0.52356E-03   794   0.134E-01    0.109E-01
RMM:   4    -0.300239288109E+03    0.19319E-03   -0.75921E-04   720   0.562E-02    0.705E-02
RMM:   5    -0.300239279704E+03    0.84054E-05   -0.17370E-04   719   0.220E-02    0.504E-02
RMM:   6    -0.300239256819E+03    0.22885E-04   -0.34783E-05   470   0.944E-03    0.211E-02
RMM:   7    -0.300239244799E+03    0.12020E-04   -0.24340E-05   415   0.708E-03    0.718E-03
RMM:   8    -0.300239241674E+03    0.31252E-05   -0.85300E-06   357   0.514E-03
   3738 T=   647. E= -.29809746E+03 F= -.30023924E+03 E0= -.30027875E+03  EK= 0.66057E+01 SP= -.45E+01 SK= 0.20E-01
       N       E                     dE             d eps       ncg     rms          rms(c)
DAV:   1    -0.300230269169E+03    0.89756E-02   -0.32750E-02   952   0.182E+00    0.230E-01
RMM:   2    -0.300232421713E+03   -0.21525E-02   -0.25314E-02   672   0.266E-01    0.792E-02
RMM:   3    -0.300232805224E+03   -0.38351E-03   -0.45315E-03   792   0.129E-01    0.123E-01
RMM:   4    -0.300232853519E+03   -0.48295E-04   -0.61084E-04   792   0.530E-02    0.103E-01
RMM:   5    -0.300232847143E+03    0.63766E-05   -0.11584E-04   670   0.193E-02    0.652E-02
RMM:   6    -0.300232835306E+03    0.11837E-04   -0.30116E-05   449   0.918E-03    0.328E-02
RMM:   7    -0.300232826728E+03    0.85779E-05   -0.21586E-05   407   0.706E-03
   3739 T=   655. E= -.29809671E+03 F= -.30023283E+03 E0= -.30027504E+03  EK= 0.66883E+01 SP= -.46E+01 SK= 0.40E-01
       N       E                     dE             d eps       ncg     rms          rms(c)
DAV:   1    -0.300257605284E+03   -0.24770E-01   -0.39929E-02   920   0.184E+00    0.331E-01
RMM:   2    -0.300259462794E+03   -0.18575E-02   -0.24555E-02   676   0.273E-01    0.613E-02
RMM:   3    -0.300259838120E+03   -0.37533E-03   -0.45735E-03   796   0.132E-01    0.930E-02
RMM:   4    -0.300259834601E+03    0.35187E-05   -0.64269E-04   769   0.535E-02    0.751E-02
RMM:   5    -0.300259828788E+03    0.58130E-05   -0.10948E-04   666   0.186E-02    0.501E-02
RMM:   6    -0.300259815828E+03    0.12960E-04   -0.24732E-05   398   0.882E-03    0.174E-02
RMM:   7    -0.300259810797E+03    0.50313E-05   -0.16714E-05   374   0.626E-03
   3740 T=   669. E= -.29809644E+03 F= -.30025981E+03 E0= -.30030270E+03  EK= 0.68352E+01 SP= -.47E+01 SK= 0.65E-01
       N       E                     dE             d eps       ncg     rms          rms(c)
DAV:   1    -0.300321382554E+03   -0.61567E-01   -0.37011E-02   912   0.187E+00    0.252E-01
RMM:   2    -0.300323669642E+03   -0.22871E-02   -0.24844E-02   680   0.280E-01    0.779E-02
RMM:   3    -0.300324018270E+03   -0.34863E-03   -0.45095E-03   795   0.133E-01    0.120E-01
RMM:   4    -0.300324059415E+03   -0.41145E-04   -0.62527E-04   791   0.530E-02    0.110E-01
RMM:   5    -0.300324062305E+03   -0.28900E-05   -0.10022E-04   558   0.172E-02    0.965E-02
RMM:   6    -0.300324050897E+03    0.11408E-04   -0.21256E-05   387   0.852E-03    0.606E-02
RMM:   7    -0.300324039449E+03    0.11448E-04   -0.40673E-05   516   0.879E-03    0.207E-02
RMM:   8    -0.300324038622E+03    0.82677E-06   -0.10716E-05   371   0.526E-03
   3741 T=   690. E= -.29809631E+03 F= -.30032404E+03 E0= -.30036598E+03  EK= 0.70500E+01 SP= -.49E+01 SK= 0.92E-01
       N       E                     dE             d eps       ncg     rms          rms(c)
DAV:   1    -0.300422695136E+03   -0.98656E-01   -0.35916E-02   928   0.194E+00    0.347E-01
RMM:   2    -0.300425026439E+03   -0.23313E-02   -0.25161E-02   683   0.281E-01    0.630E-02
RMM:   3    -0.300425383993E+03   -0.35755E-03   -0.45720E-03   796   0.133E-01    0.793E-02
RMM:   4    -0.300425415190E+03   -0.31197E-04   -0.66544E-04   777   0.544E-02    0.597E-02
RMM:   5    -0.300425404347E+03    0.10843E-04   -0.12848E-04   672   0.198E-02    0.266E-02
RMM:   6    -0.300425394248E+03    0.10099E-04   -0.25442E-05   421   0.867E-03    0.851E-03
RMM:   7    -0.300425390268E+03    0.39800E-05   -0.88428E-06   353   0.559E-03
   3742 T=   718. E= -.29809628E+03 F= -.30042539E+03 E0= -.30046613E+03  EK= 0.73313E+01 SP= -.51E+01 SK= 0.12E+00
       N       E                     dE             d eps       ncg     rms          rms(c)
DAV:   1    -0.300555803045E+03   -0.13041E+00   -0.27491E-02   944   0.196E+00    0.209E-01
RMM:   2    -0.300558217080E+03   -0.24140E-02   -0.23943E-02   686   0.273E-01    0.739E-02
RMM:   3    -0.300558593850E+03   -0.37677E-03   -0.43915E-03   797   0.130E-01    0.114E-01
RMM:   4    -0.300558644657E+03   -0.50808E-04   -0.61040E-04   790   0.525E-02    0.105E-01
RMM:   5    -0.300558649236E+03   -0.45784E-05   -0.85287E-05   508   0.168E-02
   3743 T=   751. E= -.29809678E+03 F= -.30055865E+03 E0= -.30059859E+03  EK= 0.76704E+01 SP= -.53E+01 SK= 0.13E+00
       N       E                     dE             d eps       ncg     rms          rms(c)
DAV:   1    -0.300709273674E+03   -0.15063E+00   -0.38663E-02   932   0.203E+00    0.117E-01
RMM:   2    -0.300711827170E+03   -0.25535E-02   -0.25943E-02   685   0.288E-01    0.206E-01
RMM:   3    -0.300712278918E+03   -0.45175E-03   -0.49024E-03   793   0.138E-01    0.267E-01
RMM:   4    -0.300712332189E+03   -0.53271E-04   -0.70489E-04   819   0.548E-02    0.292E-01
RMM:   5    -0.300712342881E+03   -0.10692E-04   -0.61540E-05   509   0.162E-02    0.281E-01
RMM:   6    -0.300712664172E+03   -0.32129E-03   -0.12349E-03   764   0.860E-02    0.703E-01
RMM:   7    -0.300713408031E+03   -0.74386E-03   -0.99639E-04   753   0.706E-02    0.115E+00
RMM:   8    -0.300712210664E+03    0.11974E-02   -0.33326E-03   815   0.130E-01    0.114E-01
RMM:   9    -0.300712366502E+03   -0.15584E-03   -0.17765E-03   797   0.886E-02    0.463E-01
RMM:  10    -0.300712209682E+03    0.15682E-03   -0.27988E-04   586   0.399E-02    0.187E-01
RMM:  11    -0.300712180521E+03    0.29161E-04   -0.14346E-04   518   0.241E-02    0.338E-02
RMM:  12    -0.300712187403E+03   -0.68816E-05   -0.23312E-05   377   0.122E-02
   3744 T=   788. E= -.29809770E+03 F= -.30071219E+03 E0= -.30075168E+03  EK= 0.80508E+01 SP= -.56E+01 SK= 0.14E+00
       N       E                     dE             d eps       ncg     rms          rms(c)
DAV:   1    -0.300869088902E+03   -0.15691E+00   -0.27572E-02   920   0.205E+00    0.599E-01
RMM:   2    -0.300871378422E+03   -0.22895E-02   -0.25336E-02   681   0.284E-01    0.190E-01
RMM:   3    -0.300871897690E+03   -0.51927E-03   -0.48422E-03   792   0.139E-01    0.882E-02
RMM:   4    -0.300871744115E+03    0.15357E-03   -0.86656E-04   705   0.611E-02    0.362E-02
RMM:   5    -0.300871722962E+03    0.21154E-04   -0.19245E-04   694   0.257E-02    0.159E-02
RMM:   6    -0.300871717251E+03    0.57104E-05   -0.37341E-05   446   0.114E-02
   3745 T=   828. E= -.29809894E+03 F= -.30087172E+03 E0= -.30091059E+03  EK= 0.84509E+01 SP= -.58E+01 SK= 0.14E+00
       N       E                     dE             d eps       ncg     rms          rms(c)
DAV:   1    -0.301016646850E+03   -0.14492E+00   -0.25785E-02   944   0.212E+00    0.138E-01
RMM:   2    -0.301019218186E+03   -0.25713E-02   -0.23847E-02   688   0.294E-01    0.123E-01
RMM:   3    -0.301019652265E+03   -0.43408E-03   -0.46080E-03   797   0.139E-01    0.160E-01
RMM:   4    -0.301019727162E+03   -0.74897E-04   -0.76957E-04   806   0.575E-02    0.160E-01
RMM:   5    -0.301019730955E+03   -0.37930E-05   -0.68205E-05   466   0.151E-02
   3746 T=   866. E= -.29810006E+03 F= -.30101973E+03 E0= -.30105754E+03  EK= 0.88437E+01 SP= -.61E+01 SK= 0.13E+00
       N       E                     dE             d eps       ncg     rms          rms(c)
DAV:   1    -0.301135683844E+03   -0.11596E+00   -0.23496E-02   944   0.214E+00    0.196E-01
RMM:   2    -0.301138309904E+03   -0.26261E-02   -0.24028E-02   687   0.283E-01    0.273E-01
RMM:   3    -0.301138820333E+03   -0.51043E-03   -0.45610E-03   792   0.135E-01    0.365E-01
RMM:   4    -0.301138780358E+03    0.39975E-04   -0.72488E-04   706   0.665E-02    0.241E-01
RMM:   5    -0.301138760986E+03    0.19372E-04   -0.30173E-04   745   0.336E-02    0.168E-01
RMM:   6    -0.301138764034E+03   -0.30480E-05   -0.33635E-05   446   0.140E-02
   3747 T=   901. E= -.29810089E+03 F= -.30113876E+03 E0= -.30117489E+03  EK= 0.91998E+01 SP= -.63E+01 SK= 0.10E+00
       N       E                     dE             d eps       ncg     rms          rms(c)
DAV:   1    -0.301211532662E+03   -0.72772E-01   -0.30324E-02   912   0.216E+00    0.315E-01
RMM:   2    -0.301214320887E+03   -0.27882E-02   -0.28726E-02   681   0.326E-01    0.127E-01
RMM:   3    -0.301214872561E+03   -0.55167E-03   -0.57089E-03   792   0.151E-01    0.135E-01
RMM:   4    -0.301214935590E+03   -0.63029E-04   -0.81419E-04   731   0.646E-02    0.110E-01
RMM:   5    -0.301214931714E+03    0.38757E-05   -0.32609E-04   633   0.340E-02    0.252E-02
RMM:   6    -0.301214929329E+03    0.23852E-05   -0.70961E-05   641   0.188E-02
   3748 T=   930. E= -.29810069E+03 F= -.30121493E+03 E0= -.30124921E+03  EK= 0.94932E+01 SP= -.65E+01 SK= 0.75E-01
       N       E                     dE             d eps       ncg     rms          rms(c)
DAV:   1    -0.301236431647E+03   -0.21500E-01   -0.27384E-02   936   0.220E+00    0.572E-01
RMM:   2    -0.301239367502E+03   -0.29359E-02   -0.29736E-02   681   0.303E-01    0.177E-01
RMM:   3    -0.301240035428E+03   -0.66793E-03   -0.57582E-03   792   0.154E-01    0.112E-01
RMM:   4    -0.301239806290E+03    0.22914E-03   -0.12208E-03   726   0.680E-02    0.466E-02
RMM:   5    -0.301239772132E+03    0.34158E-04   -0.20377E-04   687   0.254E-02    0.165E-02
RMM:   6    -0.301239762680E+03    0.94523E-05   -0.43737E-05   518   0.119E-02
   3749 T=   950. E= -.29810027E+03 F= -.30123976E+03 E0= -.30127128E+03  EK= 0.97025E+01 SP= -.66E+01 SK= 0.47E-01
       N       E                     dE             d eps       ncg     rms          rms(c)
DAV:   1    -0.301208495777E+03    0.31276E-01   -0.16698E-02   952   0.222E+00    0.156E-01
RMM:   2    -0.301211750004E+03   -0.32542E-02   -0.28643E-02   688   0.310E-01    0.132E-01
RMM:   3    -0.301212300955E+03   -0.55095E-03   -0.55835E-03   793   0.149E-01    0.172E-01
RMM:   4    -0.301212403962E+03   -0.10301E-03   -0.10074E-03   815   0.623E-02    0.177E-01
RMM:   5    -0.301212410512E+03   -0.65500E-05   -0.66132E-05   501   0.156E-02
   3750 T=   961. E= -.29810014E+03 F= -.30121241E+03 E0= -.30123973E+03  EK= 0.98167E+01 SP= -.67E+01 SK= 0.24E-01
       N       E                     dE             d eps       ncg     rms          rms(c)
DAV:   1    -0.301138277365E+03    0.74127E-01   -0.15933E-02   968   0.225E+00    0.314E-01
RMM:   2    -0.301140324681E+03   -0.20473E-02   -0.27724E-02   685   0.312E-01    0.340E-01
RMM:   3    -0.301140821313E+03   -0.49663E-03   -0.63112E-03   797   0.155E-01    0.373E-01
RMM:   4    -0.301141044038E+03   -0.22273E-03   -0.10790E-03   786   0.654E-02    0.470E-01
RMM:   5    -0.301141154478E+03   -0.11044E-03   -0.16777E-03   643   0.924E-02    0.147E-01
RMM:   6    -0.301140829928E+03    0.32455E-03   -0.20135E-03   670   0.647E-02    0.449E-01
RMM:   7    -0.301140473616E+03    0.35631E-03   -0.47371E-04   668   0.516E-02    0.276E-01
RMM:   8    -0.301140404521E+03    0.69096E-04   -0.11266E-04   646   0.199E-02    0.225E-01
RMM:   9    -0.301140389519E+03    0.15002E-04   -0.24343E-05   420   0.938E-03    0.198E-01
RMM:  10    -0.301140259768E+03    0.12975E-03   -0.63574E-04   774   0.483E-02    0.238E-02
RMM:  11    -0.301140258156E+03    0.16113E-05   -0.21255E-05   439   0.866E-03
   3751 T=   963. E= -.29809938E+03 F= -.30114026E+03 E0= -.30116637E+03  EK= 0.98383E+01 SP= -.68E+01 SK= 0.78E-02
       N       E                     dE             d eps       ncg     rms          rms(c)
DAV:   1    -0.301033509458E+03    0.10675E+00   -0.23601E-02   952   0.227E+00    0.777E-01
RMM:   2    -0.301036833529E+03   -0.33241E-02   -0.33403E-02   686   0.330E-01    0.291E-01
RMM:   3    -0.301037727293E+03   -0.89376E-03   -0.78463E-03   804   0.168E-01    0.118E-01
RMM:   4    -0.301037505764E+03    0.22153E-03   -0.11931E-03   700   0.675E-02    0.592E-02
RMM:   5    -0.301037484132E+03    0.21632E-04   -0.21991E-04   715   0.274E-02    0.178E-02
RMM:   6    -0.301037484064E+03    0.68430E-07   -0.34825E-05   453   0.119E-02
   3752 T=   958. E= -.29809798E+03 F= -.30103748E+03 E0= -.30106297E+03  EK= 0.97797E+01 SP= -.68E+01 SK= 0.55E-03
       N       E                     dE             d eps       ncg     rms          rms(c)
DAV:   1    -0.300916401296E+03    0.12108E+00   -0.25002E-02   968   0.229E+00    0.162E-01
RMM:   2    -0.300920081055E+03   -0.36798E-02   -0.32170E-02   686   0.336E-01    0.145E-01
RMM:   3    -0.300920733148E+03   -0.65209E-03   -0.68596E-03   803   0.164E-01    0.178E-01
RMM:   4    -0.300920835661E+03   -0.10251E-03   -0.10365E-03   819   0.642E-02    0.170E-01
RMM:   5    -0.300920816540E+03    0.19120E-04   -0.89235E-05   639   0.177E-02    0.131E-01
RMM:   6    -0.300920795272E+03    0.21268E-04   -0.32415E-04   546   0.238E-02    0.854E-02
RMM:   7    -0.300920786754E+03    0.85185E-05   -0.64961E-05   615   0.133E-02
   3753 T=   946. E= -.29809696E+03 F= -.30092079E+03 E0= -.30094474E+03  EK= 0.96586E+01 SP= -.68E+01 SK= 0.14E-02
       N       E                     dE             d eps       ncg     rms          rms(c)
DAV:   1    -0.300799073045E+03    0.12172E+00   -0.31817E-02   936   0.228E+00    0.446E-01
RMM:   2    -0.300802957512E+03   -0.38845E-02   -0.35924E-02   689   0.344E-01    0.953E-02
RMM:   3    -0.300803755787E+03   -0.79828E-03   -0.78333E-03   806   0.172E-01    0.618E-02
RMM:   4    -0.300803844957E+03   -0.89170E-04   -0.10345E-03   778   0.648E-02    0.405E-02
RMM:   5    -0.300803842582E+03    0.23749E-05   -0.13566E-04   685   0.215E-02    0.160E-02
RMM:   6    -0.300803841443E+03    0.11393E-05   -0.19220E-05   378   0.932E-03
   3754 T=   930. E= -.29809593E+03 F= -.30080384E+03 E0= -.30082488E+03  EK= 0.94936E+01 SP= -.68E+01 SK= 0.87E-02
       N       E                     dE             d eps       ncg     rms          rms(c)
DAV:   1    -0.300692212708E+03    0.11163E+00   -0.24663E-02   960   0.230E+00    0.139E-01
RMM:   2    -0.300695885980E+03   -0.36733E-02   -0.32132E-02   694   0.335E-01    0.135E-01
RMM:   3    -0.300696540887E+03   -0.65491E-03   -0.68369E-03   803   0.162E-01    0.169E-01
RMM:   4    -0.300696642637E+03   -0.10175E-03   -0.10236E-03   828   0.634E-02    0.167E-01
RMM:   5    -0.300696648932E+03   -0.62950E-05   -0.65298E-05   515   0.153E-02
   3755 T=   911. E= -.29809457E+03 F= -.30069665E+03 E0= -.30071493E+03  EK= 0.93016E+01 SP= -.67E+01 SK= 0.20E-01
       N       E                     dE             d eps       ncg     rms          rms(c)
DAV:   1    -0.300601219599E+03    0.95423E-01   -0.20865E-02   976   0.225E+00    0.120E-01
RMM:   2    -0.300604327932E+03   -0.31083E-02   -0.29500E-02   691   0.315E-01    0.181E-01
RMM:   3    -0.300604946765E+03   -0.61883E-03   -0.64109E-03   801   0.155E-01    0.224E-01
RMM:   4    -0.300605031815E+03   -0.85050E-04   -0.93852E-04   826   0.604E-02    0.246E-01
RMM:   5    -0.300605028823E+03    0.29920E-05   -0.65924E-05   534   0.183E-02
   3756 T=   891. E= -.29809369E+03 F= -.30060503E+03 E0= -.30062207E+03  EK= 0.90945E+01 SP= -.66E+01 SK= 0.33E-01
       N       E                     dE             d eps       ncg     rms          rms(c)
DAV:   1    -0.300531181304E+03    0.73851E-01   -0.35790E-02   952   0.235E+00    0.170E+00
RMM:   2    -0.300530731993E+03    0.44931E-03   -0.30488E-02   669   0.360E-01    0.857E-01
RMM:   3    -0.300532545035E+03   -0.18130E-02   -0.14317E-02   766   0.234E-01    0.199E-01
RMM:   4    -0.300531056573E+03    0.14885E-02   -0.28609E-03   688   0.101E-01    0.115E-01
RMM:   5    -0.300530842306E+03    0.21427E-03   -0.24619E-03   656   0.554E-02    0.105E-01
RMM:   6    -0.300530512317E+03    0.32999E-03   -0.29010E-04   613   0.325E-02    0.316E-02
RMM:   7    -0.300530548845E+03   -0.36528E-04   -0.14020E-04   592   0.172E-02    0.342E-02
RMM:   8    -0.300530501768E+03    0.47077E-04   -0.30699E-05   477   0.937E-03    0.102E-02
RMM:   9    -0.300530499593E+03    0.21752E-05   -0.71428E-06   357   0.552E-03
   3757 T=   870. E= -.29809287E+03 F= -.30053050E+03 E0= -.30054785E+03  EK= 0.88815E+01 SP= -.65E+01 SK= 0.46E-01
