 vasp.6.3.2 27Jun22 (build Mar 25 2024 10:42:18) complex                         
 executed on             LinuxGNU date 2024.03.31  12:57:53
 running on   32 total cores
 distrk:  each k-point on   32 cores,    1 groups
 distr:  one band on NCORE=   1 cores,   32 groups


--------------------------------------------------------------------------------------------------------


 INCAR:
   ISTART = 0
   ICHARG = 2
   PREC = Accurate
   IBRION = -1
   EDIFF = 0.000000001
   EDIFFG = -0.0005
   NSW = 0
   NELM = 100
   ENCUT = 520
   ISMEAR = -5
   SIGMA = 0.05
   ISPIN = 2
   ISYM = 0
   LWAVE = False
   LCHARG = False
   LASPH = True
   LORBIT = 11
   ADDGRID = TRUE

 POTCAR:    PAW_PBE S 06Sep2000                   
 -----------------------------------------------------------------------------
|                                                                             |
|           W    W    AA    RRRRR   N    N  II  N    N   GGGG   !!!           |
|           W    W   A  A   R    R  NN   N  II  NN   N  G    G  !!!           |
|           W    W  A    A  R    R  N N  N  II  N N  N  G       !!!           |
|           W WW W  AAAAAA  RRRRR   N  N N  II  N  N N  G  GGG   !            |
|           WW  WW  A    A  R   R   N   NN  II  N   NN  G    G                |
|           W    W  A    A  R    R  N    N  II  N    N   GGGG   !!!           |
|                                                                             |
|     You use a magnetic or noncollinear calculation, but did not specify     |
|     the initial magnetic moment with the MAGMOM tag. Note that a            |
|     default of 1 will be used for all atoms. This ferromagnetic setup       |
|     may break the symmetry of the crystal, in particular it may rule        |
|     out finding an antiferromagnetic solution. Thence, we recommend         |
|     setting the initial magnetic moment manually or verifying carefully     |
|     that this magnetic setup is desired.                                    |
|                                                                             |
 -----------------------------------------------------------------------------

 -----------------------------------------------------------------------------
|                                                                             |
|           W    W    AA    RRRRR   N    N  II  N    N   GGGG   !!!           |
|           W    W   A  A   R    R  NN   N  II  NN   N  G    G  !!!           |
|           W    W  A    A  R    R  N N  N  II  N N  N  G       !!!           |
|           W WW W  AAAAAA  RRRRR   N  N N  II  N  N N  G  GGG   !            |
|           WW  WW  A    A  R   R   N   NN  II  N   NN  G    G                |
|           W    W  A    A  R    R  N    N  II  N    N   GGGG   !!!           |
|                                                                             |
|     For optimal performance we recommend to set                             |
|       NCORE = 2 up to number-of-cores-per-socket                            |
|     NCORE specifies how many cores store one orbital (NPAR=cpu/NCORE).      |
|     This setting can greatly improve the performance of VASP for DFT.       |
|     The default, NCORE=1 might be grossly inefficient on modern             |
|     multi-core architectures or massively parallel machines. Do your        |
|     own testing! More info at https://www.vasp.at/wiki/index.php/NCORE      |
|     Unfortunately you need to use the default for GW and RPA                |
|     calculations (for HF NCORE is supported but not extensively tested      |
|     yet).                                                                   |
|                                                                             |
 -----------------------------------------------------------------------------

 POTCAR:    PAW_PBE S 06Sep2000                   
   SHA256 =  0fc7481fb0695f01bdc6462160264c5c84044ae9ec85a907d398b887a2bc3132 S/POTCAR              
   COPYR  = (c) Copyright 06Sep2000 Georg Kresse                                                    
   COPYR  = This file is part of the software VASP. Any use, copying, and all other rights are regul
   COPYR  = If you do not have a valid VASP license, you may not use, copy or distribute this file. 
   VRHFIN =S : s2p4                                                                                 
   LEXCH  = PE                                                                                      
   EATOM  =   276.8230 eV,   20.3459 Ry                                                             
                                                                                                    
   TITEL  = PAW_PBE S 06Sep2000                                                                     
   LULTRA =        F    use ultrasoft PP ?                                                          
   IUNSCR =        1    unscreen: 0-lin 1-nonlin 2-no                                               
   RPACOR =    1.500    partial core radius                                                         
   POMASS =   32.066; ZVAL   =    6.000    mass and valenz                                          
   RCORE  =    1.900    outmost cutoff radius                                                       
   RWIGS  =    2.200; RWIGS  =    1.164    wigner-seitz radius (au A)                               
   ENMAX  =  258.689; ENMIN  =  194.016 eV                                                          
   ICORE  =        2    local potential                                                             
   LCOR   =        T    correct aug charges                                                         
   LPAW   =        T    paw PP                                                                      
   EAUG   =  335.092                                                                                
   DEXC   =    0.000                                                                                
   RMAX   =    1.942    core radius for proj-oper                                                   
   RAUG   =    1.300    factor for augmentation sphere                                              
   RDEP   =    1.954    radius for radial grids                                                     
   RDEPT  =    1.744    core radius for aug-charge                                                  
                                                                                                    
   Atomic configuration                                                                             
    6 entries                                                                                       
     n  l   j            E        occ.                                                              
     1  0  0.50     -2405.8406   2.0000                                                             
     2  0  0.50      -211.7007   2.0000                                                             
     2  1  1.50      -156.4958   6.0000                                                             
     3  0  0.50       -17.2562   2.0000                                                             
     3  1  0.50        -7.0085   4.0000                                                             
     3  2  1.50        -6.8029   0.0000                                                             
   Description                                                                                      
     l       E           TYP  RCUT    TYP  RCUT                                                     
     0    -17.2561641     23  1.900                                                                 
     0    -15.8743224     23  1.900                                                                 
     1     -7.0085400     23  1.900                                                                 
     1     -2.7779785     23  1.900                                                                 
     2     -6.8029130     23  1.900                                                                 
  local pseudopotential read in
  partial core-charges read in
  partial kinetic energy density read in
  atomic valenz-charges read in
  non local Contribution for L=           0  read in
    real space projection operators read in
  non local Contribution for L=           0  read in
    real space projection operators read in
  non local Contribution for L=           1  read in
    real space projection operators read in
  non local Contribution for L=           1  read in
    real space projection operators read in
    PAW grid and wavefunctions read in

   number of l-projection  operators is LMAX  =           4
   number of lm-projection operators is LMMAX =           8

 -----------------------------------------------------------------------------
|                                                                             |
|               ----> ADVICE to this user running VASP <----                  |
|                                                                             |
|     You have a (more or less) 'large supercell' and for larger cells it     |
|     might be more efficient to use real-space projection operators.         |
|     Therefore, try LREAL= Auto in the INCAR file.                           |
|     Mind: For very accurate calculation, you might also keep the            |
|     reciprocal projection scheme (i.e. LREAL=.FALSE.).                      |
|                                                                             |
 -----------------------------------------------------------------------------

  PAW_PBE S 06Sep2000                   :
 energy of atom  1       EATOM= -276.8230
 kinetic energy error for atom=    0.0016 (will be added to EATOM!!)


 POSCAR: generated by phonopy
  positions in direct lattice
  No initial velocities read in
 exchange correlation table for  LEXCH =        8
   RHO(1)=    0.500       N(1)  =     2000
   RHO(2)=  100.500       N(2)  =     4000



--------------------------------------------------------------------------------------------------------


 ion  position               nearest neighbor table
   1  0.886  0.467  0.678-  45 1.98  24 2.13
   2  0.886  0.967  0.678-  46 1.98  23 2.13
   3  0.330  0.189  0.551-  41 2.05  19 2.13
   4  0.330  0.689  0.551-  42 2.05  20 2.13
   5  0.914  0.105  0.912-  51 1.99  11 2.14
   6  0.913  0.605  0.912-  52 1.98  12 2.13
   7  0.240  0.301  0.777-  19 1.98  37 2.23
   8  0.240  0.801  0.777-  20 1.98  38 2.23
   9  0.144  0.306  0.224-  31 2.05  39 2.13
  10  0.144  0.806  0.224-  32 2.05  40 2.13
  11  0.856  0.194  0.776-  47 2.05   5 2.14
  12  0.856  0.694  0.776-  48 2.05   6 2.13
  13  0.760  0.199  0.223-  27 1.98  33 2.23
  14  0.760  0.699  0.223-  28 1.98  34 2.23
  15  0.170  0.439  0.449-  31 2.05  30 2.13
  16  0.170  0.939  0.449-  32 2.05  29 2.13
  17  0.413  0.145  0.912-  37 1.98  43 2.13
  18  0.413  0.645  0.912-  38 1.98  44 2.13
  19  0.386  0.283  0.678-   7 1.98   3 2.13
  20  0.386  0.783  0.678-   8 1.98   4 2.13
  21  0.644  0.444  0.224-  53 2.05  35 2.13
  22  0.644  0.944  0.224-  54 2.05  36 2.13
  23  0.830  0.061  0.551-  47 2.05   2 2.13
  24  0.830  0.561  0.551-  48 2.05   1 2.13
  25  0.260  0.051  0.223-  29 1.98  50 2.23
  26  0.260  0.551  0.223-  30 1.98  49 2.23
  27  0.614  0.217  0.322-  13 1.98  55 2.13
  28  0.614  0.717  0.322-  14 1.98  56 2.13
  29  0.114  0.033  0.322-  25 1.98  16 2.13
  30  0.114  0.533  0.322-  26 1.98  15 2.13
  31  0.060  0.345  0.374-   9 2.05  15 2.05
  32  0.060  0.845  0.374-  10 2.05  16 2.05
  33  0.743  0.289  0.071-  35 1.98  13 2.23
  34  0.743  0.789  0.071-  36 1.98  14 2.23
  35  0.587  0.355  0.088-  33 1.98  21 2.13
  36  0.587  0.855  0.088-  34 1.98  22 2.13
  37  0.257  0.211  0.929-  17 1.98   7 2.23
  38  0.257  0.711  0.929-  18 1.98   8 2.23
  39  0.087  0.395  0.088-  49 1.98   9 2.13
  40  0.087  0.895  0.088-  50 1.98  10 2.13
  41  0.440  0.095  0.626-  43 2.05   3 2.05
  42  0.440  0.595  0.626-  44 2.05   4 2.05
  43  0.356  0.056  0.776-  41 2.05  17 2.13
  44  0.356  0.556  0.776-  42 2.05  18 2.13
  45  0.740  0.449  0.777-   1 1.98  52 2.23
  46  0.740  0.949  0.777-   2 1.98  51 2.23
  47  0.940  0.155  0.626-  11 2.05  23 2.05
  48  0.940  0.655  0.626-  12 2.05  24 2.05
  49  0.243  0.461  0.071-  39 1.98  26 2.23
  50  0.243  0.961  0.071-  40 1.98  25 2.23
  51  0.757  0.039  0.929-   5 1.99  46 2.23
  52  0.757  0.539  0.929-   6 1.98  45 2.23
  53  0.560  0.405  0.374-  21 2.05  55 2.05
  54  0.560  0.905  0.374-  22 2.05  56 2.05
  55  0.670  0.311  0.449-  53 2.05  27 2.13
  56  0.670  0.811  0.449-  54 2.05  28 2.13


IMPORTANT INFORMATION: All symmetrisations will be switched off!
NOSYMM: (Re-)initialisation of all symmetry stuff for point group C_1.


----------------------------------------------------------------------------------------

                                     Primitive cell                                     

  volume of cell :    1863.6770

  direct lattice vectors                    reciprocal lattice vectors
     0.000000000 10.307367086 -0.372855731     0.000000000  0.096453423 -0.015606996
    16.788494411  0.000000000  0.000000000     0.059564603  0.000000000  0.000000000
     0.000000000 -1.732519801-10.707215182     0.000000000 -0.003358783 -0.092851486

  length of vectors
    10.314108670 16.788494411 10.846477853     0.097707938  0.059564603  0.092912216

  position of ions in fractional coordinates (direct lattice)
     0.886423141  0.467004751  0.678126386
     0.886423141  0.967004751  0.678126386
     0.329563264  0.188743823  0.550707721
     0.329563264  0.688743823  0.550707721
     0.913640831  0.105241885  0.911960471
     0.912671285  0.605241885  0.911960471
     0.239736405  0.300831047  0.776574189
     0.239736405  0.800831047  0.776574189
     0.144417516  0.305688762  0.224396680
     0.144417516  0.805688762  0.224396680
     0.855582484  0.194311238  0.775603320
     0.855582484  0.694311238  0.775603320
     0.760263595  0.199168953  0.223425811
     0.760263595  0.699168953  0.223425811
     0.170436736  0.438743823  0.449292279
     0.170436736  0.938743823  0.449292279
     0.412671285  0.144758115  0.911960471
     0.412671285  0.644758115  0.911960471
     0.386423141  0.282995249  0.678126386
     0.386423141  0.782995249  0.678126386
     0.644417516  0.444311238  0.224396680
     0.644417516  0.944311238  0.224396680
     0.829563264  0.061256177  0.550707721
     0.829563264  0.561256177  0.550707721
     0.260263595  0.050831047  0.223425811
     0.260263595  0.550831047  0.223425811
     0.613576859  0.217004751  0.321873614
     0.613576859  0.717004751  0.321873614
     0.113576859  0.032995249  0.321873614
     0.113576859  0.532995249  0.321873614
     0.059895700  0.345087734  0.374484367
     0.059895700  0.845087734  0.374484367
     0.743425210  0.289344343  0.071165234
     0.743425210  0.789344343  0.071165234
     0.587328715  0.355241885  0.088039529
     0.587328715  0.855241885  0.088039529
     0.256574790  0.210655657  0.928834766
     0.256574790  0.710655657  0.928834766
     0.087328715  0.394758115  0.088039529
     0.087328715  0.894758115  0.088039529
     0.440104300  0.095087734  0.625515633
     0.440104300  0.595087734  0.625515633
     0.355582484  0.055688762  0.775603320
     0.355582484  0.555688762  0.775603320
     0.739736405  0.449168953  0.776574189
     0.739736405  0.949168953  0.776574189
     0.940104300  0.154912266  0.625515633
     0.940104300  0.654912266  0.625515633
     0.243425210  0.460655657  0.071165234
     0.243425210  0.960655657  0.071165234
     0.756574790  0.039344343  0.928834766
     0.756574790  0.539344343  0.928834766
     0.559895700  0.404912266  0.374484367
     0.559895700  0.904912266  0.374484367
     0.670436736  0.311256177  0.449292279
     0.670436736  0.811256177  0.449292279

  ion indices of the primitive-cell ions
   primitive index   ion index
                 1           1
                 2           2
                 3           3
                 4           4
                 5           5
                 6           6
                 7           7
                 8           8
                 9           9
                10          10
                11          11
                12          12
                13          13
                14          14
                15          15
                16          16
                17          17
                18          18
                19          19
                20          20
                21          21
                22          22
                23          23
                24          24
                25          25
                26          26
                27          27
                28          28
                29          29
                30          30
                31          31
                32          32
                33          33
                34          34
                35          35
                36          36
                37          37
                38          38
                39          39
                40          40
                41          41
                42          42
                43          43
                44          44
                45          45
                46          46
                47          47
                48          48
                49          49
                50          50
                51          51
                52          52
                53          53
                54          54
                55          55
                56          56

----------------------------------------------------------------------------------------



 KPOINTS: pymatgen with grid density = 595 / numbe

Automatic generation of k-mesh.
 Grid dimensions read from file:
 generate k-points for:    2    2    2

 Generating k-lattice:

  Cartesian coordinates                     Fractional coordinates (reciprocal lattice)
     0.000000000  0.048226712 -0.007803498     0.500000000  0.000000000 -0.000000000
     0.029782301  0.000000000  0.000000000     0.000000000  0.500000000  0.000000000
     0.000000000 -0.001679391 -0.046425743    -0.000000000  0.000000000  0.500000000

  Length of vectors
     0.048853969  0.029782301  0.046456108

  Shift w.r.t. Gamma in fractional coordinates (k-lattice)
     0.000000000  0.000000000  0.000000000

 TETIRR: Found     24 inequivalent tetrahedra from       48
 
 Subroutine IBZKPT returns following result:
 ===========================================
 
 Found      8 irreducible k-points:
 
 Following reciprocal coordinates:
            Coordinates               Weight
  0.000000  0.000000  0.000000      1.000000
  0.500000  0.000000  0.000000      1.000000
  0.000000  0.500000  0.000000      1.000000
  0.500000  0.500000  0.000000      1.000000
  0.000000  0.000000  0.500000      1.000000
  0.500000  0.000000  0.500000      1.000000
  0.000000  0.500000  0.500000      1.000000
  0.500000  0.500000  0.500000      1.000000
 
 Following cartesian coordinates:
            Coordinates               Weight
  0.000000  0.000000 -0.000000      1.000000
  0.000000  0.048227 -0.007803      1.000000
  0.029782  0.000000 -0.000000      1.000000
  0.029782  0.048227 -0.007803      1.000000
  0.000000 -0.001679 -0.046426      1.000000
  0.000000  0.046547 -0.054229      1.000000
  0.029782 -0.001679 -0.046426      1.000000
  0.029782  0.046547 -0.054229      1.000000
 


--------------------------------------------------------------------------------------------------------




 Dimension of arrays:
   k-points           NKPTS =      8   k-points in BZ     NKDIM =      8   number of bands    NBANDS=    256
   number of dos      NEDOS =    301   number of ions     NIONS =     56
   non local maximal  LDIM  =      4   non local SUM 2l+1 LMDIM =      8
   total plane-waves  NPLWV = 846720
   max r-space proj   IRMAX =      1   max aug-charges    IRDMAX= 114695
   dimension x,y,z NGX =    80 NGY =  126 NGZ =   84
   dimension x,y,z NGXF=   160 NGYF=  252 NGZF=  168
   support grid    NGXF=   320 NGYF=  504 NGZF=  336
   ions per type =              56
   NGX,Y,Z   is equivalent  to a cutoff of  12.89, 12.48, 12.87 a.u.
   NGXF,Y,Z  is equivalent  to a cutoff of  25.79, 24.95, 25.75 a.u.

 SYSTEM =  unknown system                          
 POSCAR =  generated by phonopy                    

 Startparameter for this run:
   NWRITE =      2    write-flag & timer
   PREC   = accura    normal or accurate (medium, high low for compatibility)
   ISTART =      0    job   : 0-new  1-cont  2-samecut
   ICHARG =      2    charge: 1-file 2-atom 10-const
   ISPIN  =      2    spin polarized calculation?
   LNONCOLLINEAR =      F non collinear calculations
   LSORBIT =      F    spin-orbit coupling
   INIWAV =      1    electr: 0-lowe 1-rand  2-diag
   LASPH  =      T    aspherical Exc in radial PAW
 Electronic Relaxation 1
   ENCUT  =  520.0 eV  38.22 Ry    6.18 a.u.  19.18 31.22 20.17*2*pi/ulx,y,z
   ENINI  =  520.0     initial cutoff
   ENAUG  =  335.1 eV  augmentation charge cutoff
   NELM   =    100;   NELMIN=  2; NELMDL= -5     # of ELM steps 
   EDIFF  = 0.1E-08   stopping-criterion for ELM
   LREAL  =      F    real-space projection
   NLSPLINE    = F    spline interpolate recip. space projectors
   LCOMPAT=      F    compatible to vasp.4.4
   GGA_COMPAT  = T    GGA compatible to vasp.4.4-vasp.4.6
   LMAXPAW     = -100 max onsite density
   LMAXMIX     =    2 max onsite mixed and CHGCAR
   VOSKOWN=      0    Vosko Wilk Nusair interpolation
   ROPT   =    0.00000
 Ionic relaxation
   EDIFFG = -.5E-03   stopping-criterion for IOM
   NSW    =      0    number of steps for IOM
   NBLOCK =      1;   KBLOCK =      1    inner block; outer block 
   IBRION =     -1    ionic relax: 0-MD 1-quasi-New 2-CG
   NFREE  =      0    steps in history (QN), initial steepest desc. (CG)
   ISIF   =      2    stress and relaxation
   IWAVPR =     10    prediction:  0-non 1-charg 2-wave 3-comb
   ISYM   =      0    0-nonsym 1-usesym 2-fastsym
   LCORR  =      T    Harris-Foulkes like correction to forces

   POTIM  = 0.5000    time-step for ionic-motion
   TEIN   =    0.0    initial temperature
   TEBEG  =    0.0;   TEEND  =   0.0 temperature during run
   SMASS  =  -3.00    Nose mass-parameter (am)
   estimated Nose-frequenzy (Omega)   =  0.10E-29 period in steps = 0.13E+47 mass=  -0.243E-26a.u.
   SCALEE = 1.0000    scale energy and forces
   NPACO  =    256;   APACO  = 10.0  distance and # of slots for P.C.
   PSTRESS=    0.0 pullay stress

  Mass of Ions in am
   POMASS =  32.07
  Ionic Valenz
   ZVAL   =   6.00
  Atomic Wigner-Seitz radii
   RWIGS  =  -1.00
  virtual crystal weights 
   VCA    =   1.00
   NELECT =     336.0000    total number of electrons
   NUPDOWN=      -1.0000    fix difference up-down

 DOS related values:
   EMIN   =  10.00;   EMAX   =-10.00  energy-range for DOS
   EFERMI =   0.00
   ISMEAR =    -5;   SIGMA  =   0.05  broadening in eV -4-tet -1-fermi 0-gaus

 Electronic relaxation 2 (details)
   IALGO  =     38    algorithm
   LDIAG  =      T    sub-space diagonalisation (order eigenvalues)
   LSUBROT=      F    optimize rotation matrix (better conditioning)
   TURBO    =      0    0=normal 1=particle mesh
   IRESTART =      0    0=no restart 2=restart with 2 vectors
   NREBOOT  =      0    no. of reboots
   NMIN     =      0    reboot dimension
   EREF     =   0.00    reference energy to select bands
   IMIX   =      4    mixing-type and parameters
     AMIX     =   0.40;   BMIX     =  1.00
     AMIX_MAG =   1.60;   BMIX_MAG =  1.00
     AMIN     =   0.10
     WC   =   100.;   INIMIX=   1;  MIXPRE=   1;  MAXMIX= -45

 Intra band minimization:
   WEIMIN = 0.0000     energy-eigenvalue tresh-hold
   EBREAK =  0.98E-12  absolut break condition
   DEPER  =   0.30     relativ break condition  

   TIME   =   0.40     timestep for ELM

  volume/ion in A,a.u.               =      33.28       224.58
  Fermi-wavevector in a.u.,A,eV,Ry     =   0.924835  1.747685 11.637339  0.855320
  Thomas-Fermi vector in A             =   2.050624

 Write flags
   LWAVE        =      F    write WAVECAR
   LDOWNSAMPLE  =      F    k-point downsampling of WAVECAR
   LCHARG       =      F    write CHGCAR
   LVTOT        =      F    write LOCPOT, total local potential
   LVHAR        =      F    write LOCPOT, Hartree potential only
   LELF         =      F    write electronic localiz. function (ELF)
   LORBIT       =     11    0 simple, 1 ext, 2 COOP (PROOUT), +10 PAW based schemes


 Dipole corrections
   LMONO  =      F    monopole corrections only (constant potential shift)
   LDIPOL =      F    correct potential (dipole corrections)
   IDIPOL =      0    1-x, 2-y, 3-z, 4-all directions 
   EPSILON=  1.0000000 bulk dielectric constant

 Exchange correlation treatment:
   GGA     =    --    GGA type
   LEXCH   =     8    internal setting for exchange type
   LIBXC   =     F    Libxc                    
   VOSKOWN =     0    Vosko Wilk Nusair interpolation
   LHFCALC =     F    Hartree Fock is set to
   LHFONE  =     F    Hartree Fock one center treatment
   AEXX    =    0.0000 exact exchange contribution

 Linear response parameters
   LEPSILON=     F    determine dielectric tensor
   LRPA    =     F    only Hartree local field effects (RPA)
   LNABLA  =     F    use nabla operator in PAW spheres
   LVEL    =     F    velocity operator in full k-point grid
   CSHIFT  =0.1000    complex shift for real part using Kramers Kronig
   OMEGAMAX=  -1.0    maximum frequency
   DEG_THRESHOLD= 0.2000000E-02 threshold for treating states as degnerate
   RTIME   =   -0.100 relaxation time in fs
  (WPLASMAI=    0.000 imaginary part of plasma frequency in eV, 0.658/RTIME)
   DFIELD  = 0.0000000 0.0000000 0.0000000 field for delta impulse in time

  Optional k-point grid parameters
   LKPOINTS_OPT  =     F    use optional k-point grid
   KPOINTS_OPT_MODE=     1    mode for optional k-point grid

 Orbital magnetization related:
   ORBITALMAG=     F  switch on orbital magnetization
   LCHIMAG   =     F  perturbation theory with respect to B field
   DQ        =  0.001000  dq finite difference perturbation B field
   LLRAUG    =     F  two centre corrections for induced B field



--------------------------------------------------------------------------------------------------------


 Static calculation
 charge density and potential will be updated during run
 spin polarized calculation
 Variant of blocked Davidson
 Davidson routine will perform the subspace rotation
 perform sub-space diagonalisation
    after iterative eigenvector-optimisation
 modified Broyden-mixing scheme, WC =      100.0
 initial mixing is a Kerker type mixing with AMIX =  0.4000 and BMIX =      1.0000
 Hartree-type preconditioning will be used
 using additional bands           88
 reciprocal scheme for non local part
 use partial core corrections
 calculate Harris-corrections to forces   (improved forces if not selfconsistent)
 use gradient corrections 
 use of overlap-Matrix (Vanderbilt PP)
 Fermi weights with tetrahedron method with Bloechl corrections


--------------------------------------------------------------------------------------------------------


  energy-cutoff  :      520.00
  volume of cell :     1863.68
      direct lattice vectors                 reciprocal lattice vectors
     0.000000000 10.307367086 -0.372855731     0.000000000  0.096453423 -0.015606996
    16.788494411  0.000000000  0.000000000     0.059564603  0.000000000  0.000000000
     0.000000000 -1.732519801-10.707215182     0.000000000 -0.003358783 -0.092851486

  length of vectors
    10.314108670 16.788494411 10.846477853     0.097707938  0.059564603  0.092912216



 k-points in units of 2pi/SCALE and weight: pymatgen with grid density = 595 / numbe
   0.00000000  0.00000000 -0.00000000       0.125
   0.00000000  0.04822671 -0.00780350       0.125
   0.02978230  0.00000000 -0.00000000       0.125
   0.02978230  0.04822671 -0.00780350       0.125
   0.00000000 -0.00167939 -0.04642574       0.125
   0.00000000  0.04654732 -0.05422924       0.125
   0.02978230 -0.00167939 -0.04642574       0.125
   0.02978230  0.04654732 -0.05422924       0.125

 k-points in reciprocal lattice and weights: pymatgen with grid density = 595 / numbe
   0.00000000  0.00000000  0.00000000       0.125
   0.50000000  0.00000000  0.00000000       0.125
   0.00000000  0.50000000  0.00000000       0.125
   0.50000000  0.50000000  0.00000000       0.125
   0.00000000  0.00000000  0.50000000       0.125
   0.50000000  0.00000000  0.50000000       0.125
   0.00000000  0.50000000  0.50000000       0.125
   0.50000000  0.50000000  0.50000000       0.125

 position of ions in fractional coordinates (direct lattice) 
   0.88642314  0.46700475  0.67812639
   0.88642314  0.96700475  0.67812639
   0.32956326  0.18874382  0.55070772
   0.32956326  0.68874382  0.55070772
   0.91364083  0.10524188  0.91196047
   0.91267129  0.60524188  0.91196047
   0.23973640  0.30083105  0.77657419
   0.23973640  0.80083105  0.77657419
   0.14441752  0.30568876  0.22439668
   0.14441752  0.80568876  0.22439668
   0.85558248  0.19431124  0.77560332
   0.85558248  0.69431124  0.77560332
   0.76026360  0.19916895  0.22342581
   0.76026360  0.69916895  0.22342581
   0.17043674  0.43874382  0.44929228
   0.17043674  0.93874382  0.44929228
   0.41267129  0.14475812  0.91196047
   0.41267129  0.64475812  0.91196047
   0.38642314  0.28299525  0.67812639
   0.38642314  0.78299525  0.67812639
   0.64441752  0.44431124  0.22439668
   0.64441752  0.94431124  0.22439668
   0.82956326  0.06125618  0.55070772
   0.82956326  0.56125618  0.55070772
   0.26026360  0.05083105  0.22342581
   0.26026360  0.55083105  0.22342581
   0.61357686  0.21700475  0.32187361
   0.61357686  0.71700475  0.32187361
   0.11357686  0.03299525  0.32187361
   0.11357686  0.53299525  0.32187361
   0.05989570  0.34508773  0.37448437
   0.05989570  0.84508773  0.37448437
   0.74342521  0.28934434  0.07116523
   0.74342521  0.78934434  0.07116523
   0.58732871  0.35524188  0.08803953
   0.58732871  0.85524188  0.08803953
   0.25657479  0.21065566  0.92883477
   0.25657479  0.71065566  0.92883477
   0.08732871  0.39475812  0.08803953
   0.08732871  0.89475812  0.08803953
   0.44010430  0.09508773  0.62551563
   0.44010430  0.59508773  0.62551563
   0.35558248  0.05568876  0.77560332
   0.35558248  0.55568876  0.77560332
   0.73973640  0.44916895  0.77657419
   0.73973640  0.94916895  0.77657419
   0.94010430  0.15491227  0.62551563
   0.94010430  0.65491227  0.62551563
   0.24342521  0.46065566  0.07116523
   0.24342521  0.96065566  0.07116523
   0.75657479  0.03934434  0.92883477
   0.75657479  0.53934434  0.92883477
   0.55989570  0.40491227  0.37448437
   0.55989570  0.90491227  0.37448437
   0.67043674  0.31125618  0.44929228
   0.67043674  0.81125618  0.44929228

 position of ions in cartesian coordinates  (Angst):
   7.84030666  7.96182132 -7.59135308
  16.23455387  7.96182132 -7.59135308
   3.16872461  2.44281751 -6.01942562
  11.56297182  2.44281751 -6.01942562
   1.76685280  7.83724186-10.10521322
  10.16110000  7.82724839-10.10485172
   5.05050035  1.12562097 -8.40433404
  13.44474755  1.12562097 -8.40433404
   5.13205407  1.09979266 -2.45651044
  13.52630128  1.09979266 -2.45651044
   3.26219313  7.47505463 -8.62356047
  11.65644034  7.47505463 -8.62356047
   3.34374686  7.44922632 -2.67573688
  11.73799406  7.44922632 -2.67573688
   7.36584822  0.97834624 -4.87421742
  15.76009542  0.97834624 -4.87421742
   2.43027081  2.67356485 -9.91842386
  10.82451801  2.67356485 -9.91842386
   4.75106415  2.80813777 -7.40492521
  13.14531135  2.80813777 -7.40492521
   7.45931673  6.25347620 -2.64293831
  15.85356394  6.25347620 -2.64293831
   1.02839899  7.59650105 -6.20585349
   9.42264619  7.59650105 -6.20585349
   0.85337674  2.29554277 -2.48930901
   9.24762395  2.29554277 -2.48930901
   3.64318306  5.76670951 -3.67514570
  12.03743026  5.76670951 -3.67514570
   0.55394055  0.61302597 -3.48871783
   8.94818775  0.61302597 -3.48871783
   5.79350349 -0.03143461 -4.03201715
  14.18775070 -0.03143461 -4.03201715
   4.85765589  7.53946136 -1.03917182
  13.25190310  7.53946136 -1.03917182
   5.96397640  5.90128244 -1.16164705
  14.35822361  5.90128244 -1.16164705
   3.53659131  1.03538593-10.04089909
  11.93083852  1.03538593-10.04089909
   6.62739441  0.74759889 -0.97521919
  15.02164161  0.74759889 -0.97521919
   1.59637989  3.45259836 -6.86162589
   9.99062710  3.45259836 -6.86162589
   0.93493047  2.32137108 -8.43713261
   9.32917768  2.32137108 -8.43713261
   7.54087046  6.27930451 -8.59076190
  15.93511767  6.27930451 -8.59076190
   2.60074371  8.60628190 -7.04805376
  10.99499092  8.60628190 -7.04805376
   7.73371492  2.38577782 -0.85274396
  16.12796212  2.38577782 -0.85274396
   0.66053229  6.18906947-10.22732695
   9.05477950  6.18906947-10.22732695
   6.79786731  5.12224893 -4.21844502
  15.19211452  5.12224893 -4.21844502
   5.22552259  6.13202978 -5.06064529
  13.61976980  6.13202978 -5.06064529



--------------------------------------------------------------------------------------------------------


 k-point   1 :   0.0000 0.0000 0.0000  plane waves:   50179
 k-point   2 :   0.5000 0.0000 0.0000  plane waves:   50160
 k-point   3 :   0.0000 0.5000 0.0000  plane waves:   50162
 k-point   4 :   0.5000 0.5000 0.0000  plane waves:   50192
 k-point   5 :   0.0000 0.0000 0.5000  plane waves:   50190
 k-point   6 :   0.5000 0.0000 0.5000  plane waves:   50190
 k-point   7 :   0.0000 0.5000 0.5000  plane waves:   50172
 k-point   8 :   0.5000 0.5000 0.5000  plane waves:   50200

 maximum and minimum number of plane-waves per node :     50200    50160

 maximum number of plane-waves:     50200
 maximum index in each direction: 
   IXMAX=   19   IYMAX=   31   IZMAX=   20
   IXMIN=  -19   IYMIN=  -31   IZMIN=  -20


 serial   3D FFT for wavefunctions
 parallel 3D FFT for charge:
    minimum data exchange during FFTs selected (reduces bandwidth)


 total amount of memory used by VASP MPI-rank0   322725. kBytes
=======================================================================

   base      :      30000. kBytes
   nonl-proj :      70692. kBytes
   fftplans  :      34504. kBytes
   grid      :      83442. kBytes
   one-center:        344. kBytes
   wavefun   :     103743. kBytes

     INWAV:  cpu time      0.0000: real time      0.0002
 Broyden mixing: mesh for mixing (old mesh)
   NGX = 39   NGY = 63   NGZ = 41
  (NGX  =160   NGY  =252   NGZ  =168)
  gives a total of 100737 points

 initial charge density was supplied:
 charge density of overlapping atoms calculated
 number of electron     336.0000000 magnetization      56.0000000
 keeping initial charge density in first step


--------------------------------------------------------------------------------------------------------


 Maximum index for augmentation-charges         3947 (set IRDMAX)


--------------------------------------------------------------------------------------------------------


 First call to EWALD:  gamma=   0.144
 Maximum number of real-space cells 3x 2x 3
 Maximum number of reciprocal cells 2x 4x 2

    FEWALD:  cpu time      0.0023: real time      0.0023


--------------------------------------- Iteration      1(   1)  ---------------------------------------


    POTLOK:  cpu time      0.5016: real time      0.5103
    SETDIJ:  cpu time     19.8388: real time     19.8411
     EDDAV:  cpu time     47.9503: real time     47.9612
 BZINTS: Fermi energy:   10.166272;  336.000000 electrons
         Band energy: 0.225212E+03;  BLOECHL correction:   -0.008818
       DOS:  cpu time      0.0476: real time      0.0477
    --------------------------------------------
      LOOP:  cpu time     68.3384: real time     68.3603

 eigenvalue-minimisations  :  8192
 total energy-change (2. order) : 0.2105988E+04  (-0.1333783E+05)
 number of electron     336.0000000 magnetization      56.0000000
 augmentation part      336.0000000 magnetization      56.0000000

 Free energy of the ion-electron system (eV)
  ---------------------------------------------------
  alpha Z        PSCENC =       253.99581917
  Ewald energy   TEWEN  =     -9971.95858183
  -Hartree energ DENC   =     -4764.99913915
  -exchange      EXHF   =         0.00000000
  -V(xc)+E(xc)   XCENC  =       682.49150640
  PAW double counting   =     12174.71095765   -11995.46358648
  entropy T*S    EENTRO =         0.00000000
  eigenvalues    EBANDS =       225.21212726
  atomic energy  EATOM  =     15501.99929693
  Solvation  Ediel_sol  =         0.00000000
  ---------------------------------------------------
  free energy    TOTEN  =      2105.98839995 eV

  energy without entropy =     2105.98839995  energy(sigma->0) =     2105.98839995


--------------------------------------------------------------------------------------------------------




--------------------------------------- Iteration      1(   2)  ---------------------------------------


     EDDAV:  cpu time     62.4211: real time     62.4338
 BZINTS: Fermi energy:    1.451564;  336.000000 electrons
         Band energy:-0.187453E+04;  BLOECHL correction:    0.000000
       DOS:  cpu time      0.0269: real time      0.0269
    --------------------------------------------
      LOOP:  cpu time     62.4480: real time     62.4608

 eigenvalue-minimisations  : 10272
 total energy-change (2. order) :-0.2099741E+04  (-0.2021564E+04)
 number of electron     336.0000000 magnetization      56.0000000
 augmentation part      336.0000000 magnetization      56.0000000

 Free energy of the ion-electron system (eV)
  ---------------------------------------------------
  alpha Z        PSCENC =       253.99581917
  Ewald energy   TEWEN  =     -9971.95858183
  -Hartree energ DENC   =     -4764.99913915
  -exchange      EXHF   =         0.00000000
  -V(xc)+E(xc)   XCENC  =       682.49150640
  PAW double counting   =     12174.71095765   -11995.46358648
  entropy T*S    EENTRO =         0.00000000
  eigenvalues    EBANDS =     -1874.52841877
  atomic energy  EATOM  =     15501.99929693
  Solvation  Ediel_sol  =         0.00000000
  ---------------------------------------------------
  free energy    TOTEN  =         6.24785393 eV

  energy without entropy =        6.24785393  energy(sigma->0) =        6.24785393


--------------------------------------------------------------------------------------------------------




--------------------------------------- Iteration      1(   3)  ---------------------------------------


     EDDAV:  cpu time     61.3623: real time     61.3732
 BZINTS: Fermi energy:    0.220612;  336.000000 electrons
         Band energy:-0.209436E+04;  BLOECHL correction:    0.000000
       DOS:  cpu time      0.0286: real time      0.0286
    --------------------------------------------
      LOOP:  cpu time     61.3909: real time     61.4018

 eigenvalue-minimisations  : 10240
 total energy-change (2. order) :-0.2198266E+03  (-0.2171397E+03)
 number of electron     336.0000000 magnetization      56.0000000
 augmentation part      336.0000000 magnetization      56.0000000

 Free energy of the ion-electron system (eV)
  ---------------------------------------------------
  alpha Z        PSCENC =       253.99581917
  Ewald energy   TEWEN  =     -9971.95858183
  -Hartree energ DENC   =     -4764.99913915
  -exchange      EXHF   =         0.00000000
  -V(xc)+E(xc)   XCENC  =       682.49150640
  PAW double counting   =     12174.71095765   -11995.46358648
  entropy T*S    EENTRO =         0.00000000
  eigenvalues    EBANDS =     -2094.35505763
  atomic energy  EATOM  =     15501.99929693
  Solvation  Ediel_sol  =         0.00000000
  ---------------------------------------------------
  free energy    TOTEN  =      -213.57878493 eV

  energy without entropy =     -213.57878493  energy(sigma->0) =     -213.57878493


--------------------------------------------------------------------------------------------------------




--------------------------------------- Iteration      1(   4)  ---------------------------------------


     EDDAV:  cpu time     58.8504: real time     58.8855
 BZINTS: Fermi energy:    0.192731;  336.000000 electrons
         Band energy:-0.209925E+04;  BLOECHL correction:    0.000000
       DOS:  cpu time      0.0264: real time      0.0264
    --------------------------------------------
      LOOP:  cpu time     58.8767: real time     58.9119

 eigenvalue-minimisations  : 10336
 total energy-change (2. order) :-0.4897808E+01  (-0.4879473E+01)
 number of electron     336.0000000 magnetization      56.0000000
 augmentation part      336.0000000 magnetization      56.0000000

 Free energy of the ion-electron system (eV)
  ---------------------------------------------------
  alpha Z        PSCENC =       253.99581917
  Ewald energy   TEWEN  =     -9971.95858183
  -Hartree energ DENC   =     -4764.99913915
  -exchange      EXHF   =         0.00000000
  -V(xc)+E(xc)   XCENC  =       682.49150640
  PAW double counting   =     12174.71095765   -11995.46358648
  entropy T*S    EENTRO =         0.00000000
  eigenvalues    EBANDS =     -2099.25286588
  atomic energy  EATOM  =     15501.99929693
  Solvation  Ediel_sol  =         0.00000000
  ---------------------------------------------------
  free energy    TOTEN  =      -218.47659318 eV

  energy without entropy =     -218.47659318  energy(sigma->0) =     -218.47659318


--------------------------------------------------------------------------------------------------------




--------------------------------------- Iteration      1(   5)  ---------------------------------------


     EDDAV:  cpu time     66.5662: real time     66.5795
 BZINTS: Fermi energy:    0.192709;  336.000000 electrons
         Band energy:-0.209939E+04;  BLOECHL correction:    0.000000
       DOS:  cpu time      0.0265: real time      0.0266
    CHARGE:  cpu time     10.5412: real time     10.5432
    MIXING:  cpu time      0.0118: real time      0.0118
    --------------------------------------------
      LOOP:  cpu time     77.1458: real time     77.1612

 eigenvalue-minimisations  : 10016
 total energy-change (2. order) :-0.1350569E+00  (-0.1349905E+00)
 number of electron     335.9999997 magnetization      44.9918631
 augmentation part      -47.3221590 magnetization      44.8832541

 Broyden mixing:
  rms(total) = 0.82845E+01    rms(broyden)= 0.82845E+01
  rms(prec ) = 0.83045E+01
  weight for this iteration     100.00

 Free energy of the ion-electron system (eV)
  ---------------------------------------------------
  alpha Z        PSCENC =       253.99581917
  Ewald energy   TEWEN  =     -9971.95858183
  -Hartree energ DENC   =     -4764.99913915
  -exchange      EXHF   =         0.00000000
  -V(xc)+E(xc)   XCENC  =       682.49150640
  PAW double counting   =     12174.71095765   -11995.46358648
  entropy T*S    EENTRO =         0.00000000
  eigenvalues    EBANDS =     -2099.38792279
  atomic energy  EATOM  =     15501.99929693
  Solvation  Ediel_sol  =         0.00000000
  ---------------------------------------------------
  free energy    TOTEN  =      -218.61165009 eV

  energy without entropy =     -218.61165009  energy(sigma->0) =     -218.61165009


--------------------------------------------------------------------------------------------------------




--------------------------------------- Iteration      1(   6)  ---------------------------------------


    POTLOK:  cpu time      0.4622: real time      0.4648
    SETDIJ:  cpu time     22.2346: real time     22.2379
     EDDAV:  cpu time     60.7722: real time     60.7838
 BZINTS: Fermi energy:    0.410277;  336.000000 electrons
         Band energy:-0.201394E+04;  BLOECHL correction:    0.000000
       DOS:  cpu time      0.0256: real time      0.0257
    CHARGE:  cpu time     22.7717: real time     22.7739
    MIXING:  cpu time      0.0096: real time      0.0096
    --------------------------------------------
      LOOP:  cpu time    106.2759: real time    106.2957

 eigenvalue-minimisations  :  9632
 total energy-change (2. order) : 0.1022788E+03  (-0.2668040E+02)
 number of electron     335.9999997 magnetization      26.4828682
 augmentation part      -47.6485053 magnetization      27.5409873

 Broyden mixing:
  rms(total) = 0.49344E+01    rms(broyden)= 0.49344E+01
  rms(prec ) = 0.49567E+01
  weight for this iteration     100.00

 eigenvalues of (default mixing * dielectric matrix)
  average eigenvalue GAMMA=   1.6673
  1.6673

 Free energy of the ion-electron system (eV)
  ---------------------------------------------------
  alpha Z        PSCENC =       253.99581917
  Ewald energy   TEWEN  =     -9971.95858183
  -Hartree energ DENC   =     -4809.27524564
  -exchange      EXHF   =         0.00000000
  -V(xc)+E(xc)   XCENC  =       746.06487240
  PAW double counting   =     20725.18458607   -20548.40310636
  entropy T*S    EENTRO =         0.00000000
  eigenvalues    EBANDS =     -2013.94052962
  atomic energy  EATOM  =     15501.99929693
  Solvation  Ediel_sol  =         0.00000000
  ---------------------------------------------------
  free energy    TOTEN  =      -116.33288888 eV

  energy without entropy =     -116.33288888  energy(sigma->0) =     -116.33288888


--------------------------------------------------------------------------------------------------------




--------------------------------------- Iteration      1(   7)  ---------------------------------------


    POTLOK:  cpu time      0.4730: real time      0.4760
    SETDIJ:  cpu time     26.2822: real time     26.2855
     EDDAV:  cpu time     60.0887: real time     60.1104
 BZINTS: Fermi energy:    0.739066;  336.000000 electrons
         Band energy:-0.186754E+04;  BLOECHL correction:    0.000000
       DOS:  cpu time      0.0265: real time      0.0265
    CHARGE:  cpu time     21.5388: real time     21.5416
    MIXING:  cpu time      0.0178: real time      0.0178
    --------------------------------------------
      LOOP:  cpu time    108.4271: real time    108.4579

 eigenvalue-minimisations  : 10112
 total energy-change (2. order) :-0.1114375E+02  (-0.2696918E+01)
 number of electron     335.9999997 magnetization      19.7304188
 augmentation part      -47.3162526 magnetization      20.9357952

 Broyden mixing:
  rms(total) = 0.14019E+01    rms(broyden)= 0.14019E+01
  rms(prec ) = 0.14056E+01
  weight for this iteration     100.00

 eigenvalues of (default mixing * dielectric matrix)
  average eigenvalue GAMMA=   1.4834
  0.7881  2.1787

 Free energy of the ion-electron system (eV)
  ---------------------------------------------------
  alpha Z        PSCENC =       253.99581917
  Ewald energy   TEWEN  =     -9971.95858183
  -Hartree energ DENC   =     -4968.74400707
  -exchange      EXHF   =         0.00000000
  -V(xc)+E(xc)   XCENC  =       751.40368940
  PAW double counting   =     37025.96298065   -36852.59135860
  entropy T*S    EENTRO =         0.00000000
  eigenvalues    EBANDS =     -1867.54447253
  atomic energy  EATOM  =     15501.99929693
  Solvation  Ediel_sol  =         0.00000000
  ---------------------------------------------------
  free energy    TOTEN  =      -127.47663389 eV

  energy without entropy =     -127.47663389  energy(sigma->0) =     -127.47663389


--------------------------------------------------------------------------------------------------------




--------------------------------------- Iteration      1(   8)  ---------------------------------------


    POTLOK:  cpu time      0.4737: real time      0.4746
    SETDIJ:  cpu time     18.7227: real time     18.7455
     EDDAV:  cpu time     55.9892: real time     56.0006
 BZINTS: Fermi energy:    0.706984;  336.000000 electrons
         Band energy:-0.185511E+04;  BLOECHL correction:    0.000000
       DOS:  cpu time      0.0256: real time      0.0256
    CHARGE:  cpu time     22.4415: real time     22.4442
    MIXING:  cpu time      0.0176: real time      0.0176
    --------------------------------------------
      LOOP:  cpu time     97.6702: real time     97.7081

 eigenvalue-minimisations  :  9312
 total energy-change (2. order) :-0.4267278E+02  (-0.1971434E+01)
 number of electron     335.9999997 magnetization      16.0580217
 augmentation part      -47.0123771 magnetization      17.1026178

 Broyden mixing:
  rms(total) = 0.78382E+00    rms(broyden)= 0.78382E+00
  rms(prec ) = 0.78895E+00
  weight for this iteration     100.00

 eigenvalues of (default mixing * dielectric matrix)
  average eigenvalue GAMMA=   1.3389
  2.4910  0.9433  0.5825

 Free energy of the ion-electron system (eV)
  ---------------------------------------------------
  alpha Z        PSCENC =       253.99581917
  Ewald energy   TEWEN  =     -9971.95858183
  -Hartree energ DENC   =     -4998.22719388
  -exchange      EXHF   =         0.00000000
  -V(xc)+E(xc)   XCENC  =       726.54896510
  PAW double counting   =     40157.14871017   -39984.54379860
  entropy T*S    EENTRO =         0.00000000
  eigenvalues    EBANDS =     -1855.11263451
  atomic energy  EATOM  =     15501.99929693
  Solvation  Ediel_sol  =         0.00000000
  ---------------------------------------------------
  free energy    TOTEN  =      -170.14941746 eV

  energy without entropy =     -170.14941746  energy(sigma->0) =     -170.14941746


--------------------------------------------------------------------------------------------------------




--------------------------------------- Iteration      1(   9)  ---------------------------------------


    POTLOK:  cpu time      0.4276: real time      0.4284
    SETDIJ:  cpu time     26.2876: real time     26.2908
     EDDAV:  cpu time     64.8804: real time     64.8951
 BZINTS: Fermi energy:    0.629149;  336.000000 electrons
         Band energy:-0.186634E+04;  BLOECHL correction:    0.000000
       DOS:  cpu time      0.0256: real time      0.0257
    CHARGE:  cpu time     15.7170: real time     15.7196
    MIXING:  cpu time      0.0140: real time      0.0140
    --------------------------------------------
      LOOP:  cpu time    107.3522: real time    107.3736

 eigenvalue-minimisations  : 10240
 total energy-change (2. order) :-0.1683005E+02  (-0.6458751E+00)
 number of electron     335.9999997 magnetization      11.5304056
 augmentation part      -46.9153505 magnetization      12.3680378

 Broyden mixing:
  rms(total) = 0.43645E+00    rms(broyden)= 0.43645E+00
  rms(prec ) = 0.44852E+00
  weight for this iteration     100.00

 eigenvalues of (default mixing * dielectric matrix)
  average eigenvalue GAMMA=   1.3242
  2.5746  1.3004  0.7109  0.7109

 Free energy of the ion-electron system (eV)
  ---------------------------------------------------
  alpha Z        PSCENC =       253.99581917
  Ewald energy   TEWEN  =     -9971.95858183
  -Hartree energ DENC   =     -4994.48152387
  -exchange      EXHF   =         0.00000000
  -V(xc)+E(xc)   XCENC  =       717.18316945
  PAW double counting   =     40941.34249222   -40768.71781878
  entropy T*S    EENTRO =         0.00000000
  eigenvalues    EBANDS =     -1866.34231993
  atomic energy  EATOM  =     15501.99929693
  Solvation  Ediel_sol  =         0.00000000
  ---------------------------------------------------
  free energy    TOTEN  =      -186.97946664 eV

  energy without entropy =     -186.97946664  energy(sigma->0) =     -186.97946664


--------------------------------------------------------------------------------------------------------




--------------------------------------- Iteration      1(  10)  ---------------------------------------


    POTLOK:  cpu time      0.4489: real time      0.4498
    SETDIJ:  cpu time     23.8149: real time     23.8175
     EDDAV:  cpu time     62.7969: real time     62.8113
 BZINTS: Fermi energy:    0.475694;  336.000000 electrons
         Band energy:-0.190087E+04;  BLOECHL correction:    0.000000
       DOS:  cpu time      0.0273: real time      0.0274
    CHARGE:  cpu time     18.5478: real time     18.5500
    MIXING:  cpu time      0.0168: real time      0.0168
    --------------------------------------------
      LOOP:  cpu time    105.6526: real time    105.6727

 eigenvalue-minimisations  :  9984
 total energy-change (2. order) :-0.2005662E+02  (-0.1302673E+01)
 number of electron     335.9999997 magnetization       5.3072580
 augmentation part      -46.8735842 magnetization       5.8416686

 Broyden mixing:
  rms(total) = 0.32403E+00    rms(broyden)= 0.32403E+00
  rms(prec ) = 0.33700E+00
  weight for this iteration     100.00

 eigenvalues of (default mixing * dielectric matrix)
  average eigenvalue GAMMA=   1.4492
  2.4867  2.4867  0.9413  0.7291  0.6021

 Free energy of the ion-electron system (eV)
  ---------------------------------------------------
  alpha Z        PSCENC =       253.99581917
  Ewald energy   TEWEN  =     -9971.95858183
  -Hartree energ DENC   =     -4969.09025240
  -exchange      EXHF   =         0.00000000
  -V(xc)+E(xc)   XCENC  =       705.60955710
  PAW double counting   =     40948.59768489   -40775.31847744
  entropy T*S    EENTRO =         0.00000000
  eigenvalues    EBANDS =     -1900.87113744
  atomic energy  EATOM  =     15501.99929693
  Solvation  Ediel_sol  =         0.00000000
  ---------------------------------------------------
  free energy    TOTEN  =      -207.03609102 eV

  energy without entropy =     -207.03609102  energy(sigma->0) =     -207.03609102


--------------------------------------------------------------------------------------------------------




--------------------------------------- Iteration      1(  11)  ---------------------------------------


    POTLOK:  cpu time      0.4680: real time      0.4690
    SETDIJ:  cpu time     19.3887: real time     19.3916
     EDDAV:  cpu time     60.5585: real time     60.5704
 BZINTS: Fermi energy:    0.258022;  336.000000 electrons
         Band energy:-0.195824E+04;  BLOECHL correction:    0.000000
       DOS:  cpu time      0.0264: real time      0.0264
    CHARGE:  cpu time     20.1650: real time     20.1672
    MIXING:  cpu time      0.0161: real time      0.0161
    --------------------------------------------
      LOOP:  cpu time    100.6227: real time    100.6407

 eigenvalue-minimisations  :  9952
 total energy-change (2. order) :-0.1784223E+02  (-0.2164746E+01)
 number of electron     335.9999997 magnetization       3.5704242
 augmentation part      -46.9052515 magnetization       3.7536487

 Broyden mixing:
  rms(total) = 0.18648E+00    rms(broyden)= 0.18648E+00
  rms(prec ) = 0.20018E+00
  weight for this iteration     100.00

 eigenvalues of (default mixing * dielectric matrix)
  average eigenvalue GAMMA=   1.4668
  2.7974  2.7974  1.0276  0.8888  0.6996  0.5902

 Free energy of the ion-electron system (eV)
  ---------------------------------------------------
  alpha Z        PSCENC =       253.99581917
  Ewald energy   TEWEN  =     -9971.95858183
  -Hartree energ DENC   =     -4919.52049781
  -exchange      EXHF   =         0.00000000
  -V(xc)+E(xc)   XCENC  =       694.50364496
  PAW double counting   =     40375.98788380   -40201.64955282
  entropy T*S    EENTRO =         0.00000000
  eigenvalues    EBANDS =     -1958.23633141
  atomic energy  EATOM  =     15501.99929693
  Solvation  Ediel_sol  =         0.00000000
  ---------------------------------------------------
  free energy    TOTEN  =      -224.87831901 eV

  energy without entropy =     -224.87831901  energy(sigma->0) =     -224.87831901


--------------------------------------------------------------------------------------------------------




--------------------------------------- Iteration      1(  12)  ---------------------------------------


    POTLOK:  cpu time      0.4520: real time      0.4529
    SETDIJ:  cpu time     18.8909: real time     18.8928
     EDDAV:  cpu time     67.4311: real time     67.4482
 BZINTS: Fermi energy:    0.184493;  336.000000 electrons
         Band energy:-0.197891E+04;  BLOECHL correction:    0.000000
       DOS:  cpu time      0.0272: real time      0.0272
    CHARGE:  cpu time     11.1655: real time     11.1668
    MIXING:  cpu time      0.0139: real time      0.0139
    --------------------------------------------
      LOOP:  cpu time     97.9806: real time     98.0018

 eigenvalue-minimisations  : 10048
 total energy-change (2. order) :-0.3386658E+01  (-0.3881055E+00)
 number of electron     335.9999997 magnetization       2.3906400
 augmentation part      -46.9154833 magnetization       2.4736549

 Broyden mixing:
  rms(total) = 0.15956E+00    rms(broyden)= 0.15956E+00
  rms(prec ) = 0.17209E+00
  weight for this iteration     100.00

 eigenvalues of (default mixing * dielectric matrix)
  average eigenvalue GAMMA=   1.4919
  3.1009  3.1009  1.0555  1.0555  0.7811  0.7811  0.5684

 Free energy of the ion-electron system (eV)
  ---------------------------------------------------
  alpha Z        PSCENC =       253.99581917
  Ewald energy   TEWEN  =     -9971.95858183
  -Hartree energ DENC   =     -4900.01827913
  -exchange      EXHF   =         0.00000000
  -V(xc)+E(xc)   XCENC  =       692.04928828
  PAW double counting   =     39943.95632642   -39769.38097929
  entropy T*S    EENTRO =         0.00000000
  eigenvalues    EBANDS =     -1978.90786709
  atomic energy  EATOM  =     15501.99929693
  Solvation  Ediel_sol  =         0.00000000
  ---------------------------------------------------
  free energy    TOTEN  =      -228.26497655 eV

  energy without entropy =     -228.26497655  energy(sigma->0) =     -228.26497655


--------------------------------------------------------------------------------------------------------




--------------------------------------- Iteration      1(  13)  ---------------------------------------


    POTLOK:  cpu time      0.4366: real time      0.4376
    SETDIJ:  cpu time     19.5145: real time     19.5164
     EDDAV:  cpu time     60.1236: real time     60.1346
 BZINTS: Fermi energy:    0.116624;  336.000000 electrons
         Band energy:-0.200133E+04;  BLOECHL correction:    0.000000
       DOS:  cpu time      0.0264: real time      0.0264
    CHARGE:  cpu time     17.8515: real time     17.8537
    MIXING:  cpu time      0.0092: real time      0.0092
    --------------------------------------------
      LOOP:  cpu time     97.9618: real time     97.9779

 eigenvalue-minimisations  :  9504
 total energy-change (2. order) :-0.1050795E+01  (-0.1333688E+00)
 number of electron     335.9999997 magnetization       0.8875159
 augmentation part      -46.9736466 magnetization       0.9134996

 Broyden mixing:
  rms(total) = 0.92961E-01    rms(broyden)= 0.92961E-01
  rms(prec ) = 0.99782E-01
  weight for this iteration     100.00

 eigenvalues of (default mixing * dielectric matrix)
  average eigenvalue GAMMA=   1.5516
  3.3226  3.3226  1.5832  1.2848  0.9274  0.6999  0.6999  0.5728

 Free energy of the ion-electron system (eV)
  ---------------------------------------------------
  alpha Z        PSCENC =       253.99581917
  Ewald energy   TEWEN  =     -9971.95858183
  -Hartree energ DENC   =     -4876.90862161
  -exchange      EXHF   =         0.00000000
  -V(xc)+E(xc)   XCENC  =       690.06889687
  PAW double counting   =     39124.55565024   -38949.74132562
  entropy T*S    EENTRO =         0.00000000
  eigenvalues    EBANDS =     -2001.32690553
  atomic energy  EATOM  =     15501.99929693
  Solvation  Ediel_sol  =         0.00000000
  ---------------------------------------------------
  free energy    TOTEN  =      -229.31577138 eV

  energy without entropy =     -229.31577138  energy(sigma->0) =     -229.31577138


--------------------------------------------------------------------------------------------------------




--------------------------------------- Iteration      1(  14)  ---------------------------------------


    POTLOK:  cpu time      0.4521: real time      0.4531
    SETDIJ:  cpu time     16.6644: real time     16.6665
     EDDAV:  cpu time     51.7517: real time     51.7689
 BZINTS: Fermi energy:    0.081190;  336.000000 electrons
         Band energy:-0.201179E+04;  BLOECHL correction:    0.000000
       DOS:  cpu time      0.0256: real time      0.0257
    CHARGE:  cpu time     24.8455: real time     24.8481
    MIXING:  cpu time      0.0173: real time      0.0173
    --------------------------------------------
      LOOP:  cpu time     93.7567: real time     93.7795

 eigenvalue-minimisations  :  8992
 total energy-change (2. order) :-0.6383757E-01  (-0.1619006E-01)
 number of electron     335.9999997 magnetization       0.4178644
 augmentation part      -47.0007382 magnetization       0.4248503

 Broyden mixing:
  rms(total) = 0.43677E-01    rms(broyden)= 0.43676E-01
  rms(prec ) = 0.46378E-01
  weight for this iteration     100.00

 eigenvalues of (default mixing * dielectric matrix)
  average eigenvalue GAMMA=   1.5786
  4.1301  2.5569  2.5569  1.0966  1.0966  0.7712  0.7712  0.5754  0.6521

 Free energy of the ion-electron system (eV)
  ---------------------------------------------------
  alpha Z        PSCENC =       253.99581917
  Ewald energy   TEWEN  =     -9971.95858183
  -Hartree energ DENC   =     -4865.54762219
  -exchange      EXHF   =         0.00000000
  -V(xc)+E(xc)   XCENC  =       689.15648380
  PAW double counting   =     39063.44448693   -38888.67527244
  entropy T*S    EENTRO =         0.00000000
  eigenvalues    EBANDS =     -2011.79421932
  atomic energy  EATOM  =     15501.99929693
  Solvation  Ediel_sol  =         0.00000000
  ---------------------------------------------------
  free energy    TOTEN  =      -229.37960895 eV

  energy without entropy =     -229.37960895  energy(sigma->0) =     -229.37960895


--------------------------------------------------------------------------------------------------------




--------------------------------------- Iteration      1(  15)  ---------------------------------------


    POTLOK:  cpu time      0.4455: real time      0.4462
    SETDIJ:  cpu time     26.5539: real time     26.5573
     EDDAV:  cpu time     58.8461: real time     58.8570
 BZINTS: Fermi energy:    0.079394;  336.000000 electrons
         Band energy:-0.201148E+04;  BLOECHL correction:    0.000000
       DOS:  cpu time      0.0256: real time      0.0256
    CHARGE:  cpu time     25.7659: real time     25.7687
    MIXING:  cpu time      0.0101: real time      0.0101
    --------------------------------------------
      LOOP:  cpu time    111.6470: real time    111.6648

 eigenvalue-minimisations  :  9568
 total energy-change (2. order) : 0.1286335E-02  (-0.2082052E-02)
 number of electron     335.9999997 magnetization       0.1720794
 augmentation part      -46.9945816 magnetization       0.1763767

 Broyden mixing:
  rms(total) = 0.20201E-01    rms(broyden)= 0.20201E-01
  rms(prec ) = 0.21775E-01
  weight for this iteration     100.00

 eigenvalues of (default mixing * dielectric matrix)
  average eigenvalue GAMMA=   1.5649
  4.5534  2.5272  2.5272  1.3362  0.9967  0.9967  0.7588  0.7588  0.6240  0.5697

 Free energy of the ion-electron system (eV)
  ---------------------------------------------------
  alpha Z        PSCENC =       253.99581917
  Ewald energy   TEWEN  =     -9971.95858183
  -Hartree energ DENC   =     -4865.73297458
  -exchange      EXHF   =         0.00000000
  -V(xc)+E(xc)   XCENC  =       689.11924153
  PAW double counting   =     39149.16948933   -38974.48739231
  entropy T*S    EENTRO =         0.00000000
  eigenvalues    EBANDS =     -2011.48322085
  atomic energy  EATOM  =     15501.99929693
  Solvation  Ediel_sol  =         0.00000000
  ---------------------------------------------------
  free energy    TOTEN  =      -229.37832262 eV

  energy without entropy =     -229.37832262  energy(sigma->0) =     -229.37832262


--------------------------------------------------------------------------------------------------------




--------------------------------------- Iteration      1(  16)  ---------------------------------------


    POTLOK:  cpu time      0.4336: real time      0.4343
    SETDIJ:  cpu time     17.6634: real time     17.6674
     EDDAV:  cpu time     57.7196: real time     57.7321
 BZINTS: Fermi energy:    0.077549;  336.000000 electrons
         Band energy:-0.201195E+04;  BLOECHL correction:    0.000000
       DOS:  cpu time      0.0265: real time      0.0265
    CHARGE:  cpu time     23.0728: real time     23.0756
    MIXING:  cpu time      0.0187: real time      0.0187
    --------------------------------------------
      LOOP:  cpu time     98.9346: real time     98.9546

 eigenvalue-minimisations  :  9120
 total energy-change (2. order) : 0.3107753E-02  (-0.5509197E-03)
 number of electron     335.9999997 magnetization       0.0696825
 augmentation part      -46.9934398 magnetization       0.0704779

 Broyden mixing:
  rms(total) = 0.12313E-01    rms(broyden)= 0.12313E-01
  rms(prec ) = 0.13324E-01
  weight for this iteration     100.00

 eigenvalues of (default mixing * dielectric matrix)
  average eigenvalue GAMMA=   1.5467
  4.7575  2.4279  2.4279  1.8410  0.9956  0.9956  0.9236  0.7283  0.7283  0.5814
  0.6063

 Free energy of the ion-electron system (eV)
  ---------------------------------------------------
  alpha Z        PSCENC =       253.99581917
  Ewald energy   TEWEN  =     -9971.95858183
  -Hartree energ DENC   =     -4865.17199883
  -exchange      EXHF   =         0.00000000
  -V(xc)+E(xc)   XCENC  =       689.05100133
  PAW double counting   =     39119.18897467   -38944.53068991
  entropy T*S    EENTRO =         0.00000000
  eigenvalues    EBANDS =     -2011.94903640
  atomic energy  EATOM  =     15501.99929693
  Solvation  Ediel_sol  =         0.00000000
  ---------------------------------------------------
  free energy    TOTEN  =      -229.37521486 eV

  energy without entropy =     -229.37521486  energy(sigma->0) =     -229.37521486


--------------------------------------------------------------------------------------------------------




--------------------------------------- Iteration      1(  17)  ---------------------------------------


    POTLOK:  cpu time      0.4432: real time      0.4443
    SETDIJ:  cpu time     23.0809: real time     23.0835
     EDDAV:  cpu time     57.8203: real time     57.8322
 BZINTS: Fermi energy:    0.079216;  336.000000 electrons
         Band energy:-0.201102E+04;  BLOECHL correction:   -0.000000
       DOS:  cpu time      0.0272: real time      0.0273
    CHARGE:  cpu time     25.5513: real time     25.5544
    MIXING:  cpu time      0.0115: real time      0.0115
    --------------------------------------------
      LOOP:  cpu time    106.9345: real time    106.9532

 eigenvalue-minimisations  :  9472
 total energy-change (2. order) :-0.5041275E-03  (-0.1193895E-03)
 number of electron     335.9999997 magnetization       0.0178369
 augmentation part      -46.9883769 magnetization       0.0182356

 Broyden mixing:
  rms(total) = 0.49251E-02    rms(broyden)= 0.49251E-02
  rms(prec ) = 0.55242E-02
  weight for this iteration     100.00

 eigenvalues of (default mixing * dielectric matrix)
  average eigenvalue GAMMA=   1.5760
  4.9478  2.6016  2.6016  2.2019  1.1769  0.9959  0.9959  0.7616  0.7616  0.6826
  0.5892  0.5958

 Free energy of the ion-electron system (eV)
  ---------------------------------------------------
  alpha Z        PSCENC =       253.99581917
  Ewald energy   TEWEN  =     -9971.95858183
  -Hartree energ DENC   =     -4866.13391801
  -exchange      EXHF   =         0.00000000
  -V(xc)+E(xc)   XCENC  =       689.11092701
  PAW double counting   =     39160.07113545   -38985.43709729
  entropy T*S    EENTRO =         0.00000000
  eigenvalues    EBANDS =     -2011.02330043
  atomic energy  EATOM  =     15501.99929693
  Solvation  Ediel_sol  =         0.00000000
  ---------------------------------------------------
  free energy    TOTEN  =      -229.37571899 eV

  energy without entropy =     -229.37571899  energy(sigma->0) =     -229.37571899


--------------------------------------------------------------------------------------------------------




--------------------------------------- Iteration      1(  18)  ---------------------------------------


    POTLOK:  cpu time      0.4390: real time      0.4420
    SETDIJ:  cpu time     25.6937: real time     25.6966
     EDDAV:  cpu time     56.2172: real time     56.2277
 BZINTS: Fermi energy:    0.080455;  336.000000 electrons
         Band energy:-0.201050E+04;  BLOECHL correction:    0.000000
       DOS:  cpu time      0.0256: real time      0.0256
    CHARGE:  cpu time     22.2666: real time     22.2688
    MIXING:  cpu time      0.0195: real time      0.0195
    --------------------------------------------
      LOOP:  cpu time    104.6617: real time    104.6800

 eigenvalue-minimisations  :  9504
 total energy-change (2. order) :-0.1167460E-03  (-0.3942762E-04)
 number of electron     335.9999997 magnetization       0.0051608
 augmentation part      -46.9850433 magnetization       0.0057015

 Broyden mixing:
  rms(total) = 0.44511E-02    rms(broyden)= 0.44510E-02
  rms(prec ) = 0.47032E-02
  weight for this iteration     100.00

 eigenvalues of (default mixing * dielectric matrix)
  average eigenvalue GAMMA=   1.5445
  5.0020  2.6452  2.6452  2.2646  1.1300  1.1300  0.9909  0.9909  0.7250  0.7250
  0.5790  0.6448  0.6064

 Free energy of the ion-electron system (eV)
  ---------------------------------------------------
  alpha Z        PSCENC =       253.99581917
  Ewald energy   TEWEN  =     -9971.95858183
  -Hartree energ DENC   =     -4866.67716453
  -exchange      EXHF   =         0.00000000
  -V(xc)+E(xc)   XCENC  =       689.14621179
  PAW double counting   =     39188.77448104   -39014.15526517
  entropy T*S    EENTRO =         0.00000000
  eigenvalues    EBANDS =     -2010.50063313
  atomic energy  EATOM  =     15501.99929693
  Solvation  Ediel_sol  =         0.00000000
  ---------------------------------------------------
  free energy    TOTEN  =      -229.37583574 eV

  energy without entropy =     -229.37583574  energy(sigma->0) =     -229.37583574


--------------------------------------------------------------------------------------------------------




--------------------------------------- Iteration      1(  19)  ---------------------------------------


    POTLOK:  cpu time      0.4352: real time      0.4364
    SETDIJ:  cpu time     17.2210: real time     17.2233
     EDDAV:  cpu time     60.5501: real time     60.5616
 BZINTS: Fermi energy:    0.079964;  336.000000 electrons
         Band energy:-0.201076E+04;  BLOECHL correction:    0.000000
       DOS:  cpu time      0.0256: real time      0.0256
    CHARGE:  cpu time     27.1414: real time     27.1443
    MIXING:  cpu time      0.0179: real time      0.0179
    --------------------------------------------
      LOOP:  cpu time    105.3911: real time    105.4091

 eigenvalue-minimisations  :  9792
 total energy-change (2. order) :-0.5910497E-05  (-0.6204372E-05)
 number of electron     335.9999997 magnetization      -0.0005452
 augmentation part      -46.9858792 magnetization      -0.0003039

 Broyden mixing:
  rms(total) = 0.20175E-02    rms(broyden)= 0.20175E-02
  rms(prec ) = 0.21922E-02
  weight for this iteration     100.00

 eigenvalues of (default mixing * dielectric matrix)
  average eigenvalue GAMMA=   1.5454
  5.0454  2.7073  2.7073  2.1101  1.4060  1.4060  1.0338  1.0338  0.8583  0.7537
  0.7537  0.5805  0.6091  0.6312

 Free energy of the ion-electron system (eV)
  ---------------------------------------------------
  alpha Z        PSCENC =       253.99581917
  Ewald energy   TEWEN  =     -9971.95858183
  -Hartree energ DENC   =     -4866.40287727
  -exchange      EXHF   =         0.00000000
  -V(xc)+E(xc)   XCENC  =       689.12931663
  PAW double counting   =     39187.42368452   -39012.80131592
  entropy T*S    EENTRO =         0.00000000
  eigenvalues    EBANDS =     -2010.76118388
  atomic energy  EATOM  =     15501.99929693
  Solvation  Ediel_sol  =         0.00000000
  ---------------------------------------------------
  free energy    TOTEN  =      -229.37584165 eV

  energy without entropy =     -229.37584165  energy(sigma->0) =     -229.37584165


--------------------------------------------------------------------------------------------------------




--------------------------------------- Iteration      1(  20)  ---------------------------------------


    POTLOK:  cpu time      0.4169: real time      0.4195
    SETDIJ:  cpu time     22.8427: real time     22.8453
     EDDAV:  cpu time     52.2759: real time     52.2857
 BZINTS: Fermi energy:    0.079596;  336.000000 electrons
         Band energy:-0.201090E+04;  BLOECHL correction:    0.000000
       DOS:  cpu time      0.0257: real time      0.0257
    CHARGE:  cpu time     18.7103: real time     18.7127
    MIXING:  cpu time      0.0217: real time      0.0217
    --------------------------------------------
      LOOP:  cpu time     94.2932: real time     94.3107

 eigenvalue-minimisations  :  9184
 total energy-change (2. order) :-0.1046822E-04  (-0.3465009E-05)
 number of electron     335.9999997 magnetization      -0.0016325
 augmentation part      -46.9864069 magnetization      -0.0015543

 Broyden mixing:
  rms(total) = 0.95218E-03    rms(broyden)= 0.95205E-03
  rms(prec ) = 0.10113E-02
  weight for this iteration     100.00

 eigenvalues of (default mixing * dielectric matrix)
  average eigenvalue GAMMA=   1.5469
  5.0952  2.7082  2.7082  2.0984  2.0984  1.2296  1.2296  0.9900  0.9900  0.7803
  0.7328  0.7328  0.5784  0.6158  0.6158

 Free energy of the ion-electron system (eV)
  ---------------------------------------------------
  alpha Z        PSCENC =       253.99581917
  Ewald energy   TEWEN  =     -9971.95858183
  -Hartree energ DENC   =     -4866.26071394
  -exchange      EXHF   =         0.00000000
  -V(xc)+E(xc)   XCENC  =       689.12235263
  PAW double counting   =     39192.60787824   -39017.98360351
  entropy T*S    EENTRO =         0.00000000
  eigenvalues    EBANDS =     -2010.89829981
  atomic energy  EATOM  =     15501.99929693
  Solvation  Ediel_sol  =         0.00000000
  ---------------------------------------------------
  free energy    TOTEN  =      -229.37585212 eV

  energy without entropy =     -229.37585212  energy(sigma->0) =     -229.37585212


--------------------------------------------------------------------------------------------------------




--------------------------------------- Iteration      1(  21)  ---------------------------------------


    POTLOK:  cpu time      0.4799: real time      0.4808
    SETDIJ:  cpu time     19.4768: real time     19.4789
     EDDAV:  cpu time     56.0439: real time     56.0549
 BZINTS: Fermi energy:    0.079159;  336.000000 electrons
         Band energy:-0.201095E+04;  BLOECHL correction:    0.000000
       DOS:  cpu time      0.0264: real time      0.0264
    CHARGE:  cpu time     31.0435: real time     31.0472
    MIXING:  cpu time      0.0156: real time      0.0156
    --------------------------------------------
      LOOP:  cpu time    107.0861: real time    107.1039

 eigenvalue-minimisations  :  9216
 total energy-change (2. order) : 0.1180117E-05  (-0.8868979E-06)
 number of electron     335.9999997 magnetization      -0.0013474
 augmentation part      -46.9866019 magnetization      -0.0013512

 Broyden mixing:
  rms(total) = 0.42391E-03    rms(broyden)= 0.42364E-03
  rms(prec ) = 0.44614E-03
  weight for this iteration     100.00

 eigenvalues of (default mixing * dielectric matrix)
  average eigenvalue GAMMA=   1.5119
  5.0969  2.6685  2.6685  2.5709  1.6093  1.4024  1.1555  1.1555  0.9282  0.9282
  0.7390  0.7390  0.7257  0.5781  0.6125  0.6125

 Free energy of the ion-electron system (eV)
  ---------------------------------------------------
  alpha Z        PSCENC =       253.99581917
  Ewald energy   TEWEN  =     -9971.95858183
  -Hartree energ DENC   =     -4866.20144550
  -exchange      EXHF   =         0.00000000
  -V(xc)+E(xc)   XCENC  =       689.11871819
  PAW double counting   =     39192.02705687   -39017.40196681
  entropy T*S    EENTRO =         0.00000000
  eigenvalues    EBANDS =     -2010.95474796
  atomic energy  EATOM  =     15501.99929693
  Solvation  Ediel_sol  =         0.00000000
  ---------------------------------------------------
  free energy    TOTEN  =      -229.37585094 eV

  energy without entropy =     -229.37585094  energy(sigma->0) =     -229.37585094


--------------------------------------------------------------------------------------------------------




--------------------------------------- Iteration      1(  22)  ---------------------------------------


    POTLOK:  cpu time      0.4270: real time      0.4308
    SETDIJ:  cpu time     21.9554: real time     21.9578
     EDDAV:  cpu time     56.9418: real time     56.9530
 BZINTS: Fermi energy:    0.079050;  336.000000 electrons
         Band energy:-0.201098E+04;  BLOECHL correction:    0.000000
       DOS:  cpu time      0.0274: real time      0.0275
    CHARGE:  cpu time     25.0335: real time     25.0363
    MIXING:  cpu time      0.0146: real time      0.0146
    --------------------------------------------
      LOOP:  cpu time    104.3997: real time    104.4199

 eigenvalue-minimisations  :  9760
 total energy-change (2. order) : 0.4496214E-06  (-0.1408996E-06)
 number of electron     335.9999997 magnetization      -0.0004744
 augmentation part      -46.9866710 magnetization      -0.0004961

 Broyden mixing:
  rms(total) = 0.23045E-03    rms(broyden)= 0.22996E-03
  rms(prec ) = 0.24467E-03
  weight for this iteration     100.00

 eigenvalues of (default mixing * dielectric matrix)
  average eigenvalue GAMMA=   1.5006
  5.0912  2.6570  2.6570  2.6233  1.6712  1.4414  1.4414  1.0826  1.0826  0.9002
  0.9002  0.7421  0.7421  0.6738  0.5792  0.6125  0.6125

 Free energy of the ion-electron system (eV)
  ---------------------------------------------------
  alpha Z        PSCENC =       253.99581917
  Ewald energy   TEWEN  =     -9971.95858183
  -Hartree energ DENC   =     -4866.17974625
  -exchange      EXHF   =         0.00000000
  -V(xc)+E(xc)   XCENC  =       689.11713416
  PAW double counting   =     39190.61700146   -39015.99160547
  entropy T*S    EENTRO =         0.00000000
  eigenvalues    EBANDS =     -2010.97516865
  atomic energy  EATOM  =     15501.99929693
  Solvation  Ediel_sol  =         0.00000000
  ---------------------------------------------------
  free energy    TOTEN  =      -229.37585049 eV

  energy without entropy =     -229.37585049  energy(sigma->0) =     -229.37585049


--------------------------------------------------------------------------------------------------------




--------------------------------------- Iteration      1(  23)  ---------------------------------------


    POTLOK:  cpu time      0.4394: real time      0.4401
    SETDIJ:  cpu time     21.6859: real time     21.6889
     EDDAV:  cpu time     55.1184: real time     55.1288
 BZINTS: Fermi energy:    0.079069;  336.000000 electrons
         Band energy:-0.201097E+04;  BLOECHL correction:    0.000000
       DOS:  cpu time      0.0272: real time      0.0273
    CHARGE:  cpu time     25.5104: real time     25.5134
    MIXING:  cpu time      1.3572: real time      1.3574
    --------------------------------------------
      LOOP:  cpu time    104.1385: real time    104.1558

 eigenvalue-minimisations  :  9216
 total energy-change (2. order) :-0.2281267E-06  (-0.5747638E-07)
 number of electron     335.9999997 magnetization      -0.0002594
 augmentation part      -46.9866440 magnetization      -0.0002556

 Broyden mixing:
[...]

  length of vectors
    10.314108670 16.788494411 10.846477853     0.097707938  0.059564603  0.092912216


 FORCES acting on ions
    electron-ion (+dipol)            ewald-force                    non-local-force                 convergence-correction
 -----------------------------------------------------------------------------------------------
   0.986E+02 -.105E+03 -.125E+02   -.104E+03 0.113E+03 0.112E+02   0.495E+01 -.888E+01 0.132E+01   0.164E-05 -.188E-06 0.698E-06
   0.986E+02 -.104E+03 -.126E+02   -.104E+03 0.113E+03 0.112E+02   0.495E+01 -.888E+01 0.132E+01   0.180E-05 -.217E-06 0.699E-06
   -.124E+02 0.420E+02 -.127E+03   0.126E+02 -.471E+02 0.134E+03   -.246E+00 0.519E+01 -.705E+01   0.282E-07 -.101E-06 -.144E-05
   -.124E+02 0.420E+02 -.127E+03   0.126E+02 -.472E+02 0.134E+03   -.246E+00 0.519E+01 -.705E+01   0.141E-06 -.224E-07 -.132E-05
   -.203E+02 -.896E+02 0.980E+02   0.190E+02 0.983E+02 -.103E+03   0.127E+01 -.884E+01 0.526E+01   -.107E-06 0.323E-07 0.203E-05
   -.211E+02 -.902E+02 0.981E+02   0.198E+02 0.989E+02 -.103E+03   0.134E+01 -.874E+01 0.530E+01   -.215E-07 0.202E-07 0.193E-05
   -.108E+03 0.950E+02 0.624E+01   0.114E+03 -.101E+03 -.412E+01   -.534E+01 0.592E+01 -.212E+01   -.180E-05 -.758E-07 0.725E-06
   -.108E+03 0.950E+02 0.625E+01   0.114E+03 -.101E+03 -.413E+01   -.534E+01 0.592E+01 -.212E+01   -.163E-05 -.333E-07 0.698E-06
   0.136E+03 -.539E+02 -.187E+02   -.143E+03 0.595E+02 0.192E+02   0.680E+01 -.552E+01 -.558E+00   0.154E-05 0.807E-08 -.967E-06
   0.136E+03 -.539E+02 -.187E+02   -.143E+03 0.595E+02 0.193E+02   0.680E+01 -.552E+01 -.558E+00   0.166E-05 0.652E-08 -.997E-06
   -.136E+03 0.544E+02 0.189E+02   0.143E+03 -.599E+02 -.195E+02   -.680E+01 0.556E+01 0.528E+00   -.172E-05 0.666E-07 0.104E-05
   -.136E+03 0.540E+02 0.187E+02   0.143E+03 -.595E+02 -.193E+02   -.680E+01 0.552E+01 0.558E+00   -.152E-05 0.125E-07 0.102E-05
   0.108E+03 -.950E+02 -.632E+01   -.114E+03 0.101E+03 0.421E+01   0.534E+01 -.592E+01 0.212E+01   0.159E-05 0.124E-06 -.643E-06
   0.108E+03 -.950E+02 -.625E+01   -.114E+03 0.101E+03 0.414E+01   0.534E+01 -.592E+01 0.212E+01   0.179E-05 0.529E-07 -.663E-06
   -.124E+02 -.420E+02 0.127E+03   0.126E+02 0.472E+02 -.134E+03   -.246E+00 -.519E+01 0.705E+01   0.859E-07 0.349E-07 0.103E-05
   -.123E+02 -.420E+02 0.127E+03   0.126E+02 0.472E+02 -.134E+03   -.246E+00 -.519E+01 0.705E+01   0.157E-06 -.198E-07 0.107E-05
   0.211E+02 -.904E+02 0.981E+02   -.198E+02 0.991E+02 -.103E+03   -.134E+01 -.874E+01 0.530E+01   0.156E-07 -.955E-07 0.207E-05
   0.211E+02 -.902E+02 0.981E+02   -.198E+02 0.989E+02 -.103E+03   -.134E+01 -.874E+01 0.530E+01   0.932E-07 -.877E-07 0.197E-05
   -.986E+02 -.105E+03 -.125E+02   0.104E+03 0.113E+03 0.112E+02   -.495E+01 -.888E+01 0.132E+01   -.180E-05 -.339E-06 0.692E-06
   -.986E+02 -.105E+03 -.125E+02   0.104E+03 0.113E+03 0.112E+02   -.495E+01 -.888E+01 0.132E+01   -.165E-05 -.284E-06 0.737E-06
   -.136E+03 -.540E+02 -.187E+02   0.143E+03 0.595E+02 0.193E+02   -.680E+01 -.552E+01 -.558E+00   -.157E-05 -.476E-07 -.981E-06
   -.136E+03 -.540E+02 -.187E+02   0.143E+03 0.595E+02 0.193E+02   -.680E+01 -.552E+01 -.557E+00   -.163E-05 0.237E-07 -.982E-06
   0.124E+02 0.421E+02 -.127E+03   -.126E+02 -.473E+02 0.134E+03   0.245E+00 0.519E+01 -.704E+01   -.118E-06 0.521E-07 -.146E-05
   0.124E+02 0.420E+02 -.127E+03   -.126E+02 -.472E+02 0.134E+03   0.246E+00 0.519E+01 -.705E+01   -.648E-07 -.133E-08 -.134E-05
   -.108E+03 -.951E+02 -.619E+01   0.114E+03 0.101E+03 0.408E+01   -.534E+01 -.592E+01 0.212E+01   -.175E-05 -.381E-07 -.627E-06
   -.108E+03 -.950E+02 -.625E+01   0.114E+03 0.101E+03 0.414E+01   -.534E+01 -.592E+01 0.212E+01   -.162E-05 0.404E-07 -.657E-06
   0.987E+02 0.105E+03 0.125E+02   -.104E+03 -.113E+03 -.112E+02   0.495E+01 0.888E+01 -.132E+01   0.161E-05 0.238E-06 -.917E-06
   0.986E+02 0.105E+03 0.125E+02   -.104E+03 -.113E+03 -.112E+02   0.495E+01 0.888E+01 -.132E+01   0.176E-05 0.205E-06 -.827E-06
   -.986E+02 0.105E+03 0.126E+02   0.104E+03 -.113E+03 -.112E+02   -.495E+01 0.888E+01 -.132E+01   -.172E-05 0.251E-06 -.872E-06
   -.986E+02 0.105E+03 0.125E+02   0.104E+03 -.113E+03 -.112E+02   -.495E+01 0.888E+01 -.132E+01   -.165E-05 0.325E-06 -.859E-06
   0.728E+02 0.962E+02 0.632E+02   -.755E+02 -.106E+03 -.653E+02   0.274E+01 0.971E+01 0.207E+01   0.804E-06 0.506E-06 0.384E-06
   0.728E+02 0.962E+02 0.632E+02   -.755E+02 -.106E+03 -.653E+02   0.274E+01 0.971E+01 0.207E+01   0.929E-06 0.460E-06 0.476E-06
   0.219E+02 -.938E+02 -.889E+02   -.206E+02 0.100E+03 0.940E+02   -.133E+01 -.628E+01 -.509E+01   0.174E-06 0.156E-06 -.124E-05
   0.218E+02 -.938E+02 -.889E+02   -.205E+02 0.100E+03 0.940E+02   -.133E+01 -.628E+01 -.509E+01   0.372E-06 0.120E-06 -.137E-05
   -.211E+02 0.902E+02 -.981E+02   0.198E+02 -.989E+02 0.103E+03   0.134E+01 0.874E+01 -.530E+01   -.109E-06 -.134E-07 -.165E-05
   -.211E+02 0.902E+02 -.981E+02   0.198E+02 -.989E+02 0.103E+03   0.134E+01 0.874E+01 -.530E+01   -.440E-07 0.324E-07 -.172E-05
   -.219E+02 0.936E+02 0.889E+02   0.206E+02 -.999E+02 -.940E+02   0.133E+01 0.627E+01 0.509E+01   -.382E-06 -.164E-06 0.169E-05
   -.218E+02 0.938E+02 0.889E+02   0.205E+02 -.100E+03 -.940E+02   0.133E+01 0.628E+01 0.509E+01   -.254E-06 -.836E-07 0.155E-05
   0.211E+02 0.902E+02 -.981E+02   -.198E+02 -.989E+02 0.103E+03   -.134E+01 0.874E+01 -.530E+01   0.134E-07 0.128E-06 -.170E-05
   0.212E+02 0.902E+02 -.980E+02   -.198E+02 -.990E+02 0.103E+03   -.134E+01 0.874E+01 -.530E+01   0.126E-06 0.494E-07 -.174E-05
   0.728E+02 -.962E+02 -.632E+02   -.755E+02 0.106E+03 0.653E+02   0.274E+01 -.971E+01 -.207E+01   0.865E-06 -.465E-06 -.707E-06
   0.728E+02 -.962E+02 -.632E+02   -.755E+02 0.106E+03 0.653E+02   0.274E+01 -.971E+01 -.207E+01   0.905E-06 -.497E-06 -.639E-06
   0.136E+03 0.538E+02 0.187E+02   -.143E+03 -.594E+02 -.192E+02   0.680E+01 0.552E+01 0.558E+00   0.164E-05 -.473E-07 0.105E-05
   0.136E+03 0.539E+02 0.187E+02   -.143E+03 -.595E+02 -.193E+02   0.680E+01 0.552E+01 0.558E+00   0.161E-05 -.234E-07 0.104E-05
   0.108E+03 0.950E+02 0.626E+01   -.114E+03 -.101E+03 -.414E+01   0.534E+01 0.592E+01 -.212E+01   0.165E-05 -.644E-07 0.716E-06
   0.108E+03 0.950E+02 0.634E+01   -.114E+03 -.101E+03 -.421E+01   0.537E+01 0.592E+01 -.214E+01   0.182E-05 -.173E-07 0.714E-06
   -.728E+02 -.960E+02 -.633E+02   0.755E+02 0.106E+03 0.654E+02   -.274E+01 -.971E+01 -.208E+01   -.948E-06 -.358E-06 -.733E-06
   -.728E+02 -.961E+02 -.633E+02   0.755E+02 0.106E+03 0.653E+02   -.274E+01 -.971E+01 -.207E+01   -.818E-06 -.360E-06 -.623E-06
   -.218E+02 -.938E+02 -.889E+02   0.205E+02 0.100E+03 0.940E+02   0.133E+01 -.628E+01 -.509E+01   -.285E-06 0.959E-07 -.130E-05
   -.217E+02 -.938E+02 -.888E+02   0.204E+02 0.100E+03 0.939E+02   0.133E+01 -.628E+01 -.509E+01   -.254E-06 0.441E-07 -.131E-05
   0.209E+02 0.930E+02 0.888E+02   -.196E+02 -.993E+02 -.939E+02   -.128E+01 0.642E+01 0.508E+01   0.316E-06 -.360E-07 0.168E-05
   0.218E+02 0.938E+02 0.889E+02   -.205E+02 -.100E+03 -.940E+02   -.133E+01 0.628E+01 0.509E+01   0.333E-06 -.124E-06 0.161E-05
   -.728E+02 0.961E+02 0.633E+02   0.755E+02 -.106E+03 -.653E+02   -.274E+01 0.971E+01 0.207E+01   -.864E-06 0.351E-06 0.412E-06
   -.728E+02 0.961E+02 0.633E+02   0.755E+02 -.106E+03 -.653E+02   -.274E+01 0.971E+01 0.207E+01   -.863E-06 0.388E-06 0.430E-06
   0.124E+02 -.420E+02 0.127E+03   -.126E+02 0.472E+02 -.134E+03   0.246E+00 -.519E+01 0.705E+01   -.197E-06 -.107E-07 0.981E-06
   0.123E+02 -.420E+02 0.127E+03   -.126E+02 0.472E+02 -.134E+03   0.246E+00 -.519E+01 0.705E+01   -.427E-07 -.438E-08 0.109E-05
 -----------------------------------------------------------------------------------------------
   -.911E-02 -.573E-01 0.977E-01   0.639E-13 0.782E-13 0.199E-12   0.911E-02 0.573E-01 -.977E-01   0.229E-07 0.485E-08 -.446E-07


 POSITION                                       TOTAL-FORCE (eV/Angst)
 -----------------------------------------------------------------------------------
      7.84031      7.96182     -7.59135         0.002484     -0.001157      0.001047
     16.23455      7.96182     -7.59135         0.000534     -0.004959      0.004230
      3.16872      2.44282     -6.01943         0.002090     -0.000974     -0.002555
     11.56297      2.44282     -6.01943         0.002145     -0.000873     -0.002536
      1.76685      7.83724    -10.10521        -0.043824     -0.148352      0.016725
     10.16110      7.82725    -10.10485        -0.000106     -0.000028     -0.000404
      5.05050      1.12562     -8.40433         0.001734     -0.000699     -0.000441
     13.44475      1.12562     -8.40433         0.001575     -0.000638     -0.000696
      5.13205      1.09979     -2.45651        -0.000047      0.000405     -0.000325
     13.52630      1.09979     -2.45651        -0.000058      0.000644     -0.000256
      3.26219      7.47505     -8.62356        -0.030741      0.030911     -0.022026
     11.65644      7.47505     -8.62356         0.000079     -0.000438      0.000278
      3.34375      7.44923     -2.67574        -0.001741      0.000546      0.000838
     11.73799      7.44923     -2.67574        -0.001642      0.000636      0.000680
      7.36585      0.97835     -4.87422         0.002178      0.000894      0.002494
     15.76010      0.97835     -4.87422         0.002191      0.000977      0.002541
      2.43027      2.67356     -9.91842        -0.000358      0.000309     -0.000297
     10.82452      2.67356     -9.91842         0.000102     -0.000007     -0.000487
      4.75106      2.80814     -7.40493        -0.002579     -0.001312      0.000891
     13.14531      2.80814     -7.40493        -0.002496     -0.001266      0.000968
      7.45932      6.25348     -2.64294         0.000056      0.000381     -0.000457
     15.85356      6.25348     -2.64294         0.000280      0.000892      0.000012
      1.02840      7.59650     -6.20585        -0.004153      0.001021     -0.002422
      9.42265      7.59650     -6.20585        -0.002163     -0.000902     -0.002555
      0.85338      2.29554     -2.48931         0.001667      0.000789      0.000495
      9.24762      2.29554     -2.48931         0.001575      0.000613      0.000675
      3.64318      5.76671     -3.67515         0.002333      0.001543     -0.000678
     12.03743      5.76671     -3.67515         0.002385      0.001220     -0.000993
      0.55394      0.61303     -3.48872        -0.002500      0.001078     -0.000934
      8.94819      0.61303     -3.48872        -0.002460      0.001291     -0.000920
      5.79350     -0.03143     -4.03202        -0.001256      0.001809      0.000267
     14.18775     -0.03143     -4.03202        -0.001200      0.001696      0.000301
      4.85766      7.53946     -1.03917        -0.004210      0.002142     -0.000260
     13.25190      7.53946     -1.03917        -0.003669      0.001881     -0.000240
      5.96398      5.90128     -1.16165        -0.000141      0.000058      0.000555
     14.35822      5.90128     -1.16165        -0.000258      0.000054      0.000346
      3.53659      1.03539    -10.04090         0.004216     -0.002443      0.000020
     11.93084      1.03539    -10.04090         0.003914     -0.002036      0.000269
      6.62739      0.74760     -0.97522        -0.000005     -0.000039      0.000448
     15.02164      0.74760     -0.97522        -0.000104     -0.000480      0.000356
      1.59638      3.45260     -6.86163        -0.001111     -0.001668     -0.000130
      9.99063      3.45260     -6.86163        -0.001181     -0.001777     -0.000195
      0.93493      2.32137     -8.43713         0.000094     -0.000205      0.000055
      9.32918      2.32137     -8.43713        -0.000103     -0.000468      0.000277
      7.54087      6.27930     -8.59076        -0.001573     -0.000722     -0.000670
     15.93512      6.27930     -8.59076         0.009620      0.002927     -0.010204
      2.60074      8.60628     -7.04805         0.010781     -0.008036      0.004517
     10.99499      8.60628     -7.04805         0.001195     -0.001781     -0.000264
      7.73371      2.38578     -0.85274         0.003976      0.002084     -0.000270
     16.12796      2.38578     -0.85274         0.003889      0.002224     -0.000214
      0.66053      6.18907    -10.22733         0.054022      0.118969      0.006487
      9.05478      6.18907    -10.22733        -0.003887     -0.002042      0.000183
      6.79787      5.12225     -4.21845         0.001460      0.001701      0.000236
     15.19211      5.12225     -4.21845         0.001252      0.001566      0.000370
      5.22552      6.13203     -5.06065        -0.002064      0.001019      0.002437
     13.61977      6.13203     -5.06065        -0.002197      0.001021      0.002436
 -----------------------------------------------------------------------------------
    total drift:                               -0.000001      0.000001      0.000001


--------------------------------------------------------------------------------------------------------



  FREE ENERGIE OF THE ION-ELECTRON SYSTEM (eV)
  ---------------------------------------------------
  free  energy   TOTEN  =      -229.37585051 eV

  energy  without entropy=     -229.37585051  energy(sigma->0) =     -229.37585051



--------------------------------------------------------------------------------------------------------


    POTLOK:  cpu time     19.4792: real time     19.4882


--------------------------------------------------------------------------------------------------------


     LOOP+:  cpu time   3631.1093: real time   3631.8615
    4ORBIT:  cpu time      0.0000: real time      0.0000



 total charge

# of ion       s       p       d       tot
------------------------------------------
    1        1.376   2.247   0.000   3.623
    2        1.376   2.247   0.000   3.623
    3        1.376   2.258   0.000   3.635
    4        1.376   2.258   0.000   3.635
    5        1.376   2.243   0.000   3.619
    6        1.376   2.247   0.000   3.622
    7        1.375   2.262   0.000   3.638
    8        1.375   2.262   0.000   3.638
    9        1.377   2.257   0.000   3.634
   10        1.377   2.257   0.000   3.634
   11        1.377   2.256   0.000   3.633
   12        1.377   2.257   0.000   3.634
   13        1.375   2.262   0.000   3.638
   14        1.375   2.262   0.000   3.638
   15        1.376   2.258   0.000   3.635
   16        1.376   2.258   0.000   3.635
   17        1.376   2.247   0.000   3.622
   18        1.376   2.247   0.000   3.622
   19        1.376   2.247   0.000   3.623
   20        1.376   2.247   0.000   3.623
   21        1.377   2.257   0.000   3.634
   22        1.377   2.257   0.000   3.634
   23        1.376   2.258   0.000   3.635
   24        1.376   2.258   0.000   3.635
   25        1.375   2.262   0.000   3.638
   26        1.375   2.262   0.000   3.638
   27        1.376   2.247   0.000   3.623
   28        1.376   2.247   0.000   3.623
   29        1.376   2.247   0.000   3.623
   30        1.376   2.247   0.000   3.623
   31        1.376   2.254   0.000   3.630
   32        1.376   2.254   0.000   3.630
   33        1.375   2.263   0.000   3.638
   34        1.375   2.263   0.000   3.638
   35        1.376   2.247   0.000   3.623
   36        1.376   2.247   0.000   3.622
   37        1.375   2.263   0.000   3.638
   38        1.375   2.263   0.000   3.638
   39        1.376   2.247   0.000   3.623
   40        1.376   2.247   0.000   3.622
   41        1.376   2.254   0.000   3.630
   42        1.376   2.254   0.000   3.630
   43        1.377   2.257   0.000   3.634
   44        1.377   2.257   0.000   3.634
   45        1.375   2.262   0.000   3.638
   46        1.375   2.262   0.000   3.637
   47        1.376   2.254   0.000   3.630
   48        1.376   2.254   0.000   3.630
   49        1.375   2.263   0.000   3.638
   50        1.375   2.263   0.000   3.638
   51        1.375   2.260   0.000   3.635
   52        1.375   2.263   0.000   3.638
   53        1.376   2.254   0.000   3.630
   54        1.376   2.254   0.000   3.630
   55        1.376   2.258   0.000   3.635
   56        1.376   2.258   0.000   3.635
--------------------------------------------------
tot         77.050 126.303   0.000 203.353



 magnetization (x)

# of ion       s       p       d       tot
------------------------------------------
    1        0.000   0.000   0.000   0.000
    2        0.000   0.000   0.000   0.000
    3        0.000   0.000   0.000   0.000
    4        0.000   0.000   0.000   0.000
    5        0.000   0.000   0.000   0.000
    6        0.000   0.000   0.000   0.000
    7        0.000   0.000   0.000   0.000
    8        0.000   0.000   0.000   0.000
    9        0.000   0.000   0.000   0.000
   10        0.000   0.000   0.000   0.000
   11        0.000   0.000   0.000   0.000
   12        0.000   0.000   0.000   0.000
   13        0.000   0.000   0.000   0.000
   14        0.000   0.000   0.000   0.000
   15        0.000   0.000   0.000   0.000
   16        0.000   0.000   0.000   0.000
   17        0.000   0.000   0.000   0.000
   18        0.000   0.000   0.000   0.000
   19        0.000   0.000   0.000   0.000
   20        0.000   0.000   0.000   0.000
   21        0.000   0.000   0.000   0.000
   22        0.000   0.000   0.000   0.000
   23        0.000   0.000   0.000   0.000
   24        0.000   0.000   0.000   0.000
   25        0.000   0.000   0.000   0.000
   26        0.000   0.000   0.000   0.000
   27        0.000   0.000   0.000   0.000
   28        0.000   0.000   0.000   0.000
   29        0.000   0.000   0.000   0.000
   30        0.000   0.000   0.000   0.000
   31        0.000   0.000   0.000   0.000
   32        0.000   0.000   0.000   0.000
   33        0.000   0.000   0.000   0.000
   34        0.000   0.000   0.000   0.000
   35        0.000   0.000   0.000   0.000
   36        0.000   0.000   0.000   0.000
   37        0.000   0.000   0.000   0.000
   38        0.000   0.000   0.000   0.000
   39        0.000   0.000   0.000   0.000
   40        0.000   0.000   0.000   0.000
   41        0.000   0.000   0.000   0.000
   42        0.000   0.000   0.000   0.000
   43        0.000   0.000   0.000   0.000
   44        0.000   0.000   0.000   0.000
   45        0.000   0.000   0.000   0.000
   46        0.000   0.000   0.000   0.000
   47        0.000   0.000   0.000   0.000
   48        0.000   0.000   0.000   0.000
   49        0.000   0.000   0.000   0.000
   50        0.000   0.000   0.000   0.000
   51        0.000   0.000   0.000   0.000
   52        0.000   0.000   0.000   0.000
   53        0.000   0.000   0.000   0.000
   54        0.000   0.000   0.000   0.000
   55        0.000   0.000   0.000   0.000
   56        0.000   0.000   0.000   0.000
--------------------------------------------------
tot          0.000   0.000   0.000   0.000

 BZINTS: Fermi energy:    0.079147;  336.000000 electrons
         Band energy:-0.201098E+04;  BLOECHL correction:    0.000000

 total amount of memory used by VASP MPI-rank0   322725. kBytes
=======================================================================

   base      :      30000. kBytes
   nonl-proj :      70692. kBytes
   fftplans  :      34504. kBytes
   grid      :      83442. kBytes
   one-center:        344. kBytes
   wavefun   :     103743. kBytes

  
  
 General timing and accounting informations for this job:
 ========================================================
  
                  Total CPU time used (sec):     3673.970
                            User time (sec):     3672.681
                          System time (sec):        1.289
                         Elapsed time (sec):     3675.208
  
                   Maximum memory used (kb):      608604.
                   Average memory used (kb):          N/A
  
                          Minor page faults:       525636
                          Major page faults:           22
                 Voluntary context switches:         5869
