   96   96    1    2
  0.1121931E+02  0.1118897E-08  0.1118918E-08  0.1118923E-08  0.5000000E-15
  1.000000000000000E-004
  CAR 
 unknown system                          
    600      1    400
 
  0.0000000E+00  0.0000000E+00  0.0000000E+00  0.1000000E+01
    1      -46.558071    -46.558078   1.000000   1.000000
    2      -46.557589    -46.557587   1.000000   1.000000
    3      -46.557546    -46.557543   1.000000   1.000000
    4      -46.557404    -46.557417   1.000000   1.000000
    5      -46.557182    -46.557206   1.000000   1.000000
    6      -46.557159    -46.557196   1.000000   1.000000
    7      -46.557075    -46.557084   1.000000   1.000000
    8      -46.556677    -46.556692   1.000000   1.000000
    9      -42.839334    -42.839345   1.000000   1.000000
   10      -42.838931    -42.838946   1.000000   1.000000
   11      -42.838365    -42.838377   1.000000   1.000000
   12      -42.837328    -42.837356   1.000000   1.000000
   13      -42.834038    -42.834046   1.000000   1.000000
   14      -42.833696    -42.833709   1.000000   1.000000
   15      -42.832949    -42.832953   1.000000   1.000000
   16      -42.832027    -42.832056   1.000000   1.000000
   17      -42.625137    -42.625140   1.000000   1.000000
   18      -42.624166    -42.624165   1.000000   1.000000
   19      -42.623833    -42.623839   1.000000   1.000000
   20      -42.623520    -42.623519   1.000000   1.000000
   21      -42.615995    -42.615996   1.000000   1.000000
   22      -42.615125    -42.615120   1.000000   1.000000
   23      -42.614661    -42.614665   1.000000   1.000000
   24      -42.614432    -42.614434   1.000000   1.000000
   25      -42.535579    -42.535633   1.000000   1.000000
   26      -42.535066    -42.535073   1.000000   1.000000
   27      -42.534723    -42.534777   1.000000   1.000000
   28      -42.534306    -42.534314   1.000000   1.000000
   29      -42.512949    -42.513006   1.000000   1.000000
   30      -42.512401    -42.512401   1.000000   1.000000
   31      -42.512045    -42.512099   1.000000   1.000000
   32      -42.511626    -42.511631   1.000000   1.000000
   33      -41.482500    -41.482438   1.000000   1.000000
   34      -41.481000    -41.480947   1.000000   1.000000
   35      -41.478051    -41.478026   1.000000   1.000000
   36      -41.478011    -41.478001   1.000000   1.000000
   37      -28.446836    -28.446813   1.000000   1.000000
   38      -28.442844    -28.442821   1.000000   1.000000
   39      -28.438710    -28.438688   1.000000   1.000000
   40      -28.436021    -28.435999   1.000000   1.000000
   41      -28.246248    -28.246224   1.000000   1.000000
   42      -28.241124    -28.241100   1.000000   1.000000
   43      -28.218710    -28.218686   1.000000   1.000000
   44      -28.218306    -28.218282   1.000000   1.000000
   45      -28.195461    -28.195435   1.000000   1.000000
   46      -28.195368    -28.195345   1.000000   1.000000
   47      -28.162416    -28.162391   1.000000   1.000000
   48      -28.160745    -28.160720   1.000000   1.000000
   49      -23.286607    -23.286611   1.000000   1.000000
   50      -23.286082    -23.286096   1.000000   1.000000
   51      -23.285803    -23.285812   1.000000   1.000000
   52      -23.285245    -23.285252   1.000000   1.000000
   53      -23.284911    -23.284923   1.000000   1.000000
   54      -23.284426    -23.284439   1.000000   1.000000
   55      -23.283912    -23.283922   1.000000   1.000000
   56      -23.279897    -23.279907   1.000000   1.000000
   57      -23.269314    -23.269329   1.000000   1.000000
   58      -23.268212    -23.268228   1.000000   1.000000
   59      -23.267313    -23.267328   1.000000   1.000000
   60      -23.266998    -23.267015   1.000000   1.000000
   61      -23.265254    -23.265269   1.000000   1.000000
   62      -23.258810    -23.258824   1.000000   1.000000
   63      -23.258512    -23.258528   1.000000   1.000000
   64      -23.246125    -23.246141   1.000000   1.000000
   65      -23.230235    -23.230246   1.000000   1.000000
   66      -23.229946    -23.229957   1.000000   1.000000
   67      -23.229593    -23.229603   1.000000   1.000000
   68      -23.228499    -23.228508   1.000000   1.000000
   69      -23.228120    -23.228130   1.000000   1.000000
   70      -23.227207    -23.227218   1.000000   1.000000
   71      -23.224027    -23.224037   1.000000   1.000000
   72      -23.219196    -23.219206   1.000000   1.000000
   73      -15.170424    -15.170424   1.000000   1.000000
   74      -15.169505    -15.169505   1.000000   1.000000
   75      -15.027711    -15.027715   1.000000   1.000000
   76      -14.948181    -14.948190   1.000000   1.000000
   77      -14.833830    -14.833832   1.000000   1.000000
   78      -14.833406    -14.833406   1.000000   1.000000
   79      -14.812152    -14.812150   1.000000   1.000000
   80      -14.769293    -14.769290   1.000000   1.000000
   81      -14.567833    -14.567834   1.000000   1.000000
   82      -14.566979    -14.566980   1.000000   1.000000
   83      -14.529352    -14.529349   1.000000   1.000000
   84      -14.528813    -14.528810   1.000000   1.000000
   85      -14.514450    -14.514447   1.000000   1.000000
   86      -14.478746    -14.478749   1.000000   1.000000
   87      -14.472190    -14.472200   1.000000   1.000000
   88      -14.437983    -14.437982   1.000000   1.000000
   89      -14.426376    -14.426377   1.000000   1.000000
   90      -14.426069    -14.426071   1.000000   1.000000
   91      -14.382820    -14.382819   1.000000   1.000000
   92      -14.348890    -14.348890   1.000000   1.000000
   93      -14.322543    -14.322544   1.000000   1.000000
   94      -14.294172    -14.294171   1.000000   1.000000
   95      -14.257133    -14.257139   1.000000   1.000000
   96      -14.185761    -14.185762   1.000000   1.000000
   97      -14.185249    -14.185249   1.000000   1.000000
   98      -14.143353    -14.143352   1.000000   1.000000
   99      -14.109917    -14.109921   1.000000   1.000000
  100      -14.105161    -14.105159   1.000000   1.000000
  101      -14.104713    -14.104710   1.000000   1.000000
  102      -14.082072    -14.082082   1.000000   1.000000
  103      -14.056261    -14.056268   1.000000   1.000000
  104      -14.055852    -14.055858   1.000000   1.000000
  105      -14.023485    -14.023493   1.000000   1.000000
  106      -14.022905    -14.022912   1.000000   1.000000
  107      -13.951278    -13.951287   1.000000   1.000000
  108      -13.843935    -13.843935   1.000000   1.000000
  109      -13.773358    -13.773362   1.000000   1.000000
  110      -13.766177    -13.766178   1.000000   1.000000
  111      -13.765837    -13.765838   1.000000   1.000000
  112      -13.703343    -13.703338   1.000000   1.000000
  113      -13.686894    -13.686892   1.000000   1.000000
  114      -13.631575    -13.631572   1.000000   1.000000
  115      -13.538128    -13.538125   1.000000   1.000000
  116      -13.499950    -13.499957   1.000000   1.000000
  117      -13.499507    -13.499514   1.000000   1.000000
  118      -13.422582    -13.422592   1.000000   1.000000
  119      -13.422438    -13.422447   1.000000   1.000000
  120      -13.319915    -13.319927   1.000000   1.000000
  121      -10.645018    -10.645030   1.000000   1.000000
  122      -10.644725    -10.644738   1.000000   1.000000
  123      -10.590398    -10.590414   1.000000   1.000000
  124      -10.590028    -10.590040   1.000000   1.000000
  125      -10.589755    -10.589767   1.000000   1.000000
  126      -10.553318    -10.553331   1.000000   1.000000
  127      -10.552953    -10.552964   1.000000   1.000000
  128      -10.537165    -10.537180   1.000000   1.000000
  129      -10.502614    -10.502626   1.000000   1.000000
  130      -10.500153    -10.500165   1.000000   1.000000
  131      -10.499705    -10.499716   1.000000   1.000000
  132      -10.455627    -10.455639   1.000000   1.000000
  133      -10.455429    -10.455440   1.000000   1.000000
  134      -10.429454    -10.429466   1.000000   1.000000
  135      -10.391203    -10.391215   1.000000   1.000000
  136      -10.391045    -10.391056   1.000000   1.000000
  137      -10.330320    -10.330334   1.000000   1.000000
  138      -10.306535    -10.306552   1.000000   1.000000
  139      -10.286358    -10.286372   1.000000   1.000000
  140      -10.231602    -10.231619   1.000000   1.000000
  141      -10.175617    -10.175631   1.000000   1.000000
  142      -10.175262    -10.175275   1.000000   1.000000
  143      -10.166196    -10.166208   1.000000   1.000000
  144      -10.161279    -10.161289   1.000000   1.000000
  145      -10.102043    -10.102055   1.000000   1.000000
  146      -10.053377    -10.053388   1.000000   1.000000
  147      -10.051419    -10.051433   1.000000   1.000000
  148      -10.051068    -10.051081   1.000000   1.000000
  149      -10.035578    -10.035592   1.000000   1.000000
  150       -9.895319     -9.895333   1.000000   1.000000
  151       -9.821391     -9.821403   1.000000   1.000000
  152       -9.820720     -9.820731   1.000000   1.000000
  153       -9.745799     -9.745813   1.000000   1.000000
  154       -9.623820     -9.623834   1.000000   1.000000
  155       -9.592808     -9.592820   1.000000   1.000000
  156       -9.592145     -9.592156   1.000000   1.000000
  157       -0.416133     -0.416135   1.000000   1.000000
  158       -0.176736     -0.176732   1.000000   1.000000
  159       -0.176196     -0.176193   1.000000   1.000000
  160       -0.076328     -0.076324   1.000000   1.000000
  161       -0.075984     -0.075981   1.000000   1.000000
  162       -0.054205     -0.054201   1.000000   1.000000
  163       -0.036302     -0.036296   1.000000   1.000000
  164       -0.033015     -0.033009   1.000000   1.000000
  165        0.046901      0.046897   1.000000   1.000000
  166        0.051161      0.051165   1.000000   1.000000
  167        0.235927      0.235927   1.000000   1.000000
  168        0.430737      0.430738   1.000000   1.000000
  169        0.446042      0.446044   1.000000   1.000000
  170        0.446425      0.446429   1.000000   1.000000
  171        0.472866      0.472869   1.000000   1.000000
  172        0.548823      0.548828   1.000000   1.000000
  173        0.554024      0.554028   1.000000   1.000000
  174        0.560963      0.560953   1.000000   1.000000
  175        0.561208      0.561198   1.000000   1.000000
  176        0.575544      0.575548   1.000000   1.000000
  177        0.629139      0.629135   1.000000   1.000000
  178        0.629552      0.629549   1.000000   1.000000
  179        0.707958      0.707954   1.000000   1.000000
  180        0.714469      0.714468   1.000000   1.000000
  181        0.714673      0.714674   1.000000   1.000000
  182        0.733956      0.733959   1.000000   1.000000
  183        0.736789      0.736790   1.000000   1.000000
  184        0.738195      0.738194   1.000000   1.000000
  185        0.738384      0.738383   1.000000   1.000000
  186        0.807556      0.807559   1.000000   1.000000
  187        0.897426      0.897430   1.000000   1.000000
  188        0.912592      0.912599   1.000000   1.000000
  189        0.913112      0.913116   1.000000   1.000000
  190        0.916288      0.916273   1.000000   1.000000
  191        0.928254      0.928253   1.000000   1.000000
  192        0.945173      0.945175   1.000000   1.000000
  193        0.945506      0.945508   1.000000   1.000000
  194        0.983790      0.983790   1.000000   1.000000
  195        0.998069      0.998068   1.000000   1.000000
  196        1.016075      1.016072   1.000000   1.000000
  197        1.016135      1.016132   1.000000   1.000000
  198        1.042278      1.042281   1.000000   1.000000
  199        1.045098      1.045095   1.000000   1.000000
  200        1.045250      1.045247   1.000000   1.000000
  201        1.108472      1.108468   1.000000   1.000000
  202        1.144538      1.144542   1.000000   1.000000
  203        1.155888      1.155881   1.000000   1.000000
  204        1.180811      1.180812   1.000000   1.000000
  205        1.198907      1.198912   1.000000   1.000000
  206        1.199049      1.199052   1.000000   1.000000
  207        1.232090      1.232089   1.000000   1.000000
  208        1.269253      1.269258   1.000000   1.000000
  209        1.273866      1.273861   1.000000   1.000000
  210        1.274186      1.274181   1.000000   1.000000
  211        1.279462      1.279459   1.000000   1.000000
  212        1.282051      1.282051   1.000000   1.000000
  213        1.295589      1.295589   1.000000   1.000000
  214        1.296041      1.296043   1.000000   1.000000
  215        1.301922      1.301925   1.000000   1.000000
  216        1.318466      1.318475   1.000000   1.000000
  217        1.494231      1.494232   1.000000   1.000000
  218        1.538958      1.538962   1.000000   1.000000
  219        1.539144      1.539150   1.000000   1.000000
  220        1.585706      1.585706   1.000000   1.000000
  221        1.642686      1.642678   1.000000   1.000000
  222        1.643130      1.643122   1.000000   1.000000
  223        1.650062      1.650059   1.000000   1.000000
  224        1.650271      1.650268   1.000000   1.000000
  225        1.709494      1.709494   1.000000   1.000000
  226        1.717945      1.717941   1.000000   1.000000
  227        1.747904      1.747909   1.000000   1.000000
  228        1.762344      1.762349   1.000000   1.000000
  229        1.768398      1.768398   1.000000   1.000000
  230        1.768601      1.768602   1.000000   1.000000
  231        1.802093      1.802093   1.000000   1.000000
  232        1.877413      1.877409   1.000000   1.000000
  233        1.901729      1.901735   1.000000   1.000000
  234        1.983772      1.983776   1.000000   1.000000
  235        1.983910      1.983916   1.000000   1.000000
  236        2.032313      2.032301   1.000000   1.000000
  237        2.043858      2.043870   1.000000   1.000000
  238        2.113739      2.113732   1.000000   1.000000
  239        2.113879      2.113872   1.000000   1.000000
  240        2.124695      2.124700   1.000000   1.000000
  241        2.202440      2.202440   1.000000   1.000000
  242        2.202685      2.202685   1.000000   1.000000
  243        2.219240      2.219234   1.000000   1.000000
  244        2.238897      2.238898   1.000000   1.000000
  245        2.261949      2.261954   1.000000   1.000000
  246        2.355879      2.355883   1.000000   1.000000
  247        2.356218      2.356221   1.000000   1.000000
  248        2.425117      2.425112   1.000000   1.000000
  249        2.425458      2.425452   1.000000   1.000000
  250        2.466014      2.466014   1.000000   1.000000
  251        2.466860      2.466861   1.000000   1.000000
  252        2.494692      2.494688   1.000000   1.000000
  253        2.506230      2.506225   1.000000   1.000000
  254        2.542317      2.542312   1.000000   1.000000
  255        2.591710      2.591707   1.000000   1.000000
  256        2.592039      2.592039   1.000000   1.000000
  257        2.613254      2.613249   1.000000   1.000000
  258        2.639136      2.639140   1.000000   1.000000
  259        2.647346      2.647346   1.000000   1.000000
  260        2.672787      2.672794   1.000000   1.000000
  261        2.680377      2.680372   1.000000   1.000000
  262        2.681263      2.681256   1.000000   1.000000
  263        2.700554      2.700557   1.000000   1.000000
  264        2.745368      2.745371   1.000000   1.000000
  265        2.745474      2.745479   1.000000   1.000000
  266        2.761198      2.761196   1.000000   1.000000
  267        2.819859      2.819854   1.000000   1.000000
  268        2.820522      2.820518   1.000000   1.000000
  269        2.858457      2.858459   1.000000   1.000000
  270        2.858587      2.858590   1.000000   1.000000
  271        2.888526      2.888502   1.000000   1.000000
  272        2.892504      2.892510   1.000000   1.000000
  273        2.892704      2.892707   1.000000   1.000000
  274        2.965534      2.965534   1.000000   1.000000
  275        2.981811      2.981807   1.000000   1.000000
  276        2.982058      2.982055   1.000000   1.000000
  277        3.000136      3.000131   1.000000   1.000000
  278        3.000244      3.000241   1.000000   1.000000
  279        3.042900      3.042900   1.000000   1.000000
  280        3.052493      3.052497   1.000000   1.000000
  281        3.092610      3.092604   1.000000   1.000000
  282        3.093119      3.093112   1.000000   1.000000
  283        3.105502      3.105494   1.000000   1.000000
  284        3.170833      3.170833   1.000000   1.000000
  285        3.202485      3.202489   1.000000   1.000000
  286        3.202888      3.202897   1.000000   1.000000
  287        3.215381      3.215378   1.000000   1.000000
  288        3.223496      3.223505   1.000000   1.000000
  289        3.238197      3.238165   1.000000   1.000000
  290        3.247138      3.247136   1.000000   1.000000
  291        3.266225      3.266213   1.000000   1.000000
  292        3.266920      3.266905   1.000000   1.000000
  293        3.335083      3.335089   1.000000   1.000000
  294        3.335249      3.335255   1.000000   1.000000
  295        3.376515      3.376521   1.000000   1.000000
  296        3.417533      3.417526   1.000000   1.000000
  297        3.424255      3.424258   1.000000   1.000000
  298        3.430804      3.430789   1.000000   1.000000
  299        3.436431      3.436426   1.000000   1.000000
  300        3.437176      3.437172   1.000000   1.000000
  301        9.622690      9.622678   0.000000   0.000000
  302        9.895538      9.895526   0.000000   0.000000
  303       10.055688     10.055681   0.000000   0.000000
  304       10.055916     10.055909   0.000000   0.000000
  305       10.081947     10.081941   0.000000   0.000000
  306       10.430491     10.430484   0.000000   0.000000
  307       10.481093     10.481087   0.000000   0.000000
  308       10.481205     10.481199   0.000000   0.000000
  309       10.498378     10.498372   0.000000   0.000000
  310       10.514047     10.514042   0.000000   0.000000
  311       10.525932     10.525924   0.000000   0.000000
  312       10.540440     10.540431   0.000000   0.000000
  313       10.540526     10.540520   0.000000   0.000000
  314       10.710947     10.710939   0.000000   0.000000
  315       10.793744     10.793663   0.000000   0.000000
  316       10.870292     10.870286   0.000000   0.000000
  317       10.870375     10.870374   0.000000   0.000000
  318       10.873497     10.873493   0.000000   0.000000
  319       10.903041     10.903035   0.000000   0.000000
  320       10.957345     10.957335   0.000000   0.000000
  321       10.957919     10.957882   0.000000   0.000000
  322       10.998790     10.998759   0.000000   0.000000
  323       11.021540     11.021529   0.000000   0.000000
  324       11.170524     11.170814   0.000000   0.000000
  325       11.171665     11.171385   0.000000   0.000000
  326       11.200460     11.200579   0.000000   0.000000
  327       11.207168     11.209433   0.000000   0.000000
  328       11.267985     11.266163   0.000000   0.000000
  329       11.276234     11.268627   0.000000   0.000000
  330       11.318341     11.317118   0.000000   0.000000
  331       11.339898     11.339226   0.000000   0.000000
  332       11.340059     11.340030   0.000000   0.000000
  333       11.357230     11.355707   0.000000   0.000000
  334       11.454328     11.454242   0.000000   0.000000
  335       11.464900     11.456042   0.000000   0.000000
  336       11.494224     11.456966   0.000000   0.000000
  337       11.559942     11.484103   0.000000   0.000000
  338       11.622574     11.602282   0.000000   0.000000
  339       11.736210     11.777370   0.000000   0.000000
  340       12.015606     12.016081   0.000000   0.000000
  341       12.023066     12.020204   0.000000   0.000000
  342       12.041434     12.037030   0.000000   0.000000
  343       12.057150     12.039044   0.000000   0.000000
  344       12.069231     12.057789   0.000000   0.000000
  345       12.151734     12.070331   0.000000   0.000000
  346       12.203007     12.147610   0.000000   0.000000
  347       12.257723     12.283236   0.000000   0.000000
  348       12.276143     12.300030   0.000000   0.000000
  349       12.297484     12.314495   0.000000   0.000000
  350       12.314875     12.325619   0.000000   0.000000
  351       12.326431     12.344432   0.000000   0.000000
  352       12.350282     12.359025   0.000000   0.000000
  353       12.366699     12.373903   0.000000   0.000000
  354       12.369422     12.404573   0.000000   0.000000
  355       12.395870     12.422840   0.000000   0.000000
  356       12.401865     12.444906   0.000000   0.000000
  357       12.421887     12.459856   0.000000   0.000000
  358       12.428113     12.491632   0.000000   0.000000
  359       12.468197     12.497069   0.000000   0.000000
  360       12.494696     12.498610   0.000000   0.000000
  361       12.520908     12.525180   0.000000   0.000000
  362       12.533645     12.530240   0.000000   0.000000
  363       12.538591     12.540327   0.000000   0.000000
  364       12.554261     12.555347   0.000000   0.000000
  365       12.572864     12.564943   0.000000   0.000000
  366       12.575240     12.584894   0.000000   0.000000
  367       12.596098     12.593662   0.000000   0.000000
  368       12.609009     12.609273   0.000000   0.000000
  369       12.622094     12.635739   0.000000   0.000000
  370       12.629128     12.636805   0.000000   0.000000
  371       12.647389     12.655302   0.000000   0.000000
  372       12.655976     12.664702   0.000000   0.000000
  373       12.667110     12.665562   0.000000   0.000000
  374       12.680884     12.687232   0.000000   0.000000
  375       12.688062     12.695692   0.000000   0.000000
  376       12.692925     12.698485   0.000000   0.000000
  377       12.706747     12.704059   0.000000   0.000000
  378       12.716153     12.716751   0.000000   0.000000
  379       12.726997     12.736063   0.000000   0.000000
  380       12.734843     12.740939   0.000000   0.000000
  381       12.749472     12.752365   0.000000   0.000000
  382       12.786745     12.753582   0.000000   0.000000
  383       12.792821     12.787592   0.000000   0.000000
  384       12.810354     12.806814   0.000000   0.000000
  385       12.829863     12.815461   0.000000   0.000000
  386       12.840120     12.819395   0.000000   0.000000
  387       12.851152     12.836869   0.000000   0.000000
  388       12.863354     12.854235   0.000000   0.000000
  389       12.882683     12.880620   0.000000   0.000000
  390       12.890100     12.886234   0.000000   0.000000
  391       12.903950     12.894688   0.000000   0.000000
  392       12.926780     12.912867   0.000000   0.000000
  393       12.927481     12.924129   0.000000   0.000000
  394       12.935592     12.937916   0.000000   0.000000
  395       12.947003     12.943341   0.000000   0.000000
  396       12.969947     12.957953   0.000000   0.000000
  397       12.995266     12.967726   0.000000   0.000000
  398       13.010586     13.018355   0.000000   0.000000
  399       13.034185     13.047916   0.000000   0.000000
  400       13.076960     13.065761   0.000000   0.000000
