 vasp.6.3.2 27Jun22 (build Jun 14 2024 17:29:11) complex                         
 executed on             LinuxGNU date 2026.01.24  08:44:10
 running on   32 total cores
 distrk:  each k-point on   32 cores,    1 groups
 distr:  one band on NCORE=   1 cores,   32 groups


--------------------------------------------------------------------------------------------------------


 INCAR:
   SYSTEM = static
   ISTART = 1
   ICHARG = 1
   ENCUT = 520
   PREC = Accurate
   EDIFF = 1E-6
   ISMEAR = 0
   SIGMA = 0.05
   NSW = 0
   LREAL = Auto
   ALGO = Normal
   LASPH = .TRUE.
   LORBIT = 11
   NEDOS = 2000

 POTCAR:    PAW_PBE Na_sv 28Sep2000               
 POTCAR:    PAW_PBE Sb 06Sep2000                  
 POTCAR:    PAW_PBE S 06Sep2000                   
 POTCAR:    PAW_PBE O 08Apr2002                   
 POTCAR:    PAW_PBE H 15Jun2001                   
 -----------------------------------------------------------------------------
|                                                                             |
|           W    W    AA    RRRRR   N    N  II  N    N   GGGG   !!!           |
|           W    W   A  A   R    R  NN   N  II  NN   N  G    G  !!!           |
|           W    W  A    A  R    R  N N  N  II  N N  N  G       !!!           |
|           W WW W  AAAAAA  RRRRR   N  N N  II  N  N N  G  GGG   !            |
|           WW  WW  A    A  R   R   N   NN  II  N   NN  G    G                |
|           W    W  A    A  R    R  N    N  II  N    N   GGGG   !!!           |
|                                                                             |
|     For optimal performance we recommend to set                             |
|       NCORE = 2 up to number-of-cores-per-socket                            |
|     NCORE specifies how many cores store one orbital (NPAR=cpu/NCORE).      |
|     This setting can greatly improve the performance of VASP for DFT.       |
|     The default, NCORE=1 might be grossly inefficient on modern             |
|     multi-core architectures or massively parallel machines. Do your        |
|     own testing! More info at https://www.vasp.at/wiki/index.php/NCORE      |
|     Unfortunately you need to use the default for GW and RPA                |
|     calculations (for HF NCORE is supported but not extensively tested      |
|     yet).                                                                   |
|                                                                             |
 -----------------------------------------------------------------------------

 POTCAR:    PAW_PBE Na_sv 28Sep2000               
   SHA256 =  a6776e1c685fedd948d8820863091fa2c738ea18a23b817769b932f2fb3f61be Na_sv/POTCAR          
   COPYR  = (c) Copyright 28Sep2000 Georg Kresse                                                    
   COPYR  = This file is part of the software VASP. Any use, copying, and all other rights are regul
   COPYR  = If you do not have a valid VASP license, you may not use, copy or distribute this file. 
   VRHFIN =Na: s1p0                                                                                 
   LEXCH  = PE                                                                                      
   EATOM  =  1307.8686 eV,   96.1256 Ry                                                             
                                                                                                    
   TITEL  = PAW_PBE Na_sv 28Sep2000                                                                 
   LULTRA =        F    use ultrasoft PP ?                                                          
   IUNSCR =        0    unscreen: 0-lin 1-nonlin 2-no                                               
   RPACOR =    0.000    partial core radius                                                         
   POMASS =   22.990; ZVAL   =    9.000    mass and valenz                                          
   RCORE  =    1.450    outmost cutoff radius                                                       
   RWIGS  =    1.500; RWIGS  =    0.794    wigner-seitz radius (au A)                               
   ENMAX  =  645.640; ENMIN  =  484.230 eV                                                          
   RCLOC  =    1.007    cutoff for local pot                                                        
   LCOR   =        T    correct aug charges                                                         
   LPAW   =        T    paw PP                                                                      
   EAUG   =  698.012                                                                                
   RMAX   =    1.481    core radius for proj-oper                                                   
   RAUG   =    1.300    factor for augmentation sphere                                              
   RDEP   =    1.539    radius for radial grids                                                     
   RDEPT  =    1.250    core radius for aug-charge                                                  
                                                                                                    
   Atomic configuration                                                                             
    5 entries                                                                                       
     n  l   j            E        occ.                                                              
     1  0  0.50     -1033.6933   2.0000                                                             
     2  0  0.50       -56.7526   2.0000                                                             
     3  0  0.50        -2.7440   1.0000                                                             
     2  1  1.50       -28.6721   6.0000                                                             
     3  2  1.50        -1.3606   0.0000                                                             
   Description                                                                                      
     l       E           TYP  RCUT    TYP  RCUT                                                     
     0    -56.7526473     23  1.200                                                                 
     0     -2.7439560     23  1.450                                                                 
     1    -28.6720906     23  1.250                                                                 
     1     40.8174780     23  1.400                                                                 
  local pseudopotential read in
  atomic valenz-charges read in
  non local Contribution for L=           0  read in
    real space projection operators read in
  non local Contribution for L=           0  read in
    real space projection operators read in
  non local Contribution for L=           1  read in
    real space projection operators read in
  non local Contribution for L=           1  read in
    real space projection operators read in
    PAW grid and wavefunctions read in

   number of l-projection  operators is LMAX  =           4
   number of lm-projection operators is LMMAX =           8

 POTCAR:    PAW_PBE Sb 06Sep2000                  
   SHA256 =  8a1325a3afd8ca988779475cff04188eb880a428d1acb53275fe456fa3b784fc Sb/POTCAR             
   COPYR  = (c) Copyright 06Sep2000 Georg Kresse                                                    
   COPYR  = This file is part of the software VASP. Any use, copying, and all other rights are regul
   COPYR  = If you do not have a valid VASP license, you may not use, copy or distribute this file. 
   VRHFIN =Sb: s2p3                                                                                 
   LEXCH  = PE                                                                                      
   EATOM  =   149.9515 eV,   11.0211 Ry                                                             
                                                                                                    
   TITEL  = PAW_PBE Sb 06Sep2000                                                                    
   LULTRA =        F    use ultrasoft PP ?                                                          
   IUNSCR =        1    unscreen: 0-lin 1-nonlin 2-no                                               
   RPACOR =    2.200    partial core radius                                                         
   POMASS =  121.750; ZVAL   =    5.000    mass and valenz                                          
   RCORE  =    2.300    outmost cutoff radius                                                       
   RWIGS  =    2.980; RWIGS  =    1.577    wigner-seitz radius (au A)                               
   ENMAX  =  172.069; ENMIN  =  129.052 eV                                                          
   ICORE  =        3    local potential                                                             
   LCOR   =        T    correct aug charges                                                         
   LPAW   =        T    paw PP                                                                      
   EAUG   =  380.513                                                                                
   DEXC   =    0.000                                                                                
   RMAX   =    2.346    core radius for proj-oper                                                   
   RAUG   =    1.300    factor for augmentation sphere                                              
   RDEP   =    2.360    radius for radial grids                                                     
   RDEPT  =    2.192    core radius for aug-charge                                                  
                                                                                                    
   Atomic configuration                                                                             
   13 entries                                                                                       
     n  l   j            E        occ.                                                              
     1  0  0.50    -30298.2797   2.0000                                                             
     2  0  0.50     -4610.2252   2.0000                                                             
     2  1  1.50     -4138.3407   6.0000                                                             
     3  0  0.50      -903.8815   2.0000                                                             
     3  1  1.50      -750.1337   6.0000                                                             
     3  2  2.50      -515.7092  10.0000                                                             
     4  0  0.50      -148.8034   2.0000                                                             
     4  1  1.50      -101.7581   6.0000                                                             
     4  2  2.50       -33.5048  10.0000                                                             
     5  0  0.50       -12.8298   2.0000                                                             
     5  1  0.50        -4.8276   3.0000                                                             
     5  2  1.50        -4.0817   0.0000                                                             
     4  3  2.50        -4.0817   0.0000                                                             
   Description                                                                                      
     l       E           TYP  RCUT    TYP  RCUT                                                     
     0    -12.8297861     23  2.300                                                                 
     0     13.6058260     23  2.300                                                                 
     1     -4.8275512     23  2.300                                                                 
     1     -0.7245443     23  2.300                                                                 
     2     -4.0817478     23  2.300                                                                 
     3     -1.3605826     23  2.300                                                                 
  local pseudopotential read in
  partial core-charges read in
  partial kinetic energy density read in
  atomic valenz-charges read in
  non local Contribution for L=           0  read in
    real space projection operators read in
  non local Contribution for L=           0  read in
    real space projection operators read in
  non local Contribution for L=           1  read in
    real space projection operators read in
  non local Contribution for L=           1  read in
    real space projection operators read in
  non local Contribution for L=           2  read in
    real space projection operators read in
    PAW grid and wavefunctions read in

   number of l-projection  operators is LMAX  =           5
   number of lm-projection operators is LMMAX =          13

 POTCAR:    PAW_PBE S 06Sep2000                   
   SHA256 =  0fc7481fb0695f01bdc6462160264c5c84044ae9ec85a907d398b887a2bc3132 S/POTCAR              
   COPYR  = (c) Copyright 06Sep2000 Georg Kresse                                                    
   COPYR  = This file is part of the software VASP. Any use, copying, and all other rights are regul
   COPYR  = If you do not have a valid VASP license, you may not use, copy or distribute this file. 
   VRHFIN =S : s2p4                                                                                 
   LEXCH  = PE                                                                                      
   EATOM  =   276.8230 eV,   20.3459 Ry                                                             
                                                                                                    
   TITEL  = PAW_PBE S 06Sep2000                                                                     
   LULTRA =        F    use ultrasoft PP ?                                                          
   IUNSCR =        1    unscreen: 0-lin 1-nonlin 2-no                                               
   RPACOR =    1.500    partial core radius                                                         
   POMASS =   32.066; ZVAL   =    6.000    mass and valenz                                          
   RCORE  =    1.900    outmost cutoff radius                                                       
   RWIGS  =    2.200; RWIGS  =    1.164    wigner-seitz radius (au A)                               
   ENMAX  =  258.689; ENMIN  =  194.016 eV                                                          
   ICORE  =        2    local potential                                                             
   LCOR   =        T    correct aug charges                                                         
   LPAW   =        T    paw PP                                                                      
   EAUG   =  335.092                                                                                
   DEXC   =    0.000                                                                                
   RMAX   =    1.942    core radius for proj-oper                                                   
   RAUG   =    1.300    factor for augmentation sphere                                              
   RDEP   =    1.954    radius for radial grids                                                     
   RDEPT  =    1.744    core radius for aug-charge                                                  
                                                                                                    
   Atomic configuration                                                                             
    6 entries                                                                                       
     n  l   j            E        occ.                                                              
     1  0  0.50     -2405.8406   2.0000                                                             
     2  0  0.50      -211.7007   2.0000                                                             
     2  1  1.50      -156.4958   6.0000                                                             
     3  0  0.50       -17.2562   2.0000                                                             
     3  1  0.50        -7.0085   4.0000                                                             
     3  2  1.50        -6.8029   0.0000                                                             
   Description                                                                                      
     l       E           TYP  RCUT    TYP  RCUT                                                     
     0    -17.2561641     23  1.900                                                                 
     0    -15.8743224     23  1.900                                                                 
     1     -7.0085400     23  1.900                                                                 
     1     -2.7779785     23  1.900                                                                 
     2     -6.8029130     23  1.900                                                                 
  local pseudopotential read in
  partial core-charges read in
  partial kinetic energy density read in
  atomic valenz-charges read in
  non local Contribution for L=           0  read in
    real space projection operators read in
  non local Contribution for L=           0  read in
    real space projection operators read in
  non local Contribution for L=           1  read in
    real space projection operators read in
  non local Contribution for L=           1  read in
    real space projection operators read in
    PAW grid and wavefunctions read in

   number of l-projection  operators is LMAX  =           4
   number of lm-projection operators is LMMAX =           8

 POTCAR:    PAW_PBE O 08Apr2002                   
   SHA256 =  818f92134a0a090dccd8ba1447fa70422a3b330e708bb4f08108d8ae51209ddf O/POTCAR              
   COPYR  = (c) Copyright 08Apr2002 Georg Kresse                                                    
   COPYR  = This file is part of the software VASP. Any use, copying, and all other rights are regul
   COPYR  = If you do not have a valid VASP license, you may not use, copy or distribute this file. 
   VRHFIN =O: s2p4                                                                                  
   LEXCH  = PE                                                                                      
   EATOM  =   432.3788 eV,   31.7789 Ry                                                             
                                                                                                    
   TITEL  = PAW_PBE O 08Apr2002                                                                     
   LULTRA =        F    use ultrasoft PP ?                                                          
   IUNSCR =        1    unscreen: 0-lin 1-nonlin 2-no                                               
   RPACOR =    1.200    partial core radius                                                         
   POMASS =   16.000; ZVAL   =    6.000    mass and valenz                                          
   RCORE  =    1.520    outmost cutoff radius                                                       
   RWIGS  =    1.550; RWIGS  =    0.820    wigner-seitz radius (au A)                               
   ENMAX  =  400.000; ENMIN  =  300.000 eV                                                          
   ICORE  =        2    local potential                                                             
   LCOR   =        T    correct aug charges                                                         
   LPAW   =        T    paw PP                                                                      
   EAUG   =  605.392                                                                                
   DEXC   =    0.000                                                                                
   RMAX   =    1.553    core radius for proj-oper                                                   
   RAUG   =    1.300    factor for augmentation sphere                                              
   RDEP   =    1.550    radius for radial grids                                                     
   RDEPT  =    1.329    core radius for aug-charge                                                  
                                                                                                    
   Atomic configuration                                                                             
    4 entries                                                                                       
     n  l   j            E        occ.                                                              
     1  0  0.50      -514.6923   2.0000                                                             
     2  0  0.50       -23.9615   2.0000                                                             
     2  1  0.50        -9.0305   4.0000                                                             
     3  2  1.50        -9.5241   0.0000                                                             
   Description                                                                                      
     l       E           TYP  RCUT    TYP  RCUT                                                     
     0    -23.9615318     23  1.200                                                                 
     0     -9.5240782     23  1.200                                                                 
     1     -9.0304911     23  1.520                                                                 
     1      8.1634956     23  1.520                                                                 
     2     -9.5240782      7  1.500                                                                 
  local pseudopotential read in
  partial core-charges read in
  partial kinetic energy density read in
  kinetic energy density of atom read in
  atomic valenz-charges read in
  non local Contribution for L=           0  read in
    real space projection operators read in
  non local Contribution for L=           0  read in
    real space projection operators read in
  non local Contribution for L=           1  read in
    real space projection operators read in
  non local Contribution for L=           1  read in
    real space projection operators read in
    PAW grid and wavefunctions read in

   number of l-projection  operators is LMAX  =           4
   number of lm-projection operators is LMMAX =           8

 POTCAR:    PAW_PBE H 15Jun2001                   
   SHA256 =  030f79b5d3ab3cf0e668861823c8fb652ff669f3e15e46930bd03bfd63a607b6 H/POTCAR              
   COPYR  = (c) Copyright 15Jun2001 Georg Kresse                                                    
   COPYR  = This file is part of the software VASP. Any use, copying, and all other rights are regul
   COPYR  = If you do not have a valid VASP license, you may not use, copy or distribute this file. 
   VRHFIN =H: ultrasoft test                                                                        
   LEXCH  = PE                                                                                      
   EATOM  =    12.4884 eV,    0.9179 Ry                                                             
                                                                                                    
   TITEL  = PAW_PBE H 15Jun2001                                                                     
   LULTRA =        F    use ultrasoft PP ?                                                          
   IUNSCR =        0    unscreen: 0-lin 1-nonlin 2-no                                               
   RPACOR =    0.000    partial core radius                                                         
   POMASS =    1.000; ZVAL   =    1.000    mass and valenz                                          
   RCORE  =    1.100    outmost cutoff radius                                                       
   RWIGS  =    0.700; RWIGS  =    0.370    wigner-seitz radius (au A)                               
   ENMAX  =  250.000; ENMIN  =  200.000 eV                                                          
   RCLOC  =    0.701    cutoff for local pot                                                        
   LCOR   =        T    correct aug charges                                                         
   LPAW   =        T    paw PP                                                                      
   EAUG   =  400.000                                                                                
   RMAX   =    1.123    core radius for proj-oper                                                   
   RAUG   =    1.200    factor for augmentation sphere                                              
   RDEP   =    1.112    radius for radial grids                                                     
   RDEPT  =    0.926    core radius for aug-charge                                                  
                                                                                                    
   Atomic configuration                                                                             
    2 entries                                                                                       
     n  l   j            E        occ.                                                              
     1  0  0.50        -6.4927   1.0000                                                             
     2  1  0.50        -3.4015   0.0000                                                             
   Description                                                                                      
     l       E           TYP  RCUT    TYP  RCUT                                                     
     0     -6.4927494     23  1.100                                                                 
     0      6.8029130     23  1.100                                                                 
     1     -4.0817478     23  1.100                                                                 
  local pseudopotential read in
  atomic valenz-charges read in
  non local Contribution for L=           0  read in
    real space projection operators read in
  non local Contribution for L=           0  read in
    real space projection operators read in
  non local Contribution for L=           1  read in
    real space projection operators read in
    PAW grid and wavefunctions read in

   number of l-projection  operators is LMAX  =           3
   number of lm-projection operators is LMMAX =           5

 Optimization of the real space projectors (new method)

 maximal supplied QI-value         = 25.89
 optimisation between [QCUT,QGAM] = [ 11.65, 23.30] = [ 38.01,152.03] Ry 
 Optimized for a Real-space Cutoff    1.11 Angstroem

   l    n(q)    QCUT    max X(q) W(low)/X(q) W(high)/X(q)  e(spline) 
   0      8    11.650     6.352    0.47E-04    0.32E-05    0.39E-07
   0      8    11.650    12.451    0.76E-04    0.11E-04    0.81E-07
   1      7    11.650     1.851    0.24E-04    0.24E-04    0.57E-07
   1      7    11.650     2.565    0.24E-03    0.55E-03    0.17E-06
 Optimization of the real space projectors (new method)

 maximal supplied QI-value         = 16.25
 optimisation between [QCUT,QGAM] = [ 11.54, 23.24] = [ 37.28,151.24] Ry 
 Optimized for a Real-space Cutoff    1.36 Angstroem

   l    n(q)    QCUT    max X(q) W(low)/X(q) W(high)/X(q)  e(spline) 
   0      9    11.539    19.000    0.40E-04    0.50E-04    0.84E-07
   0      9    11.539     9.057    0.48E-04    0.60E-04    0.10E-06
   1      9    11.539   125.345    0.24E-03    0.13E-04    0.15E-06
   1      9    11.539    79.963    0.24E-03    0.12E-04    0.14E-06
   2      9    11.539     6.963    0.31E-04    0.10E-03    0.57E-07
 Optimization of the real space projectors (new method)

 maximal supplied QI-value         = 19.84
 optimisation between [QCUT,QGAM] = [ 11.51, 23.22] = [ 37.09,150.92] Ry 
 Optimized for a Real-space Cutoff    1.21 Angstroem

   l    n(q)    QCUT    max X(q) W(low)/X(q) W(high)/X(q)  e(spline) 
   0      8    11.508   187.594    0.96E-04    0.18E-03    0.54E-07
   0      8    11.508   164.243    0.96E-04    0.18E-03    0.54E-07
   1      8    11.508    67.533    0.18E-03    0.65E-04    0.94E-07
   1      8    11.508    50.729    0.18E-03    0.63E-04    0.92E-07
 Optimization of the real space projectors (new method)

 maximal supplied QI-value         = 24.76
 optimisation between [QCUT,QGAM] = [ 11.64, 23.27] = [ 37.91,151.63] Ry 
 Optimized for a Real-space Cutoff    1.14 Angstroem

   l    n(q)    QCUT    max X(q) W(low)/X(q) W(high)/X(q)  e(spline) 
   0      8    11.635    20.381    0.10E-03    0.33E-03    0.24E-06
   0      8    11.635    15.268    0.11E-03    0.35E-03    0.26E-06
   1      7    11.635     5.964    0.24E-03    0.31E-03    0.30E-06
   1      7    11.635     5.382    0.22E-03    0.25E-03    0.26E-06
 Optimization of the real space projectors (new method)

 maximal supplied QI-value         = 34.20
 optimisation between [QCUT,QGAM] = [ 11.63, 23.26] = [ 37.87,151.49] Ry 
 Optimized for a Real-space Cutoff    1.21 Angstroem

   l    n(q)    QCUT    max X(q) W(low)/X(q) W(high)/X(q)  e(spline) 
   0      8    11.629    19.460    0.17E-03    0.34E-03    0.21E-06
   0      8    11.629    12.209    0.16E-03    0.33E-03    0.21E-06
   1      8    11.629     4.655    0.18E-03    0.16E-03    0.26E-06
  PAW_PBE Na_sv 28Sep2000               :
 energy of atom  1       EATOM=-1307.8686
 kinetic energy error for atom=    1.0320 (will be added to EATOM!!)
  PAW_PBE Sb 06Sep2000                  :
 energy of atom  2       EATOM= -149.9515
 kinetic energy error for atom=    0.0005 (will be added to EATOM!!)
  PAW_PBE S 06Sep2000                   :
 energy of atom  3       EATOM= -276.8230
 kinetic energy error for atom=    0.0016 (will be added to EATOM!!)
  PAW_PBE O 08Apr2002                   :
 energy of atom  4       EATOM= -432.3788
 kinetic energy error for atom=    0.0208 (will be added to EATOM!!)
  PAW_PBE H 15Jun2001                   :
 energy of atom  5       EATOM=  -12.4884
 kinetic energy error for atom=    0.0014 (will be added to EATOM!!)


 POSCAR: Na3SbS4_9H2O
  positions in direct lattice
  velocities in cartesian coordinates
 exchange correlation table for  LEXCH =        8
   RHO(1)=    0.500       N(1)  =     2000
   RHO(2)=  100.500       N(2)  =     4000



--------------------------------------------------------------------------------------------------------


 ion  position               nearest neighbor table
   1  0.258  0.258  0.258-
   2  0.950  0.050  0.550-
   3  0.550  0.950  0.050-
   4  0.598  0.598  0.598-
   5  0.902  0.402  0.098-
   6  0.098  0.902  0.402-
   7  0.402  0.098  0.902-
   8  0.742  0.758  0.242-
   9  0.758  0.242  0.742-
  10  0.242  0.742  0.758-
  11  0.450  0.450  0.450-
  12  0.050  0.550  0.950-
  13  0.064  0.064  0.064-  92 1.87  90 2.77  94 2.77  93 2.77  39 3.05  40 3.05  38 3.05  22 3.05
                            18 3.05  20 3.05
  14  0.436  0.936  0.564-  91 1.87  95 2.77 104 2.77  98 2.77  34 3.05  37 3.05  29 3.05  27 3.05
                            19 3.05  23 3.05
  15  0.564  0.436  0.936- 103 1.87 101 2.77 100 2.77  96 2.77  32 3.05  36 3.05  31 3.05  21 3.05
                            17 3.05  26 3.05
  16  0.936  0.564  0.436-  89 1.87  97 2.77 102 2.77  99 2.77  33 3.05  35 3.05  30 3.05  28 3.05
                            24 3.05  25 3.05
  17  0.447  0.634  0.846- 105 1.36  29 2.07  15 3.05
  18  0.947  0.866  0.154- 106 1.36  30 2.07  13 3.05
  19  0.553  0.134  0.654- 107 1.36  31 2.07  14 3.05
  20  0.866  0.154  0.947- 108 1.36  32 2.07  13 3.05
  21  0.654  0.553  0.134- 109 1.36  33 2.07  15 3.05
  22  0.154  0.947  0.866- 110 1.36  34 2.07  13 3.05
  23  0.634  0.846  0.447- 111 1.36  35 2.07  14 3.05
  24  0.846  0.447  0.634- 112 1.36  36 2.07  16 3.05
  25  0.134  0.654  0.553- 113 1.36  37 2.07  16 3.05
  26  0.366  0.346  0.053- 114 1.36  38 2.07  15 3.05
  27  0.346  0.053  0.366- 115 1.36  39 2.07  14 3.05
  28  0.053  0.366  0.346- 116 1.36  40 2.07  16 3.05
  29  0.454  0.762  0.739-  98 1.57  17 2.07  82 2.68  14 3.05
  30  0.954  0.738  0.261-  99 1.57  18 2.07  81 2.68  16 3.05
  31  0.546  0.262  0.761-  96 1.57  19 2.07  84 2.68  15 3.05
  32  0.738  0.261  0.954- 101 1.57  20 2.07  79 2.68  15 3.05
  33  0.761  0.546  0.262-  97 1.57  21 2.07  83 2.68  16 3.05
  34  0.261  0.954  0.738-  95 1.57  22 2.07  51 2.68  14 3.05
  35  0.762  0.739  0.454- 102 1.57  23 2.07  78 2.68  16 3.05
  36  0.739  0.454  0.762- 100 1.57  24 2.07  80 2.68  15 3.05
  37  0.262  0.761  0.546- 104 1.57  25 2.07  77 2.68  14 3.05
  38  0.238  0.239  0.046-  90 1.57  26 2.07  85 2.68  13 3.05
  39  0.239  0.046  0.238-  94 1.57  27 2.07  87 2.68  13 3.05
  40  0.046  0.238  0.239-  93 1.57  28 2.07  86 2.68  13 3.05
  41  0.335  0.277  0.609-  53 1.98  84 2.48
  42  0.835  0.223  0.391-  54 1.98  86 2.48
  43  0.665  0.777  0.891-  55 1.98  82 2.48
  44  0.223  0.391  0.835-  56 1.98  85 2.48
  45  0.891  0.665  0.777-  57 1.98  80 2.48
  46  0.391  0.835  0.223-  58 1.98  87 2.48
  47  0.277  0.609  0.335-  59 1.98  77 2.48
  48  0.609  0.335  0.277-  60 1.98  83 2.48
  49  0.777  0.891  0.665-  61 1.98  78 2.48
  50  0.723  0.109  0.165-  62 1.98  79 2.48
  51  0.202  0.076  0.569- 137 1.42  73 2.00  52 2.48  34 2.68
  52  0.109  0.165  0.723-  63 1.98  51 2.48
  53  0.240  0.366  0.515- 117 1.39  41 1.98
  54  0.740  0.134  0.485- 118 1.39  42 1.98
  55  0.760  0.866  0.985- 119 1.39  43 1.98
  56  0.134  0.485  0.740- 120 1.39  44 1.98
  57  0.985  0.760  0.866- 121 1.39  45 1.98
  58  0.485  0.740  0.134- 122 1.39  46 1.98
  59  0.366  0.515  0.240- 123 1.39  47 1.98
  60  0.515  0.240  0.366- 124 1.39  48 1.98
  61  0.866  0.985  0.760- 125 1.39  49 1.98
  62  0.634  0.015  0.260- 126 1.39  50 1.98
  63  0.015  0.260  0.634- 127 1.39  52 1.98
  64  0.260  0.634  0.015- 128 1.39  88 1.98
  65  0.558  0.629  0.355-  77 2.00
  66  0.058  0.871  0.645-  78 2.00
  67  0.442  0.129  0.145-  79 2.00
  68  0.871  0.645  0.058-  80 2.00
  69  0.145  0.442  0.129-  81 2.00
  70  0.645  0.058  0.871-  82 2.00
  71  0.629  0.355  0.558-  83 2.00
  72  0.355  0.558  0.629-  84 2.00
  73  0.129  0.145  0.442-  51 2.00
  74  0.371  0.855  0.942-  87 2.00
  75  0.855  0.942  0.371-  86 2.00
  76  0.942  0.371  0.855-  85 2.00
  77  0.431  0.702  0.424- 129 1.42  65 2.00  47 2.48  37 2.68
  78  0.931  0.798  0.576- 130 1.42  66 2.00  49 2.48  35 2.68
  79  0.569  0.202  0.076- 131 1.42  67 2.00  50 2.48  32 2.68
  80  0.798  0.576  0.931- 132 1.42  68 2.00  45 2.48  36 2.68
  81  0.076  0.569  0.202- 133 1.42  69 2.00  88 2.48  30 2.68
  82  0.576  0.931  0.798- 134 1.42  70 2.00  43 2.48  29 2.68
  83  0.702  0.424  0.431- 135 1.42  71 2.00  48 2.48  33 2.68
  84  0.424  0.431  0.702- 136 1.42  72 2.00  41 2.48  31 2.68
  85  0.069  0.298  0.924- 140 1.42  76 2.00  44 2.48  38 2.68
  86  0.924  0.069  0.298- 139 1.42  75 2.00  42 2.48  40 2.68
  87  0.298  0.924  0.069- 138 1.42  74 2.00  46 2.48  39 2.68
  88  0.165  0.723  0.109-  64 1.98  81 2.48
  89  0.023  0.477  0.523-  16 1.87
  90  0.244  0.146  0.958-  38 1.57  13 2.77
  91  0.523  0.023  0.477-  14 1.87
  92  0.977  0.977  0.977-  13 1.87
  93  0.958  0.244  0.146-  40 1.57  13 2.77
  94  0.146  0.958  0.244-  39 1.57  13 2.77
  95  0.354  0.042  0.744-  34 1.57  14 2.77
  96  0.458  0.256  0.854-  31 1.57  15 2.77
  97  0.854  0.458  0.256-  33 1.57  16 2.77
  98  0.542  0.756  0.646-  29 1.57  14 2.77
  99  0.042  0.744  0.354-  30 1.57  16 2.77
 100  0.646  0.542  0.756-  36 1.57  15 2.77
 101  0.744  0.354  0.042-  32 1.57  15 2.77
 102  0.756  0.646  0.542-  35 1.57  16 2.77
 103  0.477  0.523  0.023-  15 1.87
 104  0.256  0.854  0.458-  37 1.57  14 2.77
 105  0.503  0.683  0.927-  17 1.36
 106  0.003  0.817  0.073-  18 1.36
 107  0.497  0.183  0.573-  19 1.36
 108  0.817  0.073  0.003-  20 1.36
 109  0.573  0.497  0.183-  21 1.36
 110  0.073  0.003  0.817-  22 1.36
 111  0.683  0.927  0.503-  23 1.36
 112  0.927  0.503  0.683-  24 1.36
 113  0.183  0.573  0.497-  25 1.36
 114  0.317  0.427  0.997-  26 1.36
 115  0.427  0.997  0.317-  27 1.36
 116  0.997  0.317  0.427-  28 1.36
 117  0.291  0.351  0.416-  53 1.39
 118  0.791  0.149  0.584-  54 1.39
 119  0.709  0.851  0.084-  55 1.39
 120  0.149  0.584  0.791-  56 1.39
 121  0.084  0.709  0.851-  57 1.39
 122  0.584  0.791  0.149-  58 1.39
 123  0.351  0.416  0.291-  59 1.39
 124  0.416  0.291  0.351-  60 1.39
 125  0.851  0.084  0.709-  61 1.39
 126  0.649  0.916  0.209-  62 1.39
 127  0.916  0.209  0.649-  63 1.39
 128  0.209  0.649  0.916-  64 1.39
 129  0.420  0.631  0.514-  77 1.42
 130  0.920  0.869  0.486-  78 1.42
 131  0.580  0.131  0.986-  79 1.42
 132  0.869  0.486  0.920-  80 1.42
 133  0.986  0.580  0.131-  81 1.42
 134  0.486  0.920  0.869-  82 1.42
 135  0.631  0.514  0.420-  83 1.42
 136  0.514  0.420  0.631-  84 1.42
 137  0.131  0.986  0.580-  51 1.42
 138  0.369  0.014  0.080-  87 1.42
 139  0.014  0.080  0.369-  86 1.42
 140  0.080  0.369  0.014-  85 1.42

  LATTYP: Found a simple cubic cell.
 ALAT       =    12.3577914894
  
  Lattice vectors:
  
 A1 = (  12.3577914894,   0.0000000000,   0.0000000000)
 A2 = (  -0.0000000000,  12.3577914894,   0.0000000000)
 A3 = (  -0.0000000000,   0.0000000000,  12.3577914894)


Analysis of symmetry for initial positions (statically):
=====================================================================
 Subroutine PRICEL returns:
 Original cell was already a primitive cell.
 

 Routine SETGRP: Setting up the symmetry group for a 
 simple cubic supercell.


 Subroutine GETGRP returns: Found 12 space group operations
 (whereof  3 operations were pure point group operations)
 out of a pool of 48 trial point group operations.


The static configuration has the point symmetry C_3 .
 The point group associated with its full space group is T   .


Analysis of symmetry for dynamics (positions and initial velocities):
=====================================================================
 Subroutine PRICEL returns:
 Original cell was already a primitive cell.
 

 Routine SETGRP: Setting up the symmetry group for a 
 simple cubic supercell.


 Subroutine GETGRP returns: Found 12 space group operations
 (whereof  3 operations were pure point group operations)
 out of a pool of 48 trial point group operations.


The dynamic configuration has the point symmetry C_3 .
 The point group associated with its full space group is T   .


 Subroutine INISYM returns: Found 12 space group operations
 (whereof  3 operations are pure point group operations),
 and found     1 'primitive' translations


----------------------------------------------------------------------------------------

                                     Primitive cell                                     

  volume of cell :    1887.2203

  direct lattice vectors                    reciprocal lattice vectors
    12.357791489  0.000000000  0.000000000     0.080920608  0.000000000  0.000000000
    -0.000000000 12.357791489  0.000000000     0.000000000  0.080920608 -0.000000000
    -0.000000000  0.000000000 12.357791489     0.000000000 -0.000000000  0.080920608

  length of vectors
    12.357791489 12.357791489 12.357791489     0.080920608  0.080920608  0.080920608

  position of ions in fractional coordinates (direct lattice)
     0.257989394  0.257989394  0.257989394
     0.949803321  0.050196679  0.550196679
     0.550196679  0.949803321  0.050196679
     0.597631448  0.597631448  0.597631448
     0.902368552  0.402368552  0.097631448
     0.097631448  0.902368552  0.402368552
     0.402368552  0.097631448  0.902368552
     0.742010606  0.757989394  0.242010606
     0.757989394  0.242010606  0.742010606
     0.242010606  0.742010606  0.757989394
     0.449803321  0.449803321  0.449803321
     0.050196679  0.550196679  0.949803321
     0.064142582  0.064142582  0.064142582
     0.435857418  0.935857418  0.564142582
     0.564142582  0.435857418  0.935857418
     0.935857418  0.564142582  0.435857418
     0.447239540  0.634063555  0.845973223
     0.947239540  0.865936445  0.154026777
     0.552760460  0.134063555  0.654026777
     0.865936445  0.154026777  0.947239540
     0.654026777  0.552760460  0.134063555
     0.154026777  0.947239540  0.865936445
     0.634063555  0.845973223  0.447239540
     0.845973223  0.447239540  0.634063555
     0.134063555  0.654026777  0.552760460
     0.365936445  0.345973223  0.052760460
     0.345973223  0.052760460  0.365936445
     0.052760460  0.365936445  0.345973223
     0.454315897  0.762019559  0.738511806
     0.954315897  0.737980441  0.261488194
     0.545684103  0.262019559  0.761488194
     0.737980441  0.261488194  0.954315897
     0.761488194  0.545684103  0.262019559
     0.261488194  0.954315897  0.737980441
     0.762019559  0.738511806  0.454315897
     0.738511806  0.454315897  0.762019559
     0.262019559  0.761488194  0.545684103
     0.237980441  0.238511806  0.045684103
     0.238511806  0.045684103  0.237980441
     0.045684103  0.237980441  0.238511806
     0.335486217  0.277093413  0.609082174
     0.835486217  0.222906587  0.390917826
     0.664513783  0.777093413  0.890917826
     0.222906587  0.390917826  0.835486217
     0.890917826  0.664513783  0.777093413
     0.390917826  0.835486217  0.222906587
     0.277093413  0.609082174  0.335486217
     0.609082174  0.335486217  0.277093413
     0.777093413  0.890917826  0.664513783
     0.722906587  0.109082174  0.164513783
     0.201984957  0.075878331  0.568724199
     0.109082174  0.164513783  0.722906587
     0.240377540  0.365710552  0.514933549
     0.740377540  0.134289448  0.485066451
     0.759622460  0.865710552  0.985066451
     0.134289448  0.485066451  0.740377540
     0.985066451  0.759622460  0.865710552
     0.485066451  0.740377540  0.134289448
     0.365710552  0.514933549  0.240377540
     0.514933549  0.240377540  0.365710552
     0.865710552  0.985066451  0.759622460
     0.634289448  0.014933549  0.259622460
     0.014933549  0.259622460  0.634289448
     0.259622460  0.634289448  0.014933549
     0.558030078  0.628838998  0.354722822
     0.058030078  0.871161002  0.645277178
     0.441969922  0.128838998  0.145277178
     0.871161002  0.645277178  0.058030078
     0.145277178  0.441969922  0.128838998
     0.645277178  0.058030078  0.871161002
     0.628838998  0.354722822  0.558030078
     0.354722822  0.558030078  0.628838998
     0.128838998  0.145277178  0.441969922
     0.371161002  0.854722822  0.941969922
     0.854722822  0.941969922  0.371161002
     0.941969922  0.371161002  0.854722822
     0.431275801  0.701984957  0.424121669
     0.931275801  0.798015043  0.575878331
     0.568724199  0.201984957  0.075878331
     0.798015043  0.575878331  0.931275801
     0.075878331  0.568724199  0.201984957
     0.575878331  0.931275801  0.798015043
     0.701984957  0.424121669  0.431275801
     0.424121669  0.431275801  0.701984957
     0.068724199  0.298015043  0.924121669
     0.924121669  0.068724199  0.298015043
     0.298015043  0.924121669  0.068724199
     0.164513783  0.722906587  0.109082174
     0.023407082  0.476592918  0.523407082
     0.243814993  0.146248073  0.958363073
     0.523407082  0.023407082  0.476592918
     0.976592918  0.976592918  0.976592918
     0.958363073  0.243814993  0.146248073
     0.146248073  0.958363073  0.243814993
     0.353751927  0.041636927  0.743814993
     0.458363073  0.256185007  0.853751927
     0.853751927  0.458363073  0.256185007
     0.541636927  0.756185007  0.646248073
     0.041636927  0.743814993  0.353751927
     0.646248073  0.541636927  0.756185007
     0.743814993  0.353751927  0.041636927
     0.756185007  0.646248073  0.541636927
     0.476592918  0.523407082  0.023407082
     0.256185007  0.853751927  0.458363073
     0.503370578  0.682827946  0.926680577
     0.003370578  0.817172054  0.073319423
     0.496629422  0.182827946  0.573319423
     0.817172054  0.073319423  0.003370578
     0.573319423  0.496629422  0.182827946
     0.073319423  0.003370578  0.817172054
     0.682827946  0.926680577  0.503370578
     0.926680577  0.503370578  0.682827946
     0.182827946  0.573319423  0.496629422
     0.317172054  0.426680577  0.996629422
     0.426680577  0.996629422  0.317172054
     0.996629422  0.317172054  0.426680577
     0.291175991  0.351320593  0.415702060
     0.791175991  0.148679407  0.584297940
     0.708824009  0.851320593  0.084297940
     0.148679407  0.584297940  0.791175991
     0.084297940  0.708824009  0.851320593
     0.584297940  0.791175991  0.148679407
     0.351320593  0.415702060  0.291175991
     0.415702060  0.291175991  0.351320593
     0.851320593  0.084297940  0.708824009
     0.648679407  0.915702060  0.208824009
     0.915702060  0.208824009  0.648679407
     0.208824009  0.648679407  0.915702060
     0.420357397  0.630839642  0.514153317
     0.920357397  0.869160358  0.485846683
     0.579642603  0.130839642  0.985846683
     0.869160358  0.485846683  0.920357397
     0.985846683  0.579642603  0.130839642
     0.485846683  0.920357397  0.869160358
     0.630839642  0.514153317  0.420357397
     0.514153317  0.420357397  0.630839642
     0.130839642  0.985846683  0.579642603
     0.369160358  0.014153317  0.079642603
     0.014153317  0.079642603  0.369160358
     0.079642603  0.369160358  0.014153317

  ion indices of the primitive-cell ions
   primitive index   ion index
                 1           1
                 2           2
                 3           3
                 4           4
                 5           5
                 6           6
                 7           7
                 8           8
                 9           9
                10          10
                11          11
                12          12
                13          13
                14          14
                15          15
                16          16
                17          17
                18          18
                19          19
                20          20
                21          21
                22          22
                23          23
                24          24
                25          25
                26          26
                27          27
                28          28
                29          29
                30          30
                31          31
                32          32
                33          33
                34          34
                35          35
                36          36
                37          37
                38          38
                39          39
                40          40
                41          41
                42          42
                43          43
                44          44
                45          45
                46          46
                47          47
                48          48
                49          49
                50          50
                51          51
                52          52
                53          53
                54          54
                55          55
                56          56
                57          57
                58          58
                59          59
                60          60
                61          61
                62          62
                63          63
                64          64
                65          65
                66          66
                67          67
                68          68
                69          69
                70          70
                71          71
                72          72
                73          73
                74          74
                75          75
                76          76
                77          77
                78          78
                79          79
                80          80
                81          81
                82          82
                83          83
                84          84
                85          85
                86          86
                87          87
                88          88
                89          89
                90          90
                91          91
                92          92
                93          93
                94          94
                95          95
                96          96
                97          97
                98          98
                99          99
               100         100
               101         101
               102         102
               103         103
               104         104
               105         105
               106         106
               107         107
               108         108
               109         109
               110         110
               111         111
               112         112
               113         113
               114         114
               115         115
               116         116
               117         117
               118         118
               119         119
               120         120
               121         121
               122         122
               123         123
               124         124
               125         125
               126         126
               127         127
               128         128
               129         129
               130         130
               131         131
               132         132
               133         133
               134         134
               135         135
               136         136
               137         137
               138         138
               139         139
               140         140

----------------------------------------------------------------------------------------



 KPOINTS: Automatic mesh                          

Automatic generation of k-mesh.
 Grid dimensions read from file:
 generate k-points for:    3    3    3

 Generating k-lattice:

  Cartesian coordinates                     Fractional coordinates (reciprocal lattice)
     0.026973536  0.000000000  0.000000000     0.333333333  0.000000000  0.000000000
     0.000000000  0.026973536 -0.000000000     0.000000000  0.333333333  0.000000000
     0.000000000 -0.000000000  0.026973536     0.000000000  0.000000000  0.333333333

  Length of vectors
     0.026973536  0.026973536  0.026973536

  Shift w.r.t. Gamma in fractional coordinates (k-lattice)
     0.000000000  0.000000000  0.000000000

 
 Subroutine IBZKPT returns following result:
 ===========================================
 
 Found      4 irreducible k-points:
 
 Following reciprocal coordinates:
            Coordinates               Weight
  0.000000  0.000000  0.000000      1.000000
  0.333333  0.000000  0.000000      6.000000
  0.333333  0.333333  0.000000     12.000000
  0.333333  0.333333  0.333333      8.000000
 
 Following cartesian coordinates:
            Coordinates               Weight
  0.000000  0.000000  0.000000      1.000000
  0.026974  0.000000  0.000000      6.000000
  0.026974  0.026974  0.000000     12.000000
  0.026974  0.026974  0.026974      8.000000
 


--------------------------------------------------------------------------------------------------------




 Dimension of arrays:
   k-points           NKPTS =      4   k-points in BZ     NKDIM =      4   number of bands    NBANDS=    448
   number of dos      NEDOS =   2000   number of ions     NIONS =    140
   non local maximal  LDIM  =      5   non local SUM 2l+1 LMDIM =     13
   total plane-waves  NPLWV = 884736
   max r-space proj   IRMAX =   5019   max aug-charges    IRDMAX=  26213
   dimension x,y,z NGX =    96 NGY =   96 NGZ =   96
   dimension x,y,z NGXF=   192 NGYF=  192 NGZF=  192
   support grid    NGXF=   192 NGYF=  192 NGZF=  192
   ions per type =              12   4  72  16  36
   NGX,Y,Z   is equivalent  to a cutoff of  12.91, 12.91, 12.91 a.u.
   NGXF,Y,Z  is equivalent  to a cutoff of  25.83, 25.83, 25.83 a.u.

 SYSTEM =  static                                  
 POSCAR =  Na3SbS4_9H2O                            

 Startparameter for this run:
   NWRITE =      2    write-flag & timer
   PREC   = accura    normal or accurate (medium, high low for compatibility)
   ISTART =      0    job   : 0-new  1-cont  2-samecut
   ICHARG =      1    charge: 1-file 2-atom 10-const
   ISPIN  =      1    spin polarized calculation?
   LNONCOLLINEAR =      F non collinear calculations
   LSORBIT =      F    spin-orbit coupling
   INIWAV =      1    electr: 0-lowe 1-rand  2-diag
   LASPH  =      T    aspherical Exc in radial PAW
 Electronic Relaxation 1
   ENCUT  =  520.0 eV  38.22 Ry    6.18 a.u.  22.98 22.98 22.98*2*pi/ulx,y,z
   ENINI  =  520.0     initial cutoff
   ENAUG  =  698.0 eV  augmentation charge cutoff
   NELM   =     60;   NELMIN=  2; NELMDL=  0     # of ELM steps 
   EDIFF  = 0.1E-05   stopping-criterion for ELM
   LREAL  =      T    real-space projection
   NLSPLINE    = F    spline interpolate recip. space projectors
   LCOMPAT=      F    compatible to vasp.4.4
   GGA_COMPAT  = T    GGA compatible to vasp.4.4-vasp.4.6
   LMAXPAW     = -100 max onsite density
   LMAXMIX     =    2 max onsite mixed and CHGCAR
   VOSKOWN=      0    Vosko Wilk Nusair interpolation
   ROPT   =   -0.00025  -0.00025  -0.00025  -0.00025
   ROPT   =   -0.00025
 Ionic relaxation
   EDIFFG = 0.1E-04   stopping-criterion for IOM
   NSW    =      0    number of steps for IOM
   NBLOCK =      1;   KBLOCK =      1    inner block; outer block 
   IBRION =     -1    ionic relax: 0-MD 1-quasi-New 2-CG
   NFREE  =      0    steps in history (QN), initial steepest desc. (CG)
   ISIF   =      2    stress and relaxation
   IWAVPR =     10    prediction:  0-non 1-charg 2-wave 3-comb
   ISYM   =      2    0-nonsym 1-usesym 2-fastsym
   LCORR  =      T    Harris-Foulkes like correction to forces

   POTIM  = 0.5000    time-step for ionic-motion
   TEIN   =    0.0    initial temperature
   TEBEG  =    0.0;   TEEND  =   0.0 temperature during run
   SMASS  =  -3.00    Nose mass-parameter (am)
   estimated Nose-frequenzy (Omega)   =  0.10E-29 period in steps = 0.13E+47 mass=  -0.349E-26a.u.
   SCALEE = 1.0000    scale energy and forces
   NPACO  =    256;   APACO  = 10.0  distance and # of slots for P.C.
   PSTRESS=    0.0 pullay stress

  Mass of Ions in am
   POMASS =  22.99121.75 32.07 16.00  1.00
  Ionic Valenz
   ZVAL   =   9.00  5.00  6.00  6.00  1.00
  Atomic Wigner-Seitz radii
   RWIGS  =  -1.00 -1.00 -1.00 -1.00 -1.00
  virtual crystal weights 
   VCA    =   1.00  1.00  1.00  1.00  1.00
   NELECT =     692.0000    total number of electrons
   NUPDOWN=      -1.0000    fix difference up-down

 DOS related values:
   EMIN   =  10.00;   EMAX   =-10.00  energy-range for DOS
   EFERMI =   0.00
   ISMEAR =     0;   SIGMA  =   0.05  broadening in eV -4-tet -1-fermi 0-gaus

 Electronic relaxation 2 (details)
   IALGO  =     38    algorithm
   LDIAG  =      T    sub-space diagonalisation (order eigenvalues)
   LSUBROT=      F    optimize rotation matrix (better conditioning)
   TURBO    =      0    0=normal 1=particle mesh
   IRESTART =      0    0=no restart 2=restart with 2 vectors
   NREBOOT  =      0    no. of reboots
   NMIN     =      0    reboot dimension
   EREF     =   0.00    reference energy to select bands
   IMIX   =      4    mixing-type and parameters
     AMIX     =   0.40;   BMIX     =  1.00
     AMIX_MAG =   1.60;   BMIX_MAG =  1.00
     AMIN     =   0.10
     WC   =   100.;   INIMIX=   1;  MIXPRE=   1;  MAXMIX= -45

 Intra band minimization:
   WEIMIN = 0.0000     energy-eigenvalue tresh-hold
   EBREAK =  0.56E-09  absolut break condition
   DEPER  =   0.30     relativ break condition  

   TIME   =   0.40     timestep for ELM

  volume/ion in A,a.u.               =      13.48        90.97
  Fermi-wavevector in a.u.,A,eV,Ry     =   1.171753  2.214292 18.680862  1.373005
  Thomas-Fermi vector in A             =   2.308192

 Write flags
   LWAVE        =      T    write WAVECAR
   LDOWNSAMPLE  =      F    k-point downsampling of WAVECAR
   LCHARG       =      T    write CHGCAR
   LVTOT        =      F    write LOCPOT, total local potential
   LVHAR        =      F    write LOCPOT, Hartree potential only
   LELF         =      F    write electronic localiz. function (ELF)
   LORBIT       =     11    0 simple, 1 ext, 2 COOP (PROOUT), +10 PAW based schemes


 Dipole corrections
   LMONO  =      F    monopole corrections only (constant potential shift)
   LDIPOL =      F    correct potential (dipole corrections)
   IDIPOL =      0    1-x, 2-y, 3-z, 4-all directions 
   EPSILON=  1.0000000 bulk dielectric constant

 Exchange correlation treatment:
   GGA     =    --    GGA type
   LEXCH   =     8    internal setting for exchange type
   LIBXC   =     F    Libxc                    
   VOSKOWN =     0    Vosko Wilk Nusair interpolation
   LHFCALC =     F    Hartree Fock is set to
   LHFONE  =     F    Hartree Fock one center treatment
   AEXX    =    0.0000 exact exchange contribution

 Linear response parameters
   LEPSILON=     F    determine dielectric tensor
   LRPA    =     F    only Hartree local field effects (RPA)
   LNABLA  =     F    use nabla operator in PAW spheres
   LVEL    =     F    velocity operator in full k-point grid
   CSHIFT  =0.1000    complex shift for real part using Kramers Kronig
   OMEGAMAX=  -1.0    maximum frequency
   DEG_THRESHOLD= 0.2000000E-02 threshold for treating states as degnerate
   RTIME   =   -0.100 relaxation time in fs
  (WPLASMAI=    0.000 imaginary part of plasma frequency in eV, 0.658/RTIME)
   DFIELD  = 0.0000000 0.0000000 0.0000000 field for delta impulse in time

  Optional k-point grid parameters
   LKPOINTS_OPT  =     F    use optional k-point grid
   KPOINTS_OPT_MODE=     1    mode for optional k-point grid

 Orbital magnetization related:
   ORBITALMAG=     F  switch on orbital magnetization
   LCHIMAG   =     F  perturbation theory with respect to B field
   DQ        =  0.001000  dq finite difference perturbation B field
   LLRAUG    =     F  two centre corrections for induced B field



--------------------------------------------------------------------------------------------------------


 Static calculation
 charge density and potential will be updated during run
 non-spin polarized calculation
 Variant of blocked Davidson
 Davidson routine will perform the subspace rotation
 perform sub-space diagonalisation
    after iterative eigenvector-optimisation
 modified Broyden-mixing scheme, WC =      100.0
 initial mixing is a Kerker type mixing with AMIX =  0.4000 and BMIX =      1.0000
 Hartree-type preconditioning will be used
 using additional bands          102
 real space projection scheme for non local part
 use partial core corrections
 calculate Harris-corrections to forces   (improved forces if not selfconsistent)
 use gradient corrections 
 use of overlap-Matrix (Vanderbilt PP)
 Gauss-broadening in eV      SIGMA  =   0.05


--------------------------------------------------------------------------------------------------------


  energy-cutoff  :      520.00
  volume of cell :     1887.22
      direct lattice vectors                 reciprocal lattice vectors
    12.357791489  0.000000000  0.000000000     0.080920608  0.000000000  0.000000000
    -0.000000000 12.357791489  0.000000000     0.000000000  0.080920608 -0.000000000
    -0.000000000  0.000000000 12.357791489     0.000000000 -0.000000000  0.080920608

  length of vectors
    12.357791489 12.357791489 12.357791489     0.080920608  0.080920608  0.080920608



 k-points in units of 2pi/SCALE and weight: Automatic mesh                          
   0.00000000  0.00000000  0.00000000       0.037
   0.02697354  0.00000000  0.00000000       0.222
   0.02697354  0.02697354  0.00000000       0.444
   0.02697354  0.02697354  0.02697354       0.296

 k-points in reciprocal lattice and weights: Automatic mesh                          
   0.00000000  0.00000000  0.00000000       0.037
   0.33333333  0.00000000  0.00000000       0.222
   0.33333333  0.33333333  0.00000000       0.444
   0.33333333  0.33333333  0.33333333       0.296

 position of ions in fractional coordinates (direct lattice) 
   0.25798939  0.25798939  0.25798939
   0.94980332  0.05019668  0.55019668
   0.55019668  0.94980332  0.05019668
   0.59763145  0.59763145  0.59763145
   0.90236855  0.40236855  0.09763145
   0.09763145  0.90236855  0.40236855
   0.40236855  0.09763145  0.90236855
   0.74201061  0.75798939  0.24201061
   0.75798939  0.24201061  0.74201061
   0.24201061  0.74201061  0.75798939
   0.44980332  0.44980332  0.44980332
   0.05019668  0.55019668  0.94980332
   0.06414258  0.06414258  0.06414258
   0.43585742  0.93585742  0.56414258
   0.56414258  0.43585742  0.93585742
   0.93585742  0.56414258  0.43585742
   0.44723954  0.63406356  0.84597322
   0.94723954  0.86593644  0.15402678
   0.55276046  0.13406356  0.65402678
   0.86593644  0.15402678  0.94723954
   0.65402678  0.55276046  0.13406356
   0.15402678  0.94723954  0.86593644
   0.63406356  0.84597322  0.44723954
   0.84597322  0.44723954  0.63406356
   0.13406356  0.65402678  0.55276046
   0.36593644  0.34597322  0.05276046
   0.34597322  0.05276046  0.36593644
   0.05276046  0.36593644  0.34597322
   0.45431590  0.76201956  0.73851181
   0.95431590  0.73798044  0.26148819
   0.54568410  0.26201956  0.76148819
   0.73798044  0.26148819  0.95431590
   0.76148819  0.54568410  0.26201956
   0.26148819  0.95431590  0.73798044
   0.76201956  0.73851181  0.45431590
   0.73851181  0.45431590  0.76201956
   0.26201956  0.76148819  0.54568410
   0.23798044  0.23851181  0.04568410
   0.23851181  0.04568410  0.23798044
   0.04568410  0.23798044  0.23851181
   0.33548622  0.27709341  0.60908217
   0.83548622  0.22290659  0.39091783
   0.66451378  0.77709341  0.89091783
   0.22290659  0.39091783  0.83548622
   0.89091783  0.66451378  0.77709341
   0.39091783  0.83548622  0.22290659
   0.27709341  0.60908217  0.33548622
   0.60908217  0.33548622  0.27709341
   0.77709341  0.89091783  0.66451378
   0.72290659  0.10908217  0.16451378
   0.20198496  0.07587833  0.56872420
   0.10908217  0.16451378  0.72290659
   0.24037754  0.36571055  0.51493355
   0.74037754  0.13428945  0.48506645
   0.75962246  0.86571055  0.98506645
   0.13428945  0.48506645  0.74037754
   0.98506645  0.75962246  0.86571055
   0.48506645  0.74037754  0.13428945
   0.36571055  0.51493355  0.24037754
   0.51493355  0.24037754  0.36571055
   0.86571055  0.98506645  0.75962246
   0.63428945  0.01493355  0.25962246
   0.01493355  0.25962246  0.63428945
   0.25962246  0.63428945  0.01493355
   0.55803008  0.62883900  0.35472282
   0.05803008  0.87116100  0.64527718
   0.44196992  0.12883900  0.14527718
   0.87116100  0.64527718  0.05803008
   0.14527718  0.44196992  0.12883900
   0.64527718  0.05803008  0.87116100
   0.62883900  0.35472282  0.55803008
   0.35472282  0.55803008  0.62883900
   0.12883900  0.14527718  0.44196992
   0.37116100  0.85472282  0.94196992
   0.85472282  0.94196992  0.37116100
   0.94196992  0.37116100  0.85472282
   0.43127580  0.70198496  0.42412167
   0.93127580  0.79801504  0.57587833
   0.56872420  0.20198496  0.07587833
   0.79801504  0.57587833  0.93127580
   0.07587833  0.56872420  0.20198496
   0.57587833  0.93127580  0.79801504
   0.70198496  0.42412167  0.43127580
   0.42412167  0.43127580  0.70198496
   0.06872420  0.29801504  0.92412167
   0.92412167  0.06872420  0.29801504
   0.29801504  0.92412167  0.06872420
   0.16451378  0.72290659  0.10908217
   0.02340708  0.47659292  0.52340708
   0.24381499  0.14624807  0.95836307
   0.52340708  0.02340708  0.47659292
   0.97659292  0.97659292  0.97659292
   0.95836307  0.24381499  0.14624807
   0.14624807  0.95836307  0.24381499
   0.35375193  0.04163693  0.74381499
   0.45836307  0.25618501  0.85375193
   0.85375193  0.45836307  0.25618501
   0.54163693  0.75618501  0.64624807
   0.04163693  0.74381499  0.35375193
   0.64624807  0.54163693  0.75618501
   0.74381499  0.35375193  0.04163693
   0.75618501  0.64624807  0.54163693
   0.47659292  0.52340708  0.02340708
   0.25618501  0.85375193  0.45836307
   0.50337058  0.68282795  0.92668058
   0.00337058  0.81717205  0.07331942
   0.49662942  0.18282795  0.57331942
   0.81717205  0.07331942  0.00337058
   0.57331942  0.49662942  0.18282795
   0.07331942  0.00337058  0.81717205
   0.68282795  0.92668058  0.50337058
   0.92668058  0.50337058  0.68282795
   0.18282795  0.57331942  0.49662942
   0.31717205  0.42668058  0.99662942
   0.42668058  0.99662942  0.31717205
   0.99662942  0.31717205  0.42668058
   0.29117599  0.35132059  0.41570206
   0.79117599  0.14867941  0.58429794
   0.70882401  0.85132059  0.08429794
   0.14867941  0.58429794  0.79117599
   0.08429794  0.70882401  0.85132059
   0.58429794  0.79117599  0.14867941
   0.35132059  0.41570206  0.29117599
   0.41570206  0.29117599  0.35132059
   0.85132059  0.08429794  0.70882401
   0.64867941  0.91570206  0.20882401
   0.91570206  0.20882401  0.64867941
   0.20882401  0.64867941  0.91570206
   0.42035740  0.63083964  0.51415332
   0.92035740  0.86916036  0.48584668
   0.57964260  0.13083964  0.98584668
   0.86916036  0.48584668  0.92035740
   0.98584668  0.57964260  0.13083964
   0.48584668  0.92035740  0.86916036
   0.63083964  0.51415332  0.42035740
   0.51415332  0.42035740  0.63083964
   0.13083964  0.98584668  0.57964260
   0.36916036  0.01415332  0.07964260
   0.01415332  0.07964260  0.36916036
   0.07964260  0.36916036  0.01415332

 position of ions in cartesian coordinates  (Angst):
   3.18817913  3.18817913  3.18817913
  11.73747140  0.62032009  6.79921584
   6.79921584 11.73747140  0.62032009
   7.38540482  7.38540482  7.38540482
  11.15128242  4.97238667  1.20650907
   1.20650907 11.15128242  4.97238667
   4.97238667  1.20650907 11.15128242
   9.16961236  9.36707488  2.99071661
   9.36707488  2.99071661  9.16961236
   2.99071661  9.16961236  9.36707488
   5.55857565  5.55857565  5.55857565
   0.62032009  6.79921584 11.73747140
   0.79266065  0.79266065  0.79266065
   5.38623510 11.56513084  6.97155639
   6.97155639  5.38623510 11.56513084
  11.56513084  6.97155639  5.38623510
   5.52689298  7.83562521 10.45436069
  11.70578873 10.70106203  1.90343080
   6.83089851  1.65672946  8.08232654
  10.70106203  1.90343080 11.70578873
   8.08232654  6.83089851  1.65672946
   1.90343080 11.70578873 10.70106203
   7.83562521 10.45436069  5.52689298
  10.45436069  5.52689298  7.83562521
   1.65672946  8.08232654  6.83089851
   4.52216628  4.27546494  0.65200276
   4.27546494  0.65200276  4.52216628
   0.65200276  4.52216628  4.27546494
   5.61434113  9.41687883  9.12637491
  11.79323687  9.11980841  3.23141658
   6.74345036  3.23798308  9.41031232
   9.11980841  3.23141658 11.79323687
   9.41031232  6.74345036  3.23798308
   3.23141658 11.79323687  9.11980841
   9.41687883  9.12637491  5.61434113
   9.12637491  5.61434113  9.41687883
   3.23798308  9.41031232  6.74345036
   2.94091266  2.94747917  0.56455462
   2.94747917  0.56455462  2.94091266
   0.56455462  2.94091266  2.94747917
   4.14586872  3.42426262  7.52691051
  10.32476447  2.75463313  4.83088098
   8.21192277  9.60315836 11.00977673
   2.75463313  4.83088098 10.32476447
  11.00977673  8.21192277  9.60315836
   4.83088098 10.32476447  2.75463313
   3.42426262  7.52691051  4.14586872
   7.52691051  4.14586872  3.42426262
   9.60315836 11.00977673  8.21192277
   8.93352887  1.34801476  2.03302702
   2.49608799  0.93768859  7.02817506
   1.34801476  2.03302702  8.93352887
   2.97053552  4.51937475  6.36344143
   9.14943127  1.65952099  5.99435006
   9.38725597 10.69827050 12.17324580
   1.65952099  5.99435006  9.14943127
  12.17324580  9.38725597 10.69827050
   5.99435006  9.14943127  1.65952099
   4.51937475  6.36344143  2.97053552
   6.36344143  2.97053552  4.51937475
  10.69827050 12.17324580  9.38725597
   7.83841674  0.18454569  3.20836022
   0.18454569  3.20836022  7.83841674
   3.20836022  7.83841674  0.18454569
   6.89601934  7.77106121  4.38359067
   0.71712360 10.76562602  7.97420082
   5.46177214  1.59216547  1.79530507
  10.76562602  7.97420082  0.71712360
   1.79530507  5.46177214  1.59216547
   7.97420082  0.71712360 10.76562602
   7.77106121  4.38359067  6.89601934
   4.38359067  6.89601934  7.77106121
   1.59216547  1.79530507  5.46177214
   4.58673028 10.56248641 11.64066789
  10.56248641 11.64066789  4.58673028
  11.64066789  4.58673028 10.56248641
   5.32961643  8.67498373  5.24120715
  11.50851217  9.86170350  7.11658434
   7.02817506  2.49608799  0.93768859
   9.86170350  7.11658434 11.50851217
   0.93768859  7.02817506  2.49608799
   7.11658434 11.50851217  9.86170350
   8.67498373  5.24120715  5.32961643
   5.24120715  5.32961643  8.67498373
   0.84927932  3.68280776 11.42010289
  11.42010289  0.84927932  3.68280776
   3.68280776 11.42010289  0.84927932
   2.03302702  8.93352887  1.34801476
   0.28925983  5.88963591  6.46815558
   3.01301484  1.80730319 11.84325103
   6.46815558  0.28925983  5.88963591
  12.06853166 12.06853166 12.06853166
  11.84325103  3.01301484  1.80730319
   1.80730319 11.84325103  3.01301484
   4.37159256  0.51454046  9.19191059
   5.66435528  3.16588090 10.55048830
  10.55048830  5.66435528  3.16588090
   6.69343621  9.34477665  7.98619893
   0.51454046  9.19191059  4.37159256
   7.98619893  6.69343621  9.34477665
   9.19191059  4.37159256  0.51454046
   9.34477665  7.98619893  6.69343621
   5.88963591  6.46815558  0.28925983
   3.16588090 10.55048830  5.66435528
   6.22054864  8.43824538 11.45172535
   0.04165290 10.09844185  0.90606614
   6.13724285  2.25934964  7.08496188
  10.09844185  0.90606614  0.04165290
   7.08496188  6.13724285  2.25934964
   0.90606614  0.04165290 10.09844185
   8.43824538 11.45172535  6.22054864
  11.45172535  6.22054864  8.43824538
   2.25934964  7.08496188  6.13724285
   3.91954611  5.27282961 12.31613859
   5.27282961 12.31613859  3.91954611
  12.31613859  3.91954611  5.27282961
   3.59829218  4.34154664  5.13715937
   9.77718793  1.83734911  7.22063212
   8.75949931 10.52044238  1.04173637
   1.83734911  7.22063212  9.77718793
   1.04173637  8.75949931 10.52044238
   7.22063212  9.77718793  1.83734911
   4.34154664  5.13715937  3.59829218
   5.13715937  3.59829218  4.34154664
  10.52044238  1.04173637  8.75949931
   8.01624485 11.31605512  2.58060356
  11.31605512  2.58060356  8.01624485
   2.58060356  8.01624485 11.31605512
   5.19468906  7.79578476  6.35379949
  11.37358481 10.74090247  6.00399200
   7.16310243  1.61688901 12.18288775
  10.74090247  6.00399200 11.37358481
  12.18288775  7.16310243  1.61688901
   6.00399200 11.37358481 10.74090247
   7.79578476  6.35379949  5.19468906
   6.35379949  5.19468906  7.79578476
   1.61688901 12.18288775  7.16310243
   4.56200673  0.17490374  0.98420668
   0.17490374  0.98420668  4.56200673
   0.98420668  4.56200673  0.17490374



--------------------------------------------------------------------------------------------------------


 k-point   1 :   0.0000 0.0000 0.0000  plane waves:   50685
 k-point   2 :   0.3333 0.0000 0.0000  plane waves:   50790
 k-point   3 :   0.3333 0.3333 0.0000  plane waves:   50776
 k-point   4 :   0.3333 0.3333 0.3333  plane waves:   50879

 maximum and minimum number of plane-waves per node :     50879    50685

 maximum number of plane-waves:     50879
 maximum index in each direction: 
   IXMAX=   22   IYMAX=   22   IZMAX=   22
   IXMIN=  -23   IYMIN=  -23   IZMIN=  -23


 serial   3D FFT for wavefunctions
 parallel 3D FFT for charge:
    minimum data exchange during FFTs selected (reduces bandwidth)


 total amount of memory used by VASP MPI-rank0   184150. kBytes
=======================================================================

   base      :      30000. kBytes
   nonlr-proj:      41998. kBytes
   fftplans  :      11104. kBytes
   grid      :      53379. kBytes
   one-center:       1135. kBytes
   wavefun   :      46534. kBytes

     INWAV:  cpu time      0.0000: real time      0.0002
 Broyden mixing: mesh for mixing (old mesh)
   NGX = 45   NGY = 45   NGZ = 45
  (NGX  =192   NGY  =192   NGZ  =192)
  gives a total of  91125 points

 initial charge density was supplied:
 charge density of overlapping atoms calculated
 number of electron     692.0000000 magnetization 
 keeping initial charge density in first step


--------------------------------------------------------------------------------------------------------


 Maximum index for non-local projection operator         4836
 Maximum index for augmentation-charges          711 (set IRDMAX)


--------------------------------------------------------------------------------------------------------


 First call to EWALD:  gamma=   0.143
 Maximum number of real-space cells 3x 3x 3
 Maximum number of reciprocal cells 3x 3x 3

    FEWALD:  cpu time      0.0100: real time      0.0100


--------------------------------------- Iteration      1(   1)  ---------------------------------------


    POTLOK:  cpu time      0.1803: real time      0.1806
    SETDIJ:  cpu time      0.2348: real time      0.2351
     EDDAV:  cpu time     19.1755: real time     19.1900
       DOS:  cpu time      0.0012: real time      0.0013
    --------------------------------------------
      LOOP:  cpu time     19.5919: real time     19.6071

 eigenvalue-minimisations  :  3584
 total energy-change (2. order) : 0.5328740E+04  (-0.3316016E+05)
 number of electron     692.0000000 magnetization 
 augmentation part      692.0000000 magnetization 

 Free energy of the ion-electron system (eV)
  ---------------------------------------------------
  alpha Z        PSCENC =       985.62951683
  Ewald energy   TEWEN  =    -31218.86489758
  -Hartree energ DENC   =    -11666.79991701
  -exchange      EXHF   =         0.00000000
  -V(xc)+E(xc)   XCENC  =      1944.91324421
  PAW double counting   =     33647.48421406   -33748.54337567
  entropy T*S    EENTRO =        -0.03640041
  eigenvalues    EBANDS =      1804.71396373
  atomic energy  EATOM  =     43580.24387903
  Solvation  Ediel_sol  =         0.00000000
  ---------------------------------------------------
  free energy    TOTEN  =      5328.74022719 eV

  energy without entropy =     5328.77662760  energy(sigma->0) =     5328.75842739


--------------------------------------------------------------------------------------------------------




--------------------------------------- Iteration      1(   2)  ---------------------------------------


     EDDAV:  cpu time     22.7412: real time     22.7590
       DOS:  cpu time      0.0007: real time      0.0008
    --------------------------------------------
      LOOP:  cpu time     22.7420: real time     22.7598

 eigenvalue-minimisations  :  4480
 total energy-change (2. order) :-0.5302743E+04  (-0.5087550E+04)
 number of electron     692.0000000 magnetization 
 augmentation part      692.0000000 magnetization 

 Free energy of the ion-electron system (eV)
  ---------------------------------------------------
  alpha Z        PSCENC =       985.62951683
  Ewald energy   TEWEN  =    -31218.86489758
  -Hartree energ DENC   =    -11666.79991701
  -exchange      EXHF   =         0.00000000
  -V(xc)+E(xc)   XCENC  =      1944.91324421
  PAW double counting   =     33647.48421406   -33748.54337567
  entropy T*S    EENTRO =        -0.01807402
  eigenvalues    EBANDS =     -3498.04763639
  atomic energy  EATOM  =     43580.24387903
  Solvation  Ediel_sol  =         0.00000000
  ---------------------------------------------------
  free energy    TOTEN  =        25.99695346 eV

  energy without entropy =       26.01502748  energy(sigma->0) =       26.00599047


--------------------------------------------------------------------------------------------------------




--------------------------------------- Iteration      1(   3)  ---------------------------------------


     EDDAV:  cpu time     21.9384: real time     21.9547
       DOS:  cpu time      0.0007: real time      0.0008
    --------------------------------------------
      LOOP:  cpu time     21.9391: real time     21.9555

 eigenvalue-minimisations  :  4640
 total energy-change (2. order) :-0.5767997E+03  (-0.5659747E+03)
 number of electron     692.0000000 magnetization 
 augmentation part      692.0000000 magnetization 

 Free energy of the ion-electron system (eV)
  ---------------------------------------------------
  alpha Z        PSCENC =       985.62951683
  Ewald energy   TEWEN  =    -31218.86489758
  -Hartree energ DENC   =    -11666.79991701
  -exchange      EXHF   =         0.00000000
  -V(xc)+E(xc)   XCENC  =      1944.91324421
  PAW double counting   =     33647.48421406   -33748.54337567
  entropy T*S    EENTRO =        -0.00816261
  eigenvalues    EBANDS =     -4074.85720408
  atomic energy  EATOM  =     43580.24387903
  Solvation  Ediel_sol  =         0.00000000
  ---------------------------------------------------
  free energy    TOTEN  =      -550.80270282 eV

  energy without entropy =     -550.79454021  energy(sigma->0) =     -550.79862151


--------------------------------------------------------------------------------------------------------




--------------------------------------- Iteration      1(   4)  ---------------------------------------


     EDDAV:  cpu time     22.4173: real time     22.4352
       DOS:  cpu time      0.0007: real time      0.0008
    --------------------------------------------
      LOOP:  cpu time     22.4180: real time     22.4360

 eigenvalue-minimisations  :  4800
 total energy-change (2. order) :-0.1812822E+02  (-0.1795636E+02)
 number of electron     692.0000000 magnetization 
 augmentation part      692.0000000 magnetization 

 Free energy of the ion-electron system (eV)
  ---------------------------------------------------
  alpha Z        PSCENC =       985.62951683
  Ewald energy   TEWEN  =    -31218.86489758
  -Hartree energ DENC   =    -11666.79991701
  -exchange      EXHF   =         0.00000000
  -V(xc)+E(xc)   XCENC  =      1944.91324421
  PAW double counting   =     33647.48421406   -33748.54337567
  entropy T*S    EENTRO =        -0.00995601
  eigenvalues    EBANDS =     -4092.98363368
  atomic energy  EATOM  =     43580.24387903
  Solvation  Ediel_sol  =         0.00000000
  ---------------------------------------------------
  free energy    TOTEN  =      -568.93092581 eV

  energy without entropy =     -568.92096980  energy(sigma->0) =     -568.92594781


--------------------------------------------------------------------------------------------------------




--------------------------------------- Iteration      1(   5)  ---------------------------------------


     EDDAV:  cpu time     32.4841: real time     32.6372
       DOS:  cpu time      0.0007: real time      0.0008
    CHARGE:  cpu time      1.2369: real time      1.2377
    MIXING:  cpu time      0.0053: real time      0.0054
    --------------------------------------------
      LOOP:  cpu time     33.7272: real time     33.8811

 eigenvalue-minimisations  :  5888
 total energy-change (2. order) :-0.9072889E+00  (-0.9061564E+00)
 number of electron     691.9999824 magnetization 
 augmentation part      -25.1007610 magnetization 

 Broyden mixing:
  rms(total) = 0.11795E+02    rms(broyden)= 0.11795E+02
  rms(prec ) = 0.12155E+02
  weight for this iteration     100.00

 Free energy of the ion-electron system (eV)
  ---------------------------------------------------
[...]
     11.73747      0.62032      6.79922         0.005213     -0.005213     -0.005213
      6.79922     11.73747      0.62032        -0.005213      0.005213     -0.005213
      7.38540      7.38540      7.38540         0.073532      0.073532      0.073532
     11.15128      4.97239      1.20651        -0.073532     -0.073532      0.073532
      1.20651     11.15128      4.97239         0.073532     -0.073532     -0.073532
      4.97239      1.20651     11.15128        -0.073532      0.073532     -0.073532
      9.16961      9.36707      2.99072        -0.060719      0.060719     -0.060719
      9.36707      2.99072      9.16961         0.060719     -0.060719     -0.060719
      2.99072      9.16961      9.36707        -0.060719     -0.060719      0.060719
      5.55858      5.55858      5.55858         0.005213      0.005213      0.005213
      0.62032      6.79922     11.73747        -0.005213     -0.005213      0.005213
      0.79266      0.79266      0.79266         0.093770      0.093770      0.093770
      5.38624     11.56513      6.97156        -0.093770     -0.093770      0.093770
      6.97156      5.38624     11.56513         0.093770     -0.093770     -0.093770
     11.56513      6.97156      5.38624        -0.093770      0.093770     -0.093770
      5.52689      7.83563     10.45436         0.050098     -0.069317     -0.012542
     11.70579     10.70106      1.90343         0.050098      0.069317      0.012542
      6.83090      1.65673      8.08233        -0.050098     -0.069317      0.012542
     10.70106      1.90343     11.70579         0.069317      0.012542      0.050098
      8.08233      6.83090      1.65673         0.012542     -0.050098     -0.069317
      1.90343     11.70579     10.70106         0.012542      0.050098      0.069317
      7.83563     10.45436      5.52689        -0.069317     -0.012542      0.050098
     10.45436      5.52689      7.83563        -0.012542      0.050098     -0.069317
      1.65673      8.08233      6.83090        -0.069317      0.012542     -0.050098
      4.52217      4.27546      0.65200         0.069317     -0.012542     -0.050098
      4.27546      0.65200      4.52217        -0.012542     -0.050098      0.069317
      0.65200      4.52217      4.27546        -0.050098      0.069317     -0.012542
      5.61434      9.41688      9.12637         0.026449      0.034370      0.019401
     11.79324      9.11981      3.23142         0.026449     -0.034370     -0.019401
      6.74345      3.23798      9.41031        -0.026449      0.034370     -0.019401
      9.11981      3.23142     11.79324        -0.034370     -0.019401      0.026449
      9.41031      6.74345      3.23798        -0.019401     -0.026449      0.034370
      3.23142     11.79324      9.11981        -0.019401      0.026449     -0.034370
      9.41688      9.12637      5.61434         0.034370      0.019401      0.026449
      9.12637      5.61434      9.41688         0.019401      0.026449      0.034370
      3.23798      9.41031      6.74345         0.034370     -0.019401     -0.026449
      2.94091      2.94748      0.56455        -0.034370      0.019401     -0.026449
      2.94748      0.56455      2.94091         0.019401     -0.026449     -0.034370
      0.56455      2.94091      2.94748        -0.026449     -0.034370      0.019401
      4.14587      3.42426      7.52691        -0.030625      0.049271     -0.109438
     10.32476      2.75463      4.83088        -0.030625     -0.049271      0.109438
      8.21192      9.60316     11.00978         0.030625      0.049271      0.109438
      2.75463      4.83088     10.32476        -0.049271      0.109438     -0.030625
     11.00978      8.21192      9.60316         0.109438      0.030625      0.049271
      4.83088     10.32476      2.75463         0.109438     -0.030625     -0.049271
      3.42426      7.52691      4.14587         0.049271     -0.109438     -0.030625
      7.52691      4.14587      3.42426        -0.109438     -0.030625      0.049271
      9.60316     11.00978      8.21192         0.049271      0.109438      0.030625
      8.93353      1.34801      2.03303        -0.049271     -0.109438      0.030625
      2.49609      0.93769      7.02818         0.020041     -0.089346     -0.055519
      1.34801      2.03303      8.93353        -0.109438      0.030625     -0.049271
      2.97054      4.51937      6.36344        -0.012895     -0.109574      0.002358
      9.14943      1.65952      5.99435        -0.012895      0.109574     -0.002358
      9.38726     10.69827     12.17325         0.012895     -0.109574     -0.002358
      1.65952      5.99435      9.14943         0.109574     -0.002358     -0.012895
     12.17325      9.38726     10.69827        -0.002358      0.012895     -0.109574
      5.99435      9.14943      1.65952        -0.002358     -0.012895      0.109574
      4.51937      6.36344      2.97054        -0.109574      0.002358     -0.012895
      6.36344      2.97054      4.51937         0.002358     -0.012895     -0.109574
     10.69827     12.17325      9.38726        -0.109574     -0.002358      0.012895
      7.83842      0.18455      3.20836         0.109574      0.002358      0.012895
      0.18455      3.20836      7.83842         0.002358      0.012895      0.109574
      3.20836      7.83842      0.18455         0.012895      0.109574      0.002358
      6.89602      7.77106      4.38359         0.011271      0.075482     -0.010039
      0.71712     10.76563      7.97420         0.011271     -0.075482      0.010039
      5.46177      1.59217      1.79531        -0.011271      0.075482      0.010039
     10.76563      7.97420      0.71712        -0.075482      0.010039      0.011271
      1.79531      5.46177      1.59217         0.010039     -0.011271      0.075482
      7.97420      0.71712     10.76563         0.010039      0.011271     -0.075482
      7.77106      4.38359      6.89602         0.075482     -0.010039      0.011271
      4.38359      6.89602      7.77106        -0.010039      0.011271      0.075482
      1.59217      1.79531      5.46177         0.075482      0.010039     -0.011271
      4.58673     10.56249     11.64067        -0.075482     -0.010039     -0.011271
     10.56249     11.64067      4.58673        -0.010039     -0.011271     -0.075482
     11.64067      4.58673     10.56249        -0.011271     -0.075482     -0.010039
      5.32962      8.67498      5.24121         0.055519      0.020041      0.089346
     11.50851      9.86170      7.11658         0.055519     -0.020041     -0.089346
      7.02818      2.49609      0.93769        -0.055519      0.020041     -0.089346
      9.86170      7.11658     11.50851        -0.020041     -0.089346      0.055519
      0.93769      7.02818      2.49609        -0.089346     -0.055519      0.020041
      7.11658     11.50851      9.86170        -0.089346      0.055519     -0.020041
      8.67498      5.24121      5.32962         0.020041      0.089346      0.055519
      5.24121      5.32962      8.67498         0.089346      0.055519      0.020041
      0.84928      3.68281     11.42010        -0.055519     -0.020041      0.089346
     11.42010      0.84928      3.68281         0.089346     -0.055519     -0.020041
      3.68281     11.42010      0.84928        -0.020041      0.089346     -0.055519
      2.03303      8.93353      1.34801         0.030625     -0.049271     -0.109438
      0.28926      5.88964      6.46816         0.043333     -0.043333      0.043333
      3.01301      1.80730     11.84325         0.019109     -0.042307      0.107182
      6.46816      0.28926      5.88964         0.043333      0.043333     -0.043333
     12.06853     12.06853     12.06853        -0.043333     -0.043333     -0.043333
     11.84325      3.01301      1.80730         0.107182      0.019109     -0.042307
      1.80730     11.84325      3.01301        -0.042307      0.107182      0.019109
      4.37159      0.51454      9.19191         0.042307     -0.107182      0.019109
      5.66436      3.16588     10.55049         0.107182     -0.019109      0.042307
     10.55049      5.66436      3.16588         0.042307      0.107182     -0.019109
      6.69344      9.34478      7.98620        -0.107182     -0.019109     -0.042307
      0.51454      9.19191      4.37159        -0.107182      0.019109      0.042307
      7.98620      6.69344      9.34478        -0.042307     -0.107182     -0.019109
      9.19191      4.37159      0.51454         0.019109      0.042307     -0.107182
      9.34478      7.98620      6.69344        -0.019109     -0.042307     -0.107182
      5.88964      6.46816      0.28926        -0.043333      0.043333      0.043333
      3.16588     10.55049      5.66436        -0.019109      0.042307      0.107182
      6.22055      8.43825     11.45173         0.007929     -0.037786      0.016040
      0.04165     10.09844      0.90607         0.007929      0.037786     -0.016040
      6.13724      2.25935      7.08496        -0.007929     -0.037786     -0.016040
     10.09844      0.90607      0.04165         0.037786     -0.016040      0.007929
      7.08496      6.13724      2.25935        -0.016040     -0.007929     -0.037786
      0.90607      0.04165     10.09844        -0.016040      0.007929      0.037786
      8.43825     11.45173      6.22055        -0.037786      0.016040      0.007929
     11.45173      6.22055      8.43825         0.016040      0.007929     -0.037786
      2.25935      7.08496      6.13724        -0.037786     -0.016040     -0.007929
      3.91955      5.27283     12.31614         0.037786      0.016040     -0.007929
      5.27283     12.31614      3.91955         0.016040     -0.007929      0.037786
     12.31614      3.91955      5.27283        -0.007929      0.037786      0.016040
      3.59829      4.34155      5.13716        -0.040683      0.069236      0.023944
      9.77719      1.83735      7.22063        -0.040683     -0.069236     -0.023944
      8.75950     10.52044      1.04174         0.040683      0.069236     -0.023944
      1.83735      7.22063      9.77719        -0.069236     -0.023944     -0.040683
      1.04174      8.75950     10.52044        -0.023944      0.040683      0.069236
      7.22063      9.77719      1.83735        -0.023944     -0.040683     -0.069236
      4.34155      5.13716      3.59829         0.069236      0.023944     -0.040683
      5.13716      3.59829      4.34155         0.023944     -0.040683      0.069236
     10.52044      1.04174      8.75950         0.069236     -0.023944      0.040683
      8.01624     11.31606      2.58060        -0.069236      0.023944      0.040683
     11.31606      2.58060      8.01624         0.023944      0.040683     -0.069236
      2.58060      8.01624     11.31606         0.040683     -0.069236      0.023944
      5.19469      7.79578      6.35380         0.073515      0.060881     -0.102912
     11.37358     10.74090      6.00399         0.073515     -0.060881      0.102912
      7.16310      1.61689     12.18289        -0.073515      0.060881      0.102912
     10.74090      6.00399     11.37358        -0.060881      0.102912      0.073515
     12.18289      7.16310      1.61689         0.102912     -0.073515      0.060881
      6.00399     11.37358     10.74090         0.102912      0.073515     -0.060881
      7.79578      6.35380      5.19469         0.060881     -0.102912      0.073515
      6.35380      5.19469      7.79578        -0.102912      0.073515      0.060881
      1.61689     12.18289      7.16310         0.060881      0.102912     -0.073515
      4.56201      0.17490      0.98421        -0.060881     -0.102912     -0.073515
      0.17490      0.98421      4.56201        -0.102912     -0.073515     -0.060881
      0.98421      4.56201      0.17490        -0.073515     -0.060881     -0.102912
 -----------------------------------------------------------------------------------
    total drift:                               -0.000001     -0.000001      0.000000


--------------------------------------------------------------------------------------------------------



  FREE ENERGIE OF THE ION-ELECTRON SYSTEM (eV)
  ---------------------------------------------------
  free  energy   TOTEN  =      -529.23638512 eV

  energy  without entropy=     -529.22283399  energy(sigma->0) =     -529.22960955



--------------------------------------------------------------------------------------------------------


    POTLOK:  cpu time      0.4485: real time      0.4836


--------------------------------------------------------------------------------------------------------


 writing wavefunctions
     LOOP+:  cpu time    467.8330: real time    468.6467
    4ORBIT:  cpu time      0.0000: real time      0.0000



 total charge

# of ion       s       p       d       tot
------------------------------------------
    1        1.940   5.659   0.000   7.600
    2        1.939   5.659   0.000   7.598
    3        1.939   5.659   0.000   7.598
    4        1.941   5.664   0.000   7.605
    5        1.941   5.664   0.000   7.605
    6        1.941   5.664   0.000   7.605
    7        1.941   5.664   0.000   7.605
    8        1.940   5.659   0.000   7.600
    9        1.940   5.659   0.000   7.600
   10        1.940   5.659   0.000   7.600
   11        1.939   5.659   0.000   7.598
   12        1.939   5.659   0.000   7.598
   13        1.292   0.896   0.089   2.278
   14        1.292   0.896   0.089   2.278
   15        1.292   0.896   0.089   2.278
   16        1.292   0.896   0.089   2.278
   17        1.372   2.345   0.000   3.717
   18        1.372   2.345   0.000   3.717
   19        1.372   2.345   0.000   3.717
   20        1.372   2.345   0.000   3.717
   21        1.372   2.345   0.000   3.717
   22        1.372   2.345   0.000   3.717
   23        1.372   2.345   0.000   3.717
   24        1.372   2.345   0.000   3.717
   25        1.372   2.345   0.000   3.717
   26        1.372   2.345   0.000   3.717
   27        1.372   2.345   0.000   3.717
   28        1.372   2.345   0.000   3.717
   29        1.356   2.284   0.000   3.641
   30        1.356   2.284   0.000   3.641
   31        1.356   2.284   0.000   3.641
   32        1.356   2.284   0.000   3.641
   33        1.356   2.284   0.000   3.641
   34        1.356   2.284   0.000   3.641
   35        1.356   2.284   0.000   3.641
   36        1.356   2.284   0.000   3.641
   37        1.356   2.284   0.000   3.641
   38        1.356   2.284   0.000   3.641
   39        1.356   2.284   0.000   3.641
   40        1.356   2.284   0.000   3.641
   41        1.390   2.261   0.000   3.651
   42        1.390   2.261   0.000   3.651
   43        1.390   2.261   0.000   3.651
   44        1.390   2.261   0.000   3.651
   45        1.390   2.261   0.000   3.651
   46        1.390   2.261   0.000   3.651
   47        1.390   2.261   0.000   3.651
   48        1.390   2.261   0.000   3.651
   49        1.390   2.261   0.000   3.651
   50        1.390   2.261   0.000   3.651
   51        1.386   2.249   0.000   3.636
   52        1.390   2.261   0.000   3.651
   53        1.375   2.300   0.000   3.676
   54        1.375   2.300   0.000   3.676
   55        1.375   2.300   0.000   3.676
   56        1.375   2.300   0.000   3.676
   57        1.375   2.300   0.000   3.676
   58        1.375   2.300   0.000   3.676
   59        1.375   2.300   0.000   3.676
   60        1.375   2.300   0.000   3.676
   61        1.375   2.300   0.000   3.676
   62        1.375   2.300   0.000   3.676
   63        1.375   2.300   0.000   3.676
   64        1.375   2.300   0.000   3.676
   65        1.371   2.347   0.000   3.718
   66        1.371   2.347   0.000   3.718
   67        1.371   2.347   0.000   3.718
   68        1.371   2.347   0.000   3.718
   69        1.371   2.347   0.000   3.718
   70        1.371   2.347   0.000   3.718
   71        1.371   2.347   0.000   3.718
   72        1.371   2.347   0.000   3.718
   73        1.371   2.347   0.000   3.718
   74        1.371   2.347   0.000   3.718
   75        1.371   2.347   0.000   3.718
   76        1.371   2.347   0.000   3.718
   77        1.386   2.249   0.000   3.636
   78        1.386   2.249   0.000   3.636
   79        1.386   2.249   0.000   3.636
   80        1.386   2.249   0.000   3.636
   81        1.386   2.249   0.000   3.636
   82        1.386   2.249   0.000   3.636
   83        1.386   2.249   0.000   3.636
   84        1.386   2.249   0.000   3.636
   85        1.386   2.249   0.000   3.636
   86        1.386   2.249   0.000   3.636
   87        1.386   2.249   0.000   3.636
   88        1.390   2.261   0.000   3.651
   89        1.601   3.350   0.000   4.951
   90        1.593   3.448   0.000   5.040
   91        1.601   3.350   0.000   4.951
   92        1.601   3.350   0.000   4.951
   93        1.593   3.448   0.000   5.040
   94        1.593   3.448   0.000   5.040
   95        1.593   3.448   0.000   5.040
   96        1.593   3.448   0.000   5.040
   97        1.593   3.448   0.000   5.040
   98        1.593   3.448   0.000   5.040
   99        1.593   3.448   0.000   5.040
  100        1.593   3.448   0.000   5.040
  101        1.593   3.448   0.000   5.040
  102        1.593   3.448   0.000   5.040
  103        1.601   3.350   0.000   4.951
  104        1.593   3.448   0.000   5.040
  105        0.555   0.042   0.000   0.597
  106        0.555   0.042   0.000   0.597
  107        0.555   0.042   0.000   0.597
  108        0.555   0.042   0.000   0.597
  109        0.555   0.042   0.000   0.597
  110        0.555   0.042   0.000   0.597
  111        0.555   0.042   0.000   0.597
  112        0.555   0.042   0.000   0.597
  113        0.555   0.042   0.000   0.597
  114        0.555   0.042   0.000   0.597
  115        0.555   0.042   0.000   0.597
  116        0.555   0.042   0.000   0.597
  117        0.570   0.034   0.000   0.604
  118        0.570   0.034   0.000   0.604
  119        0.570   0.034   0.000   0.604
  120        0.570   0.034   0.000   0.604
  121        0.570   0.034   0.000   0.604
  122        0.570   0.034   0.000   0.604
  123        0.570   0.034   0.000   0.604
  124        0.570   0.034   0.000   0.604
  125        0.570   0.034   0.000   0.604
  126        0.570   0.034   0.000   0.604
  127        0.570   0.034   0.000   0.604
  128        0.570   0.034   0.000   0.604
  129        0.529   0.048   0.000   0.577
  130        0.529   0.048   0.000   0.577
  131        0.529   0.048   0.000   0.577
  132        0.529   0.048   0.000   0.577
  133        0.529   0.048   0.000   0.577
  134        0.529   0.048   0.000   0.577
  135        0.529   0.048   0.000   0.577
  136        0.529   0.048   0.000   0.577
  137        0.529   0.048   0.000   0.577
  138        0.529   0.048   0.000   0.577
  139        0.529   0.048   0.000   0.577
  140        0.529   0.048   0.000   0.577
--------------------------------------------------
tot        172.823 293.208   0.358 466.390


 total amount of memory used by VASP MPI-rank0   184150. kBytes
=======================================================================

   base      :      30000. kBytes
   nonlr-proj:      41998. kBytes
   fftplans  :      11104. kBytes
   grid      :      53379. kBytes
   one-center:       1135. kBytes
   wavefun   :      46534. kBytes

  
  
 General timing and accounting informations for this job:
 ========================================================
  
                  Total CPU time used (sec):      497.766
                            User time (sec):      488.566
                          System time (sec):        9.199
                         Elapsed time (sec):      507.162
  
                   Maximum memory used (kb):      333484.
                   Average memory used (kb):          N/A
  
                          Minor page faults:       257861
                          Major page faults:          223
                 Voluntary context switches:         3807
