  40  40   0   0
  0.2255437E+02  0.6751426E-09  0.7152370E-09  0.1868294E-08  0.1500000E-16
   1.0000000000000000E-004
  CAR 
 unknown system                          
      9.04446210    -23.28422987  301      1.18454887      1.00000000
    -23.284  0.0000E+00  0.0000E+00
    -23.176  0.0000E+00  0.0000E+00
    -23.069  0.0000E+00  0.0000E+00
    -22.961  0.0000E+00  0.0000E+00
    -22.853  0.0000E+00  0.0000E+00
    -22.745  0.0000E+00  0.0000E+00
    -22.638  0.0000E+00  0.0000E+00
    -22.530  0.0000E+00  0.0000E+00
    -22.422  0.0000E+00  0.0000E+00
    -22.314  0.0000E+00  0.0000E+00
    -22.207  0.0000E+00  0.0000E+00
    -22.099  0.1594E-16  0.1718E-17
    -21.991  0.1319E-07  0.1422E-08
    -21.883  0.2126E-02  0.2291E-03
    -21.776  0.4299E+00  0.4656E-01
    -21.668  0.1181E+01  0.1738E+00
    -21.560  0.1103E+00  0.1857E+00
    -21.452  0.5036E-04  0.1857E+00
    -21.345  0.9549E-11  0.1857E+00
    -21.237  0.0000E+00  0.1857E+00
    -21.129  0.0000E+00  0.1857E+00
    -21.021  0.0000E+00  0.1857E+00
    -20.913  0.0000E+00  0.1857E+00
    -20.806  0.0000E+00  0.1857E+00
    -20.698  0.0000E+00  0.1857E+00
    -20.590  0.0000E+00  0.1857E+00
    -20.482  0.0000E+00  0.1857E+00
    -20.375  0.0000E+00  0.1857E+00
    -20.267  0.0000E+00  0.1857E+00
    -20.159  0.0000E+00  0.1857E+00
    -20.051  0.0000E+00  0.1857E+00
    -19.944  0.0000E+00  0.1857E+00
    -19.836  0.0000E+00  0.1857E+00
    -19.728  0.0000E+00  0.1857E+00
    -19.620  0.0000E+00  0.1857E+00
    -19.513  0.0000E+00  0.1857E+00
    -19.405  0.0000E+00  0.1857E+00
    -19.297  0.0000E+00  0.1857E+00
    -19.189  0.0000E+00  0.1857E+00
    -19.081  0.0000E+00  0.1857E+00
    -18.974  0.0000E+00  0.1857E+00
    -18.866  0.0000E+00  0.1857E+00
    -18.758  0.0000E+00  0.1857E+00
    -18.650  0.0000E+00  0.1857E+00
    -18.543  0.0000E+00  0.1857E+00
    -18.435  0.0000E+00  0.1857E+00
    -18.327  0.0000E+00  0.1857E+00
    -18.219  0.0000E+00  0.1857E+00
    -18.112  0.0000E+00  0.1857E+00
    -18.004  0.0000E+00  0.1857E+00
    -17.896  0.0000E+00  0.1857E+00
    -17.788  0.0000E+00  0.1857E+00
    -17.681  0.0000E+00  0.1857E+00
    -17.573  0.0000E+00  0.1857E+00
    -17.465  0.0000E+00  0.1857E+00
    -17.357  0.0000E+00  0.1857E+00
    -17.250  0.0000E+00  0.1857E+00
    -17.142  0.0000E+00  0.1857E+00
    -17.034  0.0000E+00  0.1857E+00
    -16.926  0.0000E+00  0.1857E+00
    -16.818  0.0000E+00  0.1857E+00
    -16.711  0.0000E+00  0.1857E+00
    -16.603  0.0000E+00  0.1857E+00
    -16.495  0.0000E+00  0.1857E+00
    -16.387  0.0000E+00  0.1857E+00
    -16.280  0.0000E+00  0.1857E+00
    -16.172  0.0000E+00  0.1857E+00
    -16.064  0.0000E+00  0.1857E+00
    -15.956  0.0000E+00  0.1857E+00
    -15.849  0.0000E+00  0.1857E+00
    -15.741  0.0000E+00  0.1857E+00
    -15.633  0.0000E+00  0.1857E+00
    -15.525  0.0000E+00  0.1857E+00
    -15.418  0.0000E+00  0.1857E+00
    -15.310  0.0000E+00  0.1857E+00
    -15.202  0.0000E+00  0.1857E+00
    -15.094  0.0000E+00  0.1857E+00
    -14.987  0.0000E+00  0.1857E+00
    -14.879  0.0000E+00  0.1857E+00
    -14.771  0.0000E+00  0.1857E+00
    -14.663  0.0000E+00  0.1857E+00
    -14.555  0.0000E+00  0.1857E+00
    -14.448  0.0000E+00  0.1857E+00
    -14.340  0.0000E+00  0.1857E+00
    -14.232  0.0000E+00  0.1857E+00
    -14.124  0.0000E+00  0.1857E+00
    -14.017  0.0000E+00  0.1857E+00
    -13.909  0.0000E+00  0.1857E+00
    -13.801  0.0000E+00  0.1857E+00
    -13.693  0.0000E+00  0.1857E+00
    -13.586  0.0000E+00  0.1857E+00
    -13.478  0.0000E+00  0.1857E+00
    -13.370  0.0000E+00  0.1857E+00
    -13.262  0.0000E+00  0.1857E+00
    -13.155  0.0000E+00  0.1857E+00
    -13.047  0.0000E+00  0.1857E+00
    -12.939  0.0000E+00  0.1857E+00
    -12.831  0.0000E+00  0.1857E+00
    -12.724  0.0000E+00  0.1857E+00
    -12.616  0.0000E+00  0.1857E+00
    -12.508  0.0000E+00  0.1857E+00
    -12.400  0.0000E+00  0.1857E+00
    -12.292  0.0000E+00  0.1857E+00
    -12.185  0.0000E+00  0.1857E+00
    -12.077  0.0000E+00  0.1857E+00
    -11.969  0.0000E+00  0.1857E+00
    -11.861  0.0000E+00  0.1857E+00
    -11.754  0.0000E+00  0.1857E+00
    -11.646  0.0000E+00  0.1857E+00
    -11.538  0.0000E+00  0.1857E+00
    -11.430  0.5597E-14  0.1857E+00
    -11.323  0.1685E-06  0.1857E+00
    -11.215  0.9487E-03  0.1858E+00
    -11.107  0.9607E-02  0.1868E+00
    -10.999  0.3081E-01  0.1901E+00
    -10.892  0.3059E-01  0.1934E+00
    -10.784  0.3889E-01  0.1976E+00
    -10.676  0.2941E-01  0.2008E+00
    -10.568  0.5078E-01  0.2063E+00
    -10.461  0.8320E-01  0.2152E+00
    -10.353  0.1294E-01  0.2166E+00
    -10.245  0.9091E-05  0.2166E+00
    -10.137  0.9103E-08  0.2166E+00
    -10.029  0.5142E-03  0.2167E+00
     -9.922  0.4684E-01  0.2217E+00
     -9.814  0.1494E+00  0.2378E+00
     -9.706  0.8896E-01  0.2474E+00
     -9.598  0.1441E-02  0.2476E+00
     -9.491  0.4366E-07  0.2476E+00
     -9.383  0.3118E-15  0.2476E+00
     -9.275  0.0000E+00  0.2476E+00
     -9.167  0.0000E+00  0.2476E+00
     -9.060  0.0000E+00  0.2476E+00
     -8.952  0.0000E+00  0.2476E+00
     -8.844  0.0000E+00  0.2476E+00
     -8.736  0.0000E+00  0.2476E+00
     -8.629  0.0000E+00  0.2476E+00
     -8.521  0.0000E+00  0.2476E+00
     -8.413  0.0000E+00  0.2476E+00
     -8.305  0.0000E+00  0.2476E+00
     -8.198  0.0000E+00  0.2476E+00
     -8.090  0.0000E+00  0.2476E+00
     -7.982  0.0000E+00  0.2476E+00
     -7.874  0.0000E+00  0.2476E+00
     -7.766  0.0000E+00  0.2476E+00
     -7.659  0.0000E+00  0.2476E+00
     -7.551  0.0000E+00  0.2476E+00
     -7.443  0.0000E+00  0.2476E+00
     -7.335  0.0000E+00  0.2476E+00
     -7.228  0.0000E+00  0.2476E+00
     -7.120  0.0000E+00  0.2476E+00
     -7.012  0.0000E+00  0.2476E+00
     -6.904  0.0000E+00  0.2476E+00
     -6.797  0.0000E+00  0.2476E+00
     -6.689  0.0000E+00  0.2476E+00
     -6.581  0.0000E+00  0.2476E+00
     -6.473  0.0000E+00  0.2476E+00
     -6.366  0.0000E+00  0.2476E+00
     -6.258  0.0000E+00  0.2476E+00
     -6.150  0.0000E+00  0.2476E+00
     -6.042  0.0000E+00  0.2476E+00
     -5.934  0.0000E+00  0.2476E+00
     -5.827  0.0000E+00  0.2476E+00
     -5.719  0.0000E+00  0.2476E+00
     -5.611  0.0000E+00  0.2476E+00
     -5.503  0.2565E-13  0.2476E+00
     -5.396  0.1280E-05  0.2476E+00
     -5.288  0.1381E-01  0.2491E+00
     -5.180  0.2224E+00  0.2730E+00
     -5.072  0.1937E+00  0.2939E+00
     -4.965  0.5096E+00  0.3488E+00
     -4.857  0.3697E+00  0.3887E+00
     -4.749  0.1188E+00  0.4015E+00
     -4.641  0.7808E-02  0.4023E+00
     -4.534  0.1828E-05  0.4023E+00
     -4.426  0.1263E-12  0.4023E+00
     -4.318  0.0000E+00  0.4023E+00
     -4.210  0.0000E+00  0.4023E+00
     -4.103  0.0000E+00  0.4023E+00
     -3.995  0.0000E+00  0.4023E+00
     -3.887  0.0000E+00  0.4023E+00
     -3.779  0.8875E-12  0.4023E+00
     -3.671  0.3205E-05  0.4023E+00
     -3.564  0.4133E-02  0.4028E+00
     -3.456  0.2864E-01  0.4059E+00
     -3.348  0.2111E-01  0.4081E+00
     -3.240  0.2750E-01  0.4111E+00
     -3.133  0.2137E-01  0.4134E+00
     -3.025  0.5585E-02  0.4140E+00
     -2.917  0.4724E-01  0.4191E+00
     -2.809  0.2789E-01  0.4221E+00
     -2.702  0.1115E-01  0.4233E+00
     -2.594  0.5476E-02  0.4239E+00
     -2.486  0.1710E-01  0.4257E+00
     -2.378  0.2720E-01  0.4287E+00
     -2.271  0.3787E-02  0.4291E+00
     -2.163  0.1345E-01  0.4305E+00
     -2.055  0.1052E-01  0.4316E+00
     -1.947  0.2679E-01  0.4345E+00
     -1.840  0.1911E-01  0.4366E+00
     -1.732  0.2517E-01  0.4393E+00
     -1.624  0.3330E-01  0.4429E+00
     -1.516  0.5000E-01  0.4483E+00
     -1.408  0.4147E-01  0.4528E+00
     -1.301  0.1901E-01  0.4548E+00
     -1.193  0.3134E-01  0.4582E+00
     -1.085  0.3355E-01  0.4618E+00
     -0.977  0.7853E-01  0.4703E+00
     -0.870  0.4849E-01  0.4755E+00
     -0.762  0.6274E-01  0.4822E+00
     -0.654  0.3016E-01  0.4855E+00
     -0.546  0.3651E-01  0.4894E+00
     -0.439  0.8528E-01  0.4986E+00
     -0.331  0.5641E-01  0.5047E+00
     -0.223  0.9723E-01  0.5152E+00
     -0.115  0.7911E-01  0.5237E+00
     -0.008  0.5438E-01  0.5296E+00
      0.100  0.6422E-01  0.5365E+00
      0.208  0.5799E-01  0.5427E+00
      0.316  0.1029E+00  0.5538E+00
      0.423  0.8549E-01  0.5630E+00
      0.531  0.6996E-01  0.5706E+00
      0.639  0.8522E-01  0.5798E+00
      0.747  0.5654E-01  0.5858E+00
      0.855  0.1619E-01  0.5876E+00
      0.962  0.3792E-02  0.5880E+00
      1.070  0.9116E-04  0.5880E+00
      1.178  0.8988E-09  0.5880E+00
      1.286  0.8857E-18  0.5880E+00
      1.393  0.0000E+00  0.5880E+00
      1.501  0.0000E+00  0.5880E+00
      1.609  0.0000E+00  0.5880E+00
      1.717  0.0000E+00  0.5880E+00
      1.824  0.0000E+00  0.5880E+00
      1.932  0.0000E+00  0.5880E+00
      2.040  0.0000E+00  0.5880E+00
      2.148  0.0000E+00  0.5880E+00
      2.255  0.0000E+00  0.5880E+00
      2.363  0.0000E+00  0.5880E+00
      2.471  0.0000E+00  0.5880E+00
      2.579  0.0000E+00  0.5880E+00
      2.686  0.0000E+00  0.5880E+00
      2.794  0.1321E-13  0.5880E+00
      2.902  0.2687E-06  0.5880E+00
      3.010  0.8803E-03  0.5881E+00
      3.118  0.3063E-02  0.5884E+00
      3.225  0.4528E-04  0.5884E+00
      3.333  0.1999E-09  0.5884E+00
      3.441  0.0000E+00  0.5884E+00
      3.549  0.2265E-14  0.5884E+00
      3.656  0.9579E-07  0.5884E+00
      3.764  0.6167E-03  0.5885E+00
      3.872  0.5318E-02  0.5891E+00
      3.980  0.1350E-01  0.5905E+00
      4.087  0.5114E-03  0.5906E+00
      4.195  0.5739E-03  0.5906E+00
      4.303  0.2870E-01  0.5937E+00
      4.411  0.4211E-01  0.5983E+00
      4.518  0.3354E-01  0.6019E+00
      4.626  0.3593E-01  0.6058E+00
      4.734  0.3646E-01  0.6097E+00
      4.842  0.2544E-01  0.6124E+00
      4.949  0.3050E-01  0.6157E+00
      5.057  0.3142E-01  0.6191E+00
      5.165  0.1953E-01  0.6212E+00
      5.273  0.3788E-01  0.6253E+00
      5.381  0.2841E-01  0.6284E+00
      5.488  0.3196E-01  0.6318E+00
      5.596  0.4453E-01  0.6366E+00
      5.704  0.3615E-01  0.6405E+00
      5.812  0.5333E-01  0.6462E+00
      5.919  0.5921E-01  0.6526E+00
      6.027  0.3083E-01  0.6559E+00
      6.135  0.2721E-01  0.6589E+00
      6.243  0.2175E-01  0.6612E+00
      6.350  0.1705E-01  0.6631E+00
      6.458  0.2391E-01  0.6656E+00
      6.566  0.4661E-01  0.6707E+00
      6.674  0.3403E-01  0.6743E+00
      6.781  0.4164E-01  0.6788E+00
      6.889  0.6711E-01  0.6860E+00
      6.997  0.4176E-01  0.6905E+00
      7.105  0.2791E-01  0.6936E+00
      7.213  0.5016E-01  0.6990E+00
      7.320  0.6412E-01  0.7059E+00
      7.428  0.3312E-01  0.7094E+00
      7.536  0.1140E-01  0.7107E+00
      7.644  0.1031E-01  0.7118E+00
      7.751  0.2408E-03  0.7118E+00
      7.859  0.2171E-08  0.7118E+00
      7.967  0.2657E-17  0.7118E+00
      8.075  0.0000E+00  0.7118E+00
      8.182  0.0000E+00  0.7118E+00
      8.290  0.0000E+00  0.7118E+00
      8.398  0.0000E+00  0.7118E+00
      8.506  0.0000E+00  0.7118E+00
      8.613  0.0000E+00  0.7118E+00
      8.721  0.0000E+00  0.7118E+00
      8.829  0.0000E+00  0.7118E+00
      8.937  0.0000E+00  0.7118E+00
      9.044  0.0000E+00  0.7118E+00
