       N       E                     dE             d eps       ncg     rms          rms(c)
DAV:   1     0.295206149437E+04    0.29521E+04   -0.12029E+05  1472   0.155E+03
DAV:   2     0.371568739921E+03   -0.25805E+04   -0.24887E+04  1480   0.439E+02
DAV:   3    -0.104023345926E+03   -0.47559E+03   -0.46025E+03  1680   0.185E+02
DAV:   4    -0.143908974684E+03   -0.39886E+02   -0.39485E+02  1696   0.488E+01
DAV:   5    -0.145456814324E+03   -0.15478E+01   -0.15415E+01  1664   0.106E+01    0.218E+01
DAV:   6    -0.134207103759E+03    0.11250E+02   -0.18833E+01  2072   0.428E+01    0.174E+01
DAV:   7    -0.134372469443E+03   -0.16537E+00   -0.25259E+01  1656   0.881E+00    0.102E+01
DAV:   8    -0.134257712954E+03    0.11476E+00   -0.17464E+00  1768   0.486E+00    0.390E+00
DAV:   9    -0.134287805156E+03   -0.30092E-01   -0.26325E-01  1792   0.278E+00    0.696E-01
DAV:  10    -0.134294265268E+03   -0.64601E-02   -0.41617E-02  1712   0.975E-01    0.626E-01
DAV:  11    -0.134299470076E+03   -0.52048E-02   -0.92821E-03  1808   0.254E-01    0.425E-01
DAV:  12    -0.134306086726E+03   -0.66167E-02   -0.94450E-03  1568   0.238E-01    0.323E-01
DAV:  13    -0.134305994424E+03    0.92302E-04   -0.66702E-04  1712   0.111E-01    0.634E-02
DAV:  14    -0.134306042521E+03   -0.48098E-04   -0.12778E-04  1752   0.319E-02    0.604E-02
DAV:  15    -0.134306223948E+03   -0.18143E-03   -0.27029E-04  1392   0.427E-02    0.129E-01
DAV:  16    -0.134306195869E+03    0.28079E-04   -0.58022E-05  1520   0.379E-02    0.600E-02
DAV:  17    -0.134306196938E+03   -0.10689E-05   -0.49904E-05  1688   0.130E-02    0.411E-02
DAV:  18    -0.134306196911E+03    0.27052E-07   -0.19598E-06  1176   0.423E-03
   1 F= -.13430620E+03 E0= -.13430620E+03  d E =-.206136E-10
 Found    15 degrees of freedom:
 Adding 6 more for cell shape distortion
       N       E                     dE             d eps       ncg     rms          rms(c)
DAV:   1    -0.136781153412E+03   -0.24750E+01   -0.74405E+01  1840   0.410E+01    0.124E+01
DAV:   2    -0.134752836528E+03    0.20283E+01   -0.97877E+00  1808   0.182E+01    0.575E+00
DAV:   3    -0.134283880780E+03    0.46896E+00   -0.67606E-01  1664   0.269E+00    0.290E+00
DAV:   4    -0.134132375648E+03    0.15151E+00   -0.13145E-01  1672   0.136E+00    0.108E+00
DAV:   5    -0.134124511475E+03    0.78642E-02   -0.47355E-02  1704   0.718E-01    0.364E-01
DAV:   6    -0.134124549043E+03   -0.37568E-04   -0.37027E-03  1696   0.233E-01    0.161E-01
DAV:   7    -0.134124580343E+03   -0.31300E-04   -0.44301E-04  1632   0.983E-02    0.534E-02
DAV:   8    -0.134124603076E+03   -0.22733E-04   -0.63031E-05  1656   0.296E-02    0.262E-02
DAV:   9    -0.134124608976E+03   -0.58998E-05   -0.16427E-05  1712   0.176E-02    0.941E-03
DAV:  10    -0.134124610936E+03   -0.19601E-05   -0.37066E-06  1408   0.122E-02    0.343E-03
DAV:  11    -0.134124610820E+03    0.11548E-06   -0.80759E-07   928   0.482E-03
   2 F= -.13412461E+03 E0= -.13412461E+03  d E =-.242969E-15
       N       E                     dE             d eps       ncg     rms          rms(c)
DAV:   1    -0.134914671933E+03   -0.79006E+00   -0.17809E+01  1840   0.190E+01    0.627E+00
DAV:   2    -0.134409724281E+03    0.50495E+00   -0.24597E+00  1776   0.103E+01    0.285E+00
DAV:   3    -0.134294978576E+03    0.11475E+00   -0.19110E-01  1752   0.172E+00    0.140E+00
DAV:   4    -0.134263899604E+03    0.31079E-01   -0.35212E-02  1744   0.718E-01    0.680E-01
DAV:   5    -0.134260865329E+03    0.30343E-02   -0.12420E-02  1648   0.365E-01    0.190E-01
DAV:   6    -0.134260752114E+03    0.11321E-03   -0.14191E-03  1776   0.202E-01    0.896E-02
DAV:   7    -0.134260788439E+03   -0.36325E-04   -0.51344E-04  1608   0.113E-01    0.415E-02
DAV:   8    -0.134260792068E+03   -0.36294E-05   -0.26512E-05  1512   0.259E-02    0.122E-02
DAV:   9    -0.134260793951E+03   -0.18829E-05   -0.92519E-06  1488   0.159E-02    0.504E-03
DAV:  10    -0.134260794075E+03   -0.12383E-06   -0.13592E-06   952   0.512E-03
   3 F= -.13426079E+03 E0= -.13426079E+03  d E =-.129817E-16
       N       E                     dE             d eps       ncg     rms          rms(c)
DAV:   1    -0.136952869929E+03   -0.26921E+01   -0.73416E+01  1840   0.383E+01    0.130E+01
DAV:   2    -0.134859277594E+03    0.20936E+01   -0.10456E+01  1744   0.229E+01    0.592E+00
DAV:   3    -0.134391495689E+03    0.46778E+00   -0.93433E-01  1792   0.406E+00    0.288E+00
DAV:   4    -0.134266924851E+03    0.12457E+00   -0.15005E-01  1744   0.144E+00    0.157E+00
DAV:   5    -0.134250251861E+03    0.16673E-01   -0.48139E-02  1704   0.715E-01    0.427E-01
DAV:   6    -0.134249443936E+03    0.80793E-03   -0.64426E-03  1680   0.318E-01    0.182E-01
DAV:   7    -0.134249589427E+03   -0.14549E-03   -0.15703E-03  1656   0.193E-01    0.868E-02
DAV:   8    -0.134249599202E+03   -0.97748E-05   -0.12089E-04  1656   0.631E-02    0.244E-02
DAV:   9    -0.134249603010E+03   -0.38081E-05   -0.34482E-05  1720   0.278E-02    0.131E-02
DAV:  10    -0.134249603617E+03   -0.60739E-06   -0.71356E-06  1392   0.101E-02
   4 F= -.13424960E+03 E0= -.13424960E+03  d E =-.344003E-11
       N       E                     dE             d eps       ncg     rms          rms(c)
DAV:   1    -0.134778885947E+03   -0.52928E+00   -0.19328E+01  1848   0.203E+01    0.660E+00
DAV:   2    -0.134240048029E+03    0.53884E+00   -0.27274E+00  1760   0.112E+01    0.303E+00
DAV:   3    -0.134114940341E+03    0.12511E+00   -0.21311E-01  1768   0.189E+00    0.148E+00
DAV:   4    -0.134080800855E+03    0.34139E-01   -0.40235E-02  1704   0.751E-01    0.744E-01
DAV:   5    -0.134077203603E+03    0.35973E-02   -0.13692E-02  1688   0.379E-01    0.214E-01
DAV:   6    -0.134077014133E+03    0.18947E-03   -0.16637E-03  1944   0.217E-01    0.994E-02
DAV:   7    -0.134077051211E+03   -0.37078E-04   -0.60066E-04  1632   0.122E-01    0.448E-02
DAV:   8    -0.134077055000E+03   -0.37895E-05   -0.29940E-05  1512   0.297E-02    0.146E-02
DAV:   9    -0.134077057034E+03   -0.20337E-05   -0.10021E-05  1672   0.166E-02    0.538E-03
DAV:  10    -0.134077056877E+03    0.15700E-06   -0.15245E-06   928   0.613E-03
   5 F= -.13407706E+03 E0= -.13407706E+03  d E =-.124073E-13
       N       E                     dE             d eps       ncg     rms          rms(c)
DAV:   1    -0.142753729653E+03   -0.86767E+01   -0.20005E+02  1920   0.799E+01    0.218E+01
DAV:   2    -0.135738216629E+03    0.70155E+01   -0.26323E+01  1792   0.302E+01    0.948E+00
DAV:   3    -0.134526276284E+03    0.12119E+01   -0.23272E+00  1656   0.483E+00    0.482E+00
DAV:   4    -0.134164899894E+03    0.36138E+00   -0.27062E-01  1664   0.199E+00    0.162E+00
DAV:   5    -0.134132606557E+03    0.32293E-01   -0.48674E-02  2184   0.137E+00    0.668E-01
DAV:   6    -0.134132876804E+03   -0.27025E-03   -0.34929E-02  1704   0.852E-01    0.277E-01
DAV:   7    -0.134132472619E+03    0.40418E-03   -0.50712E-03  1784   0.416E-01    0.953E-02
DAV:   8    -0.134132539510E+03   -0.66891E-04   -0.67271E-04  1616   0.141E-01    0.394E-02
DAV:   9    -0.134132548071E+03   -0.85602E-05   -0.91839E-05  1680   0.386E-02    0.129E-02
DAV:  10    -0.134132548851E+03   -0.78081E-06   -0.97371E-06  1464   0.118E-02
   6 F= -.13413255E+03 E0= -.13413255E+03  d E =-.339985E-14
       N       E                     dE             d eps       ncg     rms          rms(c)
DAV:   1    -0.134895637500E+03   -0.76309E+00   -0.17376E+01  1832   0.187E+01    0.623E+00
DAV:   2    -0.134400621456E+03    0.49502E+00   -0.24036E+00  1792   0.101E+01    0.286E+00
DAV:   3    -0.134293299070E+03    0.10732E+00   -0.18614E-01  1760   0.171E+00    0.141E+00
DAV:   4    -0.134263768245E+03    0.29531E-01   -0.31047E-02  1720   0.689E-01    0.656E-01
DAV:   5    -0.134261151283E+03    0.26170E-02   -0.10530E-02  1648   0.337E-01    0.201E-01
DAV:   6    -0.134261008599E+03    0.14268E-03   -0.10609E-03  1976   0.192E-01    0.887E-02
DAV:   7    -0.134261036061E+03   -0.27462E-04   -0.42048E-04  1632   0.997E-02    0.352E-02
DAV:   8    -0.134261037037E+03   -0.97602E-06   -0.25056E-05  1584   0.230E-02    0.149E-02
DAV:   9    -0.134261038692E+03   -0.16558E-05   -0.10426E-05  1576   0.167E-02    0.397E-03
DAV:  10    -0.134261038736E+03   -0.43390E-07   -0.10004E-06   968   0.563E-03
   7 F= -.13426104E+03 E0= -.13426104E+03  d E =-.542282E-16
       N       E                     dE             d eps       ncg     rms          rms(c)
DAV:   1    -0.136888819520E+03   -0.26278E+01   -0.71644E+01  1840   0.378E+01    0.129E+01
DAV:   2    -0.134832474541E+03    0.20563E+01   -0.10253E+01  1784   0.225E+01    0.592E+00
DAV:   3    -0.134392604509E+03    0.43987E+00   -0.87537E-01  1768   0.397E+00    0.290E+00
DAV:   4    -0.134272005657E+03    0.12060E+00   -0.14198E-01  1744   0.140E+00    0.150E+00
DAV:   5    -0.134257926429E+03    0.14079E-01   -0.40038E-02  1720   0.616E-01    0.453E-01
DAV:   6    -0.134256972234E+03    0.95420E-03   -0.42783E-03  1728   0.252E-01    0.187E-01
DAV:   7    -0.134257081465E+03   -0.10923E-03   -0.96902E-04  1608   0.121E-01    0.764E-02
DAV:   8    -0.134257083888E+03   -0.24231E-05   -0.35610E-05  1608   0.266E-02    0.283E-02
DAV:   9    -0.134257088592E+03   -0.47033E-05   -0.29708E-05  1560   0.159E-02    0.117E-02
DAV:  10    -0.134257088702E+03   -0.11002E-06   -0.26506E-06  1240   0.692E-03
   8 F= -.13425709E+03 E0= -.13425709E+03  d E =-.917044E-13
       N       E                     dE             d eps       ncg     rms          rms(c)
DAV:   1    -0.134792507898E+03   -0.53542E+00   -0.18868E+01  1848   0.200E+01    0.655E+00
DAV:   2    -0.134260253448E+03    0.53225E+00   -0.26657E+00  1792   0.111E+01    0.303E+00
DAV:   3    -0.134143021336E+03    0.11723E+00   -0.20467E-01  1776   0.187E+00    0.149E+00
DAV:   4    -0.134109903940E+03    0.33117E-01   -0.35680E-02  1736   0.722E-01    0.713E-01
DAV:   5    -0.134106798222E+03    0.31057E-02   -0.11300E-02  1664   0.347E-01    0.225E-01
DAV:   6    -0.134106576196E+03    0.22203E-03   -0.10813E-03  1960   0.203E-01    0.964E-02
DAV:   7    -0.134106611220E+03   -0.35024E-04   -0.49330E-04  1624   0.108E-01    0.394E-02
DAV:   8    -0.134106611886E+03   -0.66539E-06   -0.22900E-05  1584   0.227E-02    0.172E-02
DAV:   9    -0.134106613743E+03   -0.18570E-05   -0.10025E-05  1600   0.148E-02    0.494E-03
DAV:  10    -0.134106613663E+03    0.79581E-07   -0.11535E-06   992   0.553E-03
   9 F= -.13410661E+03 E0= -.13410661E+03  d E =-.840573E-17
       N       E                     dE             d eps       ncg     rms          rms(c)
DAV:   1    -0.142901077765E+03   -0.87945E+01   -0.20164E+02  1896   0.802E+01    0.218E+01
DAV:   2    -0.135804932407E+03    0.70961E+01   -0.27221E+01  1792   0.314E+01    0.953E+00
DAV:   3    -0.134570912631E+03    0.12340E+01   -0.24146E+00  1664   0.480E+00    0.488E+00
DAV:   4    -0.134189301879E+03    0.38161E+00   -0.32863E-01  1720   0.216E+00    0.163E+00
DAV:   5    -0.134155043865E+03    0.34258E-01   -0.67432E-02  2208   0.169E+00    0.711E-01
DAV:   6    -0.134155092825E+03   -0.48960E-04   -0.44705E-02  1784   0.102E+00    0.316E-01
DAV:   7    -0.134154566374E+03    0.52645E-03   -0.63475E-03  1800   0.471E-01    0.137E-01
DAV:   8    -0.134154688817E+03   -0.12244E-03   -0.12197E-03  1744   0.215E-01    0.448E-02
DAV:   9    -0.134154707461E+03   -0.18644E-04   -0.33205E-04  1648   0.937E-02    0.230E-02
DAV:  10    -0.134154714247E+03   -0.67868E-05   -0.38374E-05  1568   0.202E-02    0.180E-02
DAV:  11    -0.134154720219E+03   -0.59721E-05   -0.15189E-05  1440   0.148E-02    0.873E-03
DAV:  12    -0.134154719852E+03    0.36756E-06   -0.35536E-06  1320   0.719E-03
  10 F= -.13415472E+03 E0= -.13415472E+03  d E =-.158713E-11
       N       E                     dE             d eps       ncg     rms          rms(c)
DAV:   1    -0.134925448166E+03   -0.77073E+00   -0.17642E+01  1840   0.191E+01    0.621E+00
DAV:   2    -0.134415221969E+03    0.51023E+00   -0.25105E+00  1768   0.106E+01    0.284E+00
DAV:   3    -0.134302938044E+03    0.11228E+00   -0.18536E-01  1696   0.168E+00    0.140E+00
DAV:   4    -0.134272177957E+03    0.30760E-01   -0.45022E-02  1856   0.731E-01    0.657E-01
DAV:   5    -0.134269542355E+03    0.26356E-02   -0.12011E-02  1736   0.367E-01    0.224E-01
DAV:   6    -0.134269363308E+03    0.17905E-03   -0.20718E-03  1632   0.167E-01    0.963E-02
DAV:   7    -0.134269374904E+03   -0.11597E-04   -0.21321E-04  1808   0.856E-02    0.382E-02
DAV:   8    -0.134269380977E+03   -0.60727E-05   -0.85282E-05  1888   0.464E-02    0.174E-02
DAV:   9    -0.134269381569E+03   -0.59171E-06   -0.41665E-05  1664   0.251E-02    0.906E-03
DAV:  10    -0.134269381583E+03   -0.14181E-07   -0.18687E-06  1056   0.841E-03
  11 F= -.13426938E+03 E0= -.13426938E+03  d E =-.560137E-15
       N       E                     dE             d eps       ncg     rms          rms(c)
DAV:   1    -0.136977069035E+03   -0.27077E+01   -0.72740E+01  1832   0.385E+01    0.128E+01
DAV:   2    -0.134854857504E+03    0.21222E+01   -0.10724E+01  1784   0.236E+01    0.584E+00
DAV:   3    -0.134396034835E+03    0.45882E+00   -0.89037E-01  1744   0.397E+00    0.286E+00
DAV:   4    -0.134269542713E+03    0.12649E+00   -0.19618E-01  1848   0.155E+00    0.148E+00
DAV:   5    -0.134257079319E+03    0.12463E-01   -0.49290E-02  1752   0.753E-01    0.499E-01
DAV:   6    -0.134255866409E+03    0.12129E-02   -0.91940E-03  1704   0.386E-01    0.199E-01
DAV:   7    -0.134255927894E+03   -0.61484E-04   -0.98778E-04  1752   0.189E-01    0.708E-02
DAV:   8    -0.134255949007E+03   -0.21114E-04   -0.34431E-04  1824   0.937E-02    0.327E-02
DAV:   9    -0.134255963864E+03   -0.14857E-04   -0.20591E-04  1616   0.500E-02    0.188E-02
DAV:  10    -0.134255962679E+03    0.11850E-05   -0.63303E-06  1464   0.230E-02    0.107E-02
DAV:  11    -0.134255963400E+03   -0.72075E-06   -0.94272E-06  1480   0.228E-02
  12 F= -.13425596E+03 E0= -.13425596E+03  d E =-.113080E-11
       N       E                     dE             d eps       ncg     rms          rms(c)
DAV:   1    -0.134817372427E+03   -0.56141E+00   -0.19147E+01  1824   0.203E+01    0.652E+00
DAV:   2    -0.134269421159E+03    0.54795E+00   -0.27850E+00  1792   0.115E+01    0.299E+00
DAV:   3    -0.134146569070E+03    0.12285E+00   -0.20847E-01  1704   0.189E+00    0.147E+00
DAV:   4    -0.134111959344E+03    0.34610E-01   -0.51145E-02  1824   0.850E-01    0.706E-01
DAV:   5    -0.134109171468E+03    0.27879E-02   -0.14047E-02  1720   0.408E-01    0.252E-01
DAV:   6    -0.134108901222E+03    0.27025E-03   -0.21430E-03  1976   0.252E-01    0.104E-01
DAV:   7    -0.134108927622E+03   -0.26400E-04   -0.31530E-04  1992   0.103E-01    0.445E-02
DAV:   8    -0.134108937348E+03   -0.97263E-05   -0.12452E-04  1768   0.469E-02    0.185E-02
DAV:   9    -0.134108937067E+03    0.28141E-06   -0.34125E-05  1728   0.224E-02    0.957E-03
DAV:  10    -0.134108937299E+03   -0.23230E-06   -0.33449E-06  1240   0.855E-03
  13 F= -.13410894E+03 E0= -.13410894E+03  d E =-.500120E-14
       N       E                     dE             d eps       ncg     rms          rms(c)
DAV:   1    -0.137525675605E+03   -0.34167E+01   -0.10367E+02  2240   0.460E+01    0.142E+01
DAV:   2    -0.135099238542E+03    0.24264E+01   -0.12753E+01  2248   0.215E+01    0.687E+00
DAV:   3    -0.134463636055E+03    0.63560E+00   -0.10052E+00  2240   0.521E+00    0.370E+00
DAV:   4    -0.134247296823E+03    0.21634E+00   -0.29384E-01  2408   0.396E+00    0.130E+00
DAV:   5    -0.134235532463E+03    0.11764E-01   -0.88862E-02  2264   0.194E+00    0.607E-01
DAV:   6    -0.134236792990E+03   -0.12605E-02   -0.38289E-02  2264   0.946E-01    0.337E-01
DAV:   7    -0.134236944845E+03   -0.15185E-03   -0.67902E-03  2088   0.773E-01    0.142E-01
DAV:   8    -0.134237030155E+03   -0.85310E-04   -0.14170E-03  2280   0.336E-01    0.768E-02
DAV:   9    -0.134237104398E+03   -0.74243E-04   -0.68794E-04  2352   0.996E-02    0.419E-02
DAV:  10    -0.134237118501E+03   -0.14103E-04   -0.12131E-04  2208   0.758E-02    0.193E-02
DAV:  11    -0.134237120248E+03   -0.17473E-05   -0.14964E-05  2216   0.327E-02    0.128E-02
DAV:  12    -0.134237122722E+03   -0.24744E-05   -0.65053E-06  1648   0.233E-02    0.108E-02
DAV:  13    -0.134237123843E+03   -0.11210E-05   -0.34263E-06  1624   0.909E-03    0.563E-03
DAV:  14    -0.134237123951E+03   -0.10733E-06   -0.10309E-06  1176   0.108E-02
  14 F= -.13423712E+03 E0= -.13423712E+03  d E =-.260194E-16
       N       E                     dE             d eps       ncg     rms          rms(c)
DAV:   1    -0.134402536616E+03   -0.16541E+00   -0.15119E+01  1928   0.106E+01    0.287E+00
DAV:   2    -0.134338064578E+03    0.64472E-01   -0.43663E-01  2112   0.356E+00    0.168E+00
DAV:   3    -0.134294711582E+03    0.43353E-01   -0.74706E-02  2480   0.214E+00    0.760E-01
DAV:   4    -0.134288388733E+03    0.63228E-02   -0.28836E-02  2416   0.105E+00    0.203E-01
DAV:   5    -0.134288836533E+03   -0.44780E-03   -0.94132E-03  2056   0.468E-01    0.196E-01
DAV:   6    -0.134288785540E+03    0.50993E-04   -0.21890E-03  2440   0.393E-01    0.640E-02
DAV:   7    -0.134288800072E+03   -0.14532E-04   -0.39392E-04  2272   0.196E-01    0.430E-02
DAV:   8    -0.134288812015E+03   -0.11944E-04   -0.12688E-04  1944   0.467E-02    0.288E-02
DAV:   9    -0.134288814040E+03   -0.20248E-05   -0.23112E-05  1984   0.362E-02    0.103E-02
DAV:  10    -0.134288814548E+03   -0.50756E-06   -0.47264E-06  1640   0.219E-02
  15 F= -.13428881E+03 E0= -.13428881E+03  d E =-.153629E-17
       N       E                     dE             d eps       ncg     rms          rms(c)
DAV:   1    -0.134830191417E+03   -0.54138E+00   -0.20039E+01  2104   0.125E+01    0.584E+00
DAV:   2    -0.134496442936E+03    0.33375E+00   -0.85424E-01  2168   0.532E+00    0.332E+00
DAV:   3    -0.134315733387E+03    0.18071E+00   -0.19182E-01  2424   0.286E+00    0.155E+00
DAV:   4    -0.134287772597E+03    0.27961E-01   -0.94096E-02  2520   0.161E+00    0.357E-01
DAV:   5    -0.134288669959E+03   -0.89736E-03   -0.26574E-02  2112   0.926E-01    0.312E-01
DAV:   6    -0.134288714504E+03   -0.44546E-04   -0.70865E-03  2424   0.679E-01    0.119E-01
DAV:   7    -0.134288756257E+03   -0.41753E-04   -0.14209E-03  2248   0.367E-01    0.758E-02
DAV:   8    -0.134288803798E+03   -0.47541E-04   -0.48752E-04  1912   0.100E-01    0.589E-02
DAV:   9    -0.134288812512E+03   -0.87138E-05   -0.10139E-04  2024   0.892E-02    0.201E-02
DAV:  10    -0.134288813654E+03   -0.11425E-05   -0.22673E-05  2040   0.491E-02    0.696E-03
DAV:  11    -0.134288814331E+03   -0.67638E-06   -0.71292E-06  1720   0.108E-02
  16 F= -.13428881E+03 E0= -.13428881E+03  d E =-.153270E-17
       N       E                     dE             d eps       ncg     rms          rms(c)
DAV:   1    -0.134347479712E+03   -0.58666E-01   -0.16414E+01  1904   0.104E+01    0.303E+00
DAV:   2    -0.134288413753E+03    0.59066E-01   -0.45014E-01  2144   0.351E+00    0.169E+00
DAV:   3    -0.134247741070E+03    0.40673E-01   -0.54212E-02  2472   0.173E+00    0.913E-01
DAV:   4    -0.134236792849E+03    0.10948E-01   -0.25268E-02  2520   0.949E-01    0.211E-01
DAV:   5    -0.134237024225E+03   -0.23138E-03   -0.88869E-03  2112   0.567E-01    0.163E-01
DAV:   6    -0.134237093031E+03   -0.68806E-04   -0.20684E-03  2328   0.296E-01    0.739E-02
DAV:   7    -0.134237113725E+03   -0.20694E-04   -0.40255E-04  2264   0.181E-01    0.349E-02
DAV:   8    -0.134237119315E+03   -0.55905E-05   -0.10077E-04  1992   0.885E-02    0.209E-02
DAV:   9    -0.134237122780E+03   -0.34650E-05   -0.33967E-05  1856   0.336E-02    0.607E-03
DAV:  10    -0.134237123756E+03   -0.97562E-06   -0.83580E-06  1776   0.168E-02
  17 F= -.13423712E+03 E0= -.13423712E+03  d E =-.257611E-16
       N       E                     dE             d eps       ncg     rms          rms(c)
DAV:   1    -0.135316763183E+03   -0.10796E+01   -0.52287E+01  1488   0.211E+01    0.803E+00
DAV:   2    -0.134717390046E+03    0.59937E+00   -0.24833E+00  1744   0.889E+00    0.467E+00
DAV:   3    -0.134311592686E+03    0.40580E+00   -0.48194E-01  1928   0.597E+00    0.212E+00
DAV:   4    -0.134232117692E+03    0.79475E-01   -0.24935E-01  1920   0.246E+00    0.466E-01
DAV:   5    -0.134233368469E+03   -0.12508E-02   -0.81237E-02  1632   0.102E+00    0.330E-01
DAV:   6    -0.134232506128E+03    0.86234E-03   -0.66810E-03  1784   0.266E-01    0.144E-01
DAV:   7    -0.134232055075E+03    0.45105E-03   -0.72150E-04  2016   0.130E-01    0.846E-02
DAV:   8    -0.134231852354E+03    0.20272E-03   -0.54889E-04  1952   0.944E-02    0.252E-02
DAV:   9    -0.134231847428E+03    0.49268E-05   -0.24632E-04  1840   0.743E-02    0.225E-02
DAV:  10    -0.134231831548E+03    0.15880E-04   -0.51299E-05  1624   0.715E-02    0.916E-03
DAV:  11    -0.134231820502E+03    0.11046E-04   -0.24405E-05  1768   0.456E-02    0.390E-03
DAV:  12    -0.134231816172E+03    0.43303E-05   -0.12590E-05  1528   0.144E-02    0.758E-03
DAV:  13    -0.134231815787E+03    0.38468E-06   -0.22458E-06  1064   0.563E-03
  18 F= -.13423182E+03 E0= -.13423182E+03  d E =-.319081E-17
       N       E                     dE             d eps       ncg     rms          rms(c)
DAV:   1    -0.134429689458E+03   -0.19787E+00   -0.66906E+00  1488   0.764E+00    0.298E+00
DAV:   2    -0.134345193218E+03    0.84496E-01   -0.33452E-01  1776   0.407E+00    0.169E+00
DAV:   3    -0.134295438110E+03    0.49755E-01   -0.72159E-02  1952   0.224E+00    0.831E-01
DAV:   4    -0.134286809251E+03    0.86289E-02   -0.35545E-02  1976   0.107E+00    0.221E-01
DAV:   5    -0.134287384387E+03   -0.57514E-03   -0.11142E-02  1664   0.486E-01    0.170E-01
DAV:   6    -0.134287362850E+03    0.21537E-04   -0.22441E-03  1960   0.427E-01    0.619E-02
DAV:   7    -0.134287362457E+03    0.39297E-06   -0.40954E-04  1808   0.248E-01    0.373E-02
DAV:   8    -0.134287378513E+03   -0.16056E-04   -0.15191E-04  1528   0.535E-02    0.149E-02
DAV:   9    -0.134287379622E+03   -0.11089E-05   -0.24616E-05  1576   0.348E-02    0.964E-03
DAV:  10    -0.134287379859E+03   -0.23771E-06   -0.50589E-06  1216   0.282E-02
  19 F= -.13428738E+03 E0= -.13428738E+03  d E =-.125718E-17
       N       E                     dE             d eps       ncg     rms          rms(c)
DAV:   1    -0.134852256970E+03   -0.56488E+00   -0.26714E+01  1488   0.153E+01    0.605E+00
DAV:   2    -0.134518914701E+03    0.33334E+00   -0.13872E+00  1792   0.756E+00    0.337E+00
DAV:   3    -0.134321046346E+03    0.19787E+00   -0.27903E-01  1936   0.430E+00    0.167E+00
DAV:   4    -0.134285111174E+03    0.35935E-01   -0.14320E-01  1968   0.193E+00    0.433E-01
DAV:   5    -0.134287237396E+03   -0.21262E-02   -0.44140E-02  1664   0.962E-01    0.279E-01
DAV:   6    -0.134287295442E+03   -0.58046E-04   -0.69864E-03  1976   0.696E-01    0.114E-01
DAV:   7    -0.134287329269E+03   -0.33827E-04   -0.10741E-03  1808   0.282E-01    0.829E-02
DAV:   8    -0.134287390405E+03   -0.61135E-04   -0.43820E-04  1744   0.146E-01    0.501E-02
DAV:   9    -0.134287372918E+03    0.17487E-04   -0.27800E-04  1760   0.227E-01    0.966E-03
DAV:  10    -0.134287378705E+03   -0.57879E-05   -0.52035E-05  1760   0.363E-02    0.110E-02
DAV:  11    -0.134287379303E+03   -0.59740E-06   -0.29172E-06  1240   0.137E-02
  20 F= -.13428738E+03 E0= -.13428738E+03  d E =-.124024E-17
       N       E                     dE             d eps       ncg     rms          rms(c)
DAV:   1    -0.134373085441E+03   -0.85707E-01   -0.66786E+00  1504   0.766E+00    0.302E+00
DAV:   2    -0.134290190800E+03    0.82895E-01   -0.35105E-01  1784   0.405E+00    0.169E+00
DAV:   3    -0.134240424520E+03    0.49766E-01   -0.69369E-02  1960   0.244E+00    0.833E-01
DAV:   4    -0.134231349877E+03    0.90746E-02   -0.35123E-02  1960   0.102E+00    0.211E-01
DAV:   5    -0.134231787096E+03   -0.43722E-03   -0.98298E-03  1624   0.420E-01    0.124E-01
DAV:   6    -0.134231795323E+03   -0.82267E-05   -0.12197E-03  1896   0.219E-01    0.523E-02
DAV:   7    -0.134231803626E+03   -0.83034E-05   -0.18208E-04  1752   0.126E-01    0.354E-02
DAV:   8    -0.134231814334E+03   -0.10708E-04   -0.75469E-05  1496   0.708E-02    0.135E-02
DAV:   9    -0.134231812226E+03    0.21081E-05   -0.28687E-05  1648   0.569E-02    0.627E-03
DAV:  10    -0.134231813024E+03   -0.79726E-06   -0.68339E-06  1216   0.956E-03
  21 F= -.13423181E+03 E0= -.13423181E+03  d E =-.309242E-17
       N       E                     dE             d eps       ncg     rms          rms(c)
DAV:   1    -0.135310960615E+03   -0.10791E+01   -0.52101E+01  1488   0.210E+01    0.756E+00
DAV:   2    -0.134733345231E+03    0.57762E+00   -0.21522E+00  1712   0.651E+00    0.459E+00
DAV:   3    -0.134255843230E+03    0.47750E+00   -0.33394E-01  1840   0.280E+00    0.945E-01
DAV:   4    -0.134246683794E+03    0.91594E-02   -0.17791E-01  1800   0.148E+00    0.347E-01
DAV:   5    -0.134247086620E+03   -0.40283E-03   -0.20845E-02  1664   0.551E-01    0.255E-01
DAV:   6    -0.134246050723E+03    0.10359E-02   -0.20730E-03  2208   0.304E-01    0.903E-02
DAV:   7    -0.134245883259E+03    0.16746E-03   -0.12170E-03  1888   0.139E-01    0.615E-02
DAV:   8    -0.134245871810E+03    0.11449E-04   -0.39950E-04  1936   0.784E-02    0.288E-02
DAV:   9    -0.134245880475E+03   -0.86646E-05   -0.11802E-04  1720   0.579E-02    0.177E-02
DAV:  10    -0.134245877546E+03    0.29294E-05   -0.12456E-05  1480   0.282E-02    0.986E-03
DAV:  11    -0.134245874799E+03    0.27471E-05   -0.92838E-06  1448   0.181E-02    0.319E-03
DAV:  12    -0.134245874719E+03    0.79675E-07   -0.48293E-06  1400   0.974E-03
  22 F= -.13424587E+03 E0= -.13424587E+03  d E =-.138314E-16
       N       E                     dE             d eps       ncg     rms          rms(c)
DAV:   1    -0.134417795363E+03   -0.17192E+00   -0.63637E+00  1488   0.725E+00    0.272E+00
DAV:   2    -0.134341661293E+03    0.76134E-01   -0.19519E-01  1688   0.221E+00    0.164E+00
DAV:   3    -0.134290927998E+03    0.50733E-01   -0.35522E-02  1936   0.951E-01    0.387E-01
DAV:   4    -0.134291041307E+03   -0.11331E-03   -0.19921E-02  1680   0.441E-01    0.186E-01
DAV:   5    -0.134291075919E+03   -0.34612E-04   -0.12978E-03  1736   0.152E-01    0.129E-01
DAV:   6    -0.134291043389E+03    0.32530E-04   -0.19677E-04  1864   0.889E-02    0.418E-02
DAV:   7    -0.134291049556E+03   -0.61671E-05   -0.77419E-05  2008   0.710E-02    0.325E-02
DAV:   8    -0.134291051296E+03   -0.17398E-05   -0.23260E-05  1672   0.267E-02    0.218E-02
DAV:   9    -0.134291051682E+03   -0.38641E-06   -0.66180E-06  1568   0.840E-03
  23 F= -.13429105E+03 E0= -.13429105E+03  d E =-.163851E-17
       N       E                     dE             d eps       ncg     rms          rms(c)
DAV:   1    -0.134796263371E+03   -0.50521E+00   -0.25435E+01  1480   0.145E+01    0.547E+00
DAV:   2    -0.134493948895E+03    0.30231E+00   -0.80623E-01  1688   0.422E+00    0.327E+00
DAV:   3    -0.134292791563E+03    0.20116E+00   -0.13978E-01  1816   0.177E+00    0.799E-01
DAV:   4    -0.134290844280E+03    0.19473E-02   -0.71877E-02  1728   0.911E-01    0.299E-01
DAV:   5    -0.134291105454E+03   -0.26117E-03   -0.69773E-03  1712   0.352E-01    0.223E-01
DAV:   6    -0.134291013930E+03    0.91525E-04   -0.96805E-04  2056   0.191E-01    0.829E-02
DAV:   7    -0.134291041156E+03   -0.27226E-04   -0.23462E-04  1856   0.674E-02    0.700E-02
DAV:   8    -0.134291052696E+03   -0.11540E-04   -0.58617E-05  1736   0.273E-02    0.176E-02
DAV:   9    -0.134291051031E+03    0.16649E-05   -0.22282E-05  1632   0.185E-02    0.824E-03
DAV:  10    -0.134291051308E+03   -0.27648E-06   -0.29899E-06  1240   0.787E-03
  24 F= -.13429105E+03 E0= -.13429105E+03  d E =-.159268E-17
       N       E                     dE             d eps       ncg     rms          rms(c)
DAV:   1    -0.134372274457E+03   -0.81223E-01   -0.63592E+00  1496   0.725E+00    0.273E+00
DAV:   2    -0.134296463823E+03    0.75811E-01   -0.19901E-01  1680   0.228E+00    0.164E+00
DAV:   3    -0.134246058969E+03    0.50405E-01   -0.35643E-02  1880   0.102E+00    0.396E-01
DAV:   4    -0.134245845259E+03    0.21371E-03   -0.19995E-02  1672   0.463E-01    0.153E-01
DAV:   5    -0.134245879596E+03   -0.34338E-04   -0.16484E-03  1712   0.167E-01    0.104E-01
DAV:   6    -0.134245865839E+03    0.13757E-04   -0.19571E-04  1864   0.763E-02    0.367E-02
DAV:   7    -0.134245871955E+03   -0.61156E-05   -0.36439E-05  1960   0.332E-02    0.235E-02
DAV:   8    -0.134245874252E+03   -0.22975E-05   -0.14296E-05  1704   0.201E-02    0.105E-02
DAV:   9    -0.134245874235E+03    0.17379E-07   -0.21131E-06  1160   0.746E-03
  25 F= -.13424587E+03 E0= -.13424587E+03  d E =-.137844E-16
       N       E                     dE             d eps       ncg     rms          rms(c)
DAV:   1    -0.134802041770E+03   -0.55617E+00   -0.28906E+01  1880   0.151E+01    0.546E+00
DAV:   2    -0.134507300975E+03    0.29474E+00   -0.88411E-01  2112   0.430E+00    0.327E+00
DAV:   3    -0.134305771519E+03    0.20153E+00   -0.14616E-01  2384   0.179E+00    0.758E-01
DAV:   4    -0.134304901619E+03    0.86990E-03   -0.70849E-02  2136   0.880E-01    0.313E-01
DAV:   5    -0.134305092634E+03   -0.19101E-03   -0.62085E-03  2184   0.363E-01    0.220E-01
DAV:   6    -0.134305019422E+03    0.73212E-04   -0.11432E-03  2488   0.313E-01    0.805E-02
DAV:   7    -0.134305037874E+03   -0.18452E-04   -0.28602E-04  2616   0.157E-01    0.595E-02
DAV:   8    -0.134305048589E+03   -0.10715E-04   -0.81834E-05  2192   0.628E-02    0.297E-02
DAV:   9    -0.134305052711E+03   -0.41225E-05   -0.54417E-05  2072   0.455E-02    0.931E-03
DAV:  10    -0.134305053568E+03   -0.85683E-06   -0.69194E-06  1712   0.179E-02
  26 F= -.13430505E+03 E0= -.13430505E+03  d E =-.504382E-18
       N       E                     dE             d eps       ncg     rms          rms(c)
DAV:   1    -0.134303372462E+03    0.16802E-02   -0.16473E+00  2120   0.182E+00    0.388E-02
DAV:   2    -0.134305837216E+03   -0.24648E-02   -0.24807E-02  1960   0.300E-01    0.147E-02
DAV:   3    -0.134305913835E+03   -0.76619E-04   -0.80513E-04  2368   0.613E-02    0.987E-03
DAV:   4    -0.134305918215E+03   -0.43797E-05   -0.49920E-05  1640   0.251E-02    0.699E-03
DAV:   5    -0.134305918220E+03   -0.51405E-08   -0.31339E-06  1384   0.141E-02
  27 F= -.13430592E+03 E0= -.13430592E+03  d E =-.520351E-18
       N       E                     dE             d eps       ncg     rms          rms(c)
DAV:   1    -0.134301002084E+03    0.49161E-02   -0.31037E+00  2048   0.275E+00    0.104E-01
DAV:   2    -0.134305792140E+03   -0.47901E-02   -0.49035E-02  2080   0.477E-01    0.351E-02
DAV:   3    -0.134305905780E+03   -0.11364E-03   -0.15014E-03  2496   0.136E-01    0.219E-02
DAV:   4    -0.134305912905E+03   -0.71249E-05   -0.11339E-04  2416   0.325E-02    0.151E-02
DAV:   5    -0.134305911803E+03    0.11020E-05   -0.35094E-06  1688   0.217E-02    0.879E-03
DAV:   6    -0.134305911741E+03    0.61114E-07   -0.64907E-06  1920   0.295E-02
  28 F= -.13430591E+03 E0= -.13430591E+03  d E =-.608667E-18
       N       E                     dE             d eps       ncg     rms          rms(c)
DAV:   1    -0.134302559552E+03    0.33523E-02   -0.16473E+00  2056   0.189E+00    0.702E-02
DAV:   2    -0.134305006029E+03   -0.24465E-02   -0.24825E-02  1992   0.296E-01    0.197E-02
DAV:   3    -0.134305080415E+03   -0.74386E-04   -0.84115E-04  2336   0.811E-02    0.166E-02
DAV:   4    -0.134305085545E+03   -0.51300E-05   -0.67372E-05  2184   0.213E-02    0.123E-02
DAV:   5    -0.134305084945E+03    0.60079E-06   -0.20113E-06  1232   0.123E-02
  29 F= -.13430508E+03 E0= -.13430508E+03  d E =-.701670E-18
       N       E                     dE             d eps       ncg     rms          rms(c)
DAV:   1    -0.134293499406E+03    0.11586E-01   -0.70187E+00  2120   0.399E+00    0.148E-01
DAV:   2    -0.134305228800E+03   -0.11729E-01   -0.12113E-01  2144   0.810E-01    0.633E-02
DAV:   3    -0.134305388368E+03   -0.15957E-03   -0.28082E-03  2512   0.216E-01    0.332E-02
DAV:   4    -0.134305388976E+03   -0.60877E-06   -0.18136E-04  2608   0.622E-02    0.212E-02
DAV:   5    -0.134305386280E+03    0.26967E-05   -0.23613E-05  2312   0.426E-02    0.108E-02
DAV:   6    -0.134305386514E+03   -0.23475E-06   -0.12391E-05  2104   0.340E-02    0.504E-03
DAV:   7    -0.134305387942E+03   -0.14273E-05   -0.13867E-05  1512   0.128E-02    0.238E-03
DAV:   8    -0.134305388032E+03   -0.90473E-07   -0.89199E-07  1120   0.421E-03
  30 F= -.13430539E+03 E0= -.13430539E+03  d E =-.701172E-18
       N       E                     dE             d eps       ncg     rms          rms(c)
DAV:   1    -0.134303476052E+03    0.19119E-02   -0.16447E+00  2072   0.179E+00    0.389E-02
DAV:   2    -0.134305911132E+03   -0.24351E-02   -0.24512E-02  1968   0.290E-01    0.139E-02
DAV:   3    -0.134305970580E+03   -0.59448E-04   -0.63842E-04  2352   0.604E-02    0.848E-03
DAV:   4    -0.134305974137E+03   -0.35566E-05   -0.41418E-05  1632   0.192E-02    0.604E-03
DAV:   5    -0.134305974151E+03   -0.14556E-07   -0.23703E-06  1288   0.137E-02
  31 F= -.13430597E+03 E0= -.13430597E+03  d E =-.614116E-18
       N       E                     dE             d eps       ncg     rms          rms(c)
DAV:   1    -0.134301184144E+03    0.47900E-02   -0.31034E+00  2064   0.271E+00    0.102E-01
DAV:   2    -0.134305956209E+03   -0.47721E-02   -0.48878E-02  2104   0.464E-01    0.372E-02
DAV:   3    -0.134306020667E+03   -0.64458E-04   -0.10291E-03  2456   0.144E-01    0.197E-02
DAV:   4    -0.134306026994E+03   -0.63269E-05   -0.10145E-04  2480   0.310E-02    0.128E-02
DAV:   5    -0.134306026717E+03    0.27669E-06   -0.40359E-06  1712   0.235E-02
  32 F= -.13430603E+03 E0= -.13430603E+03  d E =-.506597E-18
       N       E                     dE             d eps       ncg     rms          rms(c)
DAV:   1    -0.134302883753E+03    0.31432E-02   -0.16450E+00  2056   0.187E+00    0.648E-02
DAV:   2    -0.134305351029E+03   -0.24673E-02   -0.25030E-02  2000   0.304E-01    0.207E-02
DAV:   3    -0.134305398846E+03   -0.47818E-04   -0.58087E-04  2352   0.868E-02    0.138E-02
DAV:   4    -0.134305402837E+03   -0.39912E-05   -0.52194E-05  2064   0.207E-02    0.103E-02
DAV:   5    -0.134305402486E+03    0.35137E-06   -0.14876E-06  1168   0.137E-02
  33 F= -.13430540E+03 E0= -.13430540E+03  d E =-.489350E-18
       N       E                     dE             d eps       ncg     rms          rms(c)
DAV:   1    -0.134293135730E+03    0.12267E-01   -0.70190E+00  2056   0.405E+00    0.155E-01
DAV:   2    -0.134304860972E+03   -0.11725E-01   -0.12078E-01  2080   0.706E-01    0.599E-02
DAV:   3    -0.134305094619E+03   -0.23365E-03   -0.34315E-03  2528   0.215E-01    0.353E-02
DAV:   4    -0.134305102503E+03   -0.78842E-05   -0.26822E-04  2584   0.640E-02    0.240E-02
DAV:   5    -0.134305097301E+03    0.52021E-05   -0.19980E-05  2376   0.402E-02    0.132E-02
DAV:   6    -0.134305095767E+03    0.15343E-05   -0.17167E-05  2480   0.487E-02    0.576E-03
DAV:   7    -0.134305097726E+03   -0.19588E-05   -0.21703E-05  2072   0.176E-02    0.535E-03
DAV:   8    -0.134305097688E+03    0.37388E-07   -0.64861E-07  1208   0.878E-03
  34 F= -.13430510E+03 E0= -.13430510E+03  d E =-.769389E-18
       N       E                     dE             d eps       ncg     rms          rms(c)
DAV:   1    -0.134303361133E+03    0.17366E-02   -0.16460E+00  1904   0.152E+00    0.442E-02
DAV:   2    -0.134305840935E+03   -0.24798E-02   -0.24928E-02  1984   0.248E-01    0.142E-02
DAV:   3    -0.134305901849E+03   -0.60913E-04   -0.65063E-04  2400   0.582E-02    0.949E-03
DAV:   4    -0.134305904832E+03   -0.29840E-05   -0.39791E-05  2080   0.187E-02    0.687E-03
DAV:   5    -0.134305904613E+03    0.21967E-06   -0.25250E-06  1664   0.121E-02
  35 F= -.13430590E+03 E0= -.13430590E+03  d E =-.645265E-18
       N       E                     dE             d eps       ncg     rms          rms(c)
DAV:   1    -0.134301009014E+03    0.48958E-02   -0.31063E+00  2016   0.234E+00    0.105E-01
DAV:   2    -0.134305845289E+03   -0.48363E-02   -0.49375E-02  2104   0.420E-01    0.346E-02
DAV:   3    -0.134305955784E+03   -0.11050E-03   -0.13636E-03  2448   0.127E-01    0.217E-02
DAV:   4    -0.134305962813E+03   -0.70290E-05   -0.12279E-04  2320   0.387E-02    0.156E-02
DAV:   5    -0.134305961199E+03    0.16137E-05   -0.58802E-06  1952   0.266E-02    0.962E-03
DAV:   6    -0.134305960587E+03    0.61284E-06   -0.76690E-06  2128   0.434E-02
  36 F= -.13430596E+03 E0= -.13430596E+03  d E =-.723559E-18
       N       E                     dE             d eps       ncg     rms          rms(c)
DAV:   1    -0.134302628853E+03    0.33323E-02   -0.16462E+00  1944   0.169E+00    0.629E-02
DAV:   2    -0.134305127982E+03   -0.24991E-02   -0.25396E-02  2056   0.278E-01    0.186E-02
DAV:   3    -0.134305205331E+03   -0.77348E-04   -0.85320E-04  2448   0.790E-02    0.136E-02
DAV:   4    -0.134305210291E+03   -0.49601E-05   -0.68501E-05  2216   0.245E-02    0.109E-02
DAV:   5    -0.134305209665E+03    0.62529E-06   -0.28125E-06  1600   0.140E-02
  37 F= -.13430521E+03 E0= -.13430521E+03  d E =-.102074E-17
       N       E                     dE             d eps       ncg     rms          rms(c)
DAV:   1    -0.134294666200E+03    0.10544E-01   -0.69921E+00  2232   0.379E+00    0.158E-01
DAV:   2    -0.134305605100E+03   -0.10939E-01   -0.11172E-01  1992   0.658E-01    0.473E-02
DAV:   3    -0.134305887655E+03   -0.28255E-03   -0.34261E-03  2400   0.171E-01    0.328E-02
DAV:   4    -0.134305904631E+03   -0.16976E-04   -0.25443E-04  2456   0.523E-02    0.227E-02
DAV:   5    -0.134305902691E+03    0.19400E-05   -0.10973E-05  2176   0.289E-02    0.145E-02
DAV:   6    -0.134305902684E+03    0.63410E-08   -0.11344E-05  2128   0.471E-02    0.526E-03
DAV:   7    -0.134305903644E+03   -0.95945E-06   -0.10439E-05  2096   0.138E-02    0.444E-03
DAV:   8    -0.134305903733E+03   -0.89349E-07   -0.10614E-06  1168   0.566E-03
  38 F= -.13430590E+03 E0= -.13430590E+03  d E =-.956377E-18
       N       E                     dE             d eps       ncg     rms          rms(c)
DAV:   1    -0.134303523787E+03    0.23799E-02   -0.16448E+00  1912   0.161E+00    0.383E-02
DAV:   2    -0.134306157460E+03   -0.26337E-02   -0.26442E-02  1984   0.267E-01    0.132E-02
DAV:   3    -0.134306222191E+03   -0.64731E-04   -0.67948E-04  2184   0.553E-02    0.885E-03
DAV:   4    -0.134306226085E+03   -0.38936E-05   -0.40145E-05  1704   0.163E-02    0.660E-03
DAV:   5    -0.134306226368E+03   -0.28266E-06   -0.19726E-06  1336   0.110E-02
  39 F= -.13430623E+03 E0= -.13430623E+03  d E =-.723223E-18
       N       E                     dE             d eps       ncg     rms          rms(c)
DAV:   1    -0.134300511287E+03    0.57148E-02   -0.31005E+00  1912   0.243E+00    0.984E-02
DAV:   2    -0.134305679772E+03   -0.51685E-02   -0.52333E-02  2048   0.426E-01    0.323E-02
DAV:   3    -0.134305783515E+03   -0.10374E-03   -0.12833E-03  2400   0.104E-01    0.205E-02
DAV:   4    -0.134305790461E+03   -0.69454E-05   -0.83894E-05  2256   0.288E-02    0.132E-02
DAV:   5    -0.134305791651E+03   -0.11899E-05   -0.45099E-06  1736   0.176E-02    0.757E-03
DAV:   6    -0.134305792994E+03   -0.13429E-05   -0.33765E-06  1592   0.238E-02    0.226E-03
DAV:   7    -0.134305793361E+03   -0.36696E-06   -0.36823E-06  1472   0.822E-03
  40 F= -.13430579E+03 E0= -.13430579E+03  d E =-.484197E-18
       N       E                     dE             d eps       ncg     rms          rms(c)
DAV:   1    -0.134302239051E+03    0.35539E-02   -0.16446E+00  1920   0.177E+00    0.613E-02
DAV:   2    -0.134304907146E+03   -0.26681E-02   -0.26941E-02  2048   0.287E-01    0.213E-02
DAV:   3    -0.134304954075E+03   -0.46929E-04   -0.57288E-04  2304   0.833E-02    0.139E-02
DAV:   4    -0.134304957068E+03   -0.29924E-05   -0.38823E-05  1888   0.149E-02    0.948E-03
DAV:   5    -0.134304957082E+03   -0.14315E-07   -0.13341E-06  1320   0.115E-02
  41 F= -.13430496E+03 E0= -.13430496E+03  d E =-.437746E-18
       N       E                     dE             d eps       ncg     rms          rms(c)
DAV:   1    -0.134294513154E+03    0.10444E-01   -0.70189E+00  2080   0.386E+00    0.147E-01
DAV:   2    -0.134306615940E+03   -0.12103E-01   -0.12371E-01  2024   0.730E-01    0.547E-02
DAV:   3    -0.134306892684E+03   -0.27674E-03   -0.35864E-03  2400   0.167E-01    0.322E-02
DAV:   4    -0.134306903125E+03   -0.10441E-04   -0.20632E-04  2480   0.503E-02    0.206E-02
DAV:   5    -0.134306903919E+03   -0.79392E-06   -0.16128E-05  2144   0.296E-02    0.111E-02
DAV:   6    -0.134306905853E+03   -0.19339E-05   -0.93910E-06  2032   0.352E-02    0.342E-03
DAV:   7    -0.134306907000E+03   -0.11470E-05   -0.99772E-06  1768   0.114E-02    0.224E-03
DAV:   8    -0.134306907142E+03   -0.14228E-06   -0.43887E-07  1080   0.416E-03
  42 F= -.13430691E+03 E0= -.13430691E+03  d E =-.436558E-18
       N       E                     dE             d eps       ncg     rms          rms(c)
DAV:   1    -0.134304134911E+03    0.27721E-02   -0.16463E+00  1928   0.162E+00    0.390E-02
DAV:   2    -0.134306614133E+03   -0.24792E-02   -0.24862E-02  2064   0.255E-01    0.120E-02
DAV:   3    -0.134306691419E+03   -0.77286E-04   -0.79120E-04  2296   0.542E-02    0.831E-03
DAV:   4    -0.134306695838E+03   -0.44189E-05   -0.43936E-05  1592   0.182E-02    0.620E-03
DAV:   5    -0.134306696346E+03   -0.50836E-06   -0.29295E-06  1480   0.110E-02
  43 F= -.13430670E+03 E0= -.13430670E+03  d E =-.488644E-18
       N       E                     dE             d eps       ncg     rms          rms(c)
DAV:   1    -0.134300300736E+03    0.63951E-02   -0.31048E+00  1944   0.242E+00    0.945E-02
DAV:   2    -0.134305202218E+03   -0.49015E-02   -0.49590E-02  2008   0.433E-01    0.268E-02
DAV:   3    -0.134305372143E+03   -0.16992E-03   -0.18174E-03  2328   0.871E-02    0.195E-02
DAV:   4    -0.134305382433E+03   -0.10290E-04   -0.10831E-04  2248   0.271E-02    0.141E-02
DAV:   5    -0.134305383533E+03   -0.10998E-05   -0.45255E-06  1520   0.142E-02    0.892E-03
DAV:   6    -0.134305385604E+03   -0.20705E-05   -0.54955E-06  1680   0.273E-02    0.304E-03
DAV:   7    -0.134305385950E+03   -0.34596E-06   -0.32453E-06  1624   0.817E-03
  44 F= -.13430539E+03 E0= -.13430539E+03  d E =-.682707E-18
       N       E                     dE             d eps       ncg     rms          rms(c)
DAV:   1    -0.134301605506E+03    0.37801E-02   -0.16459E+00  1896   0.158E+00    0.563E-02
DAV:   2    -0.134304142054E+03   -0.25365E-02   -0.25553E-02  1936   0.242E-01    0.139E-02
DAV:   3    -0.134304225985E+03   -0.83931E-04   -0.85348E-04  2272   0.529E-02    0.130E-02
DAV:   4    -0.134304230196E+03   -0.42113E-05   -0.46800E-05  1848   0.160E-02    0.990E-03
DAV:   5    -0.134304230378E+03   -0.18182E-06   -0.25248E-06  1320   0.886E-03
  45 F= -.13430423E+03 E0= -.13430423E+03  d E =-.101088E-17
       N       E                     dE             d eps       ncg     rms          rms(c)
DAV:   1    -0.134293315564E+03    0.10915E-01   -0.70237E+00  1928   0.331E+00    0.135E-01
DAV:   2    -0.134304782765E+03   -0.11467E-01   -0.11632E-01  2000   0.606E-01    0.439E-02
DAV:   3    -0.134305126058E+03   -0.34329E-03   -0.39179E-03  2424   0.142E-01    0.314E-02
DAV:   4    -0.134305139118E+03   -0.13060E-04   -0.22907E-04  2480   0.478E-02    0.220E-02
DAV:   5    -0.134305136414E+03    0.27041E-05   -0.13127E-05  2152   0.379E-02    0.123E-02
DAV:   6    -0.134305135115E+03    0.12996E-05   -0.12605E-05  2240   0.511E-02    0.622E-03
DAV:   7    -0.134305136848E+03   -0.17336E-05   -0.20575E-05  2088   0.155E-02    0.509E-03
DAV:   8    -0.134305136804E+03    0.43827E-07   -0.87858E-07  1296   0.634E-03
  46 F= -.13430514E+03 E0= -.13430514E+03  d E =-.970974E-18
       N       E                     dE             d eps       ncg     rms          rms(c)
DAV:   1    -0.134303374467E+03    0.17624E-02   -0.16459E+00  1920   0.166E+00    0.405E-02
DAV:   2    -0.134305906039E+03   -0.25316E-02   -0.25483E-02  2040   0.281E-01    0.152E-02
DAV:   3    -0.134305983582E+03   -0.77543E-04   -0.83432E-04  2384   0.637E-02    0.101E-02
DAV:   4    -0.134305986581E+03   -0.29990E-05   -0.47708E-05  2160   0.230E-02    0.675E-03
DAV:   5    -0.134305985613E+03    0.96822E-06   -0.25525E-06  1544   0.206E-02
  47 F= -.13430599E+03 E0= -.13430599E+03  d E =-.714459E-18
       N       E                     dE             d eps       ncg     rms          rms(c)
DAV:   1    -0.134300813789E+03    0.51728E-02   -0.31056E+00  1976   0.250E+00    0.979E-02
DAV:   2    -0.134305652669E+03   -0.48389E-02   -0.49411E-02  2048   0.430E-01    0.327E-02
DAV:   3    -0.134305792715E+03   -0.14005E-03   -0.17351E-03  2376   0.111E-01    0.211E-02
DAV:   4    -0.134305797384E+03   -0.46689E-05   -0.13249E-04  2352   0.551E-02    0.151E-02
DAV:   5    -0.134305792198E+03    0.51858E-05   -0.70792E-06  2032   0.456E-02    0.809E-03
DAV:   6    -0.134305788885E+03    0.33127E-05   -0.97715E-06  2272   0.569E-02    0.581E-03
DAV:   7    -0.134305791682E+03   -0.27973E-05   -0.32401E-05  2024   0.202E-02    0.632E-03
DAV:   8    -0.134305791574E+03    0.10855E-06   -0.93699E-07  1312   0.612E-03
  48 F= -.13430579E+03 E0= -.13430579E+03  d E =-.567036E-18
       N       E                     dE             d eps       ncg     rms          rms(c)
DAV:   1    -0.134302148522E+03    0.36432E-02   -0.16457E+00  1928   0.169E+00    0.600E-02
DAV:   2    -0.134304703215E+03   -0.25547E-02   -0.25900E-02  2008   0.284E-01    0.175E-02
DAV:   3    -0.134304782318E+03   -0.79104E-04   -0.88183E-04  2352   0.705E-02    0.143E-02
DAV:   4    -0.134304786514E+03   -0.41960E-05   -0.65893E-05  2288   0.231E-02    0.109E-02
DAV:   5    -0.134304785360E+03    0.11548E-05   -0.25662E-06  1472   0.137E-02    0.759E-03
DAV:   6    -0.134304783849E+03    0.15108E-05   -0.28085E-06  1760   0.332E-02    0.275E-03
DAV:   7    -0.134304784082E+03   -0.23318E-06   -0.50859E-06  2000   0.103E-02
  49 F= -.13430478E+03 E0= -.13430478E+03  d E =-.657573E-18
       N       E                     dE             d eps       ncg     rms          rms(c)
DAV:   1    -0.134296486787E+03    0.82971E-02   -0.80255E+00  1872   0.540E+00    0.355E-01
DAV:   2    -0.134303663484E+03   -0.71767E-02   -0.74662E-02  2200   0.720E-01    0.122E-01
DAV:   3    -0.134303851272E+03   -0.18779E-03   -0.32883E-03  2424   0.314E-01    0.737E-02
DAV:   4    -0.134303836080E+03    0.15192E-04   -0.34053E-04  2472   0.166E-01    0.464E-02
DAV:   5    -0.134303825347E+03    0.10733E-04   -0.10583E-04  2376   0.586E-02    0.188E-02
DAV:   6    -0.134303822469E+03    0.28772E-05   -0.29046E-05  2312   0.481E-02    0.148E-02
DAV:   7    -0.134303824616E+03   -0.21469E-05   -0.32206E-05  2104   0.215E-02    0.130E-02
DAV:   8    -0.134303824824E+03   -0.20745E-06   -0.34808E-06  1568   0.694E-03
  50 F= -.13430382E+03 E0= -.13430382E+03  d E =-.634074E-18
       N       E                     dE             d eps       ncg     rms          rms(c)
DAV:   1    -0.134304721547E+03   -0.89693E-03   -0.21402E+00  1872   0.226E+00    0.118E-01
DAV:   2    -0.134305614937E+03   -0.89339E-03   -0.92417E-03  2016   0.208E-01    0.672E-02
DAV:   3    -0.134305628654E+03   -0.13717E-04   -0.38275E-04  2400   0.108E-01    0.429E-02
DAV:   4    -0.134305625965E+03    0.26892E-05   -0.61804E-05  2152   0.834E-02    0.196E-02
DAV:   5    -0.134305626699E+03   -0.73372E-06   -0.31153E-05  1896   0.173E-02    0.532E-03
DAV:   6    -0.134305626708E+03   -0.89894E-08   -0.26942E-06  1568   0.116E-02
  51 F= -.13430563E+03 E0= -.13430563E+03  d E =-.589024E-18
       N       E                     dE             d eps       ncg     rms          rms(c)
DAV:   1    -0.134304259096E+03    0.13676E-02   -0.40292E+00  1872   0.331E+00    0.308E-01
DAV:   2    -0.134305582406E+03   -0.13233E-02   -0.14582E-02  2104   0.284E-01    0.113E-01
DAV:   3    -0.134305581820E+03    0.58610E-06   -0.72035E-04  2464   0.174E-01    0.591E-02
DAV:   4    -0.134305570443E+03    0.11377E-04   -0.17956E-04  2416   0.129E-01    0.307E-02
DAV:   5    -0.134305568029E+03    0.24140E-05   -0.60411E-05  2240   0.487E-02    0.120E-02
DAV:   6    -0.134305569743E+03   -0.17140E-05   -0.30694E-05  2096   0.213E-02    0.814E-03
DAV:   7    -0.134305569903E+03   -0.15984E-06   -0.42102E-06  1696   0.140E-02
  52 F= -.13430557E+03 E0= -.13430557E+03  d E =-.587833E-18
       N       E                     dE             d eps       ncg     rms          rms(c)
DAV:   1    -0.134302848855E+03    0.27209E-02   -0.21379E+00  1880   0.228E+00    0.203E-01
DAV:   2    -0.134303675484E+03   -0.82663E-03   -0.88243E-03  2096   0.190E-01    0.547E-02
DAV:   3    -0.134303684192E+03   -0.87080E-05   -0.31979E-04  2256   0.121E-01    0.379E-02
DAV:   4    -0.134303680130E+03    0.40618E-05   -0.65517E-05  2288   0.666E-02    0.237E-02
DAV:   5    -0.134303678398E+03    0.17321E-05   -0.31189E-05  1872   0.264E-02    0.976E-03
DAV:   6    -0.134303678821E+03   -0.42280E-06   -0.93941E-06  1872   0.131E-02
  53 F= -.13430368E+03 E0= -.13430368E+03  d E =-.704080E-18
       N       E                     dE             d eps       ncg     rms          rms(c)
DAV:   1    -0.134298951595E+03    0.47268E-02   -0.91096E+00  1872   0.487E+00    0.442E-01
DAV:   2    -0.134302084591E+03   -0.31330E-02   -0.34532E-02  2192   0.491E-01    0.171E-01
DAV:   3    -0.134302143887E+03   -0.59296E-04   -0.29716E-03  2568   0.414E-01    0.936E-02
DAV:   4    -0.134302102680E+03    0.41207E-04   -0.41679E-04  2512   0.218E-01    0.524E-02
DAV:   5    -0.134302098106E+03    0.45740E-05   -0.22403E-04  2232   0.573E-02    0.193E-02
DAV:   6    -0.134302099182E+03   -0.10760E-05   -0.55415E-05  2384   0.441E-02    0.151E-02
DAV:   7    -0.134302099971E+03   -0.78906E-06   -0.14213E-05  2328   0.183E-02    0.124E-02
DAV:   8    -0.134302100075E+03   -0.10430E-06   -0.22341E-06  1344   0.644E-03
  54 F= -.13430210E+03 E0= -.13430210E+03  d E =-.650578E-18
       N       E                     dE             d eps       ncg     rms          rms(c)
DAV:   1    -0.134304109271E+03   -0.20093E-02   -0.21364E+00  1864   0.213E+00    0.147E-01
DAV:   2    -0.134304973990E+03   -0.86472E-03   -0.89863E-03  2048   0.194E-01    0.660E-02
DAV:   3    -0.134304982747E+03   -0.87577E-05   -0.29061E-04  2344   0.833E-02    0.403E-02
DAV:   4    -0.134304979743E+03    0.30045E-05   -0.59198E-05  2136   0.784E-02    0.188E-02
DAV:   5    -0.134304979484E+03    0.25880E-06   -0.21109E-05  2248   0.227E-02    0.648E-03
DAV:   6    -0.134304979578E+03   -0.93631E-07   -0.38612E-06  1736   0.834E-03
  55 F= -.13430498E+03 E0= -.13430498E+03  d E =-.598553E-18
       N       E                     dE             d eps       ncg     rms          rms(c)
DAV:   1    -0.134304292009E+03    0.68747E-03   -0.40245E+00  1848   0.319E+00    0.350E-01
DAV:   2    -0.134305647874E+03   -0.13559E-02   -0.15031E-02  2152   0.288E-01    0.114E-01
DAV:   3    -0.134305645337E+03    0.25373E-05   -0.75072E-04  2488   0.183E-01    0.646E-02
DAV:   4    -0.134305627603E+03    0.17735E-04   -0.17638E-04  2496   0.142E-01    0.317E-02
DAV:   5    -0.134305624084E+03    0.35189E-05   -0.68154E-05  2368   0.510E-02    0.128E-02
DAV:   6    -0.134305625819E+03   -0.17353E-05   -0.27870E-05  2184   0.188E-02    0.105E-02
DAV:   7    -0.134305626091E+03   -0.27234E-06   -0.47877E-06  1824   0.104E-02
  56 F= -.13430563E+03 E0= -.13430563E+03  d E =-.626276E-18
       N       E                     dE             d eps       ncg     rms          rms(c)
DAV:   1    -0.134302502150E+03    0.31237E-02   -0.21348E+00  1864   0.219E+00    0.211E-01
DAV:   2    -0.134303317590E+03   -0.81544E-03   -0.86441E-03  2080   0.193E-01    0.562E-02
DAV:   3    -0.134303325829E+03   -0.82394E-05   -0.29818E-04  2312   0.975E-02    0.380E-02
DAV:   4    -0.134303320818E+03    0.50113E-05   -0.65138E-05  2304   0.718E-02    0.210E-02
DAV:   5    -0.134303319360E+03    0.14575E-05   -0.27512E-05  2024   0.275E-02    0.969E-03
DAV:   6    -0.134303319787E+03   -0.42652E-06   -0.87248E-06  2096   0.116E-02
  57 F= -.13430332E+03 E0= -.13430332E+03  d E =-.740738E-18
       N       E                     dE             d eps       ncg     rms          rms(c)
DAV:   1    -0.134301628028E+03    0.16913E-02   -0.91083E+00  1864   0.462E+00    0.259E-01
DAV:   2    -0.134304421030E+03   -0.27930E-02   -0.29482E-02  2152   0.385E-01    0.116E-01
DAV:   3    -0.134304421369E+03   -0.33897E-06   -0.96154E-04  2720   0.148E-01    0.661E-02
DAV:   4    -0.134304424409E+03   -0.30399E-05   -0.30236E-04  2408   0.828E-02    0.333E-02
DAV:   5    -0.134304425134E+03   -0.72530E-06   -0.83953E-05  2280   0.578E-02    0.174E-02
DAV:   6    -0.134304424119E+03    0.10153E-05   -0.19834E-05  2096   0.395E-02    0.748E-03
DAV:   7    -0.134304426129E+03   -0.20102E-05   -0.22028E-05  2120   0.165E-02    0.699E-03
DAV:   8    -0.134304426272E+03   -0.14323E-06   -0.17985E-06  1344   0.712E-03
  58 F= -.13430443E+03 E0= -.13430443E+03  d E =-.181002E-17
       N       E                     dE             d eps       ncg     rms          rms(c)
DAV:   1    -0.134305159664E+03   -0.73353E-03   -0.21374E+00  1840   0.207E+00    0.113E-01
DAV:   2    -0.134305864042E+03   -0.70438E-03   -0.75276E-03  1920   0.237E-01    0.675E-02
DAV:   3    -0.134305895347E+03   -0.31304E-04   -0.66851E-04  2360   0.148E-01    0.391E-02
DAV:   4    -0.134305889636E+03    0.57111E-05   -0.75581E-05  2296   0.917E-02    0.197E-02
DAV:   5    -0.134305890074E+03   -0.43773E-06   -0.37466E-05  2200   0.313E-02    0.716E-03
DAV:   6    -0.134305891314E+03   -0.12408E-05   -0.17336E-05  2256   0.221E-02    0.709E-03
DAV:   7    -0.134305891321E+03   -0.67339E-08   -0.12358E-06  1216   0.482E-03
  59 F= -.13430589E+03 E0= -.13430589E+03  d E =-.930784E-18
       N       E                     dE             d eps       ncg     rms          rms(c)
DAV:   1    -0.134304206864E+03    0.16845E-02   -0.40256E+00  1840   0.309E+00    0.285E-01
DAV:   2    -0.134305258751E+03   -0.10519E-02   -0.12522E-02  2048   0.408E-01    0.131E-01
DAV:   3    -0.134305351422E+03   -0.92671E-04   -0.23016E-03  2672   0.328E-01    0.657E-02
DAV:   4    -0.134305326215E+03    0.25207E-04   -0.31187E-04  2424   0.203E-01    0.366E-02
DAV:   5    -0.134305326296E+03   -0.80319E-07   -0.14112E-04  2392   0.472E-02    0.177E-02
DAV:   6    -0.134305325150E+03    0.11459E-05   -0.32571E-05  2312   0.404E-02    0.997E-03
DAV:   7    -0.134305326078E+03   -0.92833E-06   -0.14651E-05  2280   0.219E-02    0.753E-03
DAV:   8    -0.134305326372E+03   -0.29421E-06   -0.35776E-06  1440   0.677E-03
  60 F= -.13430533E+03 E0= -.13430533E+03  d E =-.643531E-18
       N       E                     dE             d eps       ncg     rms          rms(c)
DAV:   1    -0.134302411243E+03    0.29148E-02   -0.21354E+00  1856   0.214E+00    0.186E-01
DAV:   2    -0.134303100741E+03   -0.68950E-03   -0.73929E-03  1952   0.221E-01    0.601E-02
DAV:   3    -0.134303132076E+03   -0.31336E-04   -0.61796E-04  2336   0.134E-01    0.392E-02
DAV:   4    -0.134303124159E+03    0.79178E-05   -0.76237E-05  2368   0.934E-02    0.247E-02
DAV:   5    -0.134303121674E+03    0.24851E-05   -0.34950E-05  2384   0.389E-02    0.117E-02
DAV:   6    -0.134303122025E+03   -0.35161E-06   -0.14327E-05  2056   0.173E-02    0.994E-03
DAV:   7    -0.134303121956E+03    0.69573E-07   -0.44941E-06  1904   0.131E-02
  61 F= -.13430312E+03 E0= -.13430312E+03  d E =-.896987E-18
       N       E                     dE             d eps       ncg     rms          rms(c)
DAV:   1    -0.134296640454E+03    0.64816E-02   -0.54594E+00  1840   0.372E+00    0.616E-01
DAV:   2    -0.134303343887E+03   -0.67034E-02   -0.74487E-02  2248   0.707E-01    0.207E-01
DAV:   3    -0.134303266094E+03    0.77793E-04   -0.37206E-03  2264   0.257E-01    0.168E-01
DAV:   4    -0.134303162152E+03    0.10394E-03   -0.58128E-04  2360   0.230E-01    0.103E-01
DAV:   5    -0.134303125455E+03    0.36697E-04   -0.33856E-04  2240   0.801E-02    0.343E-02
DAV:   6    -0.134303132158E+03   -0.67030E-05   -0.11952E-04  2240   0.570E-02    0.303E-02
DAV:   7    -0.134303131082E+03    0.10758E-05   -0.20290E-05  2296   0.244E-02    0.229E-02
DAV:   8    -0.134303130011E+03    0.10715E-05   -0.70173E-06  1704   0.195E-02    0.141E-02
DAV:   9    -0.134303130023E+03   -0.11874E-07   -0.48386E-06  1760   0.864E-03
  62 F= -.13430313E+03 E0= -.13430313E+03  d E =-.934370E-18
       N       E                     dE             d eps       ncg     rms          rms(c)
DAV:   1    -0.134303511134E+03   -0.38112E-03   -0.42147E-01  1920   0.818E-01    0.206E-01
DAV:   2    -0.134305437823E+03   -0.19267E-02   -0.20769E-02  2272   0.355E-01    0.631E-02
DAV:   3    -0.134305479349E+03   -0.41526E-04   -0.92785E-04  2360   0.113E-01    0.516E-02
DAV:   4    -0.134305470854E+03    0.84943E-05   -0.70308E-05  2216   0.607E-02    0.296E-02
DAV:   5    -0.134305467506E+03    0.33480E-05   -0.42343E-05  1944   0.322E-02    0.104E-02
DAV:   6    -0.134305468104E+03   -0.59784E-06   -0.79212E-06  1792   0.124E-02
  63 F= -.13430547E+03 E0= -.13430547E+03  d E =-.709135E-18
       N       E                     dE             d eps       ncg     rms          rms(c)
DAV:   1    -0.134301804355E+03    0.36632E-02   -0.83779E-01  1904   0.121E+00    0.480E-01
DAV:   2    -0.134305401581E+03   -0.35972E-02   -0.40741E-02  2256   0.595E-01    0.147E-01
DAV:   3    -0.134305316777E+03    0.84804E-04   -0.18020E-03  2352   0.180E-01    0.117E-01
DAV:   4    -0.134305243150E+03    0.73627E-04   -0.31486E-04  2296   0.138E-01    0.593E-02
DAV:   5    -0.134305240739E+03    0.24103E-05   -0.16824E-04  2320   0.746E-02    0.158E-02
DAV:   6    -0.134305242249E+03   -0.15098E-05   -0.28118E-05  2120   0.180E-02    0.168E-02
DAV:   7    -0.134305241764E+03    0.48524E-06   -0.61524E-06  1832   0.175E-02
  64 F= -.13430524E+03 E0= -.13430524E+03  d E =-.448116E-18
       N       E                     dE             d eps       ncg     rms          rms(c)
DAV:   1    -0.134300399805E+03    0.48424E-02   -0.43137E-01  1880   0.816E-01    0.292E-01
DAV:   2    -0.134302574967E+03   -0.21752E-02   -0.23198E-02  2272   0.364E-01    0.946E-02
DAV:   3    -0.134302571018E+03    0.39492E-05   -0.84478E-04  2272   0.976E-02    0.773E-02
DAV:   4    -0.134302539908E+03    0.31110E-04   -0.10729E-04  2200   0.784E-02    0.421E-02
DAV:   5    -0.134302539125E+03    0.78330E-06   -0.67967E-05  2208   0.415E-02    0.938E-03
DAV:   6    -0.134302539540E+03   -0.41538E-06   -0.88039E-06  1864   0.120E-02
  65 F= -.13430254E+03 E0= -.13430254E+03  d E =-.385220E-18
       N       E                     dE             d eps       ncg     rms          rms(c)
DAV:   1    -0.134295058201E+03    0.74809E-02   -0.18498E+00  1896   0.181E+00    0.739E-01
DAV:   2    -0.134303462372E+03   -0.84042E-02   -0.94793E-02  2256   0.857E-01    0.233E-01
DAV:   3    -0.134303315425E+03    0.14695E-03   -0.44152E-03  2160   0.250E-01    0.190E-01
DAV:   4    -0.134303182509E+03    0.13292E-03   -0.75832E-04  2328   0.200E-01    0.934E-02
DAV:   5    -0.134303170659E+03    0.11850E-04   -0.37770E-04  2136   0.100E-01    0.203E-02
DAV:   6    -0.134303173644E+03   -0.29845E-05   -0.78133E-05  2000   0.285E-02    0.272E-02
DAV:   7    -0.134303174252E+03   -0.60865E-06   -0.15150E-05  1912   0.252E-02    0.186E-02
DAV:   8    -0.134303174143E+03    0.10883E-06   -0.20442E-06  1328   0.164E-02
  66 F= -.13430317E+03 E0= -.13430317E+03  d E =-.125278E-17
       N       E                     dE             d eps       ncg     rms          rms(c)
DAV:   1    -0.134303431563E+03   -0.25731E-03   -0.42355E-01  1888   0.798E-01    0.183E-01
DAV:   2    -0.134305447400E+03   -0.20158E-02   -0.21491E-02  2304   0.331E-01    0.682E-02
DAV:   3    -0.134305487103E+03   -0.39703E-04   -0.88248E-04  2384   0.102E-01    0.545E-02
DAV:   4    -0.134305476234E+03    0.10870E-04   -0.72996E-05  2336   0.654E-02    0.312E-02
DAV:   5    -0.134305472819E+03    0.34147E-05   -0.39597E-05  1944   0.302E-02    0.806E-03
DAV:   6    -0.134305473213E+03   -0.39405E-06   -0.93822E-06  1760   0.106E-02
  67 F= -.13430547E+03 E0= -.13430547E+03  d E =-.111837E-17
       N       E                     dE             d eps       ncg     rms          rms(c)
DAV:   1    -0.134301843652E+03    0.36292E-02   -0.83928E-01  1872   0.119E+00    0.433E-01
DAV:   2    -0.134305484075E+03   -0.36404E-02   -0.40940E-02  2376   0.535E-01    0.149E-01
DAV:   3    -0.134305400946E+03    0.83128E-04   -0.15965E-03  2240   0.149E-01    0.120E-01
DAV:   4    -0.134305317588E+03    0.83359E-04   -0.28875E-04  2256   0.124E-01    0.643E-02
DAV:   5    -0.134305316296E+03    0.12913E-05   -0.17765E-04  2304   0.616E-02    0.157E-02
DAV:   6    -0.134305315514E+03    0.78251E-06   -0.26950E-05  2040   0.179E-02    0.179E-02
DAV:   7    -0.134305315065E+03    0.44851E-06   -0.67094E-06  1792   0.172E-02
  68 F= -.13430532E+03 E0= -.13430532E+03  d E =-.303372E-18
       N       E                     dE             d eps       ncg     rms          rms(c)
DAV:   1    -0.134300781472E+03    0.45340E-02   -0.43450E-01  1856   0.799E-01    0.273E-01
DAV:   2    -0.134302911983E+03   -0.21305E-02   -0.22826E-02  2384   0.333E-01    0.903E-02
DAV:   3    -0.134302913225E+03   -0.12422E-05   -0.83401E-04  2160   0.879E-02    0.756E-02
DAV:   4    -0.134302883316E+03    0.29909E-04   -0.81077E-05  2192   0.654E-02    0.469E-02
DAV:   5    -0.134302877115E+03    0.62016E-05   -0.70270E-05  1944   0.289E-02    0.120E-02
DAV:   6    -0.134302877621E+03   -0.50673E-06   -0.11218E-05  1928   0.118E-02    0.105E-02
DAV:   7    -0.134302877480E+03    0.14113E-06   -0.12774E-06  1368   0.950E-03
  69 F= -.13430288E+03 E0= -.13430288E+03  d E =-.183075E-18
       N       E                     dE             d eps       ncg     rms          rms(c)
DAV:   1    -0.134297492926E+03    0.53847E-02   -0.18689E+00  1880   0.176E+00    0.714E-01
DAV:   2    -0.134304965687E+03   -0.74728E-02   -0.84710E-02  2408   0.796E-01    0.234E-01
DAV:   3    -0.134304855257E+03    0.11043E-03   -0.34477E-03  2392   0.207E-01    0.182E-01
DAV:   4    -0.134304696359E+03    0.15890E-03   -0.55830E-04  2496   0.174E-01    0.100E-01
DAV:   5    -0.134304691343E+03    0.50158E-05   -0.32649E-04  2384   0.828E-02    0.231E-02
DAV:   6    -0.134304694627E+03   -0.32835E-05   -0.71343E-05  2184   0.325E-02    0.244E-02
DAV:   7    -0.134304693927E+03    0.69971E-06   -0.11632E-05  2096   0.179E-02    0.148E-02
DAV:   8    -0.134304693663E+03    0.26376E-06   -0.42694E-06  1872   0.184E-02
  70 F= -.13430469E+03 E0= -.13430469E+03  d E =-.268398E-17
       N       E                     dE             d eps       ncg     rms          rms(c)
DAV:   1    -0.134304018797E+03    0.67513E-03   -0.43718E-01  1880   0.780E-01    0.150E-01
DAV:   2    -0.134305812826E+03   -0.17940E-02   -0.19148E-02  2336   0.302E-01    0.661E-02
DAV:   3    -0.134305858091E+03   -0.45264E-04   -0.84400E-04  2448   0.812E-02    0.511E-02
DAV:   4    -0.134305842165E+03    0.15925E-04   -0.51820E-05  2432   0.626E-02    0.328E-02
DAV:   5    -0.134305835967E+03    0.61980E-05   -0.29982E-05  2008   0.252E-02    0.120E-02
DAV:   6    -0.134305836620E+03   -0.65301E-06   -0.15317E-05  2232   0.148E-02    0.722E-03
DAV:   7    -0.134305836398E+03    0.22188E-06   -0.17602E-06  1336   0.740E-03
  71 F= -.13430584E+03 E0= -.13430584E+03  d E =-.113664E-17
       N       E                     dE             d eps       ncg     rms          rms(c)
DAV:   1    -0.134302777376E+03    0.30592E-02   -0.85408E-01  1864   0.115E+00    0.367E-01
DAV:   2    -0.134305910901E+03   -0.31335E-02   -0.35862E-02  2320   0.515E-01    0.154E-01
DAV:   3    -0.134305860667E+03    0.50234E-04   -0.14949E-03  2336   0.140E-01    0.118E-01
DAV:   4    -0.134305753436E+03    0.10723E-03   -0.20148E-04  2528   0.129E-01    0.714E-02
DAV:   5    -0.134305746244E+03    0.71923E-05   -0.19502E-04  2264   0.480E-02    0.207E-02
DAV:   6    -0.134305746625E+03   -0.38146E-06   -0.43549E-05  2040   0.289E-02    0.162E-02
DAV:   7    -0.134305745575E+03    0.10497E-05   -0.52038E-06  1816   0.138E-02    0.113E-02
DAV:   8    -0.134305745228E+03    0.34762E-06   -0.14895E-06  1336   0.122E-02
  72 F= -.13430575E+03 E0= -.13430575E+03  d E =-.673404E-18
       N       E                     dE             d eps       ncg     rms          rms(c)
DAV:   1    -0.134302661789E+03    0.30838E-02   -0.44490E-01  1864   0.777E-01    0.242E-01
DAV:   2    -0.134304543309E+03   -0.18815E-02   -0.20379E-02  2392   0.306E-01    0.975E-02
DAV:   3    -0.134304554923E+03   -0.11614E-04   -0.81070E-04  2320   0.843E-02    0.768E-02
DAV:   4    -0.134304522414E+03    0.32508E-04   -0.63396E-05  2464   0.627E-02    0.527E-02
DAV:   5    -0.134304511726E+03    0.10688E-04   -0.56294E-05  2072   0.256E-02    0.208E-02
DAV:   6    -0.134304512670E+03   -0.94426E-06   -0.18543E-05  2344   0.139E-02    0.801E-03
DAV:   7    -0.134304512278E+03    0.39236E-06   -0.16890E-06  1376   0.112E-02
  73 F= -.13430451E+03 E0= -.13430451E+03  d E =-.119787E-17
       N       E                     dE             d eps       ncg     rms          rms(c)
DAV:   1    -0.134297024822E+03    0.74878E-02   -0.19553E+00  1856   0.176E+00    0.637E-01
DAV:   2    -0.134304934633E+03   -0.79098E-02   -0.88357E-02  2296   0.731E-01    0.256E-01
DAV:   3    -0.134304785283E+03    0.14935E-03   -0.31872E-03  2344   0.193E-01    0.203E-01
DAV:   4    -0.134304575245E+03    0.21004E-03   -0.51938E-04  2488   0.171E-01    0.127E-01
DAV:   5    -0.134304540846E+03    0.34399E-04   -0.40979E-04  2304   0.723E-02    0.324E-02
DAV:   6    -0.134304547470E+03   -0.66236E-05   -0.99785E-05  2072   0.354E-02    0.240E-02
DAV:   7    -0.134304545342E+03    0.21281E-05   -0.53910E-06  1992   0.244E-02    0.188E-02
DAV:   8    -0.134304544743E+03    0.59907E-06   -0.45732E-06  1784   0.125E-02
  74 F= -.13430454E+03 E0= -.13430454E+03  d E =-.937572E-18
       N       E                     dE             d eps       ncg     rms          rms(c)
DAV:   1    -0.134304094438E+03    0.45090E-03   -0.45505E-01  1880   0.778E-01    0.159E-01
DAV:   2    -0.134305778680E+03   -0.16842E-02   -0.18070E-02  2168   0.275E-01    0.698E-02
DAV:   3    -0.134305787362E+03   -0.86817E-05   -0.48069E-04  2416   0.663E-02    0.522E-02
DAV:   4    -0.134305763504E+03    0.23857E-04   -0.71296E-05  2088   0.578E-02    0.296E-02
DAV:   5    -0.134305763022E+03    0.48228E-06   -0.41863E-05  2304   0.311E-02    0.895E-03
DAV:   6    -0.134305762958E+03    0.64527E-07   -0.73908E-06  1944   0.112E-02
  75 F= -.13430576E+03 E0= -.13430576E+03  d E =-.706500E-18
       N       E                     dE             d eps       ncg     rms          rms(c)
DAV:   1    -0.134302874061E+03    0.28890E-02   -0.90304E-01  1880   0.112E+00    0.391E-01
DAV:   2    -0.134306024279E+03   -0.31502E-02   -0.35750E-02  2192   0.440E-01    0.175E-01
DAV:   3    -0.134305910522E+03    0.11376E-03   -0.10833E-03  2360   0.120E-01    0.133E-01
DAV:   4    -0.134305778792E+03    0.13173E-03   -0.37388E-04  2200   0.117E-01    0.757E-02
DAV:   5    -0.134305782137E+03   -0.33450E-05   -0.20852E-04  2216   0.645E-02    0.193E-02
DAV:   6    -0.134305780598E+03    0.15388E-05   -0.21250E-05  2104   0.226E-02    0.135E-02
DAV:   7    -0.134305779966E+03    0.63203E-06   -0.77794E-06  1784   0.151E-02
  76 F= -.13430578E+03 E0= -.13430578E+03  d E =-.669821E-18
       N       E                     dE             d eps       ncg     rms          rms(c)
DAV:   1    -0.134302724164E+03    0.30564E-02   -0.46714E-01  1880   0.759E-01    0.261E-01
DAV:   2    -0.134304551105E+03   -0.18269E-02   -0.19665E-02  2272   0.286E-01    0.118E-01
DAV:   3    -0.134304511282E+03    0.39822E-04   -0.42741E-04  2264   0.681E-02    0.895E-02
DAV:   4    -0.134304469891E+03    0.41392E-04   -0.10651E-04  2160   0.561E-02    0.577E-02
DAV:   5    -0.134304465391E+03    0.44994E-05   -0.66077E-05  2368   0.315E-02    0.174E-02
DAV:   6    -0.134304465827E+03   -0.43595E-06   -0.75482E-06  2008   0.110E-02
  77 F= -.13430447E+03 E0= -.13430447E+03  d E =-.954929E-18
       N       E                     dE             d eps       ncg     rms          rms(c)
DAV:   1    -0.134297192778E+03    0.72726E-02   -0.20044E+00  1896   0.167E+00    0.584E-01
DAV:   2    -0.134304108273E+03   -0.69155E-02   -0.77346E-02  2232   0.640E-01    0.253E-01
DAV:   3    -0.134303969418E+03    0.13885E-03   -0.26272E-03  2280   0.167E-01    0.197E-01
DAV:   4    -0.134303728619E+03    0.24080E-03   -0.57147E-04  2112   0.146E-01    0.119E-01
DAV:   5    -0.134303716893E+03    0.11726E-04   -0.45708E-04  2176   0.721E-02    0.325E-02
DAV:   6    -0.134303716333E+03    0.56012E-06   -0.55258E-05  2040   0.284E-02    0.206E-02
DAV:   7    -0.134303714339E+03    0.19943E-05   -0.79603E-06  1816   0.131E-02    0.139E-02
DAV:   8    -0.134303712721E+03    0.16177E-05   -0.94021E-06  1752   0.213E-02    0.284E-03
DAV:   9    -0.134303712998E+03   -0.27629E-06   -0.27701E-06  1528   0.643E-03
  78 F= -.13430371E+03 E0= -.13430371E+03  d E =-.133016E-17
       N       E                     dE             d eps       ncg     rms          rms(c)
DAV:   1    -0.134304038700E+03   -0.32598E-03   -0.44609E-01  1880   0.775E-01    0.193E-01
DAV:   2    -0.134305667891E+03   -0.16292E-02   -0.17824E-02  2248   0.306E-01    0.699E-02
DAV:   3    -0.134305680949E+03   -0.13058E-04   -0.62483E-04  2328   0.860E-02    0.532E-02
DAV:   4    -0.134305664221E+03    0.16729E-04   -0.82210E-05  2376   0.670E-02    0.290E-02
DAV:   5    -0.134305663072E+03    0.11483E-05   -0.41141E-05  2136   0.323E-02    0.809E-03
DAV:   6    -0.134305662960E+03    0.11217E-06   -0.85490E-06  1992   0.126E-02
  79 F= -.13430566E+03 E0= -.13430566E+03  d E =-.835891E-18
       N       E                     dE             d eps       ncg     rms          rms(c)
DAV:   1    -0.134302641493E+03    0.30216E-02   -0.88936E-01  1888   0.115E+00    0.461E-01
DAV:   2    -0.134305584784E+03   -0.29433E-02   -0.34286E-02  2224   0.495E-01    0.166E-01
DAV:   3    -0.134305468926E+03    0.11586E-03   -0.14043E-03  2312   0.150E-01    0.127E-01
DAV:   4    -0.134305350279E+03    0.11865E-03   -0.46349E-04  2224   0.156E-01    0.644E-02
DAV:   5    -0.134305359557E+03   -0.92781E-05   -0.20325E-04  2224   0.751E-02    0.208E-02
DAV:   6    -0.134305357569E+03    0.19882E-05   -0.19893E-05  2128   0.240E-02    0.191E-02
DAV:   7    -0.134305356544E+03    0.10249E-05   -0.15311E-05  1904   0.184E-02    0.926E-03
DAV:   8    -0.134305356535E+03    0.86875E-08   -0.26459E-06  1528   0.148E-02
  80 F= -.13430536E+03 E0= -.13430536E+03  d E =-.572635E-18
       N       E                     dE             d eps       ncg     rms          rms(c)
DAV:   1    -0.134301688555E+03    0.36680E-02   -0.45893E-01  1856   0.776E-01    0.291E-01
DAV:   2    -0.134303461696E+03   -0.17731E-02   -0.19098E-02  2272   0.320E-01    0.111E-01
DAV:   3    -0.134303451207E+03    0.10489E-04   -0.72534E-04  2232   0.837E-02    0.857E-02
DAV:   4    -0.134303406257E+03    0.44950E-04   -0.14845E-04  2088   0.780E-02    0.468E-02
DAV:   5    -0.134303408504E+03   -0.22478E-05   -0.76557E-05  2152   0.374E-02    0.110E-02
DAV:   6    -0.134303408358E+03    0.14605E-06   -0.71009E-06  1976   0.126E-02
  81 F= -.13430341E+03 E0= -.13430341E+03  d E =-.716119E-18
       N       E                     dE             d eps       ncg     rms          rms(c)
DAV:   1    -0.134296027390E+03    0.73811E-02   -0.19456E+00  1864   0.180E+00    0.719E-01
DAV:   2    -0.134304097229E+03   -0.80698E-02   -0.94917E-02  2256   0.891E-01    0.254E-01
DAV:   3    -0.134303694224E+03    0.40301E-03   -0.41084E-03  2368   0.273E-01    0.201E-01
DAV:   4    -0.134303433153E+03    0.26107E-03   -0.12869E-03  2408   0.253E-01    0.866E-02
DAV:   5    -0.134303453796E+03   -0.20643E-04   -0.52619E-04  2320   0.139E-01    0.457E-02
DAV:   6    -0.134303453209E+03    0.58697E-06   -0.76276E-05  2232   0.443E-02    0.369E-02
DAV:   7    -0.134303449856E+03    0.33530E-05   -0.35282E-05  2464   0.314E-02    0.205E-02
DAV:   8    -0.134303450136E+03   -0.27994E-06   -0.83845E-06  2120   0.203E-02
  82 F= -.13430345E+03 E0= -.13430345E+03  d E =-.140336E-17
       N       E                     dE             d eps       ncg     rms          rms(c)
DAV:   1    -0.134304119919E+03   -0.67006E-03   -0.44122E-01  1856   0.775E-01    0.214E-01
DAV:   2    -0.134305803613E+03   -0.16837E-02   -0.18872E-02  2208   0.354E-01    0.701E-02
DAV:   3    -0.134305802657E+03    0.95539E-06   -0.62117E-04  2464   0.105E-01    0.545E-02
DAV:   4    -0.134305783016E+03    0.19641E-04   -0.99650E-05  2536   0.825E-02    0.269E-02
DAV:   5    -0.134305781668E+03    0.13481E-05   -0.48317E-05  2512   0.473E-02    0.912E-03
DAV:   6    -0.134305782801E+03   -0.11330E-05   -0.22712E-05  2104   0.171E-02    0.124E-02
DAV:   7    -0.134305782627E+03    0.17412E-06   -0.22208E-06  1384   0.699E-03
  83 F= -.13430578E+03 E0= -.13430578E+03  d E =-.805155E-18
       N       E                     dE             d eps       ncg     rms          rms(c)
DAV:   1    -0.134302071808E+03    0.37110E-02   -0.88643E-01  1856   0.115E+00    0.499E-01
DAV:   2    -0.134304984285E+03   -0.29125E-02   -0.35786E-02  2192   0.606E-01    0.162E-01
DAV:   3    -0.134304810802E+03    0.17348E-03   -0.15303E-03  2352   0.181E-01    0.127E-01
DAV:   4    -0.134304676431E+03    0.13437E-03   -0.51055E-04  2440   0.213E-01    0.596E-02
DAV:   5    -0.134304692824E+03   -0.16393E-04   -0.31585E-04  2264   0.885E-02    0.312E-02
DAV:   6    -0.134304694858E+03   -0.20338E-05   -0.55747E-05  2072   0.263E-02    0.310E-02
DAV:   7    -0.134304692761E+03    0.20971E-05   -0.46317E-06  1528   0.139E-02    0.254E-02
DAV:   8    -0.134304688794E+03    0.39664E-05   -0.16863E-05  2144   0.468E-02    0.102E-02
DAV:   9    -0.134304688824E+03   -0.29468E-07   -0.56040E-06  2000   0.132E-02
  84 F= -.13430469E+03 E0= -.13430469E+03  d E =-.128510E-17
       N       E                     dE             d eps       ncg     rms          rms(c)
DAV:   1    -0.134299609098E+03    0.50797E-02   -0.45607E-01  1856   0.775E-01    0.316E-01
DAV:   2    -0.134301496836E+03   -0.18877E-02   -0.20680E-02  2240   0.352E-01    0.107E-01
DAV:   3    -0.134301461372E+03    0.35464E-04   -0.69879E-04  2328   0.941E-02    0.856E-02
DAV:   4    -0.134301410292E+03    0.51080E-04   -0.17993E-04  2264   0.898E-02    0.432E-02
DAV:   5    -0.134301414722E+03   -0.44302E-05   -0.96589E-05  2352   0.472E-02    0.147E-02
DAV:   6    -0.134301414907E+03   -0.18494E-06   -0.13304E-05  2128   0.150E-02    0.150E-02
DAV:   7    -0.134301414075E+03    0.83207E-06   -0.29698E-06  1480   0.976E-03
  85 F= -.13430141E+03 E0= -.13430141E+03  d E =-.390859E-17
