  55  55   0   0
  0.2301251E+02  0.1218282E-08  0.7661564E-09  0.1373046E-08  0.0000000E+00
   1.0000000000000000E-004
  CAR 
 NEB_bottleneck                          
      9.17042201    -25.50471797  301      2.50261125      1.00000000
    -25.505  0.0000E+00  0.0000E+00
    -25.389  0.0000E+00  0.0000E+00
    -25.274  0.0000E+00  0.0000E+00
    -25.158 -0.1130E-30 -0.1306E-31
    -25.042 -0.1093E-26 -0.1263E-27
    -24.927 -0.5403E-23 -0.6246E-24
    -24.811 -0.1366E-19 -0.1579E-20
    -24.696 -0.1762E-16 -0.2038E-17
    -24.580 -0.1120E-13 -0.1297E-14
    -24.464 -0.3716E-11 -0.4308E-12
    -24.349 -0.6229E-09 -0.7242E-10
    -24.233 -0.5234E-07 -0.6122E-08
    -24.118 -0.2174E-05 -0.2574E-06
    -24.002 -0.4337E-04 -0.5271E-05
    -23.887 -0.3871E-03 -0.5001E-04
    -23.771 -0.1179E-02 -0.1863E-03
    -23.655  0.1706E-02  0.1089E-04
    -23.540  0.1459E-01  0.1698E-02
    -23.424  0.2391E-01  0.4461E-02
    -23.309  0.1633E-01  0.6348E-02
    -23.193  0.8653E-02  0.7348E-02
    -23.077  0.4818E-02  0.7905E-02
    -22.962  0.5216E-03  0.7965E-02
    -22.846  0.2019E-02  0.8199E-02
    -22.731  0.1000E-01  0.9355E-02
    -22.615  0.1260E-01  0.1081E-01
    -22.500  0.4033E-02  0.1128E-01
    -22.384  0.1091E-01  0.1254E-01
    -22.268  0.5889E-01  0.1935E-01
    -22.153  0.9360E-01  0.3016E-01
    -22.037  0.5809E-01  0.3688E-01
    -21.922  0.2124E-01  0.3933E-01
    -21.806  0.4440E-01  0.4447E-01
    -21.690  0.7372E-01  0.5299E-01
    -21.575  0.5710E-01  0.5959E-01
    -21.459  0.3016E-01  0.6307E-01
    -21.344  0.4278E-01  0.6802E-01
    -21.228  0.8622E-01  0.7798E-01
    -21.113  0.1100E+00  0.9069E-01
    -20.997  0.7477E-01  0.9934E-01
    -20.881  0.2763E-01  0.1025E+00
    -20.766  0.3551E-01  0.1066E+00
    -20.650  0.7154E-01  0.1149E+00
    -20.535  0.7943E-01  0.1241E+00
    -20.419  0.5352E-01  0.1303E+00
    -20.303  0.1780E-01  0.1323E+00
    -20.188 -0.9073E-03  0.1322E+00
    -20.072 -0.2002E-02  0.1320E+00
    -19.957  0.4295E-02  0.1325E+00
    -19.841  0.1402E-01  0.1341E+00
    -19.726  0.1958E-01  0.1364E+00
    -19.610  0.1293E-01  0.1379E+00
    -19.494  0.2496E-02  0.1382E+00
    -19.379 -0.8615E-03  0.1381E+00
    -19.263 -0.4051E-03  0.1380E+00
    -19.148 -0.5598E-04  0.1380E+00
    -19.032 -0.3363E-05  0.1380E+00
    -18.916 -0.9583E-07  0.1380E+00
    -18.801 -0.1339E-08  0.1380E+00
    -18.685 -0.9329E-11  0.1380E+00
    -18.570 -0.3269E-13  0.1380E+00
    -18.454 -0.6147E-16  0.1380E+00
    -18.339  0.0000E+00  0.1380E+00
    -18.223  0.0000E+00  0.1380E+00
    -18.107  0.0000E+00  0.1380E+00
    -17.992  0.0000E+00  0.1380E+00
    -17.876  0.0000E+00  0.1380E+00
    -17.761  0.0000E+00  0.1380E+00
    -17.645  0.0000E+00  0.1380E+00
    -17.529  0.0000E+00  0.1380E+00
    -17.414  0.0000E+00  0.1380E+00
    -17.298  0.0000E+00  0.1380E+00
    -17.183  0.0000E+00  0.1380E+00
    -17.067  0.0000E+00  0.1380E+00
    -16.952  0.0000E+00  0.1380E+00
    -16.836  0.0000E+00  0.1380E+00
    -16.720  0.0000E+00  0.1380E+00
    -16.605  0.0000E+00  0.1380E+00
    -16.489  0.0000E+00  0.1380E+00
    -16.374  0.0000E+00  0.1380E+00
    -16.258  0.0000E+00  0.1380E+00
    -16.142  0.0000E+00  0.1380E+00
    -16.027  0.0000E+00  0.1380E+00
    -15.911  0.0000E+00  0.1380E+00
    -15.796  0.0000E+00  0.1380E+00
    -15.680  0.0000E+00  0.1380E+00
    -15.565  0.0000E+00  0.1380E+00
    -15.449  0.0000E+00  0.1380E+00
    -15.333  0.0000E+00  0.1380E+00
    -15.218  0.0000E+00  0.1380E+00
    -15.102  0.0000E+00  0.1380E+00
    -14.987  0.0000E+00  0.1380E+00
    -14.871  0.0000E+00  0.1380E+00
    -14.755  0.0000E+00  0.1380E+00
    -14.640  0.0000E+00  0.1380E+00
    -14.524  0.0000E+00  0.1380E+00
    -14.409  0.0000E+00  0.1380E+00
    -14.293  0.0000E+00  0.1380E+00
    -14.178  0.0000E+00  0.1380E+00
    -14.062  0.0000E+00  0.1380E+00
    -13.946  0.0000E+00  0.1380E+00
    -13.831  0.0000E+00  0.1380E+00
    -13.715  0.0000E+00  0.1380E+00
    -13.600  0.0000E+00  0.1380E+00
    -13.484 -0.2042E-32  0.1380E+00
    -13.368 -0.2531E-28  0.1380E+00
    -13.253 -0.1583E-24  0.1380E+00
    -13.137 -0.5056E-21  0.1380E+00
    -13.022 -0.8238E-18  0.1380E+00
    -12.906 -0.6633E-15  0.1380E+00
    -12.790 -0.2784E-12  0.1380E+00
    -12.675 -0.5925E-10  0.1380E+00
    -12.559 -0.6359E-08  0.1380E+00
    -12.444 -0.3411E-06  0.1380E+00
    -12.328 -0.8967E-05  0.1380E+00
    -12.213 -0.1105E-03  0.1380E+00
    -12.097 -0.5553E-03  0.1379E+00
    -11.981 -0.3312E-03  0.1379E+00
    -11.866  0.5225E-02  0.1385E+00
    -11.750  0.1426E-01  0.1401E+00
    -11.635  0.1287E-01  0.1416E+00
    -11.519  0.5108E-02  0.1422E+00
    -11.403  0.5622E-02  0.1429E+00
    -11.288  0.7177E-02  0.1437E+00
    -11.172  0.2686E-02  0.1440E+00
    -11.057 -0.1023E-03  0.1440E+00
    -10.941  0.3240E-02  0.1444E+00
    -10.826  0.8388E-02  0.1453E+00
    -10.710  0.9963E-02  0.1465E+00
    -10.594  0.8205E-02  0.1474E+00
    -10.479  0.5663E-02  0.1481E+00
    -10.363  0.9516E-02  0.1492E+00
    -10.248  0.1817E-01  0.1513E+00
    -10.132  0.2285E-01  0.1539E+00
    -10.016  0.1994E-01  0.1562E+00
     -9.901  0.1305E-01  0.1577E+00
     -9.785  0.1045E-01  0.1590E+00
     -9.670  0.1434E-01  0.1606E+00
     -9.554  0.1968E-01  0.1629E+00
     -9.439  0.1788E-01  0.1650E+00
     -9.323  0.9343E-02  0.1660E+00
     -9.207  0.9765E-02  0.1672E+00
     -9.092  0.1811E-01  0.1693E+00
     -8.976  0.2366E-01  0.1720E+00
     -8.861  0.2898E-01  0.1753E+00
     -8.745  0.2787E-01  0.1786E+00
     -8.629  0.1856E-01  0.1807E+00
     -8.514  0.1115E-01  0.1820E+00
     -8.398  0.8685E-02  0.1830E+00
     -8.283  0.6762E-02  0.1838E+00
     -8.167  0.5397E-02  0.1844E+00
     -8.052  0.7470E-02  0.1853E+00
     -7.936  0.5804E-02  0.1859E+00
     -7.820  0.1177E-02  0.1861E+00
     -7.705 -0.3998E-03  0.1860E+00
     -7.589 -0.1817E-03  0.1860E+00
     -7.474 -0.2403E-04  0.1860E+00
     -7.358 -0.1377E-05  0.1860E+00
     -7.242 -0.3733E-07  0.1860E+00
     -7.127 -0.4958E-09  0.1860E+00
     -7.011 -0.3278E-11  0.1860E+00
     -6.896 -0.1088E-13  0.1860E+00
     -6.780 -0.1921E-16  0.1860E+00
     -6.665  0.0000E+00  0.1860E+00
     -6.549  0.0000E+00  0.1860E+00
     -6.433  0.0000E+00  0.1860E+00
     -6.318  0.0000E+00  0.1860E+00
     -6.202  0.0000E+00  0.1860E+00
     -6.087  0.0000E+00  0.1860E+00
     -5.971  0.0000E+00  0.1860E+00
     -5.855  0.0000E+00  0.1860E+00
     -5.740  0.0000E+00  0.1860E+00
     -5.624  0.0000E+00  0.1860E+00
     -5.509 -0.1103E-30  0.1860E+00
     -5.393 -0.1017E-26  0.1860E+00
     -5.278 -0.4783E-23  0.1860E+00
     -5.162 -0.1145E-19  0.1860E+00
     -5.046 -0.1395E-16  0.1860E+00
     -4.931 -0.8331E-14  0.1860E+00
     -4.815 -0.2586E-11  0.1860E+00
     -4.700 -0.4033E-09  0.1860E+00
     -4.584 -0.3133E-07  0.1860E+00
     -4.468 -0.1193E-05  0.1860E+00
     -4.353 -0.2159E-04  0.1860E+00
     -4.237 -0.1715E-03  0.1860E+00
     -4.122 -0.4345E-03  0.1859E+00
     -4.006  0.8390E-03  0.1860E+00
     -3.891  0.5335E-02  0.1866E+00
     -3.775  0.9115E-02  0.1877E+00
     -3.659  0.1110E-01  0.1890E+00
     -3.544  0.1304E-01  0.1905E+00
     -3.428  0.9808E-02  0.1916E+00
     -3.313  0.4888E-02  0.1922E+00
     -3.197  0.7249E-02  0.1930E+00
     -3.081  0.1170E-01  0.1944E+00
     -2.966  0.1237E-01  0.1958E+00
     -2.850  0.1435E-01  0.1975E+00
     -2.735  0.1736E-01  0.1995E+00
     -2.619  0.1428E-01  0.2011E+00
     -2.504  0.6066E-02  0.2018E+00
     -2.388  0.3704E-02  0.2022E+00
     -2.272  0.1382E-01  0.2038E+00
     -2.157  0.2103E-01  0.2063E+00
     -2.041  0.1596E-01  0.2081E+00
     -1.926  0.1379E-01  0.2097E+00
     -1.810  0.1934E-01  0.2119E+00
     -1.694  0.2201E-01  0.2145E+00
     -1.579  0.1882E-01  0.2167E+00
     -1.463  0.1908E-01  0.2189E+00
     -1.348  0.2352E-01  0.2216E+00
     -1.232  0.2383E-01  0.2243E+00
     -1.117  0.2308E-01  0.2270E+00
     -1.001  0.2442E-01  0.2298E+00
     -0.885  0.2420E-01  0.2326E+00
     -0.770  0.2434E-01  0.2354E+00
     -0.654  0.2315E-01  0.2381E+00
     -0.539  0.2402E-01  0.2409E+00
     -0.423  0.2697E-01  0.2440E+00
     -0.307  0.2780E-01  0.2472E+00
     -0.192  0.3135E-01  0.2509E+00
     -0.076  0.3401E-01  0.2548E+00
      0.039  0.3413E-01  0.2587E+00
      0.155  0.3491E-01  0.2628E+00
      0.270  0.3475E-01  0.2668E+00
      0.386  0.3529E-01  0.2709E+00
      0.502  0.3615E-01  0.2750E+00
      0.617  0.3082E-01  0.2786E+00
      0.733  0.2461E-01  0.2814E+00
      0.848  0.2307E-01  0.2841E+00
      0.964  0.2737E-01  0.2873E+00
      1.080  0.3272E-01  0.2911E+00
      1.195  0.3704E-01  0.2953E+00
      1.311  0.4402E-01  0.3004E+00
      1.426  0.4370E-01  0.3055E+00
      1.542  0.3331E-01  0.3093E+00
      1.657  0.2663E-01  0.3124E+00
      1.773  0.2689E-01  0.3155E+00
      1.889  0.2468E-01  0.3184E+00
      2.004  0.2256E-01  0.3210E+00
      2.120  0.2132E-01  0.3234E+00
      2.235  0.1600E-01  0.3253E+00
      2.351  0.1271E-01  0.3268E+00
      2.467  0.1513E-01  0.3285E+00
      2.582  0.1076E-01  0.3297E+00
      2.698  0.4976E-02  0.3303E+00
      2.813  0.1057E-01  0.3315E+00
      2.929  0.1417E-01  0.3332E+00
      3.044  0.7004E-02  0.3340E+00
      3.160  0.3401E-02  0.3344E+00
      3.276  0.6749E-02  0.3352E+00
      3.391  0.5822E-02  0.3358E+00
      3.507  0.3782E-02  0.3363E+00
      3.622  0.7333E-02  0.3371E+00
      3.738  0.1022E-01  0.3383E+00
      3.854  0.9372E-02  0.3394E+00
      3.969  0.8108E-02  0.3403E+00
      4.085  0.1065E-01  0.3416E+00
      4.200  0.1350E-01  0.3431E+00
      4.316  0.1285E-01  0.3446E+00
      4.431  0.9181E-02  0.3457E+00
      4.547  0.2969E-02  0.3460E+00
      4.663 -0.7239E-03  0.3459E+00
      4.778  0.3368E-02  0.3463E+00
      4.894  0.1275E-01  0.3478E+00
      5.009  0.1428E-01  0.3494E+00
      5.125  0.1238E-01  0.3509E+00
      5.241  0.1823E-01  0.3530E+00
      5.356  0.1806E-01  0.3551E+00
      5.472  0.1098E-01  0.3563E+00
      5.587  0.1019E-01  0.3575E+00
      5.703  0.1541E-01  0.3593E+00
      5.818  0.2112E-01  0.3617E+00
      5.934  0.2058E-01  0.3641E+00
      6.050  0.1621E-01  0.3660E+00
      6.165  0.1888E-01  0.3682E+00
      6.281  0.2395E-01  0.3709E+00
      6.396  0.2589E-01  0.3739E+00
      6.512  0.3015E-01  0.3774E+00
      6.628  0.2917E-01  0.3808E+00
      6.743  0.2282E-01  0.3834E+00
      6.859  0.2413E-01  0.3862E+00
      6.974  0.2798E-01  0.3894E+00
      7.090  0.2853E-01  0.3927E+00
      7.205  0.2143E-01  0.3952E+00
      7.321  0.7900E-02  0.3961E+00
      7.437 -0.3737E-04  0.3961E+00
      7.552 -0.8474E-03  0.3960E+00
      7.668 -0.2237E-03  0.3960E+00
      7.783 -0.2388E-04  0.3960E+00
      7.899 -0.1201E-05  0.3960E+00
      8.015 -0.2969E-07  0.3960E+00
      8.130 -0.3663E-09  0.3960E+00
      8.246 -0.2274E-11  0.3960E+00
      8.361 -0.7135E-14  0.3960E+00
      8.477 -0.1153E-16  0.3960E+00
      8.593  0.0000E+00  0.3960E+00
      8.708  0.0000E+00  0.3960E+00
      8.824  0.0000E+00  0.3960E+00
      8.939  0.0000E+00  0.3960E+00
      9.055  0.0000E+00  0.3960E+00
      9.170  0.0000E+00  0.3960E+00
