       N       E                     dE             d eps       ncg     rms          rms(c)
DAV:   1     0.336781419595E+04    0.33678E+04   -0.14745E+05   423   0.159E+03
DAV:   2     0.322052148438E+03   -0.30458E+04   -0.29240E+04   423   0.420E+02
DAV:   3    -0.159775375169E+03   -0.48183E+03   -0.47100E+03   486   0.177E+02
DAV:   4    -0.193191878612E+03   -0.33417E+02   -0.33047E+02   459   0.419E+01
DAV:   5    -0.194619681560E+03   -0.14278E+01   -0.14254E+01   549   0.928E+00    0.336E+01
RMM:   6    -0.172452825055E+03    0.22167E+02   -0.33075E+01   430   0.753E+00    0.212E+01
RMM:   7    -0.171422901237E+03    0.10299E+01   -0.33699E+01   464   0.692E+00    0.132E+01
RMM:   8    -0.170202995653E+03    0.12199E+01   -0.55220E+00   538   0.399E+00    0.853E+00
RMM:   9    -0.170132955152E+03    0.70041E-01   -0.21132E+00   443   0.198E+00    0.448E+00
RMM:  10    -0.169733862905E+03    0.39909E+00   -0.79090E-01   457   0.142E+00    0.137E+00
RMM:  11    -0.169724676183E+03    0.91867E-02   -0.14950E-01   535   0.785E-01    0.876E-01
RMM:  12    -0.169724004799E+03    0.67138E-03   -0.29950E-02   497   0.313E-01    0.599E-01
RMM:  13    -0.169728120254E+03   -0.41155E-02   -0.84776E-03   453   0.180E-01    0.345E-01
RMM:  14    -0.169732175243E+03   -0.40550E-02   -0.74724E-03   426   0.157E-01    0.188E-01
RMM:  15    -0.169733409143E+03   -0.12339E-02   -0.35476E-03   454   0.995E-02    0.115E-01
RMM:  16    -0.169734028753E+03   -0.61961E-03   -0.12847E-03   505   0.590E-02    0.543E-02
RMM:  17    -0.169734335305E+03   -0.30655E-03   -0.50428E-04   470   0.348E-02    0.274E-02
RMM:  18    -0.169734430744E+03   -0.95439E-04   -0.17614E-04   452   0.202E-02    0.193E-02
RMM:  19    -0.169734466319E+03   -0.35575E-04   -0.67487E-05   443   0.119E-02    0.110E-02
RMM:  20    -0.169734481453E+03   -0.15134E-04   -0.23699E-05   372   0.671E-03    0.590E-03
RMM:  21    -0.169734485678E+03   -0.42253E-05   -0.80539E-06   347   0.419E-03    0.379E-03
RMM:  22    -0.169734486636E+03   -0.95759E-06   -0.34616E-06   293   0.272E-03
   1 F= -.16973449E+03 E0= -.16972710E+03  d E =-.169734E+03
       N       E                     dE             d eps       ncg     rms          rms(c)
DAV:   1    -0.169734487013E+03   -0.13346E-05   -0.12727E-06   279   0.194E-03    0.989E-04
RMM:   2    -0.169734487096E+03   -0.83572E-07   -0.12777E-07   226   0.109E-03
   2 F= -.16973449E+03 E0= -.16972710E+03  d E =-.460630E-06
       N       E                     dE             d eps       ncg     rms          rms(c)
DAV:   1    -0.169734487121E+03   -0.10827E-06   -0.82768E-08   261   0.935E-04    0.579E-04
RMM:   2    -0.169734487143E+03   -0.21832E-07   -0.89854E-09    87   0.474E-04
   3 F= -.16973449E+03 E0= -.16972710E+03  d E =-.465297E-07
       N       E                     dE             d eps       ncg     rms          rms(c)
DAV:   1    -0.169734487148E+03   -0.26917E-07   -0.47376E-08   261   0.495E-04    0.392E-04
RMM:   2    -0.169734487155E+03   -0.70249E-08   -0.14284E-09    58   0.349E-04
   4 F= -.16973449E+03 E0= -.16972710E+03  d E =-.121108E-07
       N       E                     dE             d eps       ncg     rms          rms(c)
DAV:   1    -0.169734487160E+03   -0.12245E-07   -0.20498E-08   270   0.377E-04    0.258E-04
RMM:   2    -0.169734487163E+03   -0.28267E-08    0.13730E-15    48   0.252E-04
   5 F= -.16973449E+03 E0= -.16972710E+03  d E =-.804721E-08
       N       E                     dE             d eps       ncg     rms          rms(c)
DAV:   1    -0.169734487164E+03   -0.39181E-08   -0.10120E-08   261   0.270E-04    0.158E-04
RMM:   2    -0.169734487165E+03   -0.12296E-08    0.75114E-16    38   0.174E-04
   6 F= -.16973449E+03 E0= -.16972710E+03  d E =-.232103E-08
       N       E                     dE             d eps       ncg     rms          rms(c)
DAV:   1    -0.169734487167E+03   -0.33360E-08   -0.52597E-09   252   0.190E-04    0.124E-04
RMM:   2    -0.169734487167E+03    0.48021E-09    0.82174E-88    30   0.133E-04
   7 F= -.16973449E+03 E0= -.16972710E+03  d E =-.162618E-08
       N       E                     dE             d eps       ncg     rms          rms(c)
DAV:   1    -0.169734487167E+03   -0.43656E-10   -0.27753E-09   252   0.144E-04    0.719E-05
RMM:   2    -0.169734487167E+03    0.36380E-11    0.10336-109    24   0.968E-05
   8 F= -.16973449E+03 E0= -.16972710E+03  d E =-.520231E-09
       N       E                     dE             d eps       ncg     rms          rms(c)
DAV:   1    -0.169734487168E+03   -0.10623E-08   -0.12967E-09   225   0.105E-04    0.638E-05
RMM:   2    -0.169734487168E+03    0.57116E-09    0.49936-110    21   0.772E-05
   9 F= -.16973449E+03 E0= -.16972710E+03  d E =-.494765E-09
       N       E                     dE             d eps       ncg     rms          rms(c)
DAV:   1    -0.169734487168E+03    0.86948E-09   -0.68135E-10   225   0.833E-05    0.366E-05
RMM:   2    -0.169734487168E+03   -0.40745E-09    0.53549E-88    20   0.558E-05
  10 F= -.16973449E+03 E0= -.16972710E+03  d E =-.109139E-09
       N       E                     dE             d eps       ncg     rms          rms(c)
DAV:   1    -0.169734487169E+03   -0.97862E-09   -0.44503E-10   225   0.597E-05    0.286E-05
RMM:   2    -0.169734487168E+03    0.62209E-09    0.45067-180    16   0.444E-05
  11 F= -.16973449E+03 E0= -.16972710E+03  d E =0.509317E-10
       N       E                     dE             d eps       ncg     rms          rms(c)
DAV:   1    -0.169734487169E+03   -0.64028E-09   -0.23374E-10   225   0.476E-05    0.186E-05
RMM:   2    -0.169734487168E+03    0.12260E-08    0.40304-180    15   0.329E-05
  12 F= -.16973449E+03 E0= -.16972710E+03  d E =-.363798E-10
       N       E                     dE             d eps       ncg     rms          rms(c)
DAV:   1    -0.169734487168E+03    0.16262E-08   -0.16702E-10   225   0.351E-05    0.144E-05
RMM:   2    -0.169734487168E+03   -0.21464E-09    0.99186-183    14   0.262E-05
  13 F= -.16973449E+03 E0= -.16972710E+03  d E =0.185537E-09
       N       E                     dE             d eps       ncg     rms          rms(c)
DAV:   1    -0.169734487167E+03    0.54570E-10   -0.38102E-11   225   0.280E-05    0.999E-06
RMM:   2    -0.169734487168E+03   -0.18554E-09    0.74345-211    11   0.196E-05
  14 F= -.16973449E+03 E0= -.16972710E+03  d E =0.836735E-10
       N       E                     dE             d eps       ncg     rms          rms(c)
DAV:   1    -0.169734487168E+03   -0.56389E-09   -0.15434E-10   225   0.210E-05    0.753E-06
RMM:   2    -0.169734487168E+03    0.29831E-09    0.17013-211    10   0.155E-05
  15 F= -.16973449E+03 E0= -.16972710E+03  d E =-.800355E-10
       N       E                     dE             d eps       ncg     rms          rms(c)
DAV:   1    -0.169734487169E+03   -0.72032E-09   -0.23026E-10   225   0.166E-05    0.543E-06
RMM:   2    -0.169734487168E+03    0.98953E-09    0.75623-216     9   0.118E-05
  16 F= -.16973449E+03 E0= -.16972710E+03  d E =-.291038E-10
       N       E                     dE             d eps       ncg     rms          rms(c)
DAV:   1    -0.169734487168E+03    0.10696E-08   -0.83137E-11   225   0.126E-05    0.399E-06
RMM:   2    -0.169734487168E+03    0.11642E-09    0.16226-216     8   0.922E-06
  17 F= -.16973449E+03 E0= -.16972710E+03  d E =0.196451E-09
       N       E                     dE             d eps       ncg     rms          rms(c)
DAV:   1    -0.169734487168E+03   -0.18190E-10   -0.53066E-11   225   0.987E-06    0.292E-06
RMM:   2    -0.169734487167E+03    0.26557E-09    0.74914-224     7   0.710E-06
  18 F= -.16973449E+03 E0= -.16972710E+03  d E =0.130967E-09
       N       E                     dE             d eps       ncg     rms          rms(c)
DAV:   1    -0.169734487167E+03    0.47294E-09   -0.31464E-11   225   0.758E-06    0.203E-06
RMM:   2    -0.169734487168E+03   -0.26193E-09    0.19409-224     7   0.552E-06
  19 F= -.16973449E+03 E0= -.16972710E+03  d E =-.545697E-10
       N       E                     dE             d eps       ncg     rms          rms(c)
DAV:   1    -0.169734487167E+03   -0.21828E-10   -0.90028E-11   225   0.590E-06    0.164E-06
RMM:   2    -0.169734487168E+03   -0.27285E-09    0.79518-225     7   0.428E-06
  20 F= -.16973449E+03 E0= -.16972710E+03  d E =-.327418E-10
       N       E                     dE             d eps       ncg     rms          rms(c)
DAV:   1    -0.169734487168E+03   -0.60027E-09   -0.12084E-10   225   0.458E-06    0.112E-06
RMM:   2    -0.169734487168E+03    0.10550E-09    0.33277-232     6   0.333E-06
  21 F= -.16973449E+03 E0= -.16972710E+03  d E =-.221917E-09
       N       E                     dE             d eps       ncg     rms          rms(c)
DAV:   1    -0.169734487168E+03   -0.41473E-09   -0.42670E-11   225   0.355E-06    0.812E-07
RMM:   2    -0.169734487167E+03    0.89494E-09    0.17140-232     6   0.258E-06
  22 F= -.16973449E+03 E0= -.16972710E+03  d E =0.374712E-09
       N       E                     dE             d eps       ncg     rms          rms(c)
DAV:   1    -0.169734487169E+03   -0.40018E-09    0.36378E-11   225   0.276E-06    0.613E-07
RMM:   2    -0.169734487168E+03    0.10477E-08    0.80026-233     6   0.202E-06
  23 F= -.16973449E+03 E0= -.16972710E+03  d E =-.247383E-09
       N       E                     dE             d eps       ncg     rms          rms(c)
DAV:   1    -0.169734487168E+03    0.40382E-09    0.67544E-11   225   0.216E-06    0.459E-07
RMM:   2    -0.169734487168E+03    0.60027E-09    0.53783-233     5   0.155E-06
  24 F= -.16973449E+03 E0= -.16972710E+03  d E =-.436557E-10
       N       E                     dE             d eps       ncg     rms          rms(c)
DAV:   1    -0.169734487167E+03    0.12915E-08   -0.12082E-10   225   0.166E-06    0.352E-07
RMM:   2    -0.169734487168E+03   -0.79672E-09    0.26168-233     5   0.123E-06
  25 F= -.16973449E+03 E0= -.16972710E+03  d E =-.105501E-09
       N       E                     dE             d eps       ncg     rms          rms(c)
DAV:   1    -0.169734487168E+03   -0.15061E-08   -0.39469E-11   225   0.131E-06    0.254E-07
RMM:   2    -0.169734487167E+03    0.10623E-08    0.10438-233     5   0.944E-07
  26 F= -.16973449E+03 E0= -.16972710E+03  d E =0.352884E-09
       N       E                     dE             d eps       ncg     rms          rms(c)
DAV:   1    -0.169734487168E+03    0.52023E-09   -0.12414E-10   225   0.101E-06    0.204E-07
RMM:   2    -0.169734487168E+03    0.29468E-09    0.66796-234     5   0.747E-07
  27 F= -.16973449E+03 E0= -.16972710E+03  d E =-.247383E-09
       N       E                     dE             d eps       ncg     rms          rms(c)
DAV:   1    -0.169734487168E+03    0.35288E-09   -0.59514E-11   225   0.801E-07    0.149E-07
RMM:   2    -0.169734487168E+03    0.90949E-10    0.12083-235     4   0.576E-07
  28 F= -.16973449E+03 E0= -.16972710E+03  d E =0.149157E-09
       N       E                     dE             d eps       ncg     rms          rms(c)
DAV:   1    -0.169734487168E+03   -0.15643E-09   -0.13183E-10   225   0.616E-07    0.114E-07
RMM:   2    -0.169734487168E+03    0.17099E-09    0.70976-236     4   0.454E-07
  29 F= -.16973449E+03 E0= -.16972710E+03  d E =-.763976E-10
       N       E                     dE             d eps       ncg     rms          rms(c)
DAV:   1    -0.169734487168E+03    0.72760E-10    0.79554E-11   225   0.487E-07    0.883E-08
RMM:   2    -0.169734487168E+03    0.00000E+00    0.57933-236     3   0.354E-07
  30 F= -.16973449E+03 E0= -.16972710E+03  d E =-.982254E-10
       N       E                     dE             d eps       ncg     rms          rms(c)
DAV:   1    -0.169734487169E+03   -0.10368E-08    0.53580E-11   225   0.378E-07    0.655E-08
RMM:   2    -0.169734487168E+03    0.10623E-08    0.82520-236     3   0.276E-07
  31 F= -.16973449E+03 E0= -.16972710E+03  d E =0.254659E-10
       N       E                     dE             d eps       ncg     rms          rms(c)
DAV:   1    -0.169734487168E+03    0.97498E-09   -0.22905E-10   225   0.296E-07    0.556E-08
RMM:   2    -0.169734487168E+03    0.20736E-09    0.16238-236     3   0.217E-07
  32 F= -.16973449E+03 E0= -.16972710E+03  d E =0.120053E-09
       N       E                     dE             d eps       ncg     rms          rms(c)
DAV:   1    -0.169734487168E+03   -0.31650E-09   -0.15029E-10   225   0.233E-07    0.394E-08
RMM:   2    -0.169734487168E+03    0.44383E-09    0.22800-236     3   0.169E-07
  33 F= -.16973449E+03 E0= -.16972710E+03  d E =-.800355E-10
       N       E                     dE             d eps       ncg     rms          rms(c)
DAV:   1    -0.169734487167E+03    0.13206E-08   -0.66624E-11   225   0.181E-07    0.312E-08
RMM:   2    -0.169734487167E+03   -0.58571E-09    0.50861-237     3   0.133E-07
  34 F= -.16973449E+03 E0= -.16972710E+03  d E =0.291038E-09
       N       E                     dE             d eps       ncg     rms          rms(c)
DAV:   1    -0.169734487167E+03   -0.15280E-09   -0.68440E-11   225   0.143E-07    0.233E-08
RMM:   2    -0.169734487167E+03   -0.30923E-09    0.68637-237     3   0.104E-07
  35 F= -.16973449E+03 E0= -.16972710E+03  d E =0.123691E-09
       N       E                     dE             d eps       ncg     rms          rms(c)
DAV:   1    -0.169734487168E+03   -0.11569E-08   -0.80699E-11   225   0.111E-07    0.177E-08
RMM:   2    -0.169734487167E+03    0.83674E-09    0.16611-243     2   0.813E-08
  36 F= -.16973449E+03 E0= -.16972710E+03  d E =-.109139E-10
       N       E                     dE             d eps       ncg     rms          rms(c)
DAV:   1    -0.169734487168E+03   -0.54570E-10    0.22592E-10   225   0.873E-08    0.138E-08
RMM:   2    -0.169734487167E+03    0.66211E-09    0.29591-243     2   0.637E-08
  37 F= -.16973449E+03 E0= -.16972710E+03  d E =-.229193E-09
       N       E                     dE             d eps       ncg     rms          rms(c)
DAV:   1    -0.169734487166E+03    0.16880E-08   -0.11435E-10   225   0.686E-08    0.107E-08
RMM:   2    -0.169734487167E+03   -0.74579E-09    0.10139-243     2   0.500E-08
  38 F= -.16973449E+03 E0= -.16972710E+03  d E =0.280124E-09
       N       E                     dE             d eps       ncg     rms          rms(c)
DAV:   1    -0.169734487167E+03   -0.29831E-09    0.53682E-11   225   0.537E-08    0.832E-09
RMM:   2    -0.169734487167E+03   -0.48749E-09    0.18345-243     2   0.392E-08
  39 F= -.16973449E+03 E0= -.16972710E+03  d E =-.400178E-10
       N       E                     dE             d eps       ncg     rms          rms(c)
DAV:   1    -0.169734487167E+03   -0.40018E-10    0.17148E-11   225   0.423E-08    0.660E-09
RMM:   2    -0.169734487167E+03   -0.56389E-09    0.76989-244     2   0.309E-08
  40 F= -.16973449E+03 E0= -.16972710E+03  d E =-.116415E-09
       N       E                     dE             d eps       ncg     rms          rms(c)
DAV:   1    -0.169734487168E+03   -0.90949E-09    0.34207E-11   225   0.332E-08    0.505E-09
RMM:   2    -0.169734487167E+03    0.29468E-09    0.10010-243     2   0.241E-08
  41 F= -.16973449E+03 E0= -.16972710E+03  d E =-.509317E-10
       N       E                     dE             d eps       ncg     rms          rms(c)
DAV:   1    -0.169734487167E+03    0.85493E-09    0.99370E-11   225   0.261E-08    0.409E-09
RMM:   2    -0.169734487167E+03   -0.57480E-09    0.68940-244     2   0.191E-08
  42 F= -.16973449E+03 E0= -.16972710E+03  d E =-.145519E-10
       N       E                     dE             d eps       ncg     rms          rms(c)
DAV:   1    -0.169734487166E+03    0.43656E-09    0.12364E-10   225   0.206E-08    0.300E-09
RMM:   2    -0.169734487167E+03   -0.97498E-09    0.49056-244     2   0.148E-08
  43 F= -.16973449E+03 E0= -.16972710E+03  d E =0.363798E-10
       N       E                     dE             d eps       ncg     rms          rms(c)
DAV:   1    -0.169734487167E+03   -0.10259E-08    0.59781E-11   225   0.159E-08    0.251E-09
RMM:   2    -0.169734487167E+03    0.20373E-09    0.54514-244     2   0.118E-08
  44 F= -.16973449E+03 E0= -.16972710E+03  d E =0.152795E-09
       N       E                     dE             d eps       ncg     rms          rms(c)
DAV:   1    -0.169734487168E+03   -0.62573E-09   -0.11126E-12   225   0.129E-08    0.198E-09
RMM:   2    -0.169734487167E+03    0.69485E-09    0.44513-244     1   0.917E-09
  45 F= -.16973449E+03 E0= -.16972710E+03  d E =-.134605E-09
       N       E                     dE             d eps       ncg     rms          rms(c)
DAV:   1    -0.169734487167E+03    0.10732E-08   -0.14724E-10   225   0.982E-09    0.143E-09
RMM:   2    -0.169734487167E+03   -0.12733E-09    0.47084-244     2   0.726E-09
  46 F= -.16973449E+03 E0= -.16972710E+03  d E =0.251021E-09
       N       E                     dE             d eps       ncg     rms          rms(c)
DAV:   1    -0.169734487167E+03   -0.43656E-10    0.10708E-10   207   0.782E-09    0.133E-09
RMM:   2    -0.169734487167E+03   -0.13824E-09    0.24099-244     1   0.572E-09
  47 F= -.16973449E+03 E0= -.16972710E+03  d E =-.545697E-10
       N       E                     dE             d eps       ncg     rms          rms(c)
DAV:   1    -0.169734487166E+03    0.81491E-09   -0.51198E-11   198   0.605E-09    0.866E-10
RMM:   2    -0.169734487167E+03   -0.11132E-08    0.15808-244     1   0.446E-09
  48 F= -.16973449E+03 E0= -.16972710E+03  d E =-.160071E-09
       N       E                     dE             d eps       ncg     rms          rms(c)
DAV:   1    -0.169734487167E+03   -0.44383E-09    0.40846E-11   198   0.483E-09    0.943E-10
RMM:   2    -0.169734487167E+03   -0.68394E-09    0.19888-244     1   0.357E-09
  49 F= -.16973449E+03 E0= -.16972710E+03  d E =-.145519E-10
       N       E                     dE             d eps       ncg     rms          rms(c)
DAV:   1    -0.169734487167E+03   -0.60027E-09   -0.14197E-11   198   0.385E-09    0.633E-10
RMM:   2    -0.169734487167E+03   -0.87311E-10    0.14049-244     1   0.278E-09
  50 F= -.16973449E+03 E0= -.16972710E+03  d E =-.363798E-11
       N       E                     dE             d eps       ncg     rms          rms(c)
DAV:   1    -0.169734487167E+03    0.42564E-09    0.35444E-11   198   0.320E-09    0.688E-10
RMM:   2    -0.169734487167E+03   -0.57844E-09    0.18320-244     1   0.233E-09
  51 F= -.16973449E+03 E0= -.16972710E+03  d E =-.654836E-10
       N       E                     dE             d eps       ncg     rms          rms(c)
DAV:   1    -0.169734487168E+03   -0.94587E-09   -0.31261E-11   198   0.246E-09    0.431E-10
RMM:   2    -0.169734487167E+03    0.43656E-09    0.13105-244     1   0.174E-09
  52 F= -.16973449E+03 E0= -.16972710E+03  d E =0.691216E-10
       N       E                     dE             d eps       ncg     rms          rms(c)
DAV:   1    -0.169734487168E+03   -0.17462E-09    0.55792E-11   198   0.188E-09    0.454E-10
RMM:   2    -0.169734487167E+03    0.70941E-09    0.16995-244     1   0.155E-09
  53 F= -.16973449E+03 E0= -.16972710E+03  d E =0.982254E-10
       N       E                     dE             d eps       ncg     rms          rms(c)
DAV:   1    -0.169734487167E+03    0.10696E-08    0.11652E-10   198   0.157E-09    0.586E-10
RMM:   2    -0.169734487167E+03   -0.61118E-09    0.12284-244     1   0.126E-09
  54 F= -.16973449E+03 E0= -.16972710E+03  d E =-.251021E-09
       N       E                     dE             d eps       ncg     rms          rms(c)
DAV:   1    -0.169734487167E+03   -0.14552E-10    0.79955E-11   198   0.127E-09    0.449E-10
RMM:   2    -0.169734487167E+03   -0.29468E-09    0.15733-244     1   0.102E-09
  55 F= -.16973449E+03 E0= -.16972710E+03  d E =0.301952E-09
       N       E                     dE             d eps       ncg     rms          rms(c)
DAV:   1    -0.169734487168E+03   -0.15862E-08   -0.17453E-11   198   0.111E-09    0.810E-10
RMM:   2    -0.169734487167E+03    0.10950E-08    0.11553-244     1   0.910E-10
  56 F= -.16973449E+03 E0= -.16972710E+03  d E =-.196451E-09
       N       E                     dE             d eps       ncg     rms          rms(c)
DAV:   1    -0.169734487168E+03   -0.72760E-11   -0.10939E-11   198   0.909E-10    0.482E-10
RMM:   2    -0.169734487167E+03    0.12187E-08    0.14696-244     1   0.705E-10
  57 F= -.16973449E+03 E0= -.16972710E+03  d E =0.116415E-09
       N       E                     dE             d eps       ncg     rms          rms(c)
DAV:   1    -0.169734487168E+03    0.73487E-09    0.50165E-11   198   0.733E-10    0.701E-10
RMM:   2    -0.169734487168E+03    0.12369E-09    0.10813-244     1   0.673E-10
  58 F= -.16973449E+03 E0= -.16972710E+03  d E =-.360160E-09
       N       E                     dE             d eps       ncg     rms          rms(c)
DAV:   1    -0.169734487168E+03   -0.19645E-09    0.10164E-11   198   0.602E-10    0.475E-10
RMM:   2    -0.169734487168E+03    0.36380E-09    0.13731-244     1   0.457E-10
  59 F= -.16973449E+03 E0= -.16972710E+03  d E =0.436557E-10
       N       E                     dE             d eps       ncg     rms          rms(c)
DAV:   1    -0.169734487168E+03   -0.55297E-09    0.15559E-10   198   0.523E-10    0.553E-10
RMM:   2    -0.169734487167E+03    0.10223E-08    0.10086-244     1   0.423E-10
  60 F= -.16973449E+03 E0= -.16972710E+03  d E =0.105501E-09
       N       E                     dE             d eps       ncg     rms          rms(c)
DAV:   1    -0.169734487168E+03    0.50204E-09    0.83888E-11   198   0.480E-10    0.695E-10
RMM:   2    -0.169734487167E+03    0.57480E-09    0.12861-244     1   0.408E-10
  61 F= -.16973449E+03 E0= -.16972710E+03  d E =0.545697E-10
       N       E                     dE             d eps       ncg     rms          rms(c)
DAV:   1    -0.169734487167E+03    0.97862E-09    0.27729E-11   198   0.475E-10    0.370E-10
RMM:   2    -0.169734487168E+03   -0.57480E-09    0.94165-245     1   0.419E-10
  62 F= -.16973449E+03 E0= -.16972710E+03  d E =-.170985E-09
       N       E                     dE             d eps       ncg     rms          rms(c)
DAV:   1    -0.169734487168E+03   -0.57116E-09    0.24250E-11   198   0.406E-10    0.772E-10
RMM:   2    -0.169734487168E+03   -0.72760E-11    0.12038-244     1   0.347E-10
  63 F= -.16973449E+03 E0= -.16972710E+03  d E =-.363798E-11
       N       E                     dE             d eps       ncg     rms          rms(c)
DAV:   1    -0.169734487169E+03   -0.12587E-08   -0.12038E-11   198   0.426E-10    0.465E-10
RMM:   2    -0.169734487168E+03    0.13206E-08    0.87989-245     1   0.346E-10
  64 F= -.16973449E+03 E0= -.16972710E+03  d E =0.691216E-10
       N       E                     dE             d eps       ncg     rms          rms(c)
DAV:   1    -0.169734487168E+03    0.12369E-08    0.93702E-11   198   0.329E-10    0.597E-10
RMM:   2    -0.169734487168E+03    0.80036E-10    0.11261-244     1   0.392E-10
  65 F= -.16973449E+03 E0= -.16972710E+03  d E =-.363798E-11
       N       E                     dE             d eps       ncg     rms          rms(c)
DAV:   1    -0.169734487168E+03   -0.76761E-09   -0.10458E-11   198   0.397E-10    0.323E-10
RMM:   2    -0.169734487167E+03    0.11605E-08    0.83738-245     1   0.333E-10
  66 F= -.16973449E+03 E0= -.16972710E+03  d E =0.312866E-09
       N       E                     dE             d eps       ncg     rms          rms(c)
DAV:   1    -0.169734487168E+03    0.62573E-09   -0.60542E-11   198   0.346E-10    0.768E-10
RMM:   2    -0.169734487167E+03    0.46930E-09    0.10411-244     1   0.239E-10
  67 F= -.16973449E+03 E0= -.16972710E+03  d E =-.654836E-10
       N       E                     dE             d eps       ncg     rms          rms(c)
DAV:   1    -0.169734487167E+03    0.88767E-09    0.54640E-12   198   0.330E-10    0.404E-10
RMM:   2    -0.169734487167E+03   -0.59299E-09    0.78458-245     1   0.240E-10
  68 F= -.16973449E+03 E0= -.16972710E+03  d E =-.174623E-09
       N       E                     dE             d eps       ncg     rms          rms(c)
DAV:   1    -0.169734487166E+03    0.47658E-09    0.59040E-11   198   0.319E-10    0.570E-10
RMM:   2    -0.169734487167E+03   -0.98589E-09    0.96895-245     1   0.269E-10
  69 F= -.16973449E+03 E0= -.16972710E+03  d E =0.836735E-10
       N       E                     dE             d eps       ncg     rms          rms(c)
DAV:   1    -0.169734487166E+03    0.27285E-09    0.12318E-10   198   0.446E-10    0.509E-10
RMM:   2    -0.169734487167E+03   -0.12697E-08    0.73496-245     1   0.424E-10
  70 F= -.16973449E+03 E0= -.16972710E+03  d E =-.109139E-10
       N       E                     dE             d eps       ncg     rms          rms(c)
DAV:   1    -0.169734487168E+03   -0.21173E-08   -0.77231E-11   198   0.428E-10    0.559E-10
RMM:   2    -0.169734487168E+03    0.61118E-09    0.91036-245     1   0.347E-10
  71 F= -.16973449E+03 E0= -.16972710E+03  d E =-.236469E-09
       N       E                     dE             d eps       ncg     rms          rms(c)
DAV:   1    -0.169734487168E+03    0.66211E-09   -0.51664E-11   198   0.393E-10    0.440E-10
RMM:   2    -0.169734487168E+03   -0.65484E-10    0.69294-245     1   0.332E-10
  72 F= -.16973449E+03 E0= -.16972710E+03  d E =-.145519E-10
       N       E                     dE             d eps       ncg     rms          rms(c)
DAV:   1    -0.169734487167E+03    0.51659E-09    0.95907E-11   198   0.343E-10    0.434E-10
RMM:   2    -0.169734487167E+03   -0.38926E-09    0.85520-245     1   0.269E-10
  73 F= -.16973449E+03 E0= -.16972710E+03  d E =0.192813E-09
       N       E                     dE             d eps       ncg     rms          rms(c)
DAV:   1    -0.169734487168E+03   -0.62573E-09   -0.11096E-10   198   0.292E-10    0.361E-10
RMM:   2    -0.169734487167E+03    0.26557E-09    0.66001-245     1   0.219E-10
  74 F= -.16973449E+03 E0= -.16972710E+03  d E =0.291038E-10
       N       E                     dE             d eps       ncg     rms          rms(c)
DAV:   1    -0.169734487168E+03   -0.72760E-10    0.10454E-10   198   0.235E-10    0.330E-10
RMM:   2    -0.169734487168E+03    0.17462E-09    0.79361-245     1   0.360E-10
  75 F= -.16973449E+03 E0= -.16972710E+03  d E =-.163709E-09
       N       E                     dE             d eps       ncg     rms          rms(c)
DAV:   1    -0.169734487168E+03   -0.10550E-09    0.10622E-10   198   0.249E-10    0.408E-10
RMM:   2    -0.169734487167E+03    0.48021E-09    0.60118-245     1   0.317E-10
  76 F= -.16973449E+03 E0= -.16972710E+03  d E =0.200089E-09
       N       E                     dE             d eps       ncg     rms          rms(c)
DAV:   1    -0.169734487167E+03    0.80763E-09   -0.55021E-13   198   0.231E-10    0.500E-10
RMM:   2    -0.169734487167E+03   -0.42201E-09    0.74465-245     1   0.344E-10
  77 F= -.16973449E+03 E0= -.16972710E+03  d E =-.945874E-10
       N       E                     dE             d eps       ncg     rms          rms(c)
DAV:   1    -0.169734487168E+03   -0.76034E-09    0.64166E-11   198   0.276E-10    0.484E-10
RMM:   2    -0.169734487167E+03    0.52751E-09    0.56201-245     1   0.286E-10
  78 F= -.16973449E+03 E0= -.16972710E+03  d E =0.189175E-09
       N       E                     dE             d eps       ncg     rms          rms(c)
DAV:   1    -0.169734487168E+03    0.87311E-10    0.43298E-11   198   0.351E-10    0.884E-10
RMM:   2    -0.169734487167E+03    0.49477E-09    0.68720-245     1   0.381E-10
  79 F= -.16973449E+03 E0= -.16972710E+03  d E =0.545697E-10
       N       E                     dE             d eps       ncg     rms          rms(c)
DAV:   1    -0.169734487168E+03   -0.61482E-09   -0.12782E-11   198   0.399E-10    0.570E-10
RMM:   2    -0.169734487167E+03    0.11205E-08    0.52342-245     1   0.418E-10
  80 F= -.16973449E+03 E0= -.16972710E+03  d E =0.109139E-10
       N       E                     dE             d eps       ncg     rms          rms(c)
DAV:   1    -0.169734487168E+03    0.74579E-09    0.67846E-11   198   0.356E-10    0.463E-10
RMM:   2    -0.169734487167E+03    0.90949E-10    0.64112-245     1   0.264E-10
  81 F= -.16973449E+03 E0= -.16972710E+03  d E =-.283762E-09
       N       E                     dE             d eps       ncg     rms          rms(c)
DAV:   1    -0.169734487168E+03   -0.71304E-09    0.14004E-10   198   0.332E-10    0.956E-10
RMM:   2    -0.169734487167E+03    0.88039E-09    0.49239-245     1   0.341E-10
  82 F= -.16973449E+03 E0= -.16972710E+03  d E =0.763976E-10
       N       E                     dE             d eps       ncg     rms          rms(c)
DAV:   1    -0.169734487168E+03    0.56025E-09    0.69152E-11   198   0.441E-10    0.516E-10
RMM:   2    -0.169734487167E+03    0.42201E-09    0.60038-245     1   0.249E-10
  83 F= -.16973449E+03 E0= -.16972710E+03  d E =0.101863E-09
       N       E                     dE             d eps       ncg     rms          rms(c)
DAV:   1    -0.169734487167E+03    0.47294E-09    0.63369E-11   198   0.267E-10    0.606E-10
RMM:   2    -0.169734487167E+03    0.83674E-10    0.46181-245     1   0.207E-10
  84 F= -.16973449E+03 E0= -.16972710E+03  d E =0.134605E-09
       N       E                     dE             d eps       ncg     rms          rms(c)
DAV:   1    -0.169734487168E+03   -0.36380E-09    0.19379E-12   198   0.317E-10    0.366E-10
RMM:   2    -0.169734487167E+03    0.21828E-09    0.56081-245     1   0.286E-10
  85 F= -.16973449E+03 E0= -.16972710E+03  d E =-.229193E-09
       N       E                     dE             d eps       ncg     rms          rms(c)
DAV:   1    -0.169734487168E+03    0.10914E-10    0.11244E-10   198   0.237E-10    0.386E-10
RMM:   2    -0.169734487168E+03    0.14552E-10    0.43033-245     1   0.236E-10
  86 F= -.16973449E+03 E0= -.16972710E+03  d E =-.192813E-09
       N       E                     dE             d eps       ncg     rms          rms(c)
DAV:   1    -0.169734487168E+03   -0.31650E-09   -0.52000E-11   198   0.300E-10    0.549E-10
RMM:   2    -0.169734487167E+03    0.58935E-09    0.52091-245     1   0.311E-10
  87 F= -.16973449E+03 E0= -.16972710E+03  d E =0.258296E-09
       N       E                     dE             d eps       ncg     rms          rms(c)
DAV:   1    -0.169734487168E+03    0.36016E-09    0.17797E-11   198   0.550E-10    0.138E-09
RMM:   2    -0.169734487168E+03   -0.29104E-10    0.40204-245     1   0.447E-10
  88 F= -.16973449E+03 E0= -.16972710E+03  d E =-.258296E-09
       N       E                     dE             d eps       ncg     rms          rms(c)
DAV:   1    -0.169734487168E+03   -0.32378E-09    0.22342E-11   198   0.614E-10    0.101E-09
RMM:   2    -0.169734487167E+03    0.61846E-09    0.48436-245     1   0.437E-10
  89 F= -.16973449E+03 E0= -.16972710E+03  d E =0.323780E-09
       N       E                     dE             d eps       ncg     rms          rms(c)
DAV:   1    -0.169734487168E+03    0.33469E-09    0.50913E-11   198   0.481E-10    0.770E-10
RMM:   2    -0.169734487167E+03    0.29831E-09    0.37839-245     1   0.337E-10
  90 F= -.16973449E+03 E0= -.16972710E+03  d E =0.145519E-10
       N       E                     dE             d eps       ncg     rms          rms(c)
DAV:   1    -0.169734487167E+03    0.98225E-09    0.18936E-11   198   0.345E-10    0.418E-10
RMM:   2    -0.169734487167E+03   -0.64028E-09    0.45825-245     1   0.341E-10
  91 F= -.16973449E+03 E0= -.16972710E+03  d E =0.436557E-10
       N       E                     dE             d eps       ncg     rms          rms(c)
DAV:   1    -0.169734487167E+03   -0.10914E-10   -0.13592E-10   198   0.333E-10    0.610E-10
RMM:   2    -0.169734487168E+03   -0.10878E-08    0.33754-245     1   0.417E-10
  92 F= -.16973449E+03 E0= -.16972710E+03  d E =-.458385E-09
       N       E                     dE             d eps       ncg     rms          rms(c)
DAV:   1    -0.169734487167E+03   -0.79308E-09    0.81560E-11   198   0.351E-10    0.331E-10
RMM:   2    -0.169734487167E+03    0.21464E-09    0.42786-245     1   0.234E-10
  93 F= -.16973449E+03 E0= -.16972710E+03  d E =0.509317E-09
       N       E                     dE             d eps       ncg     rms          rms(c)
DAV:   1    -0.169734487168E+03   -0.28376E-09    0.98992E-12   198   0.257E-10    0.627E-10
RMM:   2    -0.169734487168E+03    0.47294E-10    0.31907-245     1   0.314E-10
  94 F= -.16973449E+03 E0= -.16972710E+03  d E =-.451109E-09
       N       E                     dE             d eps       ncg     rms          rms(c)
DAV:   1    -0.169734487167E+03    0.22192E-09    0.59690E-11   198   0.358E-10    0.569E-10
RMM:   2    -0.169734487168E+03   -0.65484E-10    0.40612-245     1   0.251E-10
  95 F= -.16973449E+03 E0= -.16972710E+03  d E =0.109139E-09
       N       E                     dE             d eps       ncg     rms          rms(c)
DAV:   1    -0.169734487167E+03    0.61482E-09    0.56591E-11   198   0.308E-10    0.501E-10
RMM:   2    -0.169734487167E+03   -0.59299E-09    0.30130-245     1   0.382E-10
  96 F= -.16973449E+03 E0= -.16972710E+03  d E =0.873115E-10
       N       E                     dE             d eps       ncg     rms          rms(c)
DAV:   1    -0.169734487167E+03   -0.44020E-09   -0.70268E-11   198   0.355E-10    0.594E-10
RMM:   2    -0.169734487167E+03   -0.90949E-10    0.37100-245     1   0.313E-10
  97 F= -.16973449E+03 E0= -.16972710E+03  d E =0.618456E-10
       N       E                     dE             d eps       ncg     rms          rms(c)
DAV:   1    -0.169734487168E+03   -0.56389E-09    0.22262E-12   198   0.399E-10    0.359E-10
RMM:   2    -0.169734487167E+03    0.56025E-09    0.27748-245     1   0.305E-10
  98 F= -.16973449E+03 E0= -.16972710E+03  d E =0.873115E-10
       N       E                     dE             d eps       ncg     rms          rms(c)
DAV:   1    -0.169734487167E+03    0.79672E-09    0.11310E-10   198   0.329E-10    0.718E-10
RMM:   2    -0.169734487167E+03   -0.36744E-09    0.34122-245     1   0.253E-10
  99 F= -.16973449E+03 E0= -.16972710E+03  d E =-.130967E-09
       N       E                     dE             d eps       ncg     rms          rms(c)
DAV:   1    -0.169734487168E+03   -0.48749E-09   -0.67596E-11   198   0.318E-10    0.720E-10
RMM:   2    -0.169734487167E+03    0.29104E-09    0.25603-245     1   0.240E-10
 100 F= -.16973449E+03 E0= -.16972710E+03  d E =0.170985E-09
       N       E                     dE             d eps       ncg     rms          rms(c)
DAV:   1    -0.169734487168E+03   -0.49840E-09    0.10869E-11   198   0.358E-10    0.439E-10
RMM:   2    -0.169734487167E+03    0.65847E-09    0.32169-245     1   0.505E-10
 101 F= -.16973449E+03 E0= -.16972710E+03  d E =-.130967E-09
       N       E                     dE             d eps       ncg     rms          rms(c)
DAV:   1    -0.169734487168E+03    0.21464E-09   -0.95125E-11   198   0.319E-10    0.393E-10
RMM:   2    -0.169734487167E+03    0.52387E-09    0.24124-245     1   0.280E-10
 102 F= -.16973449E+03 E0= -.16972710E+03  d E =0.800355E-10
       N       E                     dE             d eps       ncg     rms          rms(c)
DAV:   1    -0.169734487168E+03   -0.25830E-09    0.47793E-11   198   0.265E-10    0.620E-10
RMM:   2    -0.169734487167E+03    0.77853E-09    0.29664-245     1   0.242E-10
 103 F= -.16973449E+03 E0= -.16972710E+03  d E =-.363798E-11
       N       E                     dE             d eps       ncg     rms          rms(c)
DAV:   1    -0.169734487168E+03    0.25102E-09   -0.35009E-11   198   0.239E-10    0.501E-10
RMM:   2    -0.169734487167E+03    0.61482E-09    0.21965-245     1   0.261E-10
 104 F= -.16973449E+03 E0= -.16972710E+03  d E =0.873115E-10
       N       E                     dE             d eps       ncg     rms          rms(c)
DAV:   1    -0.169734487167E+03    0.62209E-09    0.74141E-11   198   0.268E-10    0.659E-10
RMM:   2    -0.169734487167E+03   -0.24011E-09    0.28137-245     1   0.279E-10
 105 F= -.16973449E+03 E0= -.16972710E+03  d E =-.232831E-09
       N       E                     dE             d eps       ncg     rms          rms(c)
DAV:   1    -0.169734487167E+03    0.16007E-09   -0.28490E-11   198   0.358E-10    0.479E-10
RMM:   2    -0.169734487167E+03   -0.42201E-09    0.20006-245     1   0.266E-10
 106 F= -.16973449E+03 E0= -.16972710E+03  d E =-.218279E-10
       N       E                     dE             d eps       ncg     rms          rms(c)
DAV:   1    -0.169734487168E+03   -0.65484E-09   -0.17383E-11   198   0.264E-10    0.526E-10
RMM:   2    -0.169734487167E+03    0.46566E-09    0.26346-245     1   0.226E-10
 107 F= -.16973449E+03 E0= -.16972710E+03  d E =0.232831E-09
       N       E                     dE             d eps       ncg     rms          rms(c)
DAV:   1    -0.169734487168E+03    0.98225E-10   -0.13206E-10   198   0.334E-10    0.435E-10
RMM:   2    -0.169734487167E+03    0.12369E-09    0.17961-245     1   0.224E-10
 108 F= -.16973449E+03 E0= -.16972710E+03  d E =-.243745E-09
       N       E                     dE             d eps       ncg     rms          rms(c)
DAV:   1    -0.169734487168E+03   -0.29831E-09    0.92441E-11   198   0.249E-10    0.386E-10
RMM:   2    -0.169734487167E+03    0.39290E-09    0.24128-245     1   0.240E-10
 109 F= -.16973449E+03 E0= -.16972710E+03  d E =-.291038E-10
       N       E                     dE             d eps       ncg     rms          rms(c)
DAV:   1    -0.169734487167E+03    0.12842E-08   -0.83570E-11   198   0.238E-10    0.414E-10
RMM:   2    -0.169734487167E+03   -0.84401E-09    0.16901-245     1   0.240E-10
 110 F= -.16973449E+03 E0= -.16972710E+03  d E =0.472937E-10
       N       E                     dE             d eps       ncg     rms          rms(c)
DAV:   1    -0.169734487167E+03   -0.79308E-09    0.17702E-10   198   0.290E-10    0.335E-10
RMM:   2    -0.169734487167E+03    0.13097E-09    0.22848-245     1   0.222E-10
 111 F= -.16973449E+03 E0= -.16972710E+03  d E =0.181899E-09
       N       E                     dE             d eps       ncg     rms          rms(c)
DAV:   1    -0.169734487167E+03    0.36380E-10    0.81489E-11   198   0.216E-10    0.504E-10
RMM:   2    -0.169734487167E+03    0.90949E-10    0.15071-245     1   0.344E-10
 112 F= -.16973449E+03 E0= -.16972710E+03  d E =-.363798E-11
       N       E                     dE             d eps       ncg     rms          rms(c)
DAV:   1    -0.169734487167E+03    0.52023E-09    0.69810E-11   198   0.249E-10    0.272E-10
RMM:   2    -0.169734487167E+03   -0.35652E-09    0.20580-245     1   0.301E-10
 113 F= -.16973449E+03 E0= -.16972710E+03  d E =0.727596E-10
       N       E                     dE             d eps       ncg     rms          rms(c)
DAV:   1    -0.169734487167E+03    0.14188E-09   -0.81941E-11   198   0.256E-10    0.374E-10
RMM:   2    -0.169734487167E+03   -0.47658E-09    0.14050-245     1   0.340E-10
 114 F= -.16973449E+03 E0= -.16972710E+03  d E =0.218279E-10
       N       E                     dE             d eps       ncg     rms          rms(c)
DAV:   1    -0.169734487167E+03   -0.53842E-09    0.68102E-11   198   0.256E-10    0.307E-10
RMM:   2    -0.169734487168E+03   -0.40382E-09    0.19138-245     1   0.221E-10
 115 F= -.16973449E+03 E0= -.16972710E+03  d E =-.465661E-09
       N       E                     dE             d eps       ncg     rms          rms(c)
DAV:   1    -0.169734487167E+03   -0.10914E-09    0.12591E-10   198   0.316E-10    0.696E-10
RMM:   2    -0.169734487167E+03    0.36380E-10    0.12762-245     1   0.244E-10
 116 F= -.16973449E+03 E0= -.16972710E+03  d E =0.331056E-09
       N       E                     dE             d eps       ncg     rms          rms(c)
DAV:   1    -0.169734487167E+03    0.49840E-09    0.74552E-11   198   0.377E-10    0.564E-10
RMM:   2    -0.169734487167E+03   -0.38199E-09    0.17420-245     1   0.274E-10
 117 F= -.16973449E+03 E0= -.16972710E+03  d E =0.800355E-10
       N       E                     dE             d eps       ncg     rms          rms(c)
DAV:   1    -0.169734487167E+03   -0.58935E-09    0.19578E-10   198   0.423E-10    0.796E-10
RMM:   2    -0.169734487167E+03    0.23283E-09    0.12000-245     1   0.423E-10
 118 F= -.16973449E+03 E0= -.16972710E+03  d E =0.254659E-10
       N       E                     dE             d eps       ncg     rms          rms(c)
DAV:   1    -0.169734487168E+03   -0.37835E-09   -0.81371E-12   198   0.373E-10    0.399E-10
RMM:   2    -0.169734487167E+03    0.56752E-09    0.15819-245     1   0.275E-10
 119 F= -.16973449E+03 E0= -.16972710E+03  d E =-.436557E-10
       N       E                     dE             d eps       ncg     rms          rms(c)
DAV:   1    -0.169734487166E+03    0.17026E-08   -0.69584E-11   198   0.333E-10    0.553E-10
RMM:   2    -0.169734487167E+03   -0.10987E-08    0.10993-245     1   0.228E-10
 120 F= -.16973449E+03 E0= -.16972710E+03  d E =0.363798E-10
       N       E                     dE             d eps       ncg     rms          rms(c)
DAV:   1    -0.169734487168E+03   -0.14661E-08    0.93608E-11   198   0.265E-10    0.357E-10
RMM:   2    -0.169734487167E+03    0.29831E-09    0.14880-245     1   0.196E-10
 121 F= -.16973449E+03 E0= -.16972710E+03  d E =-.691216E-10
       N       E                     dE             d eps       ncg     rms          rms(c)
DAV:   1    -0.169734487168E+03   -0.25466E-09    0.24662E-13   198   0.295E-10    0.736E-10
RMM:   2    -0.169734487167E+03    0.43656E-09    0.98826-246     1   0.256E-10
 122 F= -.16973449E+03 E0= -.16972710E+03  d E =-.116415E-09
       N       E                     dE             d eps       ncg     rms          rms(c)
DAV:   1    -0.169734487166E+03    0.13570E-08    0.29333E-11   198   0.352E-10    0.749E-10
RMM:   2    -0.169734487167E+03   -0.84037E-09    0.13899-245     1   0.268E-10
 123 F= -.16973449E+03 E0= -.16972710E+03  d E =0.800355E-10
       N       E                     dE             d eps       ncg     rms          rms(c)
DAV:   1    -0.169734487168E+03   -0.13279E-08   -0.16383E-10   198   0.384E-10    0.649E-10
RMM:   2    -0.169734487168E+03    0.24011E-09    0.00000E+00     0   0.461E-10
 124 F= -.16973449E+03 E0= -.16972710E+03  d E =-.247383E-09
       N       E                     dE             d eps       ncg     rms          rms(c)
DAV:   1    -0.169734487168E+03    0.69122E-10   -0.24542E-11   198   0.331E-10    0.450E-10
RMM:   2    -0.169734487167E+03    0.27285E-09    0.00000E+00     0   0.265E-10
 125 F= -.16973449E+03 E0= -.16972710E+03  d E =0.101863E-09
       N       E                     dE             d eps       ncg     rms          rms(c)
DAV:   1    -0.169734487168E+03    0.80036E-10    0.26998E-11   198   0.304E-10    0.507E-10
RMM:   2    -0.169734487167E+03    0.22919E-09    0.00000E+00     0   0.259E-10
 126 F= -.16973449E+03 E0= -.16972710E+03  d E =0.363798E-10
       N       E                     dE             d eps       ncg     rms          rms(c)
DAV:   1    -0.169734487167E+03    0.74579E-09    0.79314E-11   198   0.252E-10    0.629E-10
RMM:   2    -0.169734487167E+03   -0.55661E-09    0.00000E+00     0   0.285E-10
 127 F= -.16973449E+03 E0= -.16972710E+03  d E =-.400178E-10
       N       E                     dE             d eps       ncg     rms          rms(c)
DAV:   1    -0.169734487168E+03   -0.12915E-08    0.11389E-10   198   0.292E-10    0.426E-10
RMM:   2    -0.169734487167E+03    0.77489E-09    0.00000E+00     0   0.352E-10
 128 F= -.16973449E+03 E0= -.16972710E+03  d E =0.400178E-10
       N       E                     dE             d eps       ncg     rms          rms(c)
DAV:   1    -0.169734487167E+03    0.12769E-08    0.50679E-11   198   0.277E-10    0.623E-10
RMM:   2    -0.169734487167E+03   -0.31287E-09    0.00000E+00     0   0.301E-10
 129 F= -.16973449E+03 E0= -.16972710E+03  d E =0.189175E-09
       N       E                     dE             d eps       ncg     rms          rms(c)
DAV:   1    -0.169734487168E+03   -0.84765E-09    0.27869E-11   198   0.287E-10    0.584E-10
RMM:   2    -0.169734487167E+03    0.34561E-09    0.00000E+00     0   0.369E-10
 130 F= -.16973449E+03 E0= -.16972710E+03  d E =-.189175E-09
       N       E                     dE             d eps       ncg     rms          rms(c)
DAV:   1    -0.169734487167E+03    0.10077E-08    0.74604E-11   198   0.385E-10    0.686E-10
RMM:   2    -0.169734487168E+03   -0.93132E-09    0.00000E+00     0   0.297E-10
 131 F= -.16973449E+03 E0= -.16972710E+03  d E =-.269210E-09
       N       E                     dE             d eps       ncg     rms          rms(c)
DAV:   1    -0.169734487167E+03    0.24738E-09    0.21652E-10   198   0.358E-10    0.280E-10
RMM:   2    -0.169734487167E+03   -0.69849E-09    0.00000E+00     0   0.273E-10
 132 F= -.16973449E+03 E0= -.16972710E+03  d E =0.480213E-09
       N       E                     dE             d eps       ncg     rms          rms(c)
DAV:   1    -0.169734487168E+03   -0.14006E-08    0.12208E-10   198   0.258E-10    0.557E-10
RMM:   2    -0.169734487167E+03    0.70577E-09    0.00000E+00     0   0.269E-10
 133 F= -.16973449E+03 E0= -.16972710E+03  d E =0.363798E-11
       N       E                     dE             d eps       ncg     rms          rms(c)
DAV:   1    -0.169734487168E+03   -0.56752E-09    0.66596E-11   198   0.226E-10    0.384E-10
RMM:   2    -0.169734487168E+03    0.86220E-09    0.00000E+00     0   0.206E-10
 134 F= -.16973449E+03 E0= -.16972710E+03  d E =-.411092E-09
       N       E                     dE             d eps       ncg     rms          rms(c)
DAV:   1    -0.169734487167E+03    0.11823E-08    0.38236E-11   198   0.248E-10    0.495E-10
RMM:   2    -0.169734487167E+03   -0.47294E-10    0.00000E+00     0   0.315E-10
 135 F= -.16973449E+03 E0= -.16972710E+03  d E =0.272848E-09
       N       E                     dE             d eps       ncg     rms          rms(c)
DAV:   1    -0.169734487167E+03   -0.98225E-10    0.73504E-11   198   0.327E-10    0.540E-10
RMM:   2    -0.169734487167E+03    0.25466E-10    0.00000E+00     0   0.332E-10
 136 F= -.16973449E+03 E0= -.16972710E+03  d E =-.254659E-10
       N       E                     dE             d eps       ncg     rms          rms(c)
DAV:   1    -0.169734487167E+03    0.15643E-09    0.49643E-11   198   0.368E-10    0.455E-10
RMM:   2    -0.169734487168E+03   -0.37471E-09    0.00000E+00     0   0.253E-10
 137 F= -.16973449E+03 E0= -.16972710E+03  d E =-.243745E-09
       N       E                     dE             d eps       ncg     rms          rms(c)
DAV:   1    -0.169734487167E+03    0.37107E-09    0.63574E-11   198   0.279E-10    0.412E-10
RMM:   2    -0.169734487168E+03   -0.74215E-09    0.00000E+00     0   0.335E-10
 138 F= -.16973449E+03 E0= -.16972710E+03  d E =0.363798E-11
       N       E                     dE             d eps       ncg     rms          rms(c)
DAV:   1    -0.169734487167E+03   -0.30559E-09    0.53864E-11   198   0.288E-10    0.466E-10
RMM:   2    -0.169734487167E+03   -0.26557E-09    0.00000E+00     0   0.275E-10
 139 F= -.16973449E+03 E0= -.16972710E+03  d E =0.170985E-09
       N       E                     dE             d eps       ncg     rms          rms(c)
DAV:   1    -0.169734487167E+03    0.15643E-09    0.30529E-11   198   0.243E-10    0.337E-10
RMM:   2    -0.169734487167E+03   -0.40382E-09    0.00000E+00     0   0.229E-10
 140 F= -.16973449E+03 E0= -.16972710E+03  d E =0.181899E-10
       N       E                     dE             d eps       ncg     rms          rms(c)
DAV:   1    -0.169734487168E+03   -0.84037E-09    0.46862E-11   198   0.350E-10    0.106E-09
RMM:   2    -0.169734487167E+03    0.39290E-09    0.00000E+00     0   0.449E-10
 141 F= -.16973449E+03 E0= -.16972710E+03  d E =-.436557E-10
       N       E                     dE             d eps       ncg     rms          rms(c)
DAV:   1    -0.169734487168E+03   -0.47294E-10    0.15216E-10   198   0.404E-10    0.472E-10
RMM:   2    -0.169734487167E+03    0.53114E-09    0.00000E+00     0   0.352E-10
 142 F= -.16973449E+03 E0= -.16972710E+03  d E =0.909495E-10
       N       E                     dE             d eps       ncg     rms          rms(c)
DAV:   1    -0.169734487167E+03    0.47658E-09   -0.17588E-11   198   0.335E-10    0.410E-10
RMM:   2    -0.169734487167E+03    0.15643E-09    0.00000E+00     0   0.215E-10
 143 F= -.16973449E+03 E0= -.16972710E+03  d E =0.101863E-09
       N       E                     dE             d eps       ncg     rms          rms(c)
DAV:   1    -0.169734487168E+03   -0.18917E-09    0.18534E-11   198   0.248E-10    0.433E-10
RMM:   2    -0.169734487167E+03    0.44383E-09    0.00000E+00     0   0.228E-10
 144 F= -.16973449E+03 E0= -.16972710E+03  d E =0.982254E-10
       N       E                     dE             d eps       ncg     rms          rms(c)
DAV:   1    -0.169734487168E+03   -0.48385E-09    0.28746E-11   198   0.279E-10    0.421E-10
RMM:   2    -0.169734487167E+03    0.64028E-09    0.00000E+00     0   0.235E-10
 145 F= -.16973449E+03 E0= -.16972710E+03  d E =-.287400E-09
       N       E                     dE             d eps       ncg     rms          rms(c)
DAV:   1    -0.169734487167E+03    0.84401E-09   -0.72642E-11   198   0.258E-10    0.665E-10
RMM:   2    -0.169734487168E+03   -0.43656E-09    0.00000E+00     0   0.397E-10
 146 F= -.16973449E+03 E0= -.16972710E+03  d E =-.232831E-09
       N       E                     dE             d eps       ncg     rms          rms(c)
DAV:   1    -0.169734487168E+03   -0.61482E-09    0.13227E-10   198   0.461E-10    0.464E-10
RMM:   2    -0.169734487167E+03    0.49477E-09    0.00000E+00     0   0.312E-10
 147 F= -.16973449E+03 E0= -.16972710E+03  d E =0.316504E-09
       N       E                     dE             d eps       ncg     rms          rms(c)
DAV:   1    -0.169734487167E+03    0.63301E-09    0.41160E-11   198   0.382E-10    0.513E-10
RMM:   2    -0.169734487167E+03   -0.20009E-09    0.00000E+00     0   0.312E-10
 148 F= -.16973449E+03 E0= -.16972710E+03  d E =-.618456E-10
       N       E                     dE             d eps       ncg     rms          rms(c)
DAV:   1    -0.169734487167E+03    0.26193E-09    0.13124E-10   198   0.354E-10    0.646E-10
RMM:   2    -0.169734487167E+03   -0.33469E-09    0.00000E+00     0   0.412E-10
 149 F= -.16973449E+03 E0= -.16972710E+03  d E =0.127329E-09
       N       E                     dE             d eps       ncg     rms          rms(c)
DAV:   1    -0.169734487168E+03   -0.73851E-09    0.13926E-11   198   0.383E-10    0.377E-10
RMM:   2    -0.169734487167E+03    0.26921E-09    0.00000E+00     0   0.235E-10
 150 F= -.16973449E+03 E0= -.16972710E+03  d E =-.134605E-09
       N       E                     dE             d eps       ncg     rms          rms(c)
DAV:   1    -0.169734487167E+03    0.39290E-09    0.24638E-11   198   0.247E-10    0.335E-10
RMM:   2    -0.169734487168E+03   -0.32742E-09    0.00000E+00     0   0.205E-10
 151 F= -.16973449E+03 E0= -.16972710E+03  d E =-.203727E-09
       N       E                     dE             d eps       ncg     rms          rms(c)
DAV:   1    -0.169734487168E+03   -0.49477E-09    0.13625E-10   198   0.222E-10    0.445E-10
RMM:   2    -0.169734487167E+03    0.50204E-09    0.00000E+00     0   0.303E-10
 152 F= -.16973449E+03 E0= -.16972710E+03  d E =0.334694E-09
       N       E                     dE             d eps       ncg     rms          rms(c)
DAV:   1    -0.169734487167E+03    0.94587E-09    0.12105E-10   198   0.264E-10    0.438E-10
RMM:   2    -0.169734487168E+03   -0.74579E-09    0.00000E+00     0   0.251E-10
 153 F= -.16973449E+03 E0= -.16972710E+03  d E =-.301952E-09
       N       E                     dE             d eps       ncg     rms          rms(c)
DAV:   1    -0.169734487168E+03   -0.65484E-09   -0.23039E-11   198   0.328E-10    0.535E-10
RMM:   2    -0.169734487167E+03    0.14916E-09    0.00000E+00     0   0.238E-10
 154 F= -.16973449E+03 E0= -.16972710E+03  d E =0.240107E-09
       N       E                     dE             d eps       ncg     rms          rms(c)
DAV:   1    -0.169734487168E+03   -0.29468E-09    0.10827E-10   198   0.378E-10    0.635E-10
RMM:   2    -0.169734487167E+03    0.48021E-09    0.00000E+00     0   0.311E-10
 155 F= -.16973449E+03 E0= -.16972710E+03  d E =0.363798E-10
       N       E                     dE             d eps       ncg     rms          rms(c)
DAV:   1    -0.169734487167E+03    0.43656E-09   -0.22007E-11   198   0.361E-10    0.703E-10
RMM:   2    -0.169734487167E+03   -0.36380E-11    0.00000E+00     0   0.265E-10
 156 F= -.16973449E+03 E0= -.16972710E+03  d E =-.472937E-10
       N       E                     dE             d eps       ncg     rms          rms(c)
DAV:   1    -0.169734487166E+03    0.97862E-09   -0.24290E-11   198   0.299E-10    0.622E-10
RMM:   2    -0.169734487167E+03   -0.86948E-09    0.00000E+00     0   0.274E-10
 157 F= -.16973449E+03 E0= -.16972710E+03  d E =0.112777E-09
       N       E                     dE             d eps       ncg     rms          rms(c)
DAV:   1    -0.169734487167E+03   -0.64756E-09    0.12476E-10   198   0.376E-10    0.579E-10
RMM:   2    -0.169734487167E+03   -0.30195E-09    0.00000E+00     0   0.470E-10
 158 F= -.16973449E+03 E0= -.16972710E+03  d E =-.800355E-10
       N       E                     dE             d eps       ncg     rms          rms(c)
DAV:   1    -0.169734487169E+03   -0.15825E-08   -0.11805E-11   198   0.346E-10    0.762E-10
RMM:   2    -0.169734487168E+03    0.10659E-08    0.00000E+00     0   0.211E-10
 159 F= -.16973449E+03 E0= -.16972710E+03  d E =-.214641E-09
       N       E                     dE             d eps       ncg     rms          rms(c)
DAV:   1    -0.169734487168E+03    0.52751E-09    0.33421E-11   198   0.290E-10    0.710E-10
RMM:   2    -0.169734487167E+03    0.87311E-09    0.00000E+00     0   0.230E-10
 160 F= -.16973449E+03 E0= -.16972710E+03  d E =0.334694E-09
       N       E                     dE             d eps       ncg     rms          rms(c)
DAV:   1    -0.169734487168E+03    0.41473E-09    0.50627E-11   198   0.275E-10    0.445E-10
RMM:   2    -0.169734487168E+03    0.17462E-09    0.00000E+00     0   0.201E-10
 161 F= -.16973449E+03 E0= -.16972710E+03  d E =-.283762E-09
       N       E                     dE             d eps       ncg     rms          rms(c)
DAV:   1    -0.169734487167E+03    0.56752E-09    0.11524E-10   198   0.437E-10    0.137E-09
RMM:   2    -0.169734487167E+03   -0.31650E-09    0.00000E+00     0   0.433E-10
 162 F= -.16973449E+03 E0= -.16972710E+03  d E =0.763976E-10
       N       E                     dE             d eps       ncg     rms          rms(c)
DAV:   1    -0.169734487167E+03    0.21100E-09    0.10118E-10   198   0.375E-10    0.615E-10
RMM:   2    -0.169734487167E+03   -0.54570E-09    0.00000E+00     0   0.310E-10
 163 F= -.16973449E+03 E0= -.16972710E+03  d E =-.181899E-10
       N       E                     dE             d eps       ncg     rms          rms(c)
DAV:   1    -0.169734487167E+03   -0.16371E-09    0.38046E-11   198   0.468E-10    0.109E-09
RMM:   2    -0.169734487167E+03   -0.21464E-09    0.00000E+00     0   0.361E-10
 164 F= -.16973449E+03 E0= -.16972710E+03  d E =0.167347E-09
       N       E                     dE             d eps       ncg     rms          rms(c)
DAV:   1    -0.169734487168E+03   -0.51659E-09   -0.42020E-11   198   0.471E-10    0.575E-10
RMM:   2    -0.169734487167E+03    0.14552E-09    0.00000E+00     0   0.426E-10
 165 F= -.16973449E+03 E0= -.16972710E+03  d E =-.156433E-09
       N       E                     dE             d eps       ncg     rms          rms(c)
DAV:   1    -0.169734487168E+03   -0.44747E-09    0.19768E-10   198   0.387E-10    0.560E-10
RMM:   2    -0.169734487167E+03    0.67303E-09    0.00000E+00     0   0.258E-10
 166 F= -.16973449E+03 E0= -.16972710E+03  d E =0.800355E-10
       N       E                     dE             d eps       ncg     rms          rms(c)
DAV:   1    -0.169734487167E+03    0.10441E-08   -0.18574E-11   198   0.293E-10    0.541E-10
RMM:   2    -0.169734487167E+03   -0.41837E-09    0.00000E+00     0   0.269E-10
 167 F= -.16973449E+03 E0= -.16972710E+03  d E =-.472937E-10
       N       E                     dE             d eps       ncg     rms          rms(c)
DAV:   1    -0.169734487167E+03    0.15643E-09   -0.84591E-12   198   0.280E-10    0.498E-10
RMM:   2    -0.169734487168E+03   -0.78944E-09    0.00000E+00     0   0.250E-10
 168 F= -.16973449E+03 E0= -.16972710E+03  d E =-.214641E-09
       N       E                     dE             d eps       ncg     rms          rms(c)
DAV:   1    -0.169734487168E+03   -0.10114E-08    0.10657E-10   198   0.258E-10    0.412E-10
RMM:   2    -0.169734487168E+03    0.34197E-09    0.00000E+00     0   0.227E-10
 169 F= -.16973449E+03 E0= -.16972710E+03  d E =0.120053E-09
       N       E                     dE             d eps       ncg     rms          rms(c)
DAV:   1    -0.169734487168E+03   -0.47294E-10    0.36837E-11   198   0.252E-10    0.400E-10
RMM:   2    -0.169734487167E+03    0.69122E-09    0.00000E+00     0   0.232E-10
 170 F= -.16973449E+03 E0= -.16972710E+03  d E =0.301952E-09
       N       E                     dE             d eps       ncg     rms          rms(c)
DAV:   1    -0.169734487168E+03   -0.38199E-09    0.74771E-11   198   0.240E-10    0.670E-10
RMM:   2    -0.169734487168E+03    0.66939E-09    0.00000E+00     0   0.256E-10
 171 F= -.16973449E+03 E0= -.16972710E+03  d E =-.403816E-09
       N       E                     dE             d eps       ncg     rms          rms(c)
DAV:   1    -0.169734487167E+03    0.99317E-09    0.46217E-11   198   0.364E-10    0.475E-10
RMM:   2    -0.169734487167E+03   -0.94587E-10    0.00000E+00     0   0.251E-10
 172 F= -.16973449E+03 E0= -.16972710E+03  d E =0.229193E-09
       N       E                     dE             d eps       ncg     rms          rms(c)
DAV:   1    -0.169734487168E+03   -0.35652E-09   -0.47318E-11   198   0.306E-10    0.595E-10
RMM:   2    -0.169734487168E+03    0.13824E-09    0.00000E+00     0   0.204E-10
 173 F= -.16973449E+03 E0= -.16972710E+03  d E =-.123691E-09
       N       E                     dE             d eps       ncg     rms          rms(c)
DAV:   1    -0.169734487168E+03   -0.39654E-09    0.67833E-11   198   0.268E-10    0.531E-10
RMM:   2    -0.169734487167E+03    0.55661E-09    0.00000E+00     0   0.315E-10
 174 F= -.16973449E+03 E0= -.16972710E+03  d E =0.218279E-10
       N       E                     dE             d eps       ncg     rms          rms(c)
DAV:   1    -0.169734487168E+03    0.25830E-09   -0.69457E-12   198   0.458E-10    0.540E-10
RMM:   2    -0.169734487167E+03    0.37471E-09    0.00000E+00     0   0.444E-10
 175 F= -.16973449E+03 E0= -.16972710E+03  d E =0.763976E-10
       N       E                     dE             d eps       ncg     rms          rms(c)
DAV:   1    -0.169734487168E+03   -0.44020E-09    0.14839E-10   198   0.376E-10    0.464E-10
RMM:   2    -0.169734487167E+03    0.83310E-09    0.00000E+00     0   0.264E-10
 176 F= -.16973449E+03 E0= -.16972710E+03  d E =0.181899E-10
       N       E                     dE             d eps       ncg     rms          rms(c)
DAV:   1    -0.169734487167E+03    0.12733E-08   -0.14265E-10   198   0.264E-10    0.458E-10
RMM:   2    -0.169734487167E+03   -0.42928E-09    0.00000E+00     0   0.290E-10
 177 F= -.16973449E+03 E0= -.16972710E+03  d E =0.109139E-10
       N       E                     dE             d eps       ncg     rms          rms(c)
DAV:   1    -0.169734487167E+03   -0.19645E-09    0.13784E-10   198   0.275E-10    0.498E-10
RMM:   2    -0.169734487167E+03   -0.14552E-10    0.00000E+00     0   0.248E-10
 178 F= -.16973449E+03 E0= -.16972710E+03  d E =0.218279E-09
       N       E                     dE             d eps       ncg     rms          rms(c)
DAV:   1    -0.169734487166E+03    0.11605E-08   -0.96553E-11   198   0.253E-10    0.454E-10
RMM:   2    -0.169734487167E+03   -0.12478E-08    0.00000E+00     0   0.212E-10
 179 F= -.16973449E+03 E0= -.16972710E+03  d E =-.727596E-10
       N       E                     dE             d eps       ncg     rms          rms(c)
DAV:   1    -0.169734487167E+03   -0.10950E-08    0.55644E-11   198   0.331E-10    0.647E-10
RMM:   2    -0.169734487167E+03   -0.34197E-09    0.00000E+00     0   0.306E-10
 180 F= -.16973449E+03 E0= -.16972710E+03  d E =-.189175E-09
       N       E                     dE             d eps       ncg     rms          rms(c)
DAV:   1    -0.169734487168E+03   -0.52387E-09    0.59854E-11   198   0.283E-10    0.441E-10
RMM:   2    -0.169734487167E+03    0.34197E-09    0.00000E+00     0   0.249E-10
 181 F= -.16973449E+03 E0= -.16972710E+03  d E =0.160071E-09
       N       E                     dE             d eps       ncg     rms          rms(c)
DAV:   1    -0.169734487167E+03    0.44747E-09   -0.40966E-11   198   0.302E-10    0.538E-10
RMM:   2    -0.169734487168E+03   -0.35652E-09    0.00000E+00     0   0.227E-10
 182 F= -.16973449E+03 E0= -.16972710E+03  d E =-.251021E-09
       N       E                     dE             d eps       ncg     rms          rms(c)
DAV:   1    -0.169734487168E+03   -0.95315E-09   -0.14110E-10   198   0.457E-10    0.720E-10
RMM:   2    -0.169734487167E+03    0.93860E-09    0.00000E+00     0   0.340E-10
 183 F= -.16973449E+03 E0= -.16972710E+03  d E =0.341970E-09
       N       E                     dE             d eps       ncg     rms          rms(c)
DAV:   1    -0.169734487168E+03    0.35652E-09    0.57718E-11   198   0.387E-10    0.295E-10
RMM:   2    -0.169734487167E+03    0.34197E-09    0.00000E+00     0   0.271E-10
 184 F= -.16973449E+03 E0= -.16972710E+03  d E =-.240107E-09
       N       E                     dE             d eps       ncg     rms          rms(c)
DAV:   1    -0.169734487167E+03    0.79308E-09    0.16188E-11   198   0.306E-10    0.574E-10
RMM:   2    -0.169734487167E+03   -0.48749E-09    0.00000E+00     0   0.373E-10
 185 F= -.16973449E+03 E0= -.16972710E+03  d E =-.363798E-10
       N       E                     dE             d eps       ncg     rms          rms(c)
DAV:   1    -0.169734487167E+03   -0.14188E-09    0.19098E-10   198   0.288E-10    0.442E-10
RMM:   2    -0.169734487168E+03   -0.44747E-09    0.00000E+00     0   0.199E-10
 186 F= -.16973449E+03 E0= -.16972710E+03  d E =-.101863E-09
       N       E                     dE             d eps       ncg     rms          rms(c)
DAV:   1    -0.169734487167E+03    0.18190E-10   -0.10526E-10   198   0.301E-10    0.828E-10
RMM:   2    -0.169734487167E+03   -0.37107E-09    0.00000E+00     0   0.354E-10
 187 F= -.16973449E+03 E0= -.16972710E+03  d E =0.945874E-10
       N       E                     dE             d eps       ncg     rms          rms(c)
DAV:   1    -0.169734487167E+03   -0.38926E-09    0.12917E-10   198   0.364E-10    0.606E-10
RMM:   2    -0.169734487167E+03    0.32742E-10    0.00000E+00     0   0.326E-10
 188 F= -.16973449E+03 E0= -.16972710E+03  d E =0.145519E-10
       N       E                     dE             d eps       ncg     rms          rms(c)
DAV:   1    -0.169734487168E+03   -0.17826E-09   -0.16232E-10   198   0.319E-10    0.396E-10
RMM:   2    -0.169734487167E+03    0.31650E-09    0.00000E+00     0   0.220E-10
 189 F= -.16973449E+03 E0= -.16972710E+03  d E =0.105501E-09
       N       E                     dE             d eps       ncg     rms          rms(c)
DAV:   1    -0.169734487167E+03    0.90222E-09    0.65793E-11   198   0.205E-10    0.402E-10
RMM:   2    -0.169734487168E+03   -0.77853E-09    0.00000E+00     0   0.312E-10
 190 F= -.16973449E+03 E0= -.16972710E+03  d E =-.192813E-09
       N       E                     dE             d eps       ncg     rms          rms(c)
DAV:   1    -0.169734487167E+03   -0.16371E-09    0.10624E-10   198   0.329E-10    0.465E-10
RMM:   2    -0.169734487167E+03   -0.50204E-09    0.00000E+00     0   0.339E-10
 191 F= -.16973449E+03 E0= -.16972710E+03  d E =0.112777E-09
       N       E                     dE             d eps       ncg     rms          rms(c)
DAV:   1    -0.169734487167E+03    0.32742E-10    0.53503E-12   198   0.470E-10    0.389E-10
RMM:   2    -0.169734487167E+03   -0.36744E-09    0.00000E+00     0   0.306E-10
 192 F= -.16973449E+03 E0= -.16972710E+03  d E =0.167347E-09
       N       E                     dE             d eps       ncg     rms          rms(c)
DAV:   1    -0.169734487166E+03    0.64028E-09   -0.90511E-12   198   0.378E-10    0.567E-10
RMM:   2    -0.169734487167E+03   -0.10441E-08    0.00000E+00     0   0.223E-10
 193 F= -.16973449E+03 E0= -.16972710E+03  d E =-.363798E-10
       N       E                     dE             d eps       ncg     rms          rms(c)
DAV:   1    -0.169734487168E+03   -0.16153E-08    0.45716E-12   198   0.337E-10    0.474E-10
RMM:   2    -0.169734487168E+03    0.34925E-09    0.00000E+00     0   0.345E-10
 194 F= -.16973449E+03 E0= -.16972710E+03  d E =-.221917E-09
       N       E                     dE             d eps       ncg     rms          rms(c)
DAV:   1    -0.169734487168E+03   -0.43292E-09    0.46900E-11   198   0.322E-10    0.608E-10
RMM:   2    -0.169734487167E+03    0.90586E-09    0.00000E+00     0   0.362E-10
 195 F= -.16973449E+03 E0= -.16972710E+03  d E =0.123691E-09
       N       E                     dE             d eps       ncg     rms          rms(c)
DAV:   1    -0.169734487167E+03    0.10295E-08   -0.69452E-11   198   0.305E-10    0.642E-10
RMM:   2    -0.169734487168E+03   -0.37835E-09    0.00000E+00     0   0.366E-10
 196 F= -.16973449E+03 E0= -.16972710E+03  d E =-.254659E-09
       N       E                     dE             d eps       ncg     rms          rms(c)
DAV:   1    -0.169734487167E+03    0.11642E-09    0.28746E-12   198   0.353E-10    0.585E-10
RMM:   2    -0.169734487167E+03   -0.25102E-09    0.00000E+00     0   0.245E-10
 197 F= -.16973449E+03 E0= -.16972710E+03  d E =0.243745E-09
       N       E                     dE             d eps       ncg     rms          rms(c)
DAV:   1    -0.169734487168E+03   -0.76761E-09   -0.36195E-11   198   0.352E-10    0.441E-10
RMM:   2    -0.169734487167E+03    0.52387E-09    0.00000E+00     0   0.244E-10
 198 F= -.16973449E+03 E0= -.16972710E+03  d E =0.727596E-11
       N       E                     dE             d eps       ncg     rms          rms(c)
DAV:   1    -0.169734487168E+03    0.65484E-10   -0.11982E-10   198   0.313E-10    0.427E-10
RMM:   2    -0.169734487168E+03    0.27285E-09    0.00000E+00     0   0.268E-10
 199 F= -.16973449E+03 E0= -.16972710E+03  d E =-.185537E-09
       N       E                     dE             d eps       ncg     rms          rms(c)
DAV:   1    -0.169734487166E+03    0.15025E-08    0.73640E-11   198   0.255E-10    0.520E-10
RMM:   2    -0.169734487167E+03   -0.11059E-08    0.00000E+00     0   0.257E-10
 200 F= -.16973449E+03 E0= -.16972710E+03  d E =0.123691E-09
       N       E                     dE             d eps       ncg     rms          rms(c)
DAV:   1    -0.169734487167E+03   -0.77853E-09    0.46706E-11   198   0.232E-10    0.288E-10
RMM:   2    -0.169734487167E+03   -0.58208E-10    0.00000E+00     0   0.234E-10
 201 F= -.16973449E+03 E0= -.16972710E+03  d E =0.269210E-09
       N       E                     dE             d eps       ncg     rms          rms(c)
DAV:   1    -0.169734487167E+03    0.15280E-09    0.84428E-11   198   0.296E-10    0.631E-10
RMM:   2    -0.169734487168E+03   -0.68030E-09    0.00000E+00     0   0.316E-10
 202 F= -.16973449E+03 E0= -.16972710E+03  d E =-.469299E-09
       N       E                     dE             d eps       ncg     rms          rms(c)
DAV:   1    -0.169734487168E+03   -0.67666E-09    0.31905E-11   198   0.397E-10    0.635E-10
RMM:   2    -0.169734487168E+03    0.47294E-10    0.00000E+00     0   0.456E-10
 203 F= -.16973449E+03 E0= -.16972710E+03  d E =0.509317E-10
       N       E                     dE             d eps       ncg     rms          rms(c)
DAV:   1    -0.169734487167E+03    0.73487E-09    0.12210E-10   198   0.532E-10    0.578E-10
RMM:   2    -0.169734487167E+03   -0.52751E-09    0.00000E+00     0   0.317E-10
 204 F= -.16973449E+03 E0= -.16972710E+03  d E =0.160071E-09
       N       E                     dE             d eps       ncg     rms          rms(c)
DAV:   1    -0.169734487168E+03   -0.11387E-08    0.56385E-11   198   0.335E-10    0.389E-10
RMM:   2    -0.169734487167E+03    0.80036E-09    0.00000E+00     0   0.338E-10
 205 F= -.16973449E+03 E0= -.16972710E+03  d E =0.189175E-09
       N       E                     dE             d eps       ncg     rms          rms(c)
DAV:   1    -0.169734487168E+03   -0.90949E-10   -0.39192E-12   198   0.256E-10    0.543E-10
RMM:   2    -0.169734487167E+03    0.90949E-09    0.00000E+00     0   0.299E-10
 206 F= -.16973449E+03 E0= -.16972710E+03  d E =0.181899E-10
       N       E                     dE             d eps       ncg     rms          rms(c)
DAV:   1    -0.169734487167E+03    0.13752E-08    0.31726E-11   198   0.247E-10    0.759E-10
RMM:   2    -0.169734487167E+03   -0.68758E-09    0.00000E+00     0   0.251E-10
 207 F= -.16973449E+03 E0= -.16972710E+03  d E =-.221917E-09
       N       E                     dE             d eps       ncg     rms          rms(c)
DAV:   1    -0.169734487168E+03   -0.83310E-09   -0.11492E-11   198   0.313E-10    0.549E-10
RMM:   2    -0.169734487167E+03    0.21100E-09    0.00000E+00     0   0.333E-10
 208 F= -.16973449E+03 E0= -.16972710E+03  d E =0.654836E-10
       N       E                     dE             d eps       ncg     rms          rms(c)
DAV:   1    -0.169734487167E+03    0.74942E-09    0.15084E-10   198   0.367E-10    0.379E-10
RMM:   2    -0.169734487167E+03   -0.63301E-09    0.00000E+00     0   0.251E-10
 209 F= -.16973449E+03 E0= -.16972710E+03  d E =-.945874E-10
       N       E                     dE             d eps       ncg     rms          rms(c)
DAV:   1    -0.169734487167E+03   -0.41473E-09    0.50776E-11   198   0.258E-10    0.570E-10
RMM:   2    -0.169734487168E+03   -0.28012E-09    0.00000E+00     0   0.272E-10
 210 F= -.16973449E+03 E0= -.16972710E+03  d E =-.618456E-10
       N       E                     dE             d eps       ncg     rms          rms(c)
DAV:   1    -0.169734487167E+03    0.42564E-09   -0.76156E-11   198   0.264E-10    0.494E-10
RMM:   2    -0.169734487168E+03   -0.72396E-09    0.00000E+00     0   0.291E-10
 211 F= -.16973449E+03 E0= -.16972710E+03  d E =-.181899E-10
       N       E                     dE             d eps       ncg     rms          rms(c)
DAV:   1    -0.169734487168E+03   -0.10659E-08   -0.93373E-11   198   0.276E-10    0.541E-10
RMM:   2    -0.169734487167E+03    0.52023E-09    0.00000E+00     0   0.248E-10
 212 F= -.16973449E+03 E0= -.16972710E+03  d E =0.178261E-09
       N       E                     dE             d eps       ncg     rms          rms(c)
DAV:   1    -0.169734487168E+03   -0.21828E-09   -0.55772E-11   198   0.237E-10    0.382E-10
RMM:   2    -0.169734487167E+03    0.75670E-09    0.00000E+00     0   0.307E-10
 213 F= -.16973449E+03 E0= -.16972710E+03  d E =0.181899E-10
       N       E                     dE             d eps       ncg     rms          rms(c)
DAV:   1    -0.169734487168E+03    0.24738E-09   -0.69349E-11   198   0.239E-10    0.848E-10
RMM:   2    -0.169734487167E+03    0.38563E-09    0.00000E+00     0   0.411E-10
 214 F= -.16973449E+03 E0= -.16972710E+03  d E =-.123691E-09
       N       E                     dE             d eps       ncg     rms          rms(c)
DAV:   1    -0.169734487167E+03    0.98953E-09    0.52504E-11   198   0.359E-10    0.383E-10
RMM:   2    -0.169734487167E+03   -0.37107E-09    0.00000E+00     0   0.295E-10
 215 F= -.16973449E+03 E0= -.16972710E+03  d E =0.232831E-09
       N       E                     dE             d eps       ncg     rms          rms(c)
DAV:   1    -0.169734487167E+03   -0.53842E-09   -0.43506E-11   198   0.276E-10    0.514E-10
RMM:   2    -0.169734487167E+03    0.98225E-10    0.00000E+00     0   0.341E-10
 216 F= -.16973449E+03 E0= -.16972710E+03  d E =-.691216E-10
       N       E                     dE             d eps       ncg     rms          rms(c)
DAV:   1    -0.169734487167E+03    0.00000E+00    0.17455E-10   198   0.313E-10    0.541E-10
RMM:   2    -0.169734487167E+03    0.18190E-09    0.00000E+00     0   0.303E-10
 217 F= -.16973449E+03 E0= -.16972710E+03  d E =0.836735E-10
       N       E                     dE             d eps       ncg     rms          rms(c)
DAV:   1    -0.169734487167E+03    0.91677E-09    0.51594E-11   198   0.282E-10    0.408E-10
RMM:   2    -0.169734487167E+03   -0.89858E-09    0.00000E+00     0   0.223E-10
 218 F= -.16973449E+03 E0= -.16972710E+03  d E =-.163709E-09
       N       E                     dE             d eps       ncg     rms          rms(c)
DAV:   1    -0.169734487167E+03   -0.84401E-09   -0.61649E-11   198   0.276E-10    0.470E-10
RMM:   2    -0.169734487167E+03   -0.11278E-09    0.00000E+00     0   0.221E-10
 219 F= -.16973449E+03 E0= -.16972710E+03  d E =-.582077E-10
       N       E                     dE             d eps       ncg     rms          rms(c)
DAV:   1    -0.169734487168E+03   -0.81127E-09    0.25716E-11   198   0.361E-10    0.747E-10
RMM:   2    -0.169734487168E+03    0.62937E-09    0.00000E+00     0   0.308E-10
 220 F= -.16973449E+03 E0= -.16972710E+03  d E =-.691216E-10
       N       E                     dE             d eps       ncg     rms          rms(c)
DAV:   1    -0.169734487168E+03    0.37471E-09    0.29250E-11   198   0.449E-10    0.944E-10
RMM:   2    -0.169734487167E+03    0.32014E-09    0.00000E+00     0   0.359E-10
 221 F= -.16973449E+03 E0= -.16972710E+03  d E =0.654836E-10
       N       E                     dE             d eps       ncg     rms          rms(c)
DAV:   1    -0.169734487168E+03   -0.28012E-09    0.20389E-11   198   0.505E-10    0.444E-10
RMM:   2    -0.169734487168E+03    0.50204E-09    0.00000E+00     0   0.365E-10
 222 F= -.16973449E+03 E0= -.16972710E+03  d E =-.982254E-10
       N       E                     dE             d eps       ncg     rms          rms(c)
DAV:   1    -0.169734487168E+03    0.35288E-09   -0.11899E-10   198   0.427E-10    0.436E-10
RMM:   2    -0.169734487167E+03    0.24011E-09    0.00000E+00     0   0.412E-10
 223 F= -.16973449E+03 E0= -.16972710E+03  d E =0.909495E-10
       N       E                     dE             d eps       ncg     rms          rms(c)
DAV:   1    -0.169734487168E+03    0.80036E-10   -0.67939E-11   198   0.264E-10    0.414E-10
RMM:   2    -0.169734487167E+03    0.14916E-09    0.00000E+00     0   0.417E-10
 224 F= -.16973449E+03 E0= -.16972710E+03  d E =-.109139E-10
       N       E                     dE             d eps       ncg     rms          rms(c)
DAV:   1    -0.169734487168E+03    0.98225E-10   -0.22467E-11   198   0.240E-10    0.509E-10
RMM:   2    -0.169734487167E+03    0.83674E-10    0.00000E+00     0   0.334E-10
 225 F= -.16973449E+03 E0= -.16972710E+03  d E =0.327418E-10
       N       E                     dE             d eps       ncg     rms          rms(c)
DAV:   1    -0.169734487167E+03    0.44020E-09   -0.58438E-11   198   0.463E-10    0.116E-09
RMM:   2    -0.169734487167E+03   -0.69122E-10    0.00000E+00     0   0.454E-10
 226 F= -.16973449E+03 E0= -.16972710E+03  d E =0.287400E-09
       N       E                     dE             d eps       ncg     rms          rms(c)
DAV:   1    -0.169734487167E+03    0.41473E-09   -0.12581E-10   198   0.444E-10    0.733E-10
RMM:   2    -0.169734487167E+03   -0.48021E-09    0.00000E+00     0   0.325E-10
 227 F= -.16973449E+03 E0= -.16972710E+03  d E =0.363798E-11
       N       E                     dE             d eps       ncg     rms          rms(c)
DAV:   1    -0.169734487167E+03   -0.72032E-09    0.82832E-11   198   0.466E-10    0.830E-10
RMM:   2    -0.169734487168E+03   -0.23647E-09    0.00000E+00     0   0.348E-10
 228 F= -.16973449E+03 E0= -.16972710E+03  d E =-.476575E-09
       N       E                     dE             d eps       ncg     rms          rms(c)
DAV:   1    -0.169734487167E+03    0.83674E-10    0.58581E-11   198   0.341E-10    0.467E-10
RMM:   2    -0.169734487167E+03   -0.36380E-11    0.00000E+00     0   0.318E-10
 229 F= -.16973449E+03 E0= -.16972710E+03  d E =0.316504E-09
       N       E                     dE             d eps       ncg     rms          rms(c)
DAV:   1    -0.169734487168E+03   -0.21100E-09   -0.64250E-13   198   0.362E-10    0.470E-10
RMM:   2    -0.169734487167E+03    0.15280E-09    0.00000E+00     0   0.377E-10
 230 F= -.16973449E+03 E0= -.16972710E+03  d E =-.545697E-10
       N       E                     dE             d eps       ncg     rms          rms(c)
DAV:   1    -0.169734487166E+03    0.11714E-08    0.91197E-11   198   0.334E-10    0.619E-10
RMM:   2    -0.169734487168E+03   -0.11823E-08    0.00000E+00     0   0.326E-10
 231 F= -.16973449E+03 E0= -.16972710E+03  d E =-.163709E-09
       N       E                     dE             d eps       ncg     rms          rms(c)
DAV:   1    -0.169734487167E+03   -0.93132E-09    0.93416E-11   198   0.441E-10    0.102E-09
RMM:   2    -0.169734487168E+03   -0.35288E-09    0.00000E+00     0   0.382E-10
 232 F= -.16973449E+03 E0= -.16972710E+03  d E =-.101863E-09
       N       E                     dE             d eps       ncg     rms          rms(c)
DAV:   1    -0.169734487168E+03   -0.32742E-09   -0.79960E-11   198   0.415E-10    0.737E-10
RMM:   2    -0.169734487167E+03    0.13824E-09    0.00000E+00     0   0.334E-10
 233 F= -.16973449E+03 E0= -.16972710E+03  d E =0.163709E-09
       N       E                     dE             d eps       ncg     rms          rms(c)
DAV:   1    -0.169734487168E+03   -0.67303E-09   -0.57736E-11   198   0.420E-10    0.574E-10
RMM:   2    -0.169734487168E+03    0.76398E-09    0.00000E+00     0   0.257E-10
 234 F= -.16973449E+03 E0= -.16972710E+03  d E =-.472937E-10
       N       E                     dE             d eps       ncg     rms          rms(c)
DAV:   1    -0.169734487168E+03    0.36016E-09    0.10087E-10   198   0.319E-10    0.531E-10
RMM:   2    -0.169734487167E+03    0.60754E-09    0.00000E+00     0   0.195E-10
 235 F= -.16973449E+03 E0= -.16972710E+03  d E =0.203727E-09
       N       E                     dE             d eps       ncg     rms          rms(c)
DAV:   1    -0.169734487169E+03   -0.62937E-09    0.12987E-10   198   0.317E-10    0.555E-10
RMM:   2    -0.169734487167E+03    0.12187E-08    0.00000E+00     0   0.271E-10
 236 F= -.16973449E+03 E0= -.16972710E+03  d E =-.181899E-10
       N       E                     dE             d eps       ncg     rms          rms(c)
DAV:   1    -0.169734487167E+03    0.14261E-08   -0.83048E-11   198   0.403E-10    0.749E-10
RMM:   2    -0.169734487167E+03   -0.90949E-10    0.00000E+00     0   0.419E-10
 237 F= -.16973449E+03 E0= -.16972710E+03  d E =0.116415E-09
       N       E                     dE             d eps       ncg     rms          rms(c)
DAV:   1    -0.169734487167E+03    0.20009E-09    0.10319E-10   198   0.358E-10    0.302E-10
RMM:   2    -0.169734487167E+03   -0.32014E-09    0.00000E+00     0   0.209E-10
 238 F= -.16973449E+03 E0= -.16972710E+03  d E =-.291038E-10
       N       E                     dE             d eps       ncg     rms          rms(c)
DAV:   1    -0.169734487166E+03    0.44747E-09   -0.34671E-11   198   0.281E-10    0.493E-10
RMM:   2    -0.169734487167E+03   -0.68394E-09    0.00000E+00     0   0.293E-10
 239 F= -.16973449E+03 E0= -.16972710E+03  d E =0.836735E-10
       N       E                     dE             d eps       ncg     rms          rms(c)
DAV:   1    -0.169734487166E+03    0.44020E-09    0.26196E-11   198   0.263E-10    0.503E-10
RMM:   2    -0.169734487167E+03   -0.13169E-08    0.00000E+00     0   0.283E-10
[...]
 939 F= -.16973449E+03 E0= -.16972710E+03  d E =-.178261E-09
       N       E                     dE             d eps       ncg     rms          rms(c)
DAV:   1    -0.169734487167E+03    0.78580E-09   -0.41147E-11   198   0.284E-10    0.433E-10
RMM:   2    -0.169734487168E+03   -0.64392E-09    0.00000E+00     0   0.307E-10
 940 F= -.16973449E+03 E0= -.16972710E+03  d E =-.218279E-09
       N       E                     dE             d eps       ncg     rms          rms(c)
DAV:   1    -0.169734487167E+03   -0.49113E-09    0.64551E-11   198   0.285E-10    0.405E-10
RMM:   2    -0.169734487168E+03   -0.50932E-10    0.00000E+00     0   0.330E-10
 941 F= -.16973449E+03 E0= -.16972710E+03  d E =0.101863E-09
       N       E                     dE             d eps       ncg     rms          rms(c)
DAV:   1    -0.169734487167E+03    0.18917E-09    0.55870E-11   198   0.308E-10    0.646E-10
RMM:   2    -0.169734487167E+03    0.32742E-10    0.00000E+00     0   0.256E-10
 942 F= -.16973449E+03 E0= -.16972710E+03  d E =0.272848E-09
       N       E                     dE             d eps       ncg     rms          rms(c)
DAV:   1    -0.169734487167E+03    0.10914E-09   -0.25426E-11   198   0.317E-10    0.464E-10
RMM:   2    -0.169734487167E+03   -0.36380E-11    0.00000E+00     0   0.341E-10
 943 F= -.16973449E+03 E0= -.16972710E+03  d E =0.727596E-10
       N       E                     dE             d eps       ncg     rms          rms(c)
DAV:   1    -0.169734487167E+03    0.45111E-09   -0.10008E-11   198   0.305E-10    0.343E-10
RMM:   2    -0.169734487167E+03   -0.63301E-09    0.00000E+00     0   0.225E-10
 944 F= -.16973449E+03 E0= -.16972710E+03  d E =-.178261E-09
       N       E                     dE             d eps       ncg     rms          rms(c)
DAV:   1    -0.169734487167E+03   -0.47294E-10   -0.29348E-11   198   0.296E-10    0.489E-10
RMM:   2    -0.169734487167E+03   -0.61482E-09    0.00000E+00     0   0.373E-10
 945 F= -.16973449E+03 E0= -.16972710E+03  d E =-.291038E-10
       N       E                     dE             d eps       ncg     rms          rms(c)
DAV:   1    -0.169734487167E+03    0.20373E-09    0.68798E-11   198   0.511E-10    0.416E-10
RMM:   2    -0.169734487167E+03   -0.85493E-09    0.00000E+00     0   0.410E-10
 946 F= -.16973449E+03 E0= -.16972710E+03  d E =-.363798E-10
       N       E                     dE             d eps       ncg     rms          rms(c)
DAV:   1    -0.169734487167E+03   -0.56389E-09   -0.22502E-10   198   0.438E-10    0.741E-10
RMM:   2    -0.169734487167E+03   -0.14916E-09    0.00000E+00     0   0.330E-10
 947 F= -.16973449E+03 E0= -.16972710E+03  d E =0.141881E-09
       N       E                     dE             d eps       ncg     rms          rms(c)
DAV:   1    -0.169734487167E+03    0.14916E-09   -0.43111E-11   198   0.460E-10    0.492E-10
RMM:   2    -0.169734487168E+03   -0.57116E-09    0.00000E+00     0   0.365E-10
 948 F= -.16973449E+03 E0= -.16972710E+03  d E =-.272848E-09
       N       E                     dE             d eps       ncg     rms          rms(c)
DAV:   1    -0.169734487167E+03   -0.13824E-09    0.20652E-10   198   0.527E-10    0.680E-10
RMM:   2    -0.169734487167E+03   -0.83674E-10    0.00000E+00     0   0.396E-10
 949 F= -.16973449E+03 E0= -.16972710E+03  d E =0.349246E-09
       N       E                     dE             d eps       ncg     rms          rms(c)
DAV:   1    -0.169734487167E+03   -0.33833E-09    0.65360E-11   198   0.486E-10    0.443E-10
RMM:   2    -0.169734487167E+03    0.69122E-10    0.00000E+00     0   0.293E-10
 950 F= -.16973449E+03 E0= -.16972710E+03  d E =-.185537E-09
       N       E                     dE             d eps       ncg     rms          rms(c)
DAV:   1    -0.169734487167E+03    0.36380E-11    0.80782E-11   198   0.349E-10    0.683E-10
RMM:   2    -0.169734487167E+03   -0.21828E-10    0.00000E+00     0   0.343E-10
 951 F= -.16973449E+03 E0= -.16972710E+03  d E =-.873115E-10
       N       E                     dE             d eps       ncg     rms          rms(c)
DAV:   1    -0.169734487167E+03    0.52387E-09   -0.19622E-10   198   0.367E-10    0.525E-10
RMM:   2    -0.169734487168E+03   -0.58935E-09    0.00000E+00     0   0.313E-10
 952 F= -.16973449E+03 E0= -.16972710E+03  d E =-.436557E-10
       N       E                     dE             d eps       ncg     rms          rms(c)
DAV:   1    -0.169734487168E+03   -0.14334E-08    0.12688E-11   198   0.364E-10    0.348E-10
RMM:   2    -0.169734487167E+03    0.96406E-09    0.00000E+00     0   0.277E-10
 953 F= -.16973449E+03 E0= -.16972710E+03  d E =0.120053E-09
       N       E                     dE             d eps       ncg     rms          rms(c)
DAV:   1    -0.169734487167E+03    0.10914E-08   -0.13251E-11   198   0.363E-10    0.511E-10
RMM:   2    -0.169734487167E+03   -0.69122E-10    0.00000E+00     0   0.316E-10
 954 F= -.16973449E+03 E0= -.16972710E+03  d E =0.582077E-10
       N       E                     dE             d eps       ncg     rms          rms(c)
DAV:   1    -0.169734487167E+03    0.25830E-09    0.18077E-13   198   0.389E-10    0.399E-10
RMM:   2    -0.169734487167E+03   -0.22192E-09    0.00000E+00     0   0.270E-10
 955 F= -.16973449E+03 E0= -.16972710E+03  d E =0.105501E-09
       N       E                     dE             d eps       ncg     rms          rms(c)
DAV:   1    -0.169734487168E+03   -0.52023E-09    0.17432E-10   198   0.361E-10    0.696E-10
RMM:   2    -0.169734487167E+03    0.24738E-09    0.00000E+00     0   0.310E-10
 956 F= -.16973449E+03 E0= -.16972710E+03  d E =-.509317E-10
       N       E                     dE             d eps       ncg     rms          rms(c)
DAV:   1    -0.169734487167E+03    0.11278E-09    0.87441E-11   198   0.358E-10    0.509E-10
RMM:   2    -0.169734487167E+03    0.26557E-09    0.00000E+00     0   0.264E-10
 957 F= -.16973449E+03 E0= -.16972710E+03  d E =0.130967E-09
       N       E                     dE             d eps       ncg     rms          rms(c)
DAV:   1    -0.169734487168E+03   -0.18554E-09    0.62414E-11   198   0.331E-10    0.357E-10
RMM:   2    -0.169734487167E+03    0.14188E-09    0.00000E+00     0   0.232E-10
 958 F= -.16973449E+03 E0= -.16972710E+03  d E =-.309228E-09
       N       E                     dE             d eps       ncg     rms          rms(c)
DAV:   1    -0.169734487168E+03   -0.21100E-09    0.56141E-11   198   0.248E-10    0.702E-10
RMM:   2    -0.169734487167E+03    0.41837E-09    0.00000E+00     0   0.266E-10
 959 F= -.16973449E+03 E0= -.16972710E+03  d E =0.654836E-10
       N       E                     dE             d eps       ncg     rms          rms(c)
DAV:   1    -0.169734487169E+03   -0.81855E-09    0.13495E-10   198   0.287E-10    0.451E-10
RMM:   2    -0.169734487167E+03    0.12078E-08    0.00000E+00     0   0.276E-10
 960 F= -.16973449E+03 E0= -.16972710E+03  d E =-.291038E-10
       N       E                     dE             d eps       ncg     rms          rms(c)
DAV:   1    -0.169734487168E+03    0.10878E-08   -0.12261E-10   198   0.353E-10    0.549E-10
RMM:   2    -0.169734487167E+03    0.24738E-09    0.00000E+00     0   0.270E-10
 961 F= -.16973449E+03 E0= -.16972710E+03  d E =0.127329E-09
       N       E                     dE             d eps       ncg     rms          rms(c)
DAV:   1    -0.169734487167E+03    0.24374E-09   -0.28094E-11   198   0.322E-10    0.595E-10
RMM:   2    -0.169734487167E+03    0.90949E-10    0.00000E+00     0   0.223E-10
 962 F= -.16973449E+03 E0= -.16972710E+03  d E =0.873115E-10
       N       E                     dE             d eps       ncg     rms          rms(c)
DAV:   1    -0.169734487168E+03   -0.48385E-09   -0.42932E-11   198   0.276E-10    0.582E-10
RMM:   2    -0.169734487167E+03    0.37835E-09    0.00000E+00     0   0.227E-10
 963 F= -.16973449E+03 E0= -.16972710E+03  d E =-.196451E-09
       N       E                     dE             d eps       ncg     rms          rms(c)
DAV:   1    -0.169734487168E+03   -0.12733E-09    0.39697E-11   198   0.306E-10    0.407E-10
RMM:   2    -0.169734487167E+03    0.47658E-09    0.00000E+00     0   0.196E-10
 964 F= -.16973449E+03 E0= -.16972710E+03  d E =-.291038E-10
       N       E                     dE             d eps       ncg     rms          rms(c)
DAV:   1    -0.169734487168E+03   -0.13461E-09    0.11853E-10   198   0.357E-10    0.757E-10
RMM:   2    -0.169734487168E+03    0.54570E-09    0.00000E+00     0   0.293E-10
 965 F= -.16973449E+03 E0= -.16972710E+03  d E =-.654836E-10
       N       E                     dE             d eps       ncg     rms          rms(c)
DAV:   1    -0.169734487167E+03    0.10696E-08    0.12121E-10   198   0.297E-10    0.582E-10
RMM:   2    -0.169734487167E+03   -0.37107E-09    0.00000E+00     0   0.267E-10
 966 F= -.16973449E+03 E0= -.16972710E+03  d E =0.152795E-09
       N       E                     dE             d eps       ncg     rms          rms(c)
DAV:   1    -0.169734487168E+03   -0.57116E-09    0.87468E-11   198   0.324E-10    0.758E-10
RMM:   2    -0.169734487167E+03    0.34925E-09    0.00000E+00     0   0.324E-10
 967 F= -.16973449E+03 E0= -.16972710E+03  d E =0.149157E-09
       N       E                     dE             d eps       ncg     rms          rms(c)
DAV:   1    -0.169734487168E+03   -0.76398E-10    0.88905E-11   198   0.341E-10    0.687E-10
RMM:   2    -0.169734487168E+03    0.10550E-09    0.00000E+00     0   0.332E-10
 968 F= -.16973449E+03 E0= -.16972710E+03  d E =-.320142E-09
       N       E                     dE             d eps       ncg     rms          rms(c)
DAV:   1    -0.169734487167E+03    0.61118E-09    0.11426E-10   198   0.386E-10    0.540E-10
RMM:   2    -0.169734487167E+03   -0.32378E-09    0.00000E+00     0   0.280E-10
 969 F= -.16973449E+03 E0= -.16972710E+03  d E =0.181899E-09
       N       E                     dE             d eps       ncg     rms          rms(c)
DAV:   1    -0.169734487167E+03   -0.38926E-09    0.11212E-10   198   0.290E-10    0.331E-10
RMM:   2    -0.169734487167E+03   -0.47294E-10    0.00000E+00     0   0.189E-10
 970 F= -.16973449E+03 E0= -.16972710E+03  d E =-.112777E-09
       N       E                     dE             d eps       ncg     rms          rms(c)
DAV:   1    -0.169734487167E+03    0.42564E-09   -0.96499E-12   198   0.251E-10    0.571E-10
RMM:   2    -0.169734487167E+03   -0.41109E-09    0.00000E+00     0   0.257E-10
 971 F= -.16973449E+03 E0= -.16972710E+03  d E =0.618456E-10
       N       E                     dE             d eps       ncg     rms          rms(c)
DAV:   1    -0.169734487167E+03   -0.23283E-09   -0.28150E-12   198   0.278E-10    0.383E-10
RMM:   2    -0.169734487168E+03   -0.40745E-09    0.00000E+00     0   0.263E-10
 972 F= -.16973449E+03 E0= -.16972710E+03  d E =-.229193E-09
       N       E                     dE             d eps       ncg     rms          rms(c)
DAV:   1    -0.169734487167E+03    0.41473E-09    0.35484E-11   198   0.267E-10    0.345E-10
RMM:   2    -0.169734487167E+03   -0.62209E-09    0.00000E+00     0   0.239E-10
 973 F= -.16973449E+03 E0= -.16972710E+03  d E =0.200089E-09
       N       E                     dE             d eps       ncg     rms          rms(c)
DAV:   1    -0.169734487166E+03    0.84401E-09    0.74716E-11   198   0.336E-10    0.550E-10
RMM:   2    -0.169734487168E+03   -0.15971E-08    0.00000E+00     0   0.354E-10
 974 F= -.16973449E+03 E0= -.16972710E+03  d E =-.130967E-09
       N       E                     dE             d eps       ncg     rms          rms(c)
DAV:   1    -0.169734487168E+03   -0.24411E-08    0.11882E-10   198   0.334E-10    0.452E-10
RMM:   2    -0.169734487167E+03    0.91313E-09    0.00000E+00     0   0.282E-10
 975 F= -.16973449E+03 E0= -.16972710E+03  d E =0.691216E-10
       N       E                     dE             d eps       ncg     rms          rms(c)
DAV:   1    -0.169734487167E+03    0.13279E-08    0.56876E-11   198   0.280E-10    0.550E-10
RMM:   2    -0.169734487168E+03   -0.57844E-09    0.00000E+00     0   0.257E-10
 976 F= -.16973449E+03 E0= -.16972710E+03  d E =-.163709E-09
       N       E                     dE             d eps       ncg     rms          rms(c)
DAV:   1    -0.169734487169E+03   -0.17353E-08    0.70469E-11   198   0.283E-10    0.798E-10
RMM:   2    -0.169734487167E+03    0.15607E-08    0.00000E+00     0   0.229E-10
 977 F= -.16973449E+03 E0= -.16972710E+03  d E =0.403816E-09
       N       E                     dE             d eps       ncg     rms          rms(c)
DAV:   1    -0.169734487168E+03    0.12515E-08    0.39343E-11   198   0.307E-10    0.444E-10
RMM:   2    -0.169734487167E+03    0.17826E-09    0.00000E+00     0   0.280E-10
 978 F= -.16973449E+03 E0= -.16972710E+03  d E =-.130967E-09
       N       E                     dE             d eps       ncg     rms          rms(c)
DAV:   1    -0.169734487167E+03    0.14188E-09    0.11574E-10   198   0.365E-10    0.417E-10
RMM:   2    -0.169734487167E+03    0.32742E-10    0.00000E+00     0   0.287E-10
 979 F= -.16973449E+03 E0= -.16972710E+03  d E =-.363798E-11
       N       E                     dE             d eps       ncg     rms          rms(c)
DAV:   1    -0.169734487167E+03    0.34925E-09   -0.18625E-11   198   0.313E-10    0.867E-10
RMM:   2    -0.169734487167E+03   -0.40382E-09    0.00000E+00     0   0.340E-10
 980 F= -.16973449E+03 E0= -.16972710E+03  d E =-.873115E-10
       N       E                     dE             d eps       ncg     rms          rms(c)
DAV:   1    -0.169734487168E+03   -0.69849E-09    0.70427E-11   198   0.422E-10    0.488E-10
RMM:   2    -0.169734487167E+03    0.46930E-09    0.00000E+00     0   0.323E-10
 981 F= -.16973449E+03 E0= -.16972710E+03  d E =0.174623E-09
       N       E                     dE             d eps       ncg     rms          rms(c)
DAV:   1    -0.169734487168E+03    0.10186E-09    0.13519E-10   198   0.367E-10    0.605E-10
RMM:   2    -0.169734487167E+03    0.21828E-09    0.00000E+00     0   0.266E-10
 982 F= -.16973449E+03 E0= -.16972710E+03  d E =-.149157E-09
       N       E                     dE             d eps       ncg     rms          rms(c)
DAV:   1    -0.169734487167E+03    0.95679E-09    0.73956E-11   198   0.327E-10    0.659E-10
RMM:   2    -0.169734487167E+03   -0.73123E-09    0.00000E+00     0   0.293E-10
 983 F= -.16973449E+03 E0= -.16972710E+03  d E =0.727596E-11
       N       E                     dE             d eps       ncg     rms          rms(c)
DAV:   1    -0.169734487167E+03   -0.68758E-09   -0.11469E-10   198   0.339E-10    0.605E-10
RMM:   2    -0.169734487167E+03   -0.58208E-10    0.00000E+00     0   0.244E-10
 984 F= -.16973449E+03 E0= -.16972710E+03  d E =-.145519E-10
       N       E                     dE             d eps       ncg     rms          rms(c)
DAV:   1    -0.169734487168E+03   -0.30195E-09   -0.11917E-10   198   0.291E-10    0.588E-10
RMM:   2    -0.169734487167E+03    0.27649E-09    0.00000E+00     0   0.215E-10
 985 F= -.16973449E+03 E0= -.16972710E+03  d E =0.327418E-10
       N       E                     dE             d eps       ncg     rms          rms(c)
DAV:   1    -0.169734487167E+03    0.72760E-09   -0.35055E-11   198   0.296E-10    0.699E-10
RMM:   2    -0.169734487167E+03   -0.43292E-09    0.00000E+00     0   0.284E-10
 986 F= -.16973449E+03 E0= -.16972710E+03  d E =0.181899E-10
       N       E                     dE             d eps       ncg     rms          rms(c)
DAV:   1    -0.169734487168E+03   -0.78217E-09    0.49669E-11   198   0.362E-10    0.539E-10
RMM:   2    -0.169734487167E+03    0.31287E-09    0.00000E+00     0   0.292E-10
 987 F= -.16973449E+03 E0= -.16972710E+03  d E =-.363798E-10
       N       E                     dE             d eps       ncg     rms          rms(c)
DAV:   1    -0.169734487169E+03   -0.10041E-08    0.74789E-11   198   0.286E-10    0.500E-10
RMM:   2    -0.169734487167E+03    0.13497E-08    0.00000E+00     0   0.197E-10
 988 F= -.16973449E+03 E0= -.16972710E+03  d E =0.327418E-10
       N       E                     dE             d eps       ncg     rms          rms(c)
DAV:   1    -0.169734487167E+03    0.16189E-08   -0.55869E-11   198   0.305E-10    0.401E-10
RMM:   2    -0.169734487167E+03   -0.16371E-09    0.00000E+00     0   0.292E-10
 989 F= -.16973449E+03 E0= -.16972710E+03  d E =0.105501E-09
       N       E                     dE             d eps       ncg     rms          rms(c)
DAV:   1    -0.169734487168E+03   -0.36744E-09    0.12784E-11   198   0.363E-10    0.476E-10
RMM:   2    -0.169734487167E+03    0.80036E-10    0.00000E+00     0   0.398E-10
 990 F= -.16973449E+03 E0= -.16972710E+03  d E =-.123691E-09
       N       E                     dE             d eps       ncg     rms          rms(c)
DAV:   1    -0.169734487168E+03   -0.32742E-10   -0.85706E-12   198   0.397E-10    0.469E-10
RMM:   2    -0.169734487167E+03    0.19281E-09    0.00000E+00     0   0.231E-10
 991 F= -.16973449E+03 E0= -.16972710E+03  d E =0.800355E-10
       N       E                     dE             d eps       ncg     rms          rms(c)
DAV:   1    -0.169734487169E+03   -0.13024E-08    0.39975E-11   198   0.309E-10    0.509E-10
RMM:   2    -0.169734487168E+03    0.12878E-08    0.00000E+00     0   0.269E-10
 992 F= -.16973449E+03 E0= -.16972710E+03  d E =-.207365E-09
       N       E                     dE             d eps       ncg     rms          rms(c)
DAV:   1    -0.169734487169E+03    0.21100E-09   -0.13301E-11   198   0.333E-10    0.582E-10
RMM:   2    -0.169734487167E+03    0.11714E-08    0.00000E+00     0   0.291E-10
 993 F= -.16973449E+03 E0= -.16972710E+03  d E =0.945874E-10
       N       E                     dE             d eps       ncg     rms          rms(c)
DAV:   1    -0.169734487168E+03    0.10332E-08   -0.10989E-11   198   0.333E-10    0.360E-10
RMM:   2    -0.169734487168E+03    0.43656E-10    0.00000E+00     0   0.219E-10
 994 F= -.16973449E+03 E0= -.16972710E+03  d E =-.945874E-10
       N       E                     dE             d eps       ncg     rms          rms(c)
DAV:   1    -0.169734487167E+03    0.33833E-09   -0.12307E-10   198   0.240E-10    0.582E-10
RMM:   2    -0.169734487168E+03   -0.26557E-09    0.00000E+00     0   0.218E-10
 995 F= -.16973449E+03 E0= -.16972710E+03  d E =0.291038E-10
       N       E                     dE             d eps       ncg     rms          rms(c)
DAV:   1    -0.169734487166E+03    0.78580E-09    0.36492E-11   198   0.289E-10    0.398E-10
RMM:   2    -0.169734487167E+03   -0.98225E-09    0.00000E+00     0   0.233E-10
 996 F= -.16973449E+03 E0= -.16972710E+03  d E =0.691216E-10
       N       E                     dE             d eps       ncg     rms          rms(c)
DAV:   1    -0.169734487168E+03   -0.12733E-08    0.92751E-12   198   0.319E-10    0.608E-10
RMM:   2    -0.169734487167E+03    0.37107E-09    0.00000E+00     0   0.346E-10
 997 F= -.16973449E+03 E0= -.16972710E+03  d E =0.800355E-10
       N       E                     dE             d eps       ncg     rms          rms(c)
DAV:   1    -0.169734487168E+03   -0.83674E-10    0.12100E-10   198   0.241E-10    0.467E-10
RMM:   2    -0.169734487167E+03    0.43292E-09    0.00000E+00     0   0.357E-10
 998 F= -.16973449E+03 E0= -.16972710E+03  d E =-.218279E-10
       N       E                     dE             d eps       ncg     rms          rms(c)
DAV:   1    -0.169734487167E+03    0.70941E-09    0.91144E-11   198   0.299E-10    0.654E-10
RMM:   2    -0.169734487167E+03   -0.94587E-10    0.00000E+00     0   0.274E-10
 999 F= -.16973449E+03 E0= -.16972710E+03  d E =0.181899E-09
       N       E                     dE             d eps       ncg     rms          rms(c)
DAV:   1    -0.169734487167E+03   -0.18554E-09    0.67104E-11   198   0.398E-10    0.523E-10
RMM:   2    -0.169734487168E+03   -0.33833E-09    0.00000E+00     0   0.273E-10
1000 F= -.16973449E+03 E0= -.16972710E+03  d E =-.429281E-09
