 vasp.6.3.2 27Jun22 (build Mar 25 2024 10:42:18) complex                         
 executed on             LinuxGNU date 2024.03.27  00:13:19
 running on   32 total cores
 distrk:  each k-point on   32 cores,    1 groups
 distr:  one band on NCORE=   1 cores,   32 groups


--------------------------------------------------------------------------------------------------------


 INCAR:
   ISTART = 0
   ICHARG = 2
   PREC = Accurate
   IBRION = -1
   EDIFF = 0.000000001
   EDIFFG = -0.0005
   NSW = 0
   NELM = 100
   ENCUT = 520
   ISMEAR = -5
   SIGMA = 0.05
   ISPIN = 2
   ISYM = 0
   LWAVE = False
   LCHARG = False
   LASPH = True
   LORBIT = 11
   ADDGRID = TRUE

 POTCAR:    PAW_PBE Na_pv 19Sep2006               
 POTCAR:    PAW_PBE S 06Sep2000                   
 -----------------------------------------------------------------------------
|                                                                             |
|           W    W    AA    RRRRR   N    N  II  N    N   GGGG   !!!           |
|           W    W   A  A   R    R  NN   N  II  NN   N  G    G  !!!           |
|           W    W  A    A  R    R  N N  N  II  N N  N  G       !!!           |
|           W WW W  AAAAAA  RRRRR   N  N N  II  N  N N  G  GGG   !            |
|           WW  WW  A    A  R   R   N   NN  II  N   NN  G    G                |
|           W    W  A    A  R    R  N    N  II  N    N   GGGG   !!!           |
|                                                                             |
|     You use a magnetic or noncollinear calculation, but did not specify     |
|     the initial magnetic moment with the MAGMOM tag. Note that a            |
|     default of 1 will be used for all atoms. This ferromagnetic setup       |
|     may break the symmetry of the crystal, in particular it may rule        |
|     out finding an antiferromagnetic solution. Thence, we recommend         |
|     setting the initial magnetic moment manually or verifying carefully     |
|     that this magnetic setup is desired.                                    |
|                                                                             |
 -----------------------------------------------------------------------------

 -----------------------------------------------------------------------------
|                                                                             |
|           W    W    AA    RRRRR   N    N  II  N    N   GGGG   !!!           |
|           W    W   A  A   R    R  NN   N  II  NN   N  G    G  !!!           |
|           W    W  A    A  R    R  N N  N  II  N N  N  G       !!!           |
|           W WW W  AAAAAA  RRRRR   N  N N  II  N  N N  G  GGG   !            |
|           WW  WW  A    A  R   R   N   NN  II  N   NN  G    G                |
|           W    W  A    A  R    R  N    N  II  N    N   GGGG   !!!           |
|                                                                             |
|     For optimal performance we recommend to set                             |
|       NCORE = 2 up to number-of-cores-per-socket                            |
|     NCORE specifies how many cores store one orbital (NPAR=cpu/NCORE).      |
|     This setting can greatly improve the performance of VASP for DFT.       |
|     The default, NCORE=1 might be grossly inefficient on modern             |
|     multi-core architectures or massively parallel machines. Do your        |
|     own testing! More info at https://www.vasp.at/wiki/index.php/NCORE      |
|     Unfortunately you need to use the default for GW and RPA                |
|     calculations (for HF NCORE is supported but not extensively tested      |
|     yet).                                                                   |
|                                                                             |
 -----------------------------------------------------------------------------

 POTCAR:    PAW_PBE Na_pv 19Sep2006               
   SHA256 =  6a2f546d9e11350984debacf3dc457d8cffc0868e817d445faca461816a32b94 Na_pv/POTCAR          
   COPYR  = (c) Copyright 19Sep2006 Georg Kresse                                                    
   COPYR  = This file is part of the software VASP. Any use, copying, and all other rights are regul
   COPYR  = If you do not have a valid VASP license, you may not use, copy or distribute this file. 
   VRHFIN =Na: p6s1                                                                                 
   LEXCH  = PE                                                                                      
   EATOM  =   766.0439 eV,   56.3026 Ry                                                             
                                                                                                    
   TITEL  = PAW_PBE Na_pv 19Sep2006                                                                 
   LULTRA =        F    use ultrasoft PP ?                                                          
   IUNSCR =        1    unscreen: 0-lin 1-nonlin 2-no                                               
   RPACOR =    1.800    partial core radius                                                         
   POMASS =   22.990; ZVAL   =    7.000    mass and valenz                                          
   RCORE  =    2.200    outmost cutoff radius                                                       
   RWIGS  =    2.200; RWIGS  =    1.164    wigner-seitz radius (au A)                               
   ENMAX  =  259.561; ENMIN  =  194.671 eV                                                          
   ICORE  =        2    local potential                                                             
   LCOR   =        T    correct aug charges                                                         
   LPAW   =        T    paw PP                                                                      
   EAUG   =  368.056                                                                                
   DEXC   =    0.000                                                                                
   RMAX   =    2.245    core radius for proj-oper                                                   
   RAUG   =    1.300    factor for augmentation sphere                                              
   RDEP   =    2.259    radius for radial grids                                                     
   RDEPT  =    1.738    core radius for aug-charge                                                  
                                                                                                    
   Atomic configuration                                                                             
    5 entries                                                                                       
     n  l   j            E        occ.                                                              
     1  0  0.50     -1033.6933   2.0000                                                             
     2  0  0.50       -56.7526   2.0000                                                             
     2  1  1.50       -28.6721   6.0000                                                             
     3  0  0.50        -2.7440   1.0000                                                             
     3  2  1.50        -1.3606   0.0000                                                             
   Description                                                                                      
     l       E           TYP  RCUT    TYP  RCUT                                                     
     1    -28.6720912     23  2.000                                                                 
     1      6.8029130     23  2.000                                                                 
     0     -2.7439560     23  2.200                                                                 
     0     34.0145650     23  2.200                                                                 
     2     -1.3605826     23  2.200                                                                 
  local pseudopotential read in
  partial core-charges read in
  partial kinetic energy density read in
  atomic valenz-charges read in
  non local Contribution for L=           1  read in
    real space projection operators read in
  non local Contribution for L=           1  read in
    real space projection operators read in
  non local Contribution for L=           0  read in
    real space projection operators read in
  non local Contribution for L=           0  read in
    real space projection operators read in
    PAW grid and wavefunctions read in

   number of l-projection  operators is LMAX  =           4
   number of lm-projection operators is LMMAX =           8

 POTCAR:    PAW_PBE S 06Sep2000                   
   SHA256 =  0fc7481fb0695f01bdc6462160264c5c84044ae9ec85a907d398b887a2bc3132 S/POTCAR              
   COPYR  = (c) Copyright 06Sep2000 Georg Kresse                                                    
   COPYR  = This file is part of the software VASP. Any use, copying, and all other rights are regul
   COPYR  = If you do not have a valid VASP license, you may not use, copy or distribute this file. 
   VRHFIN =S : s2p4                                                                                 
   LEXCH  = PE                                                                                      
   EATOM  =   276.8230 eV,   20.3459 Ry                                                             
                                                                                                    
   TITEL  = PAW_PBE S 06Sep2000                                                                     
   LULTRA =        F    use ultrasoft PP ?                                                          
   IUNSCR =        1    unscreen: 0-lin 1-nonlin 2-no                                               
   RPACOR =    1.500    partial core radius                                                         
   POMASS =   32.066; ZVAL   =    6.000    mass and valenz                                          
   RCORE  =    1.900    outmost cutoff radius                                                       
   RWIGS  =    2.200; RWIGS  =    1.164    wigner-seitz radius (au A)                               
   ENMAX  =  258.689; ENMIN  =  194.016 eV                                                          
   ICORE  =        2    local potential                                                             
   LCOR   =        T    correct aug charges                                                         
   LPAW   =        T    paw PP                                                                      
   EAUG   =  335.092                                                                                
   DEXC   =    0.000                                                                                
   RMAX   =    1.942    core radius for proj-oper                                                   
   RAUG   =    1.300    factor for augmentation sphere                                              
   RDEP   =    1.954    radius for radial grids                                                     
   RDEPT  =    1.744    core radius for aug-charge                                                  
                                                                                                    
   Atomic configuration                                                                             
    6 entries                                                                                       
     n  l   j            E        occ.                                                              
     1  0  0.50     -2405.8406   2.0000                                                             
     2  0  0.50      -211.7007   2.0000                                                             
     2  1  1.50      -156.4958   6.0000                                                             
     3  0  0.50       -17.2562   2.0000                                                             
     3  1  0.50        -7.0085   4.0000                                                             
     3  2  1.50        -6.8029   0.0000                                                             
   Description                                                                                      
     l       E           TYP  RCUT    TYP  RCUT                                                     
     0    -17.2561641     23  1.900                                                                 
     0    -15.8743224     23  1.900                                                                 
     1     -7.0085400     23  1.900                                                                 
     1     -2.7779785     23  1.900                                                                 
     2     -6.8029130     23  1.900                                                                 
  local pseudopotential read in
  partial core-charges read in
  partial kinetic energy density read in
  atomic valenz-charges read in
  non local Contribution for L=           0  read in
    real space projection operators read in
  non local Contribution for L=           0  read in
    real space projection operators read in
  non local Contribution for L=           1  read in
    real space projection operators read in
  non local Contribution for L=           1  read in
    real space projection operators read in
    PAW grid and wavefunctions read in

   number of l-projection  operators is LMAX  =           4
   number of lm-projection operators is LMMAX =           8

 -----------------------------------------------------------------------------
|                                                                             |
|               ----> ADVICE to this user running VASP <----                  |
|                                                                             |
|     You have a (more or less) 'large supercell' and for larger cells it     |
|     might be more efficient to use real-space projection operators.         |
|     Therefore, try LREAL= Auto in the INCAR file.                           |
|     Mind: For very accurate calculation, you might also keep the            |
|     reciprocal projection scheme (i.e. LREAL=.FALSE.).                      |
|                                                                             |
 -----------------------------------------------------------------------------

  PAW_PBE Na_pv 19Sep2006               :
 energy of atom  1       EATOM= -766.0439
 kinetic energy error for atom=    0.0019 (will be added to EATOM!!)
  PAW_PBE S 06Sep2000                   :
 energy of atom  2       EATOM= -276.8230
 kinetic energy error for atom=    0.0016 (will be added to EATOM!!)


 POSCAR: generated by phonopy
  positions in direct lattice
  No initial velocities read in
 exchange correlation table for  LEXCH =        8
   RHO(1)=    0.500       N(1)  =     2000
   RHO(2)=  100.500       N(2)  =     4000



--------------------------------------------------------------------------------------------------------


 ion  position               nearest neighbor table
   1  0.100  0.475  0.750-
   2  0.600  0.475  0.750-
   3  0.100  0.975  0.750-
   4  0.600  0.975  0.750-
   5  0.350  0.275  0.250-
   6  0.850  0.275  0.250-
   7  0.350  0.775  0.250-
   8  0.850  0.775  0.250-
   9  0.150  0.225  0.750-
  10  0.650  0.225  0.750-
  11  0.150  0.725  0.750-
  12  0.650  0.725  0.750-
  13  0.400  0.025  0.250-
  14  0.900  0.025  0.250-
  15  0.400  0.525  0.250-
  16  0.900  0.525  0.250-
  17  0.000  0.000  0.500-
  18  0.500  0.000  0.500-
  19  0.000  0.500  0.500-
  20  0.500  0.500  0.500-
  21  0.250  0.250  0.500-
  22  0.750  0.250  0.500-
  23  0.250  0.750  0.500-
  24  0.750  0.750  0.500-
  25  0.250  0.250  0.000-
  26  0.750  0.250  0.000-
  27  0.250  0.750  0.000-
  28  0.750  0.750  0.000-
  29  0.000  0.000  0.000-
  30  0.500  0.000  0.000-
  31  0.000  0.500  0.000-
  32  0.500  0.500  0.000-
  33  0.053  0.225  0.135- 110 2.07  65 2.07
  34  0.553  0.225  0.135- 109 2.07  66 2.08
  35  0.053  0.725  0.135- 112 2.07  67 2.08
  36  0.553  0.725  0.135- 111 2.07  68 2.08
  37  0.303  0.025  0.865- 105 2.07  69 2.08
  38  0.803  0.025  0.865- 106 2.07  70 2.08
  39  0.303  0.525  0.865- 107 2.07  71 2.08
  40  0.803  0.525  0.865- 108 2.07  72 2.08
  41  0.197  0.475  0.365- 101 2.07  73 2.08
  42  0.697  0.475  0.365- 102 2.07  74 2.08
  43  0.197  0.975  0.365- 103 2.07  75 2.08
  44  0.697  0.975  0.365- 104 2.07  76 2.08
  45  0.447  0.275  0.635-  98 2.07  77 2.08
  46  0.947  0.275  0.635-  97 2.07  78 2.08
  47  0.447  0.775  0.635- 100 2.07  79 2.08
  48  0.947  0.775  0.635-  99 2.07  80 2.08
  49  0.447  0.275  0.865-  94 2.07  77 2.08
  50  0.947  0.275  0.865-  93 2.07  78 2.08
  51  0.447  0.775  0.865-  96 2.07  79 2.08
  52  0.947  0.775  0.865-  95 2.07  80 2.08
  53  0.197  0.475  0.135-  89 2.07  73 2.08
  54  0.697  0.475  0.135-  90 2.07  74 2.08
  55  0.197  0.975  0.135-  91 2.07  75 2.08
  56  0.697  0.975  0.135-  92 2.07  76 2.08
  57  0.303  0.025  0.635-  85 2.07  69 2.08
  58  0.803  0.025  0.635-  86 2.07  70 2.08
  59  0.303  0.525  0.635-  87 2.07  71 2.08
  60  0.803  0.525  0.635-  88 2.07  72 2.08
  61  0.053  0.225  0.365-  82 2.07  65 2.09
  62  0.553  0.225  0.365-  81 2.07  66 2.08
  63  0.053  0.725  0.365-  84 2.07  67 2.08
  64  0.553  0.725  0.365-  83 2.07  68 2.08
  65  0.133  0.176  0.249-  33 2.07  61 2.09
  66  0.633  0.176  0.250-  34 2.08  62 2.08
  67  0.133  0.676  0.250-  35 2.08  63 2.08
  68  0.633  0.676  0.250-  36 2.08  64 2.08
  69  0.383  0.074  0.750-  37 2.08  57 2.08
  70  0.883  0.074  0.750-  38 2.08  58 2.08
  71  0.383  0.574  0.750-  39 2.08  59 2.08
  72  0.883  0.574  0.750-  40 2.08  60 2.08
  73  0.117  0.426  0.250-  41 2.08  53 2.08
  74  0.617  0.426  0.250-  54 2.08  42 2.08
  75  0.117  0.926  0.250-  55 2.08  43 2.08
  76  0.617  0.926  0.250-  56 2.08  44 2.08
  77  0.367  0.324  0.750-  45 2.08  49 2.08
  78  0.867  0.324  0.750-  46 2.08  50 2.08
  79  0.367  0.824  0.750-  47 2.08  51 2.08
  80  0.867  0.824  0.750-  48 2.08  52 2.08
  81  0.417  0.146  0.397-  62 2.07
  82  0.917  0.146  0.397-  61 2.07
  83  0.417  0.646  0.397-  64 2.07
  84  0.917  0.646  0.397-  63 2.07
  85  0.167  0.104  0.603-  57 2.07
  86  0.667  0.104  0.603-  58 2.07
  87  0.167  0.604  0.603-  59 2.07
  88  0.667  0.604  0.603-  60 2.07
  89  0.333  0.396  0.103-  53 2.07
  90  0.833  0.396  0.103-  54 2.07
  91  0.333  0.896  0.103-  55 2.07
  92  0.833  0.896  0.103-  56 2.07
  93  0.083  0.354  0.897-  50 2.07
  94  0.583  0.354  0.897-  49 2.07
  95  0.083  0.854  0.897-  52 2.07
  96  0.583  0.854  0.897-  51 2.07
  97  0.083  0.354  0.603-  46 2.07
  98  0.583  0.354  0.603-  45 2.07
  99  0.083  0.854  0.603-  48 2.07
 100  0.583  0.854  0.603-  47 2.07
 101  0.333  0.396  0.397-  41 2.07
 102  0.833  0.396  0.397-  42 2.07
 103  0.333  0.896  0.397-  43 2.07
 104  0.833  0.896  0.397-  44 2.07
 105  0.167  0.104  0.897-  37 2.07
 106  0.667  0.104  0.897-  38 2.07
 107  0.167  0.604  0.897-  39 2.07
 108  0.667  0.604  0.897-  40 2.07
 109  0.417  0.146  0.103-  34 2.07
 110  0.917  0.146  0.103-  33 2.07
 111  0.417  0.646  0.103-  36 2.07
 112  0.917  0.646  0.103-  35 2.07


IMPORTANT INFORMATION: All symmetrisations will be switched off!
NOSYMM: (Re-)initialisation of all symmetry stuff for point group C_1.


----------------------------------------------------------------------------------------

                                     Primitive cell                                     

  volume of cell :    2729.1342

  direct lattice vectors                    reciprocal lattice vectors
    11.773269278  0.000000000  0.000000000     0.084938174 -0.000000000  0.000000000
     0.000000000 15.678907416  0.000000000     0.000000000  0.063779954  0.000000000
     0.000000000  0.000000000 14.784683198    -0.000000000 -0.000000000  0.067637567

  length of vectors
    11.773269278 15.678907416 14.784683198     0.084938174  0.063779954  0.067637567

  position of ions in fractional coordinates (direct lattice)
     0.099956584  0.474941077  0.750000000
     0.599956584  0.474941077  0.750000000
     0.099956584  0.974941077  0.750000000
     0.599956584  0.974941077  0.750000000
     0.349956584  0.275058923  0.250000000
     0.849956584  0.275058923  0.250000000
     0.349956584  0.775058923  0.250000000
     0.849956584  0.775058923  0.250000000
     0.150043416  0.224941077  0.750000000
     0.650043416  0.224941077  0.750000000
     0.150043416  0.724941077  0.750000000
     0.650043416  0.724941077  0.750000000
     0.400043416  0.025058923  0.250000000
     0.900043416  0.025058923  0.250000000
     0.400043416  0.525058923  0.250000000
     0.900043416  0.525058923  0.250000000
     0.000000000  0.000000000  0.500000000
     0.500000000  0.000000000  0.500000000
     0.000000000  0.500000000  0.500000000
     0.500000000  0.500000000  0.500000000
     0.250000000  0.250000000  0.500000000
     0.750000000  0.250000000  0.500000000
     0.250000000  0.750000000  0.500000000
     0.750000000  0.750000000  0.500000000
     0.250000000  0.250000000  1.000000000
     0.750000000  0.250000000  1.000000000
     0.250000000  0.750000000  1.000000000
     0.750000000  0.750000000  1.000000000
     0.000000000  0.000000000  0.000000000
     0.500000000  0.000000000  1.000000000
     0.000000000  0.500000000  1.000000000
     0.500000000  0.500000000  1.000000000
     0.053004754  0.224843318  0.135455098
     0.553004754  0.224843318  0.135455098
     0.053004754  0.724843318  0.135455098
     0.553004754  0.724843318  0.135455098
     0.303004754  0.025156682  0.864544902
     0.803004754  0.025156682  0.864544902
     0.303004754  0.525156682  0.864544902
     0.803004754  0.525156682  0.864544902
     0.196995246  0.474843318  0.364544902
     0.696995246  0.474843318  0.364544902
     0.196995246  0.974843318  0.364544902
     0.696995246  0.974843318  0.364544902
     0.446995246  0.275156682  0.635455098
     0.946995246  0.275156682  0.635455098
     0.446995246  0.775156682  0.635455098
     0.946995246  0.775156682  0.635455098
     0.446995246  0.275156682  0.864544902
     0.946995246  0.275156682  0.864544902
     0.446995246  0.775156682  0.864544902
     0.946995246  0.775156682  0.864544902
     0.196995246  0.474843318  0.135455098
     0.696995246  0.474843318  0.135455098
     0.196995246  0.974843318  0.135455098
     0.696995246  0.974843318  0.135455098
     0.303004754  0.025156682  0.635455098
     0.803004754  0.025156682  0.635455098
     0.303004754  0.525156682  0.635455098
     0.803004754  0.525156682  0.635455098
     0.053004754  0.224843318  0.364544902
     0.553004754  0.224843318  0.364544902
     0.053004754  0.724843318  0.364544902
     0.553004754  0.724843318  0.364544902
     0.132710354  0.176249726  0.249470890
     0.633239464  0.176249726  0.250000000
     0.133239464  0.676249726  0.250000000
     0.633239464  0.676249726  0.250000000
     0.383239464  0.073750274  0.750000000
     0.883239464  0.073750274  0.750000000
     0.383239464  0.573750274  0.750000000
     0.883239464  0.573750274  0.750000000
     0.116760536  0.426249726  0.250000000
     0.616760536  0.426249726  0.250000000
     0.116760536  0.926249726  0.250000000
     0.616760536  0.926249726  0.250000000
     0.366760536  0.323750274  0.750000000
     0.866760536  0.323750274  0.750000000
     0.366760536  0.823750274  0.750000000
     0.866760536  0.823750274  0.750000000
     0.417298120  0.146315067  0.396541646
     0.917298120  0.146315067  0.396541646
     0.417298120  0.646315067  0.396541646
     0.917298120  0.646315067  0.396541646
     0.167298120  0.103684933  0.603458354
     0.667298120  0.103684933  0.603458354
     0.167298120  0.603684933  0.603458354
     0.667298120  0.603684933  0.603458354
     0.332701880  0.396315067  0.103458354
     0.832701880  0.396315067  0.103458354
     0.332701880  0.896315067  0.103458354
     0.832701880  0.896315067  0.103458354
     0.082701880  0.353684933  0.896541646
     0.582701880  0.353684933  0.896541646
     0.082701880  0.853684933  0.896541646
     0.582701880  0.853684933  0.896541646
     0.082701880  0.353684933  0.603458354
     0.582701880  0.353684933  0.603458354
     0.082701880  0.853684933  0.603458354
     0.582701880  0.853684933  0.603458354
     0.332701880  0.396315067  0.396541646
     0.832701880  0.396315067  0.396541646
     0.332701880  0.896315067  0.396541646
     0.832701880  0.896315067  0.396541646
     0.167298120  0.103684933  0.896541646
     0.667298120  0.103684933  0.896541646
     0.167298120  0.603684933  0.896541646
     0.667298120  0.603684933  0.896541646
     0.417298120  0.146315067  0.103458354
     0.917298120  0.146315067  0.103458354
     0.417298120  0.646315067  0.103458354
     0.917298120  0.646315067  0.103458354

  ion indices of the primitive-cell ions
   primitive index   ion index
                 1           1
                 2           2
                 3           3
                 4           4
                 5           5
                 6           6
                 7           7
                 8           8
                 9           9
                10          10
                11          11
                12          12
                13          13
                14          14
                15          15
                16          16
                17          17
                18          18
                19          19
                20          20
                21          21
                22          22
                23          23
                24          24
                25          25
                26          26
                27          27
                28          28
                29          29
                30          30
                31          31
                32          32
                33          33
                34          34
                35          35
                36          36
                37          37
                38          38
                39          39
                40          40
                41          41
                42          42
                43          43
                44          44
                45          45
                46          46
                47          47
                48          48
                49          49
                50          50
                51          51
                52          52
                53          53
                54          54
                55          55
                56          56
                57          57
                58          58
                59          59
                60          60
                61          61
                62          62
                63          63
                64          64
                65          65
                66          66
                67          67
                68          68
                69          69
                70          70
                71          71
                72          72
                73          73
                74          74
                75          75
                76          76
                77          77
                78          78
                79          79
                80          80
                81          81
                82          82
                83          83
                84          84
                85          85
                86          86
                87          87
                88          88
                89          89
                90          90
                91          91
                92          92
                93          93
                94          94
                95          95
                96          96
                97          97
                98          98
                99          99
               100         100
               101         101
               102         102
               103         103
               104         104
               105         105
               106         106
               107         107
               108         108
               109         109
               110         110
               111         111
               112         112

----------------------------------------------------------------------------------------



 KPOINTS: pymatgen with grid density = 692 / numbe

Automatic generation of k-mesh.
 Grid dimensions read from file:
 generate k-points for:    4    3    1

 Generating k-lattice:

  Cartesian coordinates                     Fractional coordinates (reciprocal lattice)
     0.021234544 -0.000000000  0.000000000     0.250000000  0.000000000  0.000000000
     0.000000000  0.021259985  0.000000000     0.000000000  0.333333333  0.000000000
    -0.000000000 -0.000000000  0.067637567    -0.000000000 -0.000000000  1.000000000

  Length of vectors
     0.021234544  0.021259985  0.067637567

  Shift w.r.t. Gamma in fractional coordinates (k-lattice)
     0.000000000  0.000000000  0.000000000

 TETIRR: Found     34 inequivalent tetrahedra from       72
 
 Subroutine IBZKPT returns following result:
 ===========================================
 
 Found      7 irreducible k-points:
 
 Following reciprocal coordinates:
            Coordinates               Weight
  0.000000  0.000000  0.000000      1.000000
  0.250000  0.000000  0.000000      2.000000
  0.500000  0.000000  0.000000      1.000000
  0.000000  0.333333  0.000000      2.000000
  0.250000  0.333333  0.000000      2.000000
  0.250000 -0.333333  0.000000      2.000000
  0.500000  0.333333  0.000000      2.000000
 
 Following cartesian coordinates:
            Coordinates               Weight
  0.000000  0.000000  0.000000      1.000000
  0.021235  0.000000  0.000000      2.000000
  0.042469  0.000000  0.000000      1.000000
  0.000000  0.021260  0.000000      2.000000
  0.021235  0.021260  0.000000      2.000000
  0.021235 -0.021260  0.000000      2.000000
  0.042469  0.021260  0.000000      2.000000
 


--------------------------------------------------------------------------------------------------------




 Dimension of arrays:
   k-points           NKPTS =      7   k-points in BZ     NKDIM =      7   number of bands    NBANDS=    480
   number of dos      NEDOS =    301   number of ions     NIONS =    112
   non local maximal  LDIM  =      4   non local SUM 2l+1 LMDIM =      8
   total plane-waves  NPLWV = ******
   max r-space proj   IRMAX =      1   max aug-charges    IRDMAX= 111895
   dimension x,y,z NGX =    90 NGY =  120 NGZ =  112
   dimension x,y,z NGXF=   180 NGYF=  240 NGZF=  224
   support grid    NGXF=   360 NGYF=  480 NGZF=  448
   ions per type =              32  80
   NGX,Y,Z   is equivalent  to a cutoff of  12.71, 12.72, 12.59 a.u.
   NGXF,Y,Z  is equivalent  to a cutoff of  25.42, 25.45, 25.19 a.u.

 SYSTEM =  unknown system                          
 POSCAR =  generated by phonopy                    

 Startparameter for this run:
   NWRITE =      2    write-flag & timer
   PREC   = accura    normal or accurate (medium, high low for compatibility)
   ISTART =      0    job   : 0-new  1-cont  2-samecut
   ICHARG =      2    charge: 1-file 2-atom 10-const
   ISPIN  =      2    spin polarized calculation?
   LNONCOLLINEAR =      F non collinear calculations
   LSORBIT =      F    spin-orbit coupling
   INIWAV =      1    electr: 0-lowe 1-rand  2-diag
   LASPH  =      T    aspherical Exc in radial PAW
 Electronic Relaxation 1
   ENCUT  =  520.0 eV  38.22 Ry    6.18 a.u.  21.89 29.15 27.49*2*pi/ulx,y,z
   ENINI  =  520.0     initial cutoff
   ENAUG  =  368.1 eV  augmentation charge cutoff
   NELM   =    100;   NELMIN=  2; NELMDL= -5     # of ELM steps 
   EDIFF  = 0.1E-08   stopping-criterion for ELM
   LREAL  =      F    real-space projection
   NLSPLINE    = F    spline interpolate recip. space projectors
   LCOMPAT=      F    compatible to vasp.4.4
   GGA_COMPAT  = T    GGA compatible to vasp.4.4-vasp.4.6
   LMAXPAW     = -100 max onsite density
   LMAXMIX     =    2 max onsite mixed and CHGCAR
   VOSKOWN=      0    Vosko Wilk Nusair interpolation
   ROPT   =    0.00000   0.00000
 Ionic relaxation
   EDIFFG = -.5E-03   stopping-criterion for IOM
   NSW    =      0    number of steps for IOM
   NBLOCK =      1;   KBLOCK =      1    inner block; outer block 
   IBRION =     -1    ionic relax: 0-MD 1-quasi-New 2-CG
   NFREE  =      0    steps in history (QN), initial steepest desc. (CG)
   ISIF   =      2    stress and relaxation
   IWAVPR =     10    prediction:  0-non 1-charg 2-wave 3-comb
   ISYM   =      0    0-nonsym 1-usesym 2-fastsym
   LCORR  =      T    Harris-Foulkes like correction to forces

   POTIM  = 0.5000    time-step for ionic-motion
   TEIN   =    0.0    initial temperature
   TEBEG  =    0.0;   TEEND  =   0.0 temperature during run
   SMASS  =  -3.00    Nose mass-parameter (am)
   estimated Nose-frequenzy (Omega)   =  0.10E-29 period in steps = 0.13E+47 mass=  -0.317E-26a.u.
   SCALEE = 1.0000    scale energy and forces
   NPACO  =    256;   APACO  = 10.0  distance and # of slots for P.C.
   PSTRESS=    0.0 pullay stress

  Mass of Ions in am
   POMASS =  22.99 32.07
  Ionic Valenz
   ZVAL   =   7.00  6.00
  Atomic Wigner-Seitz radii
   RWIGS  =  -1.00 -1.00
  virtual crystal weights 
   VCA    =   1.00  1.00
   NELECT =     704.0000    total number of electrons
   NUPDOWN=      -1.0000    fix difference up-down

 DOS related values:
   EMIN   =  10.00;   EMAX   =-10.00  energy-range for DOS
   EFERMI =   0.00
   ISMEAR =    -5;   SIGMA  =   0.05  broadening in eV -4-tet -1-fermi 0-gaus

 Electronic relaxation 2 (details)
   IALGO  =     38    algorithm
   LDIAG  =      T    sub-space diagonalisation (order eigenvalues)
   LSUBROT=      F    optimize rotation matrix (better conditioning)
   TURBO    =      0    0=normal 1=particle mesh
   IRESTART =      0    0=no restart 2=restart with 2 vectors
   NREBOOT  =      0    no. of reboots
   NMIN     =      0    reboot dimension
   EREF     =   0.00    reference energy to select bands
   IMIX   =      4    mixing-type and parameters
     AMIX     =   0.40;   BMIX     =  1.00
     AMIX_MAG =   1.60;   BMIX_MAG =  1.00
     AMIN     =   0.10
     WC   =   100.;   INIMIX=   1;  MIXPRE=   1;  MAXMIX= -45

 Intra band minimization:
   WEIMIN = 0.0000     energy-eigenvalue tresh-hold
   EBREAK =  0.52E-12  absolut break condition
   DEPER  =   0.30     relativ break condition  

   TIME   =   0.40     timestep for ELM

  volume/ion in A,a.u.               =      24.37       164.44
  Fermi-wavevector in a.u.,A,eV,Ry     =   1.042135  1.969350 14.776551  1.086046
  Thomas-Fermi vector in A             =   2.176787

 Write flags
   LWAVE        =      F    write WAVECAR
   LDOWNSAMPLE  =      F    k-point downsampling of WAVECAR
   LCHARG       =      F    write CHGCAR
   LVTOT        =      F    write LOCPOT, total local potential
   LVHAR        =      F    write LOCPOT, Hartree potential only
   LELF         =      F    write electronic localiz. function (ELF)
   LORBIT       =     11    0 simple, 1 ext, 2 COOP (PROOUT), +10 PAW based schemes


 Dipole corrections
   LMONO  =      F    monopole corrections only (constant potential shift)
   LDIPOL =      F    correct potential (dipole corrections)
   IDIPOL =      0    1-x, 2-y, 3-z, 4-all directions 
   EPSILON=  1.0000000 bulk dielectric constant

 Exchange correlation treatment:
   GGA     =    --    GGA type
   LEXCH   =     8    internal setting for exchange type
   LIBXC   =     F    Libxc                    
   VOSKOWN =     0    Vosko Wilk Nusair interpolation
   LHFCALC =     F    Hartree Fock is set to
   LHFONE  =     F    Hartree Fock one center treatment
   AEXX    =    0.0000 exact exchange contribution

 Linear response parameters
   LEPSILON=     F    determine dielectric tensor
   LRPA    =     F    only Hartree local field effects (RPA)
   LNABLA  =     F    use nabla operator in PAW spheres
   LVEL    =     F    velocity operator in full k-point grid
   CSHIFT  =0.1000    complex shift for real part using Kramers Kronig
   OMEGAMAX=  -1.0    maximum frequency
   DEG_THRESHOLD= 0.2000000E-02 threshold for treating states as degnerate
   RTIME   =   -0.100 relaxation time in fs
  (WPLASMAI=    0.000 imaginary part of plasma frequency in eV, 0.658/RTIME)
   DFIELD  = 0.0000000 0.0000000 0.0000000 field for delta impulse in time

  Optional k-point grid parameters
   LKPOINTS_OPT  =     F    use optional k-point grid
   KPOINTS_OPT_MODE=     1    mode for optional k-point grid

 Orbital magnetization related:
   ORBITALMAG=     F  switch on orbital magnetization
   LCHIMAG   =     F  perturbation theory with respect to B field
   DQ        =  0.001000  dq finite difference perturbation B field
   LLRAUG    =     F  two centre corrections for induced B field



--------------------------------------------------------------------------------------------------------


 Static calculation
 charge density and potential will be updated during run
 spin polarized calculation
 Variant of blocked Davidson
 Davidson routine will perform the subspace rotation
 perform sub-space diagonalisation
    after iterative eigenvector-optimisation
 modified Broyden-mixing scheme, WC =      100.0
 initial mixing is a Kerker type mixing with AMIX =  0.4000 and BMIX =      1.0000
 Hartree-type preconditioning will be used
 using additional bands          128
 reciprocal scheme for non local part
 use partial core corrections
 calculate Harris-corrections to forces   (improved forces if not selfconsistent)
 use gradient corrections 
 use of overlap-Matrix (Vanderbilt PP)
 Fermi weights with tetrahedron method with Bloechl corrections


--------------------------------------------------------------------------------------------------------


  energy-cutoff  :      520.00
  volume of cell :     2729.13
      direct lattice vectors                 reciprocal lattice vectors
    11.773269278  0.000000000  0.000000000     0.084938174 -0.000000000  0.000000000
     0.000000000 15.678907416  0.000000000     0.000000000  0.063779954  0.000000000
     0.000000000  0.000000000 14.784683198    -0.000000000 -0.000000000  0.067637567

  length of vectors
    11.773269278 15.678907416 14.784683198     0.084938174  0.063779954  0.067637567



 k-points in units of 2pi/SCALE and weight: pymatgen with grid density = 692 / numbe
   0.00000000  0.00000000  0.00000000       0.083
   0.02123454  0.00000000  0.00000000       0.167
   0.04246909  0.00000000  0.00000000       0.083
   0.00000000  0.02125998  0.00000000       0.167
   0.02123454  0.02125998  0.00000000       0.167
   0.02123454 -0.02125998  0.00000000       0.167
   0.04246909  0.02125998  0.00000000       0.167

 k-points in reciprocal lattice and weights: pymatgen with grid density = 692 / numbe
   0.00000000  0.00000000  0.00000000       0.083
   0.25000000  0.00000000  0.00000000       0.167
   0.50000000  0.00000000  0.00000000       0.083
   0.00000000  0.33333333  0.00000000       0.167
   0.25000000  0.33333333  0.00000000       0.167
   0.25000000 -0.33333333  0.00000000       0.167
   0.50000000  0.33333333  0.00000000       0.167

 position of ions in fractional coordinates (direct lattice) 
   0.09995658  0.47494108  0.75000000
   0.59995658  0.47494108  0.75000000
   0.09995658  0.97494108  0.75000000
   0.59995658  0.97494108  0.75000000
   0.34995658  0.27505892  0.25000000
   0.84995658  0.27505892  0.25000000
   0.34995658  0.77505892  0.25000000
   0.84995658  0.77505892  0.25000000
   0.15004342  0.22494108  0.75000000
   0.65004342  0.22494108  0.75000000
   0.15004342  0.72494108  0.75000000
   0.65004342  0.72494108  0.75000000
   0.40004342  0.02505892  0.25000000
   0.90004342  0.02505892  0.25000000
   0.40004342  0.52505892  0.25000000
   0.90004342  0.52505892  0.25000000
   0.00000000  0.00000000  0.50000000
   0.50000000  0.00000000  0.50000000
   0.00000000  0.50000000  0.50000000
   0.50000000  0.50000000  0.50000000
   0.25000000  0.25000000  0.50000000
   0.75000000  0.25000000  0.50000000
   0.25000000  0.75000000  0.50000000
   0.75000000  0.75000000  0.50000000
   0.25000000  0.25000000  0.00000000
   0.75000000  0.25000000  0.00000000
   0.25000000  0.75000000  0.00000000
   0.75000000  0.75000000  0.00000000
   0.00000000  0.00000000  0.00000000
   0.50000000  0.00000000  0.00000000
   0.00000000  0.50000000  0.00000000
   0.50000000  0.50000000  0.00000000
   0.05300475  0.22484332  0.13545510
   0.55300475  0.22484332  0.13545510
   0.05300475  0.72484332  0.13545510
   0.55300475  0.72484332  0.13545510
   0.30300475  0.02515668  0.86454490
   0.80300475  0.02515668  0.86454490
   0.30300475  0.52515668  0.86454490
   0.80300475  0.52515668  0.86454490
   0.19699525  0.47484332  0.36454490
   0.69699525  0.47484332  0.36454490
   0.19699525  0.97484332  0.36454490
   0.69699525  0.97484332  0.36454490
   0.44699525  0.27515668  0.63545510
   0.94699525  0.27515668  0.63545510
   0.44699525  0.77515668  0.63545510
   0.94699525  0.77515668  0.63545510
   0.44699525  0.27515668  0.86454490
   0.94699525  0.27515668  0.86454490
   0.44699525  0.77515668  0.86454490
   0.94699525  0.77515668  0.86454490
   0.19699525  0.47484332  0.13545510
   0.69699525  0.47484332  0.13545510
   0.19699525  0.97484332  0.13545510
   0.69699525  0.97484332  0.13545510
   0.30300475  0.02515668  0.63545510
   0.80300475  0.02515668  0.63545510
   0.30300475  0.52515668  0.63545510
   0.80300475  0.52515668  0.63545510
   0.05300475  0.22484332  0.36454490
   0.55300475  0.22484332  0.36454490
   0.05300475  0.72484332  0.36454490
   0.55300475  0.72484332  0.36454490
   0.13271035  0.17624973  0.24947089
   0.63323946  0.17624973  0.25000000
   0.13323946  0.67624973  0.25000000
   0.63323946  0.67624973  0.25000000
   0.38323946  0.07375027  0.75000000
   0.88323946  0.07375027  0.75000000
   0.38323946  0.57375027  0.75000000
   0.88323946  0.57375027  0.75000000
   0.11676054  0.42624973  0.25000000
   0.61676054  0.42624973  0.25000000
   0.11676054  0.92624973  0.25000000
   0.61676054  0.92624973  0.25000000
   0.36676054  0.32375027  0.75000000
   0.86676054  0.32375027  0.75000000
   0.36676054  0.82375027  0.75000000
   0.86676054  0.82375027  0.75000000
   0.41729812  0.14631507  0.39654165
   0.91729812  0.14631507  0.39654165
   0.41729812  0.64631507  0.39654165
   0.91729812  0.64631507  0.39654165
   0.16729812  0.10368493  0.60345835
   0.66729812  0.10368493  0.60345835
   0.16729812  0.60368493  0.60345835
   0.66729812  0.60368493  0.60345835
   0.33270188  0.39631507  0.10345835
   0.83270188  0.39631507  0.10345835
   0.33270188  0.89631507  0.10345835
   0.83270188  0.89631507  0.10345835
   0.08270188  0.35368493  0.89654165
   0.58270188  0.35368493  0.89654165
   0.08270188  0.85368493  0.89654165
   0.58270188  0.85368493  0.89654165
   0.08270188  0.35368493  0.60345835
   0.58270188  0.35368493  0.60345835
   0.08270188  0.85368493  0.60345835
   0.58270188  0.85368493  0.60345835
   0.33270188  0.39631507  0.39654165
   0.83270188  0.39631507  0.39654165
   0.33270188  0.89631507  0.39654165
   0.83270188  0.89631507  0.39654165
   0.16729812  0.10368493  0.89654165
   0.66729812  0.10368493  0.89654165
   0.16729812  0.60368493  0.89654165
   0.66729812  0.60368493  0.89654165
   0.41729812  0.14631507  0.10345835
   0.91729812  0.14631507  0.10345835
   0.41729812  0.64631507  0.10345835
   0.91729812  0.64631507  0.10345835

 position of ions in cartesian coordinates  (Angst):
   1.17681578  7.44655717 11.08851240
   7.06345042  7.44655717 11.08851240
   1.17681578 15.28601088 11.08851240
   7.06345042 15.28601088 11.08851240
   4.12013310  4.31262339  3.69617080
  10.00676774  4.31262339  3.69617080
   4.12013310 12.15207710  3.69617080
  10.00676774 12.15207710  3.69617080
   1.76650153  3.52683031 11.08851240
   7.65313617  3.52683031 11.08851240
   1.76650153 11.36628402 11.08851240
   7.65313617 11.36628402 11.08851240
   4.70981885  0.39289654  3.69617080
  10.59645349  0.39289654  3.69617080
   4.70981885  8.23235025  3.69617080
  10.59645349  8.23235025  3.69617080
   0.00000000  0.00000000  7.39234160
   5.88663464  0.00000000  7.39234160
   0.00000000  7.83945371  7.39234160
   5.88663464  7.83945371  7.39234160
   2.94331732  3.91972685  7.39234160
   8.82995196  3.91972685  7.39234160
   2.94331732 11.75918056  7.39234160
   8.82995196 11.75918056  7.39234160
   2.94331732  3.91972685  0.00000000
   8.82995196  3.91972685  0.00000000
   2.94331732 11.75918056  0.00000000
   8.82995196 11.75918056  0.00000000
   0.00000000  0.00000000  0.00000000
   5.88663464  0.00000000  0.00000000
   0.00000000  7.83945371  0.00000000
   5.88663464  7.83945371  0.00000000
   0.62403924  3.52529756  2.00266072
   6.51067388  3.52529756  2.00266072
   0.62403924 11.36475127  2.00266072
   6.51067388 11.36475127  2.00266072
   3.56735656  0.39442929 12.78202248
   9.45399120  0.39442929 12.78202248
   3.56735656  8.23388300 12.78202248
   9.45399120  8.23388300 12.78202248
   2.31927808  7.44502441  5.38968088
   8.20591272  7.44502441  5.38968088
   2.31927808 15.28447812  5.38968088
   8.20591272 15.28447812  5.38968088
   5.26259540  4.31415615  9.39500232
  11.14923003  4.31415615  9.39500232
   5.26259540 12.15360986  9.39500232
  11.14923003 12.15360986  9.39500232
   5.26259540  4.31415615 12.78202248
  11.14923003  4.31415615 12.78202248
   5.26259540 12.15360986 12.78202248
  11.14923003 12.15360986 12.78202248
   2.31927808  7.44502441  2.00266072
   8.20591272  7.44502441  2.00266072
   2.31927808 15.28447812  2.00266072
   8.20591272 15.28447812  2.00266072
   3.56735656  0.39442929  9.39500232
   9.45399120  0.39442929  9.39500232
   3.56735656  8.23388300  9.39500232
   9.45399120  8.23388300  9.39500232
   0.62403924  3.52529756  5.38968088
   6.51067388  3.52529756  5.38968088
   0.62403924 11.36475127  5.38968088
   6.51067388 11.36475127  5.38968088
   1.56243473  2.76340313  3.68834807
   7.45529873  2.76340313  3.69617080
   1.56866409 10.60285684  3.69617080
   7.45529873 10.60285684  3.69617080
   4.51198141  1.15632372 11.08851240
  10.39861605  1.15632372 11.08851240
   4.51198141  8.99577743 11.08851240
  10.39861605  8.99577743 11.08851240
   1.37465323  6.68312999  3.69617080
   7.26128787  6.68312999  3.69617080
   1.37465323 14.52258369  3.69617080
   7.26128787 14.52258369  3.69617080
   4.31797055  5.07605058 11.08851240
  10.20460519  5.07605058 11.08851240
   4.31797055 12.91550428 11.08851240
  10.20460519 12.91550428 11.08851240
   4.91296313  2.29406039  5.86274262
  10.79959777  2.29406039  5.86274262
   4.91296313 10.13351409  5.86274262
  10.79959777 10.13351409  5.86274262
   1.96964581  1.62566647  8.92194058
   7.85628045  1.62566647  8.92194058
   1.96964581  9.46512018  8.92194058
   7.85628045  9.46512018  8.92194058
   3.91698882  6.21378724  1.52959898
   9.80362346  6.21378724  1.52959898
   3.91698882 14.05324095  1.52959898
   9.80362346 14.05324095  1.52959898
   0.97367150  5.54539332 13.25508422
   6.86030614  5.54539332 13.25508422
   0.97367150 13.38484703 13.25508422
   6.86030614 13.38484703 13.25508422
   0.97367150  5.54539332  8.92194058
   6.86030614  5.54539332  8.92194058
   0.97367150 13.38484703  8.92194058
   6.86030614 13.38484703  8.92194058
   3.91698882  6.21378724  5.86274262
   9.80362346  6.21378724  5.86274262
   3.91698882 14.05324095  5.86274262
   9.80362346 14.05324095  5.86274262
   1.96964581  1.62566647 13.25508422
   7.85628045  1.62566647 13.25508422
   1.96964581  9.46512018 13.25508422
   7.85628045  9.46512018 13.25508422
   4.91296313  2.29406039  1.52959898
  10.79959777  2.29406039  1.52959898
   4.91296313 10.13351409  1.52959898
  10.79959777 10.13351409  1.52959898



--------------------------------------------------------------------------------------------------------


 k-point   1 :   0.0000 0.0000 0.0000  plane waves:   73483
 k-point   2 :   0.2500 0.0000 0.0000  plane waves:   73528
 k-point   3 :   0.5000 0.0000 0.0000  plane waves:   73536
 k-point   4 :   0.0000 0.3333 0.0000  plane waves:   73484
 k-point   5 :   0.2500 0.3333 0.0000  plane waves:   73497
 k-point   6 :   0.2500-0.3333 0.0000  plane waves:   73497
 k-point   7 :   0.5000 0.3333 0.0000  plane waves:   73530

 maximum and minimum number of plane-waves per node :     73536    73483

 maximum number of plane-waves:     73536
 maximum index in each direction: 
   IXMAX=   21   IYMAX=   29   IZMAX=   27
   IXMIN=  -22   IYMIN=  -29   IZMIN=  -27


 serial   3D FFT for wavefunctions
 parallel 3D FFT for charge:
    minimum data exchange during FFTs selected (reduces bandwidth)


 total amount of memory used by VASP MPI-rank0   652790. kBytes
=======================================================================

   base      :      30000. kBytes
   nonl-proj :     197664. kBytes
   fftplans  :      51245. kBytes
   grid      :     123102. kBytes
   one-center:        688. kBytes
   wavefun   :     250091. kBytes

     INWAV:  cpu time      0.0000: real time      0.0002
 Broyden mixing: mesh for mixing (old mesh)
   NGX = 43   NGY = 59   NGZ = 55
  (NGX  =180   NGY  =240   NGZ  =224)
  gives a total of 139535 points

 initial charge density was supplied:
 charge density of overlapping atoms calculated
 number of electron     704.0000000 magnetization     112.0000000
 keeping initial charge density in first step


--------------------------------------------------------------------------------------------------------


 Maximum index for augmentation-charges         5341 (set IRDMAX)


--------------------------------------------------------------------------------------------------------


 First call to EWALD:  gamma=   0.127
 Maximum number of real-space cells 3x 3x 3
 Maximum number of reciprocal cells 2x 3x 3

    FEWALD:  cpu time      0.0072: real time      0.0072


--------------------------------------- Iteration      1(   1)  ---------------------------------------


    POTLOK:  cpu time      6.3869: real time      6.3896
    SETDIJ:  cpu time      7.9712: real time      7.9739
     EDDAV:  cpu time    479.8092: real time    480.1216
 BZINTS: Fermi energy:   14.795431;  704.000000 electrons
         Band energy: 0.611186E+03;  BLOECHL correction:   -0.014776
       DOS:  cpu time      0.1328: real time      0.1329
    --------------------------------------------
      LOOP:  cpu time    494.3001: real time    494.6180

 eigenvalue-minimisations  : 13888
 total energy-change (2. order) : 0.6435624E+04  (-0.3101923E+05)
 number of electron     704.0000000 magnetization     112.0000000
 augmentation part      704.0000000 magnetization     112.0000000

 Free energy of the ion-electron system (eV)
  ---------------------------------------------------
  alpha Z        PSCENC =       878.71633274
  Ewald energy   TEWEN  =    -29401.46253375
  -Hartree energ DENC   =    -11511.04133888
  -exchange      EXHF   =         0.00000000
  -V(xc)+E(xc)   XCENC  =      1775.68547683
  PAW double counting   =     33462.69475165   -36039.21176956
  entropy T*S    EENTRO =         0.00000000
  eigenvalues    EBANDS =       611.18597993
  atomic energy  EATOM  =     46659.05742081
  Solvation  Ediel_sol  =         0.00000000
  ---------------------------------------------------
  free energy    TOTEN  =      6435.62431977 eV

  energy without entropy =     6435.62431977  energy(sigma->0) =     6435.62431977


--------------------------------------------------------------------------------------------------------




--------------------------------------- Iteration      1(   2)  ---------------------------------------


     EDDAV:  cpu time    524.5083: real time    524.8385
 BZINTS: Fermi energy:    4.965215;  704.000000 electrons
         Band energy:-0.533684E+04;  BLOECHL correction:   -0.007839
       DOS:  cpu time      0.1157: real time      0.1159
    --------------------------------------------
      LOOP:  cpu time    524.6240: real time    524.9543

 eigenvalue-minimisations  : 15232
 total energy-change (2. order) :-0.5948022E+04  (-0.5595299E+04)
 number of electron     704.0000000 magnetization     112.0000000
 augmentation part      704.0000000 magnetization     112.0000000

 Free energy of the ion-electron system (eV)
  ---------------------------------------------------
  alpha Z        PSCENC =       878.71633274
  Ewald energy   TEWEN  =    -29401.46253375
  -Hartree energ DENC   =    -11511.04133888
  -exchange      EXHF   =         0.00000000
  -V(xc)+E(xc)   XCENC  =      1775.68547683
  PAW double counting   =     33462.69475165   -36039.21176956
  entropy T*S    EENTRO =         0.00000000
  eigenvalues    EBANDS =     -5336.83616162
  atomic energy  EATOM  =     46659.05742081
  Solvation  Ediel_sol  =         0.00000000
  ---------------------------------------------------
  free energy    TOTEN  =       487.60217822 eV

  energy without entropy =      487.60217822  energy(sigma->0) =      487.60217822


--------------------------------------------------------------------------------------------------------




--------------------------------------- Iteration      1(   3)  ---------------------------------------


     EDDAV:  cpu time    530.2335: real time    530.5696
 BZINTS: Fermi energy:    1.969928;  704.000000 electrons
         Band energy:-0.619045E+04;  BLOECHL correction:   -0.000000
       DOS:  cpu time      0.0920: real time      0.0921
    --------------------------------------------
      LOOP:  cpu time    530.3256: real time    530.6617

 eigenvalue-minimisations  : 17024
 total energy-change (2. order) :-0.8536152E+03  (-0.8354355E+03)
 number of electron     704.0000000 magnetization     112.0000000
 augmentation part      704.0000000 magnetization     112.0000000

 Free energy of the ion-electron system (eV)
  ---------------------------------------------------
  alpha Z        PSCENC =       878.71633274
  Ewald energy   TEWEN  =    -29401.46253375
  -Hartree energ DENC   =    -11511.04133888
  -exchange      EXHF   =         0.00000000
  -V(xc)+E(xc)   XCENC  =      1775.68547683
  PAW double counting   =     33462.69475165   -36039.21176956
  entropy T*S    EENTRO =         0.00000000
  eigenvalues    EBANDS =     -6190.45131941
  atomic energy  EATOM  =     46659.05742081
  Solvation  Ediel_sol  =         0.00000000
  ---------------------------------------------------
  free energy    TOTEN  =      -366.01297957 eV

  energy without entropy =     -366.01297957  energy(sigma->0) =     -366.01297957


--------------------------------------------------------------------------------------------------------




--------------------------------------- Iteration      1(   4)  ---------------------------------------


     EDDAV:  cpu time    529.7696: real time    530.0004
 BZINTS: Fermi energy:    1.844060;  704.000000 electrons
         Band energy:-0.623290E+04;  BLOECHL correction:   -0.000000
       DOS:  cpu time      0.0918: real time      0.0920
    --------------------------------------------
      LOOP:  cpu time    529.8614: real time    530.0924

 eigenvalue-minimisations  : 16576
 total energy-change (2. order) :-0.4244671E+02  (-0.4186933E+02)
 number of electron     704.0000000 magnetization     112.0000000
 augmentation part      704.0000000 magnetization     112.0000000

 Free energy of the ion-electron system (eV)
  ---------------------------------------------------
  alpha Z        PSCENC =       878.71633274
  Ewald energy   TEWEN  =    -29401.46253375
  -Hartree energ DENC   =    -11511.04133888
  -exchange      EXHF   =         0.00000000
  -V(xc)+E(xc)   XCENC  =      1775.68547683
  PAW double counting   =     33462.69475165   -36039.21176956
  entropy T*S    EENTRO =         0.00000000
  eigenvalues    EBANDS =     -6232.89803193
  atomic energy  EATOM  =     46659.05742081
  Solvation  Ediel_sol  =         0.00000000
  ---------------------------------------------------
  free energy    TOTEN  =      -408.45969209 eV

  energy without entropy =     -408.45969209  energy(sigma->0) =     -408.45969209


--------------------------------------------------------------------------------------------------------




--------------------------------------- Iteration      1(   5)  ---------------------------------------


     EDDAV:  cpu time    598.0826: real time    598.3175
 BZINTS: Fermi energy:    1.838362;  704.000000 electrons
         Band energy:-0.623484E+04;  BLOECHL correction:   -0.000000
       DOS:  cpu time      0.0832: real time      0.0832
    CHARGE:  cpu time     10.6588: real time     10.6657
    MIXING:  cpu time      0.0166: real time      0.0166
    --------------------------------------------
      LOOP:  cpu time    608.8412: real time    609.0830

 eigenvalue-minimisations  : 18656
 total energy-change (2. order) :-0.1939989E+01  (-0.1937506E+01)
 number of electron     704.0000015 magnetization      87.2037508
 augmentation part       75.3947914 magnetization      87.8318987

 Broyden mixing:
  rms(total) = 0.94888E+01    rms(broyden)= 0.94887E+01
  rms(prec ) = 0.95754E+01
  weight for this iteration     100.00

 Free energy of the ion-electron system (eV)
  ---------------------------------------------------
  alpha Z        PSCENC =       878.71633274
  Ewald energy   TEWEN  =    -29401.46253375
  -Hartree energ DENC   =    -11511.04133888
  -exchange      EXHF   =         0.00000000
  -V(xc)+E(xc)   XCENC  =      1775.68547683
  PAW double counting   =     33462.69475165   -36039.21176956
  entropy T*S    EENTRO =         0.00000000
  eigenvalues    EBANDS =     -6234.83802115
  atomic energy  EATOM  =     46659.05742081
  Solvation  Ediel_sol  =         0.00000000
  ---------------------------------------------------
  free energy    TOTEN  =      -410.39968131 eV

  energy without entropy =     -410.39968131  energy(sigma->0) =     -410.39968131


--------------------------------------------------------------------------------------------------------




--------------------------------------- Iteration      1(   6)  ---------------------------------------


    POTLOK:  cpu time     19.3800: real time     19.3949
    SETDIJ:  cpu time     11.3757: real time     11.3794
     EDDAV:  cpu time    514.4689: real time    514.6968
 BZINTS: Fermi energy:    2.276961;  704.000000 electrons
         Band energy:-0.607905E+04;  BLOECHL correction:   -0.000000
       DOS:  cpu time      0.0915: real time      0.0916
    CHARGE:  cpu time     18.1420: real time     18.1483
    MIXING:  cpu time      0.0142: real time      0.0142
    --------------------------------------------
      LOOP:  cpu time    563.4722: real time    563.7252

 eigenvalue-minimisations  : 14912
 total energy-change (2. order) : 0.1372014E+03  (-0.3580794E+02)
 number of electron     704.0000015 magnetization      64.6064789
 augmentation part       75.9599632 magnetization      65.1427246

 Broyden mixing:
  rms(total) = 0.56150E+01    rms(broyden)= 0.56150E+01
  rms(prec ) = 0.56716E+01
  weight for this iteration     100.00

 eigenvalues of (default mixing * dielectric matrix)
  average eigenvalue GAMMA=   0.8873
  0.8873

 Free energy of the ion-electron system (eV)
  ---------------------------------------------------
  alpha Z        PSCENC =       878.71633274
  Ewald energy   TEWEN  =    -29401.46253375
  -Hartree energ DENC   =    -11590.86200085
  -exchange      EXHF   =         0.00000000
  -V(xc)+E(xc)   XCENC  =      1838.76682281
  PAW double counting   =     43872.51460140   -46450.87996781
  entropy T*S    EENTRO =         0.00000000
  eigenvalues    EBANDS =     -6079.04894955
  atomic energy  EATOM  =     46659.05742081
  Solvation  Ediel_sol  =         0.00000000
  ---------------------------------------------------
  free energy    TOTEN  =      -273.19827421 eV

  energy without entropy =     -273.19827421  energy(sigma->0) =     -273.19827421


--------------------------------------------------------------------------------------------------------




--------------------------------------- Iteration      1(   7)  ---------------------------------------


    POTLOK:  cpu time      8.6639: real time      8.6675
    SETDIJ:  cpu time     13.5034: real time     13.5079
     EDDAV:  cpu time    539.5319: real time    539.7601
 BZINTS: Fermi energy:    2.471608;  704.000000 electrons
         Band energy:-0.596402E+04;  BLOECHL correction:   -0.000000
       DOS:  cpu time      0.0918: real time      0.0922
    CHARGE:  cpu time     26.5672: real time     26.5851
    MIXING:  cpu time      0.0350: real time      0.0350
    --------------------------------------------
      LOOP:  cpu time    588.3932: real time    588.6477

 eigenvalue-minimisations  : 15392
 total energy-change (2. order) :-0.4661571E+02  (-0.7864097E+01)
 number of electron     704.0000015 magnetization      36.5526841
 augmentation part       76.0361017 magnetization      38.6334144

 Broyden mixing:
  rms(total) = 0.31289E+01    rms(broyden)= 0.31289E+01
  rms(prec ) = 0.31511E+01
  weight for this iteration     100.00

 eigenvalues of (default mixing * dielectric matrix)
  average eigenvalue GAMMA=   1.3296
  0.7350  1.9242

 Free energy of the ion-electron system (eV)
  ---------------------------------------------------
  alpha Z        PSCENC =       878.71633274
  Ewald energy   TEWEN  =    -29401.46253375
  -Hartree energ DENC   =    -11730.41790333
  -exchange      EXHF   =         0.00000000
  -V(xc)+E(xc)   XCENC  =      1833.89982627
  PAW double counting   =     54823.48235434   -57419.06774162
  entropy T*S    EENTRO =         0.00000000
  eigenvalues    EBANDS =     -5964.02173969
  atomic energy  EATOM  =     46659.05742081
  Solvation  Ediel_sol  =         0.00000000
  ---------------------------------------------------
  free energy    TOTEN  =      -319.81398423 eV

  energy without entropy =     -319.81398423  energy(sigma->0) =     -319.81398423


--------------------------------------------------------------------------------------------------------




--------------------------------------- Iteration      1(   8)  ---------------------------------------


    POTLOK:  cpu time      2.6352: real time      2.6375
    SETDIJ:  cpu time      9.6612: real time      9.6700
     EDDAV:  cpu time    501.4965: real time    501.7577
 BZINTS: Fermi energy:    2.517083;  704.000000 electrons
         Band energy:-0.590717E+04;  BLOECHL correction:   -0.000000
       DOS:  cpu time      0.0893: real time      0.0895
    CHARGE:  cpu time     20.3215: real time     20.3287
    MIXING:  cpu time      0.0301: real time      0.0301
    --------------------------------------------
      LOOP:  cpu time    534.2338: real time    534.5134

 eigenvalue-minimisations  : 14432
 total energy-change (2. order) :-0.5290542E+02  (-0.4556339E+01)
 number of electron     704.0000015 magnetization      28.8432406
 augmentation part       76.9749363 magnetization      30.2479461

 Broyden mixing:
  rms(total) = 0.14087E+01    rms(broyden)= 0.14087E+01
  rms(prec ) = 0.14276E+01
  weight for this iteration     100.00

 eigenvalues of (default mixing * dielectric matrix)
  average eigenvalue GAMMA=   1.2126
  2.2800  0.7626  0.5951

 Free energy of the ion-electron system (eV)
  ---------------------------------------------------
  alpha Z        PSCENC =       878.71633274
  Ewald energy   TEWEN  =    -29401.46253375
  -Hartree energ DENC   =    -11827.86109615
  -exchange      EXHF   =         0.00000000
  -V(xc)+E(xc)   XCENC  =      1821.82369645
  PAW double counting   =     67016.35895774   -69612.18190973
  entropy T*S    EENTRO =         0.00000000
  eigenvalues    EBANDS =     -5907.17027370
  atomic energy  EATOM  =     46659.05742081
  Solvation  Ediel_sol  =         0.00000000
  ---------------------------------------------------
  free energy    TOTEN  =      -372.71940559 eV

  energy without entropy =     -372.71940559  energy(sigma->0) =     -372.71940559


--------------------------------------------------------------------------------------------------------




--------------------------------------- Iteration      1(   9)  ---------------------------------------


    POTLOK:  cpu time      8.6284: real time      8.6316
    SETDIJ:  cpu time      8.1696: real time      8.1725
     EDDAV:  cpu time    515.5381: real time    515.7409
 BZINTS: Fermi energy:    2.396154;  704.000000 electrons
         Band energy:-0.594721E+04;  BLOECHL correction:   -0.000000
       DOS:  cpu time      0.0896: real time      0.0898
    CHARGE:  cpu time     17.0900: real time     17.0959
    MIXING:  cpu time      0.0326: real time      0.0326
    --------------------------------------------
      LOOP:  cpu time    549.5482: real time    549.7632

 eigenvalue-minimisations  : 15648
 total energy-change (2. order) :-0.2825710E+02  (-0.2662994E+01)
 number of electron     704.0000015 magnetization      18.4488240
 augmentation part       77.1632659 magnetization      19.2980926

 Broyden mixing:
  rms(total) = 0.82212E+00    rms(broyden)= 0.82212E+00
  rms(prec ) = 0.85992E+00
  weight for this iteration     100.00

 eigenvalues of (default mixing * dielectric matrix)
  average eigenvalue GAMMA=   1.3418
  2.4768  1.5172  0.7416  0.6317

 Free energy of the ion-electron system (eV)
  ---------------------------------------------------
  alpha Z        PSCENC =       878.71633274
  Ewald energy   TEWEN  =    -29401.46253375
  -Hartree energ DENC   =    -11808.18949430
  -exchange      EXHF   =         0.00000000
  -V(xc)+E(xc)   XCENC  =      1812.09534226
  PAW double counting   =     68624.55009610   -71218.53363244
  entropy T*S    EENTRO =         0.00000000
  eigenvalues    EBANDS =     -5947.21003789
  atomic energy  EATOM  =     46659.05742081
  Solvation  Ediel_sol  =         0.00000000
  ---------------------------------------------------
  free energy    TOTEN  =      -400.97650646 eV

  energy without entropy =     -400.97650646  energy(sigma->0) =     -400.97650646


--------------------------------------------------------------------------------------------------------




--------------------------------------- Iteration      1(  10)  ---------------------------------------


    POTLOK:  cpu time     12.8226: real time     12.8274
    SETDIJ:  cpu time     21.1080: real time     21.1149
     EDDAV:  cpu time    544.5539: real time    544.7808
 BZINTS: Fermi energy:    2.193614;  704.000000 electrons
         Band energy:-0.603023E+04;  BLOECHL correction:   -0.000000
       DOS:  cpu time      0.0922: real time      0.0923
    CHARGE:  cpu time     20.2995: real time     20.3069
    MIXING:  cpu time      0.0222: real time      0.0222
    --------------------------------------------
      LOOP:  cpu time    598.8985: real time    599.1444

 eigenvalue-minimisations  : 15424
 total energy-change (2. order) :-0.2247885E+02  (-0.3304326E+01)
 number of electron     704.0000015 magnetization      12.9863934
 augmentation part       76.9437830 magnetization      13.3084907

 Broyden mixing:
  rms(total) = 0.42269E+00    rms(broyden)= 0.42269E+00
  rms(prec ) = 0.44422E+00
  weight for this iteration     100.00

 eigenvalues of (default mixing * dielectric matrix)
  average eigenvalue GAMMA=   1.2868
  2.5914  1.6374  0.8582  0.7299  0.6173

 Free energy of the ion-electron system (eV)
  ---------------------------------------------------
  alpha Z        PSCENC =       878.71633274
  Ewald energy   TEWEN  =    -29401.46253375
  -Hartree energ DENC   =    -11737.41422237
  -exchange      EXHF   =         0.00000000
  -V(xc)+E(xc)   XCENC  =      1798.48099176
  PAW double counting   =     69347.65991753   -71938.26770239
  entropy T*S    EENTRO =         0.00000000
  eigenvalues    EBANDS =     -6030.22555743
  atomic energy  EATOM  =     46659.05742081
  Solvation  Ediel_sol  =         0.00000000
  ---------------------------------------------------
  free energy    TOTEN  =      -423.45535310 eV

  energy without entropy =     -423.45535310  energy(sigma->0) =     -423.45535310


--------------------------------------------------------------------------------------------------------




--------------------------------------- Iteration      1(  11)  ---------------------------------------


    POTLOK:  cpu time     10.8108: real time     10.8153
    SETDIJ:  cpu time     10.2537: real time     10.2572
     EDDAV:  cpu time    550.2810: real time    550.4937
 BZINTS: Fermi energy:    2.118642;  704.000000 electrons
         Band energy:-0.606240E+04;  BLOECHL correction:   -0.000000
       DOS:  cpu time      0.0918: real time      0.0919
    CHARGE:  cpu time     24.2486: real time     24.2570
    MIXING:  cpu time      0.0269: real time      0.0269
    --------------------------------------------
      LOOP:  cpu time    595.7129: real time    595.9420

 eigenvalue-minimisations  : 15392
 total energy-change (2. order) :-0.4606430E+01  (-0.8625765E+00)
 number of electron     704.0000015 magnetization      11.8034550
 augmentation part       76.8293929 magnetization      11.9715899

 Broyden mixing:
  rms(total) = 0.37158E+00    rms(broyden)= 0.37158E+00
  rms(prec ) = 0.38390E+00
  weight for this iteration     100.00

 eigenvalues of (default mixing * dielectric matrix)
  average eigenvalue GAMMA=   1.1711
  2.3769  1.6743  1.0259  0.7660  0.5919  0.5919

 Free energy of the ion-electron system (eV)
  ---------------------------------------------------
  alpha Z        PSCENC =       878.71633274
  Ewald energy   TEWEN  =    -29401.46253375
  -Hartree energ DENC   =    -11707.10354079
  -exchange      EXHF   =         0.00000000
  -V(xc)+E(xc)   XCENC  =      1794.64158162
  PAW double counting   =     69048.93605802   -71638.44301708
  entropy T*S    EENTRO =         0.00000000
  eigenvalues    EBANDS =     -6062.40408450
  atomic energy  EATOM  =     46659.05742081
  Solvation  Ediel_sol  =         0.00000000
  ---------------------------------------------------
  free energy    TOTEN  =      -428.06178293 eV

  energy without entropy =     -428.06178293  energy(sigma->0) =     -428.06178293


--------------------------------------------------------------------------------------------------------




--------------------------------------- Iteration      1(  12)  ---------------------------------------


    POTLOK:  cpu time      2.8020: real time      2.8032
    SETDIJ:  cpu time     19.2970: real time     19.3035
     EDDAV:  cpu time    511.8331: real time    512.0330
 BZINTS: Fermi energy:    2.103683;  704.000000 electrons
         Band energy:-0.607052E+04;  BLOECHL correction:   -0.000000
       DOS:  cpu time      0.0901: real time      0.0901
    CHARGE:  cpu time     12.4962: real time     12.5005
    MIXING:  cpu time      0.0255: real time      0.0255
    --------------------------------------------
      LOOP:  cpu time    546.5440: real time    546.7558

 eigenvalue-minimisations  : 15744
 total energy-change (2. order) :-0.4648423E-01  (-0.4884782E-01)
 number of electron     704.0000015 magnetization       5.1275571
 augmentation part       76.7983487 magnetization       5.2635325

 Broyden mixing:
  rms(total) = 0.28349E+00    rms(broyden)= 0.28349E+00
  rms(prec ) = 0.29139E+00
  weight for this iteration     100.00

 eigenvalues of (default mixing * dielectric matrix)
  average eigenvalue GAMMA=   1.3341
  2.4090  2.4090  1.2640  1.2640  0.7356  0.6615  0.5959

 Free energy of the ion-electron system (eV)
  ---------------------------------------------------
  alpha Z        PSCENC =       878.71633274
  Ewald energy   TEWEN  =    -29401.46253375
  -Hartree energ DENC   =    -11698.40263484
  -exchange      EXHF   =         0.00000000
  -V(xc)+E(xc)   XCENC  =      1793.65893291
  PAW double counting   =     68328.29312494   -70917.44808326
  entropy T*S    EENTRO =         0.00000000
  eigenvalues    EBANDS =     -6070.52082671
  atomic energy  EATOM  =     46659.05742081
  Solvation  Ediel_sol  =         0.00000000
  ---------------------------------------------------
  free energy    TOTEN  =      -428.10826716 eV

  energy without entropy =     -428.10826716  energy(sigma->0) =     -428.10826716


--------------------------------------------------------------------------------------------------------




--------------------------------------- Iteration      1(  13)  ---------------------------------------


    POTLOK:  cpu time      2.1203: real time      2.1216
    SETDIJ:  cpu time     15.6818: real time     15.6871
     EDDAV:  cpu time    527.7613: real time    528.0630
 BZINTS: Fermi energy:    2.037623;  704.000000 electrons
         Band energy:-0.610252E+04;  BLOECHL correction:   -0.000000
       DOS:  cpu time      0.0864: real time      0.0864
    CHARGE:  cpu time     13.2182: real time     13.2228
    MIXING:  cpu time      0.0320: real time      0.0322
    --------------------------------------------
      LOOP:  cpu time    558.8999: real time    559.2131

 eigenvalue-minimisations  : 15680
 total energy-change (2. order) :-0.2755250E+00  (-0.7490608E-01)
 number of electron     704.0000015 magnetization       2.1061407
 augmentation part       76.6581265 magnetization       2.1345116

 Broyden mixing:
  rms(total) = 0.18593E+00    rms(broyden)= 0.18593E+00
  rms(prec ) = 0.19050E+00
  weight for this iteration     100.00

 eigenvalues of (default mixing * dielectric matrix)
  average eigenvalue GAMMA=   1.3739
  2.7137  2.7137  1.4162  1.4162  0.7541  0.6000  0.6885  0.6885

 Free energy of the ion-electron system (eV)
  ---------------------------------------------------
  alpha Z        PSCENC =       878.71633274
  Ewald energy   TEWEN  =    -29401.46253375
  -Hartree energ DENC   =    -11664.76525149
  -exchange      EXHF   =         0.00000000
  -V(xc)+E(xc)   XCENC  =      1790.22021793
  PAW double counting   =     66706.55808399   -69294.19089090
  entropy T*S    EENTRO =         0.00000000
  eigenvalues    EBANDS =     -6102.51717146
  atomic energy  EATOM  =     46659.05742081
  Solvation  Ediel_sol  =         0.00000000
  ---------------------------------------------------
  free energy    TOTEN  =      -428.38379214 eV

  energy without entropy =     -428.38379214  energy(sigma->0) =     -428.38379214


--------------------------------------------------------------------------------------------------------




--------------------------------------- Iteration      1(  14)  ---------------------------------------


    POTLOK:  cpu time     10.6755: real time     10.6815
    SETDIJ:  cpu time     16.7586: real time     16.7641
     EDDAV:  cpu time    443.7088: real time    443.8888
 BZINTS: Fermi energy:    2.034087;  704.000000 electrons
         Band energy:-0.610055E+04;  BLOECHL correction:   -0.000000
       DOS:  cpu time      0.0880: real time      0.0881
    CHARGE:  cpu time     19.4511: real time     19.4700
    MIXING:  cpu time      0.0214: real time      0.0214
    --------------------------------------------
      LOOP:  cpu time    490.7034: real time    490.9138

 eigenvalue-minimisations  : 14336
 total energy-change (2. order) :-0.8405767E-01  (-0.9561964E-02)
 number of electron     704.0000015 magnetization       1.0691817
 augmentation part       76.6695534 magnetization       1.0818848

 Broyden mixing:
  rms(total) = 0.79370E-01    rms(broyden)= 0.79370E-01
  rms(prec ) = 0.85614E-01
  weight for this iteration     100.00

 eigenvalues of (default mixing * dielectric matrix)
  average eigenvalue GAMMA=   1.3821
  3.6235  1.9949  1.9949  1.0842  0.8350  0.8350  0.8065  0.5953  0.6696

 Free energy of the ion-electron system (eV)
  ---------------------------------------------------
  alpha Z        PSCENC =       878.71633274
  Ewald energy   TEWEN  =    -29401.46253375
  -Hartree energ DENC   =    -11666.85154554
  -exchange      EXHF   =         0.00000000
  -V(xc)+E(xc)   XCENC  =      1790.40731238
  PAW double counting   =     66931.35396473   -69519.14029065
  entropy T*S    EENTRO =         0.00000000
  eigenvalues    EBANDS =     -6100.54851052
  atomic energy  EATOM  =     46659.05742081
  Solvation  Ediel_sol  =         0.00000000
  ---------------------------------------------------
  free energy    TOTEN  =      -428.46784980 eV

  energy without entropy =     -428.46784980  energy(sigma->0) =     -428.46784980


--------------------------------------------------------------------------------------------------------




--------------------------------------- Iteration      1(  15)  ---------------------------------------


    POTLOK:  cpu time      6.2508: real time      6.2642
    SETDIJ:  cpu time     14.7195: real time     14.7242
     EDDAV:  cpu time    495.0011: real time    495.1988
 BZINTS: Fermi energy:    2.041633;  704.000000 electrons
         Band energy:-0.609505E+04;  BLOECHL correction:   -0.000000
       DOS:  cpu time      0.0881: real time      0.0882
    CHARGE:  cpu time     11.9892: real time     11.9935
    MIXING:  cpu time      0.0322: real time      0.0322
    --------------------------------------------
      LOOP:  cpu time    528.0809: real time    528.3011

 eigenvalue-minimisations  : 16000
 total energy-change (2. order) :-0.6241577E-02  (-0.2253867E-02)
 number of electron     704.0000015 magnetization       0.3508657
 augmentation part       76.7007987 magnetization       0.3587666

 Broyden mixing:
  rms(total) = 0.35904E-01    rms(broyden)= 0.35904E-01
  rms(prec ) = 0.38957E-01
  weight for this iteration     100.00

 eigenvalues of (default mixing * dielectric matrix)
  average eigenvalue GAMMA=   1.4039
  4.1589  1.7463  1.7463  1.7455  0.9288  0.9288  0.7667  0.7667  0.5952  0.6557

 Free energy of the ion-electron system (eV)
  ---------------------------------------------------
  alpha Z        PSCENC =       878.71633274
  Ewald energy   TEWEN  =    -29401.46253375
  -Hartree energ DENC   =    -11672.42700526
  -exchange      EXHF   =         0.00000000
  -V(xc)+E(xc)   XCENC  =      1790.85671098
  PAW double counting   =     67084.41023041   -69672.57960824
  entropy T*S    EENTRO =         0.00000000
  eigenvalues    EBANDS =     -6095.04563907
  atomic energy  EATOM  =     46659.05742081
  Solvation  Ediel_sol  =         0.00000000
  ---------------------------------------------------
  free energy    TOTEN  =      -428.47409138 eV

  energy without entropy =     -428.47409138  energy(sigma->0) =     -428.47409138


--------------------------------------------------------------------------------------------------------




--------------------------------------- Iteration      1(  16)  ---------------------------------------


    POTLOK:  cpu time      6.2647: real time      6.2678
    SETDIJ:  cpu time     21.1255: real time     21.1475
     EDDAV:  cpu time    467.4643: real time    467.6823
 BZINTS: Fermi energy:    2.045221;  704.000000 electrons
         Band energy:-0.609213E+04;  BLOECHL correction:   -0.000000
       DOS:  cpu time      0.0877: real time      0.0879
    CHARGE:  cpu time     22.1087: real time     22.1215
    MIXING:  cpu time      0.0174: real time      0.0174
    --------------------------------------------
      LOOP:  cpu time    517.0683: real time    517.3244

 eigenvalue-minimisations  : 15968
 total energy-change (2. order) :-0.2978335E-02  (-0.7137290E-03)
 number of electron     704.0000015 magnetization       0.1261338
[...]
      5.88663      7.83945      7.39234         0.000118      0.000023      0.000023
      2.94332      3.91973      7.39234        -0.000231     -0.000570     -0.000474
      8.82995      3.91973      7.39234         0.000307     -0.000339     -0.000474
      2.94332     11.75918      7.39234        -0.000003      0.000061      0.000009
      8.82995     11.75918      7.39234         0.000016      0.000067     -0.000018
      2.94332      3.91973      0.00000         0.001713      0.000588     -0.001286
      8.82995      3.91973      0.00000         0.000360     -0.000849      0.000209
      2.94332     11.75918      0.00000        -0.000002      0.000030     -0.000017
      8.82995     11.75918      0.00000         0.000003      0.000056     -0.000013
      0.00000      0.00000      0.00000        -0.000176     -0.000278     -0.000084
      5.88663      0.00000      0.00000         0.000090      0.000081      0.000009
      0.00000      7.83945      0.00000        -0.000050      0.000159     -0.000112
      5.88663      7.83945      0.00000         0.000075      0.000046     -0.000109
      0.62404      3.52530      2.00266        -0.028360      0.027187     -0.052201
      6.51067      3.52530      2.00266         0.001816     -0.000395      0.000581
      0.62404     11.36475      2.00266         0.001674     -0.000543      0.000535
      6.51067     11.36475      2.00266         0.001683     -0.000522      0.000555
      3.56736      0.39443     12.78202         0.001903      0.000342     -0.000446
      9.45399      0.39443     12.78202         0.001554      0.000693     -0.000342
      3.56736      8.23388     12.78202         0.001665      0.000522     -0.000550
      9.45399      8.23388     12.78202         0.001639      0.000522     -0.000527
      2.31928      7.44502      5.38968        -0.001683     -0.000871     -0.000487
      8.20591      7.44502      5.38968        -0.001737     -0.000514     -0.000322
      2.31928     15.28448      5.38968        -0.002132      0.000091     -0.001091
      8.20591     15.28448      5.38968        -0.001638     -0.000592     -0.000628
      5.26260      4.31416      9.39500        -0.001630      0.000570      0.000536
     11.14923      4.31416      9.39500        -0.001749      0.000527      0.000536
      5.26260     12.15361      9.39500        -0.001621      0.000562      0.000537
     11.14923     12.15361      9.39500        -0.001627      0.000545      0.000549
      5.26260      4.31416     12.78202        -0.001648      0.000518     -0.000477
     11.14923      4.31416     12.78202        -0.002024      0.000312     -0.000601
      5.26260     12.15361     12.78202        -0.001632      0.000531     -0.000518
     11.14923     12.15361     12.78202        -0.001661      0.000524     -0.000538
      2.31928      7.44502      2.00266        -0.001765     -0.000367      0.000315
      8.20591      7.44502      2.00266        -0.001569     -0.000468      0.000761
      2.31928     15.28448      2.00266        -0.001852     -0.000812      0.000564
      8.20591     15.28448      2.00266        -0.001582     -0.000404      0.000512
      3.56736      0.39443      9.39500         0.001499      0.000744      0.000662
      9.45399      0.39443      9.39500         0.001592      0.000612      0.000589
      3.56736      8.23388      9.39500         0.001642      0.000534      0.000564
      9.45399      8.23388      9.39500         0.001642      0.000540      0.000537
      0.62404      3.52530      5.38968        -0.003347     -0.007033     -0.018510
      6.51067      3.52530      5.38968         0.001977     -0.000413     -0.000491
      0.62404     11.36475      5.38968         0.001650     -0.000558     -0.000536
      6.51067     11.36475      5.38968         0.001660     -0.000561     -0.000569
      1.56243      2.76340      3.68835         0.053110     -0.021616      0.077270
      7.45530      2.76340      3.69617        -0.000429     -0.001701     -0.000118
      1.56866     10.60286      3.69617        -0.000356     -0.001817     -0.000000
      7.45530     10.60286      3.69617        -0.000361     -0.001834      0.000011
      4.51198      1.15632     11.08851        -0.000312      0.001834     -0.000044
     10.39862      1.15632     11.08851        -0.000314      0.001777     -0.000044
      4.51198      8.99578     11.08851        -0.000320      0.001839     -0.000009
     10.39862      8.99578     11.08851        -0.000320      0.001836     -0.000009
      1.37465      6.68313      3.69617         0.000623     -0.001767      0.000149
      7.26129      6.68313      3.69617         0.000324     -0.001923      0.000161
      1.37465     14.52258      3.69617         0.000623     -0.002330      0.000153
      7.26129     14.52258      3.69617         0.000324     -0.001840      0.000161
      4.31797      5.07605     11.08851         0.000274      0.001843     -0.000028
     10.20461      5.07605     11.08851         0.000514      0.001876     -0.000131
      4.31797     12.91550     11.08851         0.000294      0.001808     -0.000011
     10.20461     12.91550     11.08851         0.000324      0.001831     -0.000015
      4.91296      2.29406      5.86274         0.000478      0.001494      0.000601
     10.79960      2.29406      5.86274         0.000851      0.003476      0.004469
      4.91296     10.13351      5.86274         0.001057      0.001059      0.001308
     10.79960     10.13351      5.86274         0.001151      0.001069      0.001282
      1.96965      1.62567      8.92194         0.001255     -0.001305     -0.001057
      7.85628      1.62567      8.92194         0.001054     -0.001206     -0.001182
      1.96965      9.46512      8.92194         0.001101     -0.001126     -0.001334
      7.85628      9.46512      8.92194         0.001100     -0.001112     -0.001294
      3.91699      6.21379      1.52960        -0.001347      0.000640     -0.001170
      9.80362      6.21379      1.52960        -0.000667      0.000960     -0.001505
      3.91699     14.05324      1.52960        -0.001078      0.001144     -0.001397
      9.80362     14.05324      1.52960        -0.001076      0.001091     -0.001471
      0.97367      5.54539     13.25508        -0.000700     -0.001047      0.001583
      6.86031      5.54539     13.25508        -0.001147     -0.001021      0.001326
      0.97367     13.38485     13.25508        -0.001046     -0.001075      0.001338
      6.86031     13.38485     13.25508        -0.001113     -0.001142      0.001321
      0.97367      5.54539      8.92194        -0.001010     -0.001200     -0.001396
      6.86031      5.54539      8.92194        -0.001156     -0.001061     -0.001274
      0.97367     13.38485      8.92194        -0.001078     -0.001172     -0.001278
      6.86031     13.38485      8.92194        -0.001113     -0.001161     -0.001298
      3.91699      6.21379      5.86274        -0.001277      0.000997      0.000875
      9.80362      6.21379      5.86274        -0.001256      0.001468      0.000834
      3.91699     14.05324      5.86274        -0.001003      0.001305      0.001264
      9.80362     14.05324      5.86274        -0.001208      0.000856      0.001285
      1.96965      1.62567     13.25508         0.000659     -0.000594      0.001791
      7.85628      1.62567     13.25508         0.000866     -0.001322      0.000953
      1.96965      9.46512     13.25508         0.001064     -0.001132      0.001347
      7.85628      9.46512     13.25508         0.001082     -0.001100      0.001331
      4.91296      2.29406      1.52960         0.001013      0.001014     -0.001676
     10.79960      2.29406      1.52960        -0.014415     -0.000496     -0.009629
      4.91296     10.13351      1.52960         0.001043      0.001001     -0.001321
     10.79960     10.13351      1.52960         0.001102      0.001016     -0.001308
 -----------------------------------------------------------------------------------
    total drift:                                0.000003     -0.000000     -0.000007


--------------------------------------------------------------------------------------------------------



  FREE ENERGIE OF THE ION-ELECTRON SYSTEM (eV)
  ---------------------------------------------------
  free  energy   TOTEN  =      -428.47727218 eV

  energy  without entropy=     -428.47727218  energy(sigma->0) =     -428.47727218



--------------------------------------------------------------------------------------------------------


    POTLOK:  cpu time     20.8174: real time     20.8313


--------------------------------------------------------------------------------------------------------


     LOOP+:  cpu time  15021.4992: real time  15028.5119
    4ORBIT:  cpu time      0.0000: real time      0.0000



 total charge

# of ion       s       p       d       tot
------------------------------------------
    1        0.042   5.976   0.000   6.018
    2        0.042   5.976   0.000   6.018
    3        0.042   5.976   0.000   6.018
    4        0.042   5.976   0.000   6.018
    5        0.042   5.976   0.000   6.018
    6        0.042   5.976   0.000   6.018
    7        0.042   5.976   0.000   6.018
    8        0.042   5.976   0.000   6.018
    9        0.042   5.976   0.000   6.018
   10        0.042   5.976   0.000   6.018
   11        0.042   5.976   0.000   6.018
   12        0.042   5.976   0.000   6.018
   13        0.042   5.976   0.000   6.018
   14        0.042   5.976   0.000   6.018
   15        0.042   5.976   0.000   6.018
   16        0.042   5.976   0.000   6.018
   17        0.046   5.974   0.000   6.020
   18        0.046   5.974   0.000   6.020
   19        0.046   5.974   0.000   6.020
   20        0.046   5.974   0.000   6.020
   21        0.046   5.974   0.000   6.020
   22        0.046   5.974   0.000   6.020
   23        0.046   5.974   0.000   6.020
   24        0.046   5.974   0.000   6.020
   25        0.046   5.974   0.000   6.020
   26        0.046   5.974   0.000   6.020
   27        0.046   5.974   0.000   6.020
   28        0.046   5.974   0.000   6.020
   29        0.046   5.974   0.000   6.020
   30        0.046   5.974   0.000   6.020
   31        0.046   5.974   0.000   6.020
   32        0.046   5.974   0.000   6.020
   33        1.361   2.273   0.000   3.634
   34        1.361   2.270   0.000   3.632
   35        1.361   2.270   0.000   3.632
   36        1.361   2.270   0.000   3.632
   37        1.361   2.270   0.000   3.632
   38        1.361   2.270   0.000   3.632
   39        1.361   2.270   0.000   3.632
   40        1.361   2.270   0.000   3.632
   41        1.361   2.270   0.000   3.632
   42        1.361   2.270   0.000   3.632
   43        1.361   2.270   0.000   3.632
   44        1.361   2.270   0.000   3.632
   45        1.361   2.270   0.000   3.632
   46        1.361   2.270   0.000   3.632
   47        1.361   2.270   0.000   3.632
   48        1.361   2.270   0.000   3.632
   49        1.361   2.270   0.000   3.632
   50        1.361   2.270   0.000   3.632
   51        1.361   2.270   0.000   3.632
   52        1.361   2.270   0.000   3.632
   53        1.361   2.270   0.000   3.632
   54        1.361   2.270   0.000   3.632
   55        1.361   2.270   0.000   3.632
   56        1.361   2.270   0.000   3.632
   57        1.361   2.270   0.000   3.632
   58        1.361   2.270   0.000   3.632
   59        1.361   2.270   0.000   3.632
   60        1.361   2.270   0.000   3.632
   61        1.362   2.270   0.000   3.632
   62        1.361   2.270   0.000   3.632
   63        1.361   2.270   0.000   3.632
   64        1.361   2.270   0.000   3.632
   65        1.374   2.263   0.000   3.637
   66        1.374   2.262   0.000   3.636
   67        1.374   2.262   0.000   3.636
   68        1.374   2.262   0.000   3.636
   69        1.374   2.262   0.000   3.636
   70        1.374   2.262   0.000   3.636
   71        1.374   2.262   0.000   3.636
   72        1.374   2.262   0.000   3.636
   73        1.374   2.262   0.000   3.636
   74        1.374   2.262   0.000   3.636
   75        1.374   2.262   0.000   3.636
   76        1.374   2.262   0.000   3.636
   77        1.374   2.262   0.000   3.636
   78        1.374   2.262   0.000   3.636
   79        1.374   2.262   0.000   3.636
   80        1.374   2.262   0.000   3.636
   81        1.345   2.355   0.000   3.699
   82        1.345   2.354   0.000   3.699
   83        1.345   2.354   0.000   3.699
   84        1.345   2.354   0.000   3.699
   85        1.345   2.354   0.000   3.699
   86        1.345   2.354   0.000   3.699
   87        1.345   2.354   0.000   3.699
   88        1.345   2.354   0.000   3.699
   89        1.345   2.354   0.000   3.699
   90        1.345   2.355   0.000   3.699
   91        1.345   2.354   0.000   3.699
   92        1.345   2.354   0.000   3.699
   93        1.345   2.355   0.000   3.699
   94        1.345   2.354   0.000   3.699
   95        1.345   2.354   0.000   3.699
   96        1.345   2.354   0.000   3.699
   97        1.345   2.354   0.000   3.699
   98        1.345   2.354   0.000   3.699
   99        1.345   2.354   0.000   3.699
  100        1.345   2.354   0.000   3.699
  101        1.345   2.354   0.000   3.699
  102        1.345   2.354   0.000   3.699
  103        1.345   2.354   0.000   3.699
  104        1.345   2.354   0.000   3.699
  105        1.345   2.355   0.000   3.699
  106        1.345   2.354   0.000   3.699
  107        1.345   2.354   0.000   3.699
  108        1.345   2.354   0.000   3.699
  109        1.345   2.355   0.000   3.699
  110        1.345   2.355   0.000   3.700
  111        1.345   2.354   0.000   3.699
  112        1.345   2.354   0.000   3.699
--------------------------------------------------
tot        110.000 375.392   0.000 485.393



 magnetization (x)

# of ion       s       p       d       tot
------------------------------------------
    1       -0.000   0.000   0.000   0.000
    2       -0.000   0.000   0.000   0.000
    3       -0.000   0.000   0.000   0.000
    4       -0.000   0.000   0.000   0.000
    5       -0.000   0.000   0.000   0.000
    6       -0.000   0.000   0.000   0.000
    7       -0.000   0.000   0.000   0.000
    8       -0.000   0.000   0.000   0.000
    9       -0.000   0.000   0.000   0.000
   10       -0.000   0.000   0.000   0.000
   11       -0.000   0.000   0.000   0.000
   12       -0.000   0.000   0.000   0.000
   13       -0.000   0.000   0.000   0.000
   14       -0.000   0.000   0.000   0.000
   15       -0.000   0.000   0.000   0.000
   16       -0.000   0.000   0.000   0.000
   17       -0.000  -0.000   0.000  -0.000
   18       -0.000  -0.000   0.000  -0.000
   19       -0.000  -0.000   0.000  -0.000
   20       -0.000  -0.000   0.000  -0.000
   21       -0.000  -0.000   0.000  -0.000
   22       -0.000  -0.000   0.000  -0.000
   23       -0.000  -0.000   0.000  -0.000
   24       -0.000  -0.000   0.000  -0.000
   25       -0.000  -0.000   0.000  -0.000
   26       -0.000  -0.000   0.000  -0.000
   27       -0.000  -0.000   0.000  -0.000
   28       -0.000  -0.000   0.000  -0.000
   29       -0.000  -0.000   0.000  -0.000
   30       -0.000  -0.000   0.000  -0.000
   31       -0.000  -0.000   0.000  -0.000
   32       -0.000  -0.000   0.000  -0.000
   33        0.000   0.000   0.000   0.000
   34        0.000   0.000   0.000   0.000
   35        0.000   0.000   0.000   0.000
   36        0.000   0.000   0.000   0.000
   37        0.000   0.000   0.000   0.000
   38        0.000   0.000   0.000   0.000
   39        0.000   0.000   0.000   0.000
   40        0.000   0.000   0.000   0.000
   41        0.000   0.000   0.000   0.000
   42        0.000   0.000   0.000   0.000
   43        0.000   0.000   0.000   0.000
   44        0.000   0.000   0.000   0.000
   45        0.000   0.000   0.000   0.000
   46        0.000   0.000   0.000   0.000
   47        0.000   0.000   0.000   0.000
   48        0.000   0.000   0.000   0.000
   49        0.000   0.000   0.000   0.000
   50        0.000   0.000   0.000   0.000
   51        0.000   0.000   0.000   0.000
   52        0.000   0.000   0.000   0.000
   53        0.000   0.000   0.000   0.000
   54        0.000   0.000   0.000   0.000
   55        0.000   0.000   0.000   0.000
   56        0.000   0.000   0.000   0.000
   57        0.000   0.000   0.000   0.000
   58        0.000   0.000   0.000   0.000
   59        0.000   0.000   0.000   0.000
   60        0.000   0.000   0.000   0.000
   61        0.000   0.000   0.000   0.000
   62        0.000   0.000   0.000   0.000
   63        0.000   0.000   0.000   0.000
   64        0.000   0.000   0.000   0.000
   65        0.000   0.000   0.000   0.000
   66        0.000   0.000   0.000   0.000
   67        0.000   0.000   0.000   0.000
   68        0.000   0.000   0.000   0.000
   69        0.000   0.000   0.000   0.000
   70        0.000   0.000   0.000   0.000
   71        0.000   0.000   0.000   0.000
   72        0.000   0.000   0.000   0.000
   73        0.000   0.000   0.000   0.000
   74        0.000   0.000   0.000   0.000
   75        0.000   0.000   0.000   0.000
   76        0.000   0.000   0.000   0.000
   77        0.000   0.000   0.000   0.000
   78        0.000   0.000   0.000   0.000
   79        0.000   0.000   0.000   0.000
   80        0.000   0.000   0.000   0.000
   81        0.000   0.000   0.000   0.000
   82        0.000   0.000   0.000   0.000
   83        0.000   0.000   0.000   0.000
   84        0.000   0.000   0.000   0.000
   85        0.000   0.000   0.000   0.000
   86        0.000   0.000   0.000   0.000
   87        0.000   0.000   0.000   0.000
   88        0.000   0.000   0.000   0.000
   89        0.000   0.000   0.000   0.000
   90        0.000   0.000   0.000   0.000
   91        0.000   0.000   0.000   0.000
   92        0.000   0.000   0.000   0.000
   93        0.000   0.000   0.000   0.000
   94        0.000   0.000   0.000   0.000
   95        0.000   0.000   0.000   0.000
   96        0.000   0.000   0.000   0.000
   97        0.000   0.000   0.000   0.000
   98        0.000   0.000   0.000   0.000
   99        0.000   0.000   0.000   0.000
  100        0.000   0.000   0.000   0.000
  101        0.000   0.000   0.000   0.000
  102        0.000   0.000   0.000   0.000
  103        0.000   0.000   0.000   0.000
  104        0.000   0.000   0.000   0.000
  105        0.000   0.000   0.000   0.000
  106        0.000   0.000   0.000   0.000
  107        0.000   0.000   0.000   0.000
  108        0.000   0.000   0.000   0.000
  109        0.000   0.000   0.000   0.000
  110        0.000   0.000   0.000   0.000
  111        0.000   0.000   0.000   0.000
  112        0.000   0.000   0.000   0.000
--------------------------------------------------
tot          0.000   0.000   0.000   0.000

 BZINTS: Fermi energy:    2.047870;  704.000000 electrons
         Band energy:-0.608996E+04;  BLOECHL correction:   -0.000000

 total amount of memory used by VASP MPI-rank0   652790. kBytes
=======================================================================

   base      :      30000. kBytes
   nonl-proj :     197664. kBytes
   fftplans  :      51245. kBytes
   grid      :     123102. kBytes
   one-center:        688. kBytes
   wavefun   :     250091. kBytes

  
  
 General timing and accounting informations for this job:
 ========================================================
  
                  Total CPU time used (sec):    15172.274
                            User time (sec):    15165.691
                          System time (sec):        6.583
                         Elapsed time (sec):    15181.027
  
                   Maximum memory used (kb):      965148.
                   Average memory used (kb):          N/A
  
                          Minor page faults:      2489259
                          Major page faults:          122
                 Voluntary context switches:        12000
