  79  79   0   0
  0.2352942E+02  0.1210264E-08  0.7093817E-09  0.2165102E-08  0.0000000E+00
   1.0000000000000000E-004
  CAR 
 NEB                                     
      9.00475922    -23.90953697  301      0.88264864      1.00000000
    -23.910  0.0000E+00  0.0000E+00
    -23.800  0.0000E+00  0.0000E+00
    -23.690  0.0000E+00  0.0000E+00
    -23.580 -0.2530E-30 -0.2775E-31
    -23.471 -0.1762E-26 -0.1933E-27
    -23.361 -0.6631E-23 -0.7277E-24
    -23.251 -0.1365E-19 -0.1498E-20
    -23.142 -0.1535E-16 -0.1685E-17
    -23.032 -0.9137E-14 -0.1004E-14
    -22.922 -0.3043E-11 -0.3348E-12
    -22.812 -0.5512E-09 -0.6081E-10
    -22.703 -0.5414E-07 -0.6001E-08
    -22.593 -0.2870E-05 -0.3209E-06
    -22.483 -0.8131E-04 -0.9242E-05
    -22.374 -0.1210E-02 -0.1419E-03
    -22.264 -0.9065E-02 -0.1137E-02
    -22.154 -0.3018E-01 -0.4448E-02
    -22.044 -0.1390E-01 -0.5972E-02
    -21.935  0.1919E+00  0.1508E-01
    -21.825  0.6972E+00  0.9157E-01
    -21.715  0.1406E+01  0.2458E+00
    -21.606  0.1858E+01  0.4497E+00
    -21.496  0.1641E+01  0.6297E+00
    -21.386  0.9761E+00  0.7368E+00
    -21.276  0.3424E+00  0.7744E+00
    -21.167  0.5641E-01  0.7806E+00
    -21.057  0.6187E-02  0.7813E+00
    -20.947 -0.4309E-02  0.7808E+00
    -20.838 -0.5266E-02  0.7802E+00
    -20.728 -0.1713E-02  0.7800E+00
    -20.618 -0.2393E-03  0.7800E+00
    -20.508 -0.1631E-04  0.7800E+00
    -20.399 -0.5726E-06  0.7800E+00
    -20.289 -0.1062E-07  0.7800E+00
    -20.179 -0.1055E-09  0.7800E+00
    -20.070 -0.5657E-12  0.7800E+00
    -19.960 -0.1646E-14  0.7800E+00
    -19.850  0.0000E+00  0.7800E+00
    -19.740  0.0000E+00  0.7800E+00
    -19.631  0.0000E+00  0.7800E+00
    -19.521  0.0000E+00  0.7800E+00
    -19.411  0.0000E+00  0.7800E+00
    -19.302  0.0000E+00  0.7800E+00
    -19.192  0.0000E+00  0.7800E+00
    -19.082  0.0000E+00  0.7800E+00
    -18.972  0.0000E+00  0.7800E+00
    -18.863  0.0000E+00  0.7800E+00
    -18.753  0.0000E+00  0.7800E+00
    -18.643  0.0000E+00  0.7800E+00
    -18.534  0.0000E+00  0.7800E+00
    -18.424  0.0000E+00  0.7800E+00
    -18.314  0.0000E+00  0.7800E+00
    -18.204  0.0000E+00  0.7800E+00
    -18.095  0.0000E+00  0.7800E+00
    -17.985  0.0000E+00  0.7800E+00
    -17.875  0.0000E+00  0.7800E+00
    -17.766  0.0000E+00  0.7800E+00
    -17.656  0.0000E+00  0.7800E+00
    -17.546  0.0000E+00  0.7800E+00
    -17.436  0.0000E+00  0.7800E+00
    -17.327  0.0000E+00  0.7800E+00
    -17.217  0.0000E+00  0.7800E+00
    -17.107  0.0000E+00  0.7800E+00
    -16.998  0.0000E+00  0.7800E+00
    -16.888  0.0000E+00  0.7800E+00
    -16.778  0.0000E+00  0.7800E+00
    -16.668  0.0000E+00  0.7800E+00
    -16.559  0.0000E+00  0.7800E+00
    -16.449  0.0000E+00  0.7800E+00
    -16.339  0.0000E+00  0.7800E+00
    -16.230  0.0000E+00  0.7800E+00
    -16.120  0.0000E+00  0.7800E+00
    -16.010  0.0000E+00  0.7800E+00
    -15.900  0.0000E+00  0.7800E+00
    -15.791  0.0000E+00  0.7800E+00
    -15.681  0.0000E+00  0.7800E+00
    -15.571  0.0000E+00  0.7800E+00
    -15.462  0.0000E+00  0.7800E+00
    -15.352  0.0000E+00  0.7800E+00
    -15.242  0.0000E+00  0.7800E+00
    -15.132  0.0000E+00  0.7800E+00
    -15.023  0.0000E+00  0.7800E+00
    -14.913  0.0000E+00  0.7800E+00
    -14.803  0.0000E+00  0.7800E+00
    -14.694  0.0000E+00  0.7800E+00
    -14.584  0.0000E+00  0.7800E+00
    -14.474  0.0000E+00  0.7800E+00
    -14.364  0.0000E+00  0.7800E+00
    -14.255  0.0000E+00  0.7800E+00
    -14.145  0.0000E+00  0.7800E+00
    -14.035  0.0000E+00  0.7800E+00
    -13.926  0.0000E+00  0.7800E+00
    -13.816  0.0000E+00  0.7800E+00
    -13.706  0.0000E+00  0.7800E+00
    -13.596  0.0000E+00  0.7800E+00
    -13.487  0.0000E+00  0.7800E+00
    -13.377  0.0000E+00  0.7800E+00
    -13.267  0.0000E+00  0.7800E+00
    -13.158  0.0000E+00  0.7800E+00
    -13.048  0.0000E+00  0.7800E+00
    -12.938  0.0000E+00  0.7800E+00
    -12.828  0.0000E+00  0.7800E+00
    -12.719  0.0000E+00  0.7800E+00
    -12.609  0.0000E+00  0.7800E+00
    -12.499  0.0000E+00  0.7800E+00
    -12.390  0.0000E+00  0.7800E+00
    -12.280 -0.4468E-32  0.7800E+00
    -12.170 -0.3618E-28  0.7800E+00
    -12.060 -0.1576E-24  0.7800E+00
    -11.951 -0.3751E-21  0.7800E+00
    -11.841 -0.4877E-18  0.7800E+00
    -11.731 -0.3362E-15  0.7800E+00
    -11.622 -0.1296E-12  0.7800E+00
    -11.512 -0.2723E-10  0.7800E+00
    -11.402 -0.3115E-08  0.7800E+00
    -11.292 -0.1934E-06  0.7800E+00
    -11.183 -0.6473E-05  0.7800E+00
    -11.073 -0.1152E-03  0.7800E+00
    -10.963 -0.1051E-02  0.7799E+00
    -10.854 -0.4379E-02  0.7794E+00
    -10.744 -0.3587E-02  0.7790E+00
    -10.634  0.3045E-01  0.7823E+00
    -10.524  0.1067E+00  0.7940E+00
    -10.415  0.1570E+00  0.8113E+00
    -10.305  0.1293E+00  0.8255E+00
    -10.195  0.5955E-01  0.8320E+00
    -10.086  0.1047E-02  0.8321E+00
     -9.976  0.2700E-02  0.8324E+00
     -9.866  0.1199E+00  0.8456E+00
     -9.756  0.3300E+00  0.8818E+00
     -9.647  0.4630E+00  0.9325E+00
     -9.537  0.3828E+00  0.9745E+00
     -9.427  0.1723E+00  0.9934E+00
     -9.318  0.2132E-01  0.9958E+00
     -9.208 -0.1444E-01  0.9942E+00
     -9.098 -0.6684E-02  0.9935E+00
     -8.988 -0.1157E-02  0.9933E+00
     -8.879 -0.9805E-04  0.9933E+00
     -8.769 -0.4334E-05  0.9933E+00
     -8.659 -0.1022E-06  0.9933E+00
     -8.550 -0.1297E-08  0.9933E+00
     -8.440 -0.8919E-11  0.9933E+00
     -8.330 -0.3330E-13  0.9933E+00
     -8.220 -0.6746E-16  0.9933E+00
     -8.111  0.0000E+00  0.9933E+00
     -8.001  0.0000E+00  0.9933E+00
     -7.891  0.0000E+00  0.9933E+00
     -7.782  0.0000E+00  0.9933E+00
     -7.672  0.0000E+00  0.9933E+00
     -7.562  0.0000E+00  0.9933E+00
     -7.452  0.0000E+00  0.9933E+00
     -7.343  0.0000E+00  0.9933E+00
     -7.233  0.0000E+00  0.9933E+00
     -7.123  0.0000E+00  0.9933E+00
     -7.014  0.0000E+00  0.9933E+00
     -6.904  0.0000E+00  0.9933E+00
     -6.794  0.0000E+00  0.9933E+00
     -6.684  0.0000E+00  0.9933E+00
     -6.575  0.0000E+00  0.9933E+00
     -6.465  0.0000E+00  0.9933E+00
     -6.355  0.0000E+00  0.9933E+00
     -6.246  0.0000E+00  0.9933E+00
     -6.136  0.0000E+00  0.9933E+00
     -6.026  0.0000E+00  0.9933E+00
     -5.916  0.0000E+00  0.9933E+00
     -5.807  0.0000E+00  0.9933E+00
     -5.697  0.0000E+00  0.9933E+00
     -5.587  0.0000E+00  0.9933E+00
     -5.478  0.0000E+00  0.9933E+00
     -5.368  0.0000E+00  0.9933E+00
     -5.258  0.0000E+00  0.9933E+00
     -5.148  0.0000E+00  0.9933E+00
     -5.039  0.0000E+00  0.9933E+00
     -4.929 -0.7642E-30  0.9933E+00
     -4.819 -0.4318E-26  0.9933E+00
     -4.710 -0.1328E-22  0.9933E+00
     -4.600 -0.2225E-19  0.9933E+00
     -4.490 -0.2032E-16  0.9933E+00
     -4.380 -0.9769E-14  0.9933E+00
     -4.271 -0.2624E-11  0.9933E+00
     -4.161 -0.3822E-09  0.9933E+00
     -4.051 -0.3014E-07  0.9933E+00
     -3.942 -0.1283E-05  0.9933E+00
     -3.832 -0.2926E-04  0.9933E+00
     -3.722 -0.3519E-03  0.9933E+00
     -3.612 -0.2118E-02  0.9931E+00
     -3.503 -0.5041E-02  0.9925E+00
     -3.393  0.5790E-02  0.9931E+00
     -3.283  0.5793E-01  0.9995E+00
     -3.174  0.1288E+00  0.1014E+01
     -3.064  0.1428E+00  0.1029E+01
     -2.954  0.9884E-01  0.1040E+01
     -2.844  0.5053E-01  0.1046E+01
     -2.735  0.1404E-01  0.1047E+01
     -2.625 -0.2035E-02  0.1047E+01
     -2.515 -0.2405E-02  0.1047E+01
     -2.406 -0.5795E-03  0.1047E+01
     -2.296 -0.8406E-04  0.1047E+01
     -2.186 -0.3320E-03  0.1047E+01
     -2.076 -0.2497E-02  0.1046E+01
     -1.967 -0.8408E-02  0.1045E+01
     -1.857 -0.1663E-02  0.1045E+01
     -1.747  0.6739E-01  0.1053E+01
     -1.638  0.1984E+00  0.1074E+01
     -1.528  0.2847E+00  0.1106E+01
     -1.418  0.2786E+00  0.1136E+01
     -1.308  0.2525E+00  0.1164E+01
     -1.199  0.2236E+00  0.1188E+01
     -1.089  0.1381E+00  0.1204E+01
     -0.979  0.3188E-01  0.1207E+01
     -0.870 -0.1240E-01  0.1206E+01
     -0.760  0.3994E-01  0.1210E+01
     -0.650  0.1653E+00  0.1228E+01
     -0.540  0.2427E+00  0.1255E+01
     -0.431  0.2260E+00  0.1280E+01
     -0.321  0.2090E+00  0.1303E+01
     -0.211  0.2302E+00  0.1328E+01
     -0.102  0.2590E+00  0.1356E+01
      0.008  0.2542E+00  0.1384E+01
      0.118  0.2330E+00  0.1410E+01
      0.228  0.2534E+00  0.1438E+01
      0.337  0.2989E+00  0.1470E+01
      0.447  0.3495E+00  0.1509E+01
      0.557  0.3829E+00  0.1551E+01
      0.666  0.3428E+00  0.1588E+01
      0.776  0.2467E+00  0.1615E+01
      0.886  0.1358E+00  0.1630E+01
      0.996  0.3971E-01  0.1635E+01
      1.105 -0.3707E-02  0.1634E+01
      1.215 -0.6170E-02  0.1634E+01
      1.325 -0.1687E-02  0.1633E+01
      1.434 -0.2082E-03  0.1633E+01
      1.544 -0.1311E-04  0.1633E+01
      1.654 -0.4376E-06  0.1633E+01
      1.764 -0.7861E-08  0.1633E+01
      1.873 -0.7657E-10  0.1633E+01
      1.983 -0.4058E-12  0.1633E+01
      2.093 -0.1174E-14  0.1633E+01
      2.202 -0.2570E-20  0.1633E+01
      2.312 -0.2801E-17  0.1633E+01
      2.422 -0.1608E-14  0.1633E+01
      2.532 -0.5123E-12  0.1633E+01
      2.641 -0.8806E-10  0.1633E+01
      2.751 -0.8114E-08  0.1633E+01
      2.861 -0.3970E-06  0.1633E+01
      2.970 -0.1013E-04  0.1633E+01
      3.080 -0.1300E-03  0.1633E+01
      3.190 -0.7607E-03  0.1633E+01
      3.300 -0.1251E-02  0.1633E+01
      3.409  0.4751E-02  0.1634E+01
      3.519  0.2047E-01  0.1636E+01
      3.629  0.2636E-01  0.1639E+01
      3.738  0.1253E-01  0.1640E+01
      3.848  0.3852E-03  0.1640E+01
      3.958 -0.2078E-02  0.1640E+01
      4.068 -0.2907E-02  0.1640E+01
      4.177  0.1792E-02  0.1640E+01
      4.287  0.2670E-01  0.1643E+01
      4.397  0.5265E-01  0.1649E+01
      4.506  0.3920E-01  0.1653E+01
      4.616  0.8070E-02  0.1654E+01
      4.726 -0.5065E-02  0.1653E+01
      4.836 -0.2927E-02  0.1653E+01
      4.945  0.1896E-01  0.1655E+01
      5.055  0.5537E-01  0.1661E+01
      5.165  0.7111E-01  0.1669E+01
      5.274  0.7767E-01  0.1677E+01
      5.384  0.1053E+00  0.1689E+01
      5.494  0.1445E+00  0.1705E+01
      5.604  0.1880E+00  0.1725E+01
      5.713  0.2086E+00  0.1748E+01
      5.823  0.1853E+00  0.1769E+01
      5.933  0.1428E+00  0.1784E+01
      6.042  0.1232E+00  0.1798E+01
      6.152  0.1382E+00  0.1813E+01
      6.262  0.1572E+00  0.1830E+01
      6.372  0.1489E+00  0.1846E+01
      6.481  0.1402E+00  0.1862E+01
      6.591  0.1701E+00  0.1881E+01
      6.701  0.1972E+00  0.1902E+01
      6.810  0.1952E+00  0.1924E+01
      6.920  0.1775E+00  0.1943E+01
      7.030  0.1203E+00  0.1956E+01
      7.140  0.4153E-01  0.1961E+01
      7.249 -0.5957E-03  0.1961E+01
      7.359 -0.5159E-02  0.1960E+01
      7.469 -0.1591E-02  0.1960E+01
      7.578 -0.2155E-03  0.1960E+01
      7.688 -0.1485E-04  0.1960E+01
      7.798 -0.5425E-06  0.1960E+01
      7.908 -0.1066E-07  0.1960E+01
      8.017 -0.1134E-09  0.1960E+01
      8.127 -0.6547E-12  0.1960E+01
      8.237 -0.2051E-14  0.1960E+01
      8.346  0.0000E+00  0.1960E+01
      8.456  0.0000E+00  0.1960E+01
      8.566  0.0000E+00  0.1960E+01
      8.676  0.0000E+00  0.1960E+01
      8.785  0.0000E+00  0.1960E+01
      8.895  0.0000E+00  0.1960E+01
      9.005  0.0000E+00  0.1960E+01
