   6   6   0   0
  0.1820947E+02  0.3620753E-09  0.3620753E-09  0.9623210E-09  0.5000000E-15
   1.0000000000000000E-004
  CAR 
 unknown system                          
     19.91306789    -19.82137112  301      6.67818803      1.00000000
    -19.821  0.0000E+00  0.0000E+00
    -19.689  0.0000E+00  0.0000E+00
    -19.556  0.0000E+00  0.0000E+00
    -19.424  0.0000E+00  0.0000E+00
    -19.292  0.0000E+00  0.0000E+00
    -19.159  0.0000E+00  0.0000E+00
    -19.027  0.0000E+00  0.0000E+00
    -18.894  0.0000E+00  0.0000E+00
    -18.762  0.0000E+00  0.0000E+00
    -18.629  0.0000E+00  0.0000E+00
    -18.497  0.0000E+00  0.0000E+00
    -18.364  0.0000E+00  0.0000E+00
    -18.232  0.1500E-10  0.1987E-11
    -18.100  0.6040E-03  0.8001E-04
    -17.967  0.2683E+00  0.3561E-01
    -17.835  0.1841E+00  0.5999E-01
    -17.702  0.7956E-04  0.6000E-01
    -17.570  0.1592E-12  0.6000E-01
    -17.437  0.0000E+00  0.6000E-01
    -17.305  0.0000E+00  0.6000E-01
    -17.172  0.0000E+00  0.6000E-01
    -17.040  0.0000E+00  0.6000E-01
    -16.908  0.0000E+00  0.6000E-01
    -16.775  0.0000E+00  0.6000E-01
    -16.643  0.0000E+00  0.6000E-01
    -16.510  0.0000E+00  0.6000E-01
    -16.378  0.0000E+00  0.6000E-01
    -16.245  0.0000E+00  0.6000E-01
    -16.113  0.0000E+00  0.6000E-01
    -15.980  0.0000E+00  0.6000E-01
    -15.848  0.0000E+00  0.6000E-01
    -15.715  0.0000E+00  0.6000E-01
    -15.583  0.0000E+00  0.6000E-01
    -15.451  0.0000E+00  0.6000E-01
    -15.318  0.0000E+00  0.6000E-01
    -15.186  0.0000E+00  0.6000E-01
    -15.053  0.0000E+00  0.6000E-01
    -14.921  0.0000E+00  0.6000E-01
    -14.788  0.0000E+00  0.6000E-01
    -14.656  0.0000E+00  0.6000E-01
    -14.523  0.0000E+00  0.6000E-01
    -14.391  0.0000E+00  0.6000E-01
    -14.259  0.0000E+00  0.6000E-01
    -14.126  0.0000E+00  0.6000E-01
    -13.994  0.0000E+00  0.6000E-01
    -13.861  0.0000E+00  0.6000E-01
    -13.729  0.0000E+00  0.6000E-01
    -13.596  0.0000E+00  0.6000E-01
    -13.464  0.0000E+00  0.6000E-01
    -13.331  0.0000E+00  0.6000E-01
    -13.199  0.0000E+00  0.6000E-01
    -13.067  0.0000E+00  0.6000E-01
    -12.934  0.0000E+00  0.6000E-01
    -12.802  0.0000E+00  0.6000E-01
    -12.669  0.0000E+00  0.6000E-01
    -12.537  0.0000E+00  0.6000E-01
    -12.404  0.0000E+00  0.6000E-01
    -12.272  0.0000E+00  0.6000E-01
    -12.139  0.0000E+00  0.6000E-01
    -12.007  0.0000E+00  0.6000E-01
    -11.874  0.0000E+00  0.6000E-01
    -11.742  0.0000E+00  0.6000E-01
    -11.610  0.0000E+00  0.6000E-01
    -11.477  0.0000E+00  0.6000E-01
    -11.345  0.0000E+00  0.6000E-01
    -11.212  0.0000E+00  0.6000E-01
    -11.080  0.0000E+00  0.6000E-01
    -10.947  0.0000E+00  0.6000E-01
    -10.815  0.0000E+00  0.6000E-01
    -10.682  0.0000E+00  0.6000E-01
    -10.550  0.0000E+00  0.6000E-01
    -10.418  0.0000E+00  0.6000E-01
    -10.285  0.0000E+00  0.6000E-01
    -10.153  0.0000E+00  0.6000E-01
    -10.020  0.0000E+00  0.6000E-01
     -9.888  0.0000E+00  0.6000E-01
     -9.755  0.0000E+00  0.6000E-01
     -9.623  0.4305E-14  0.6000E-01
     -9.490  0.1675E-05  0.6000E-01
     -9.358  0.2530E-02  0.6034E-01
     -9.226  0.1663E-02  0.6056E-01
     -9.093  0.4146E-02  0.6110E-01
     -8.961  0.2092E-01  0.6388E-01
     -8.828  0.9862E-04  0.6389E-01
     -8.696  0.2567E-10  0.6389E-01
     -8.563  0.2553E-03  0.6392E-01
     -8.431  0.2275E-01  0.6694E-01
     -8.298  0.5014E-02  0.6760E-01
     -8.166  0.2513E-01  0.7093E-01
     -8.033  0.1625E-01  0.7308E-01
     -7.901  0.1029E-01  0.7444E-01
     -7.769  0.1338E-04  0.7444E-01
     -7.636  0.5905E-02  0.7523E-01
     -7.504  0.6939E-01  0.8442E-01
     -7.371  0.3151E-01  0.8859E-01
     -7.239  0.1761E-01  0.9092E-01
     -7.106  0.2447E-01  0.9416E-01
     -6.974  0.4081E-01  0.9957E-01
     -6.841  0.7554E-01  0.1096E+00
     -6.709  0.7308E-01  0.1193E+00
     -6.577  0.5623E-02  0.1200E+00
     -6.444  0.1475E-07  0.1200E+00
     -6.312  0.0000E+00  0.1200E+00
     -6.179  0.0000E+00  0.1200E+00
     -6.047  0.0000E+00  0.1200E+00
     -5.914  0.0000E+00  0.1200E+00
     -5.782  0.0000E+00  0.1200E+00
     -5.649  0.0000E+00  0.1200E+00
     -5.517  0.0000E+00  0.1200E+00
     -5.385  0.0000E+00  0.1200E+00
     -5.252  0.0000E+00  0.1200E+00
     -5.120  0.0000E+00  0.1200E+00
     -4.987  0.0000E+00  0.1200E+00
     -4.855  0.0000E+00  0.1200E+00
     -4.722  0.0000E+00  0.1200E+00
     -4.590  0.0000E+00  0.1200E+00
     -4.457  0.0000E+00  0.1200E+00
     -4.325  0.0000E+00  0.1200E+00
     -4.192  0.0000E+00  0.1200E+00
     -4.060  0.0000E+00  0.1200E+00
     -3.928  0.0000E+00  0.1200E+00
     -3.795  0.0000E+00  0.1200E+00
     -3.663  0.0000E+00  0.1200E+00
     -3.530  0.0000E+00  0.1200E+00
     -3.398  0.0000E+00  0.1200E+00
     -3.265  0.0000E+00  0.1200E+00
     -3.133  0.4872E-11  0.1200E+00
     -3.000  0.7725E-04  0.1200E+00
     -2.868  0.1063E-01  0.1214E+00
     -2.736  0.1872E-02  0.1217E+00
     -2.603  0.2329E-04  0.1217E+00
     -2.471  0.3281E-01  0.1260E+00
     -2.338  0.2764E-01  0.1297E+00
     -2.206  0.6642E-02  0.1306E+00
     -2.073  0.1095E-01  0.1320E+00
     -1.941  0.1631E-01  0.1342E+00
     -1.808  0.1015E-01  0.1355E+00
     -1.676  0.3635E-01  0.1403E+00
     -1.544  0.6098E-01  0.1484E+00
     -1.411  0.7838E-02  0.1494E+00
     -1.279  0.4046E-04  0.1494E+00
     -1.146  0.1219E-04  0.1494E+00
     -1.014  0.1575E-01  0.1515E+00
     -0.881  0.2669E-01  0.1551E+00
     -0.749  0.9874E-02  0.1564E+00
     -0.616  0.1041E-01  0.1578E+00
     -0.484  0.1932E-03  0.1578E+00
     -0.351  0.1509E-01  0.1598E+00
     -0.219  0.3584E-01  0.1645E+00
     -0.087  0.1192E-01  0.1661E+00
      0.046  0.2499E-01  0.1694E+00
      0.178  0.8628E-02  0.1706E+00
      0.311  0.8460E-02  0.1717E+00
      0.443  0.1503E-01  0.1737E+00
      0.576  0.7946E-02  0.1747E+00
      0.708  0.1530E-02  0.1749E+00
      0.841  0.6377E-01  0.1834E+00
      0.973  0.2586E-01  0.1868E+00
      1.105  0.1314E-01  0.1885E+00
      1.238  0.1516E-01  0.1905E+00
      1.370  0.2811E-01  0.1943E+00
      1.503  0.4001E-01  0.1996E+00
      1.635  0.3188E-01  0.2038E+00
      1.768  0.2750E-01  0.2074E+00
      1.900  0.4916E-01  0.2139E+00
      2.033  0.3533E-01  0.2186E+00
      2.165  0.2771E-01  0.2223E+00
      2.297  0.2496E-01  0.2256E+00
      2.430  0.6679E-01  0.2344E+00
      2.562  0.3337E-01  0.2389E+00
      2.695  0.2542E-01  0.2422E+00
      2.827  0.7240E-01  0.2518E+00
      2.960  0.4851E-01  0.2582E+00
      3.092  0.3675E-01  0.2631E+00
      3.225  0.2111E-01  0.2659E+00
      3.357  0.2295E-01  0.2689E+00
      3.489  0.1940E-01  0.2715E+00
      3.622  0.8639E-01  0.2830E+00
      3.754  0.4316E-01  0.2887E+00
      3.887  0.2870E-01  0.2925E+00
      4.019  0.3877E-01  0.2976E+00
      4.152  0.2271E-01  0.3006E+00
      4.284  0.1095E-01  0.3021E+00
      4.417  0.1871E-01  0.3045E+00
      4.549  0.3416E-02  0.3050E+00
      4.682  0.8254E-07  0.3050E+00
      4.814  0.2093E-12  0.3050E+00
      4.946  0.3549E-04  0.3050E+00
      5.079  0.1950E-01  0.3076E+00
      5.211  0.9766E-02  0.3089E+00
      5.344  0.2302E-01  0.3119E+00
      5.476  0.1108E-03  0.3119E+00
      5.609  0.2079E-09  0.3119E+00
      5.741  0.3647E-03  0.3120E+00
      5.874  0.9931E-02  0.3133E+00
      6.006  0.2468E-01  0.3166E+00
      6.138  0.3271E-01  0.3209E+00
      6.271  0.7812E-02  0.3219E+00
      6.403  0.1547E-02  0.3221E+00
      6.536  0.5594E-02  0.3229E+00
      6.668  0.4972E-01  0.3295E+00
      6.801  0.3382E-01  0.3340E+00
      6.933  0.2868E-01  0.3378E+00
      7.066  0.2503E-02  0.3381E+00
      7.198  0.1259E-01  0.3398E+00
      7.330  0.1868E-02  0.3400E+00
      7.463  0.1217E-04  0.3400E+00
      7.595  0.2709E-02  0.3404E+00
      7.728  0.1474E-02  0.3406E+00
      7.860  0.4523E-06  0.3406E+00
      7.993  0.9964E-04  0.3406E+00
      8.125  0.1149E-01  0.3421E+00
      8.258  0.2192E-01  0.3450E+00
      8.390  0.2269E-01  0.3480E+00
      8.523  0.3394E-01  0.3525E+00
      8.655  0.3652E-01  0.3573E+00
      8.787  0.1817E-01  0.3597E+00
      8.920  0.3657E-01  0.3646E+00
      9.052  0.4327E-01  0.3703E+00
      9.185  0.6659E-01  0.3791E+00
      9.317  0.5453E-01  0.3864E+00
      9.450  0.1430E-01  0.3882E+00
      9.582  0.5401E-01  0.3954E+00
      9.715  0.6515E-01  0.4040E+00
      9.847  0.2480E-01  0.4073E+00
      9.979  0.4807E-01  0.4137E+00
     10.112  0.2239E-01  0.4166E+00
     10.244  0.1672E-01  0.4189E+00
     10.377  0.3902E-01  0.4240E+00
     10.509  0.3576E-01  0.4288E+00
     10.642  0.1502E-01  0.4308E+00
     10.774  0.6431E-01  0.4393E+00
     10.907  0.2762E-01  0.4429E+00
     11.039  0.2490E-01  0.4462E+00
     11.171  0.2816E-01  0.4500E+00
     11.304  0.6447E-01  0.4585E+00
     11.436  0.6054E-01  0.4665E+00
     11.569  0.2767E-01  0.4702E+00
     11.701  0.4369E-01  0.4760E+00
     11.834  0.2704E-01  0.4795E+00
     11.966  0.4951E-01  0.4861E+00
     12.099  0.9003E-02  0.4873E+00
     12.231  0.1929E-01  0.4899E+00
     12.364  0.2416E-01  0.4931E+00
     12.496  0.3812E-01  0.4981E+00
     12.628  0.5732E-01  0.5057E+00
     12.761  0.5669E-02  0.5064E+00
     12.893  0.2586E-01  0.5099E+00
     13.026  0.4393E-01  0.5157E+00
     13.158  0.1289E-01  0.5174E+00
     13.291  0.2980E-01  0.5213E+00
     13.423  0.3281E-01  0.5257E+00
     13.556  0.3178E-01  0.5299E+00
     13.688  0.4887E-01  0.5364E+00
     13.820  0.2019E-01  0.5390E+00
     13.953  0.3728E-01  0.5440E+00
     14.085  0.2648E-01  0.5475E+00
     14.218  0.4187E-01  0.5530E+00
     14.350  0.2767E-01  0.5567E+00
     14.483  0.2052E-01  0.5594E+00
     14.615  0.3471E-01  0.5640E+00
     14.748  0.2701E-01  0.5676E+00
     14.880  0.1337E-01  0.5694E+00
     15.012  0.5449E-01  0.5766E+00
     15.145  0.2436E-01  0.5798E+00
     15.277  0.4737E-01  0.5861E+00
     15.410  0.7040E-01  0.5954E+00
     15.542  0.3451E-01  0.6000E+00
     15.675  0.4890E-01  0.6065E+00
     15.807  0.9827E-02  0.6078E+00
     15.940  0.5345E-03  0.6078E+00
     16.072  0.2288E-01  0.6109E+00
     16.205  0.2431E-01  0.6141E+00
     16.337  0.4014E-01  0.6194E+00
     16.469  0.2335E-01  0.6225E+00
     16.602  0.2256E-02  0.6228E+00
     16.734  0.1485E-01  0.6247E+00
     16.867  0.9959E-02  0.6261E+00
     16.999  0.1916E-01  0.6286E+00
     17.132  0.1949E-02  0.6289E+00
     17.264  0.1467E-01  0.6308E+00
     17.397  0.1377E-02  0.6310E+00
     17.529  0.1413E-01  0.6329E+00
     17.661  0.4611E-01  0.6390E+00
     17.794  0.1487E-02  0.6392E+00
     17.926  0.1997E-08  0.6392E+00
     18.059  0.5446E-03  0.6392E+00
     18.191  0.5693E-02  0.6400E+00
     18.324  0.5388E-04  0.6400E+00
     18.456  0.2762E-11  0.6400E+00
     18.589  0.0000E+00  0.6400E+00
     18.721  0.0000E+00  0.6400E+00
     18.853  0.0000E+00  0.6400E+00
     18.986  0.0000E+00  0.6400E+00
     19.118  0.0000E+00  0.6400E+00
     19.251  0.0000E+00  0.6400E+00
     19.383  0.0000E+00  0.6400E+00
     19.516  0.0000E+00  0.6400E+00
     19.648  0.0000E+00  0.6400E+00
     19.781  0.0000E+00  0.6400E+00
     19.913  0.0000E+00  0.6400E+00
