 vasp.6.3.2 27Jun22 (build Mar 25 2024 10:42:18) complex                         
 executed on             LinuxGNU date 2024.03.31  17:28:48
 running on   32 total cores
 distrk:  each k-point on   32 cores,    1 groups
 distr:  one band on NCORE=   1 cores,   32 groups


--------------------------------------------------------------------------------------------------------


 INCAR:
   ISTART = 0
   ICHARG = 2
   PREC = Accurate
   IBRION = -1
   EDIFF = 0.000000001
   EDIFFG = -0.0005
   NSW = 0
   NELM = 100
   ENCUT = 520
   ISMEAR = -5
   SIGMA = 0.05
   ISPIN = 2
   ISYM = 0
   LWAVE = False
   LCHARG = False
   LASPH = True
   LORBIT = 11
   ADDGRID = TRUE

 POTCAR:    PAW_PBE S 06Sep2000                   
 -----------------------------------------------------------------------------
|                                                                             |
|           W    W    AA    RRRRR   N    N  II  N    N   GGGG   !!!           |
|           W    W   A  A   R    R  NN   N  II  NN   N  G    G  !!!           |
|           W    W  A    A  R    R  N N  N  II  N N  N  G       !!!           |
|           W WW W  AAAAAA  RRRRR   N  N N  II  N  N N  G  GGG   !            |
|           WW  WW  A    A  R   R   N   NN  II  N   NN  G    G                |
|           W    W  A    A  R    R  N    N  II  N    N   GGGG   !!!           |
|                                                                             |
|     You use a magnetic or noncollinear calculation, but did not specify     |
|     the initial magnetic moment with the MAGMOM tag. Note that a            |
|     default of 1 will be used for all atoms. This ferromagnetic setup       |
|     may break the symmetry of the crystal, in particular it may rule        |
|     out finding an antiferromagnetic solution. Thence, we recommend         |
|     setting the initial magnetic moment manually or verifying carefully     |
|     that this magnetic setup is desired.                                    |
|                                                                             |
 -----------------------------------------------------------------------------

 -----------------------------------------------------------------------------
|                                                                             |
|           W    W    AA    RRRRR   N    N  II  N    N   GGGG   !!!           |
|           W    W   A  A   R    R  NN   N  II  NN   N  G    G  !!!           |
|           W    W  A    A  R    R  N N  N  II  N N  N  G       !!!           |
|           W WW W  AAAAAA  RRRRR   N  N N  II  N  N N  G  GGG   !            |
|           WW  WW  A    A  R   R   N   NN  II  N   NN  G    G                |
|           W    W  A    A  R    R  N    N  II  N    N   GGGG   !!!           |
|                                                                             |
|     For optimal performance we recommend to set                             |
|       NCORE = 2 up to number-of-cores-per-socket                            |
|     NCORE specifies how many cores store one orbital (NPAR=cpu/NCORE).      |
|     This setting can greatly improve the performance of VASP for DFT.       |
|     The default, NCORE=1 might be grossly inefficient on modern             |
|     multi-core architectures or massively parallel machines. Do your        |
|     own testing! More info at https://www.vasp.at/wiki/index.php/NCORE      |
|     Unfortunately you need to use the default for GW and RPA                |
|     calculations (for HF NCORE is supported but not extensively tested      |
|     yet).                                                                   |
|                                                                             |
 -----------------------------------------------------------------------------

 POTCAR:    PAW_PBE S 06Sep2000                   
   SHA256 =  0fc7481fb0695f01bdc6462160264c5c84044ae9ec85a907d398b887a2bc3132 S/POTCAR              
   COPYR  = (c) Copyright 06Sep2000 Georg Kresse                                                    
   COPYR  = This file is part of the software VASP. Any use, copying, and all other rights are regul
   COPYR  = If you do not have a valid VASP license, you may not use, copy or distribute this file. 
   VRHFIN =S : s2p4                                                                                 
   LEXCH  = PE                                                                                      
   EATOM  =   276.8230 eV,   20.3459 Ry                                                             
                                                                                                    
   TITEL  = PAW_PBE S 06Sep2000                                                                     
   LULTRA =        F    use ultrasoft PP ?                                                          
   IUNSCR =        1    unscreen: 0-lin 1-nonlin 2-no                                               
   RPACOR =    1.500    partial core radius                                                         
   POMASS =   32.066; ZVAL   =    6.000    mass and valenz                                          
   RCORE  =    1.900    outmost cutoff radius                                                       
   RWIGS  =    2.200; RWIGS  =    1.164    wigner-seitz radius (au A)                               
   ENMAX  =  258.689; ENMIN  =  194.016 eV                                                          
   ICORE  =        2    local potential                                                             
   LCOR   =        T    correct aug charges                                                         
   LPAW   =        T    paw PP                                                                      
   EAUG   =  335.092                                                                                
   DEXC   =    0.000                                                                                
   RMAX   =    1.942    core radius for proj-oper                                                   
   RAUG   =    1.300    factor for augmentation sphere                                              
   RDEP   =    1.954    radius for radial grids                                                     
   RDEPT  =    1.744    core radius for aug-charge                                                  
                                                                                                    
   Atomic configuration                                                                             
    6 entries                                                                                       
     n  l   j            E        occ.                                                              
     1  0  0.50     -2405.8406   2.0000                                                             
     2  0  0.50      -211.7007   2.0000                                                             
     2  1  1.50      -156.4958   6.0000                                                             
     3  0  0.50       -17.2562   2.0000                                                             
     3  1  0.50        -7.0085   4.0000                                                             
     3  2  1.50        -6.8029   0.0000                                                             
   Description                                                                                      
     l       E           TYP  RCUT    TYP  RCUT                                                     
     0    -17.2561641     23  1.900                                                                 
     0    -15.8743224     23  1.900                                                                 
     1     -7.0085400     23  1.900                                                                 
     1     -2.7779785     23  1.900                                                                 
     2     -6.8029130     23  1.900                                                                 
  local pseudopotential read in
  partial core-charges read in
  partial kinetic energy density read in
  atomic valenz-charges read in
  non local Contribution for L=           0  read in
    real space projection operators read in
  non local Contribution for L=           0  read in
    real space projection operators read in
  non local Contribution for L=           1  read in
    real space projection operators read in
  non local Contribution for L=           1  read in
    real space projection operators read in
    PAW grid and wavefunctions read in

   number of l-projection  operators is LMAX  =           4
   number of lm-projection operators is LMMAX =           8

 -----------------------------------------------------------------------------
|                                                                             |
|               ----> ADVICE to this user running VASP <----                  |
|                                                                             |
|     You have a (more or less) 'large supercell' and for larger cells it     |
|     might be more efficient to use real-space projection operators.         |
|     Therefore, try LREAL= Auto in the INCAR file.                           |
|     Mind: For very accurate calculation, you might also keep the            |
|     reciprocal projection scheme (i.e. LREAL=.FALSE.).                      |
|                                                                             |
 -----------------------------------------------------------------------------

  PAW_PBE S 06Sep2000                   :
 energy of atom  1       EATOM= -276.8230
 kinetic energy error for atom=    0.0016 (will be added to EATOM!!)


 POSCAR: generated by phonopy
  positions in direct lattice
  No initial velocities read in
 exchange correlation table for  LEXCH =        8
   RHO(1)=    0.500       N(1)  =     2000
   RHO(2)=  100.500       N(2)  =     4000



--------------------------------------------------------------------------------------------------------


 ion  position               nearest neighbor table
   1  0.886  0.467  0.678-  45 1.98  24 2.13
   2  0.886  0.967  0.678-  46 1.98  23 2.13
   3  0.330  0.189  0.551-  41 2.05  19 2.13
   4  0.330  0.689  0.551-  42 2.05  20 2.13
   5  0.913  0.105  0.912-  51 1.98  11 2.13
   6  0.913  0.605  0.912-  52 1.98  12 2.13
   7  0.240  0.301  0.777-  19 1.98  37 2.23
   8  0.240  0.801  0.777-  20 1.98  38 2.23
   9  0.144  0.306  0.224-  31 2.05  39 2.13
  10  0.144  0.806  0.224-  32 2.05  40 2.13
  11  0.856  0.194  0.776-  47 2.05   5 2.13
  12  0.856  0.694  0.776-  48 2.05   6 2.13
  13  0.760  0.199  0.223-  27 1.98  33 2.24
  14  0.760  0.699  0.223-  28 1.98  34 2.23
  15  0.170  0.439  0.449-  31 2.05  30 2.13
  16  0.170  0.939  0.449-  32 2.05  29 2.13
  17  0.413  0.145  0.912-  37 1.98  43 2.13
  18  0.413  0.645  0.912-  38 1.98  44 2.13
  19  0.386  0.283  0.678-   7 1.98   3 2.13
  20  0.386  0.783  0.678-   8 1.98   4 2.13
  21  0.644  0.444  0.224-  53 2.05  35 2.13
  22  0.644  0.944  0.224-  54 2.05  36 2.13
  23  0.830  0.061  0.551-  47 2.05   2 2.13
  24  0.830  0.561  0.551-  48 2.05   1 2.13
  25  0.260  0.051  0.223-  29 1.98  50 2.23
  26  0.260  0.551  0.223-  30 1.98  49 2.23
  27  0.614  0.217  0.322-  13 1.98  55 2.13
  28  0.614  0.717  0.322-  14 1.98  56 2.13
  29  0.114  0.033  0.322-  25 1.98  16 2.13
  30  0.114  0.533  0.322-  26 1.98  15 2.13
  31  0.060  0.345  0.374-   9 2.05  15 2.05
  32  0.060  0.845  0.374-  10 2.05  16 2.05
  33  0.743  0.290  0.071-  35 1.97  13 2.24
  34  0.743  0.789  0.071-  36 1.98  14 2.23
  35  0.587  0.355  0.088-  33 1.97  21 2.13
  36  0.587  0.855  0.088-  34 1.98  22 2.13
  37  0.257  0.211  0.929-  17 1.98   7 2.23
  38  0.257  0.711  0.929-  18 1.98   8 2.23
  39  0.087  0.395  0.088-  49 1.98   9 2.13
  40  0.087  0.895  0.088-  50 1.98  10 2.13
  41  0.440  0.095  0.626-  43 2.05   3 2.05
  42  0.440  0.595  0.626-  44 2.05   4 2.05
  43  0.356  0.056  0.776-  41 2.05  17 2.13
  44  0.356  0.556  0.776-  42 2.05  18 2.13
  45  0.740  0.449  0.777-   1 1.98  52 2.23
  46  0.740  0.949  0.777-   2 1.98  51 2.23
  47  0.940  0.155  0.626-  11 2.05  23 2.05
  48  0.940  0.655  0.626-  12 2.05  24 2.05
  49  0.243  0.461  0.071-  39 1.98  26 2.23
  50  0.243  0.961  0.071-  40 1.98  25 2.23
  51  0.757  0.039  0.929-   5 1.98  46 2.23
  52  0.757  0.539  0.929-   6 1.98  45 2.23
  53  0.560  0.405  0.374-  21 2.05  55 2.05
  54  0.560  0.905  0.374-  22 2.05  56 2.05
  55  0.670  0.311  0.449-  53 2.05  27 2.13
  56  0.670  0.811  0.449-  54 2.05  28 2.13


IMPORTANT INFORMATION: All symmetrisations will be switched off!
NOSYMM: (Re-)initialisation of all symmetry stuff for point group C_1.


----------------------------------------------------------------------------------------

                                     Primitive cell                                     

  volume of cell :    1863.6770

  direct lattice vectors                    reciprocal lattice vectors
     0.000000000 10.307367086 -0.372855731     0.000000000  0.096453423 -0.015606996
    16.788494411  0.000000000  0.000000000     0.059564603  0.000000000  0.000000000
     0.000000000 -1.732519801-10.707215182     0.000000000 -0.003358783 -0.092851486

  length of vectors
    10.314108670 16.788494411 10.846477853     0.097707938  0.059564603  0.092912216

  position of ions in fractional coordinates (direct lattice)
     0.886423141  0.467004751  0.678126386
     0.886423141  0.967004751  0.678126386
     0.329563264  0.188743823  0.550707721
     0.329563264  0.688743823  0.550707721
     0.912671285  0.105241885  0.911960471
     0.912671285  0.605241885  0.911960471
     0.239736405  0.300831047  0.776574189
     0.239736405  0.800831047  0.776574189
     0.144417516  0.305688762  0.224396680
     0.144417516  0.805688762  0.224396680
     0.855582484  0.194311238  0.775603320
     0.855582484  0.694311238  0.775603320
     0.760263595  0.199168953  0.223425811
     0.760263595  0.699168953  0.223425811
     0.170436736  0.438743823  0.449292279
     0.170436736  0.938743823  0.449292279
     0.412671285  0.144758115  0.911960471
     0.412671285  0.644758115  0.911960471
     0.386423141  0.282995249  0.678126386
     0.386423141  0.782995249  0.678126386
     0.644417516  0.444311238  0.224396680
     0.644417516  0.944311238  0.224396680
     0.829563264  0.061256177  0.550707721
     0.829563264  0.561256177  0.550707721
     0.260263595  0.050831047  0.223425811
     0.260263595  0.550831047  0.223425811
     0.613576859  0.217004751  0.321873614
     0.613576859  0.717004751  0.321873614
     0.113576859  0.032995249  0.321873614
     0.113576859  0.532995249  0.321873614
     0.059895700  0.345087734  0.374484367
     0.059895700  0.845087734  0.374484367
     0.743425210  0.289939989  0.071165234
     0.743425210  0.789344343  0.071165234
     0.587328715  0.355241885  0.088039529
     0.587328715  0.855241885  0.088039529
     0.256574790  0.210655657  0.928834766
     0.256574790  0.710655657  0.928834766
     0.087328715  0.394758115  0.088039529
     0.087328715  0.894758115  0.088039529
     0.440104300  0.095087734  0.625515633
     0.440104300  0.595087734  0.625515633
     0.355582484  0.055688762  0.775603320
     0.355582484  0.555688762  0.775603320
     0.739736405  0.449168953  0.776574189
     0.739736405  0.949168953  0.776574189
     0.940104300  0.154912266  0.625515633
     0.940104300  0.654912266  0.625515633
     0.243425210  0.460655657  0.071165234
     0.243425210  0.960655657  0.071165234
     0.756574790  0.039344343  0.928834766
     0.756574790  0.539344343  0.928834766
     0.559895700  0.404912266  0.374484367
     0.559895700  0.904912266  0.374484367
     0.670436736  0.311256177  0.449292279
     0.670436736  0.811256177  0.449292279

  ion indices of the primitive-cell ions
   primitive index   ion index
                 1           1
                 2           2
                 3           3
                 4           4
                 5           5
                 6           6
                 7           7
                 8           8
                 9           9
                10          10
                11          11
                12          12
                13          13
                14          14
                15          15
                16          16
                17          17
                18          18
                19          19
                20          20
                21          21
                22          22
                23          23
                24          24
                25          25
                26          26
                27          27
                28          28
                29          29
                30          30
                31          31
                32          32
                33          33
                34          34
                35          35
                36          36
                37          37
                38          38
                39          39
                40          40
                41          41
                42          42
                43          43
                44          44
                45          45
                46          46
                47          47
                48          48
                49          49
                50          50
                51          51
                52          52
                53          53
                54          54
                55          55
                56          56

----------------------------------------------------------------------------------------



 KPOINTS: pymatgen with grid density = 595 / numbe

Automatic generation of k-mesh.
 Grid dimensions read from file:
 generate k-points for:    2    2    2

 Generating k-lattice:

  Cartesian coordinates                     Fractional coordinates (reciprocal lattice)
     0.000000000  0.048226712 -0.007803498     0.500000000  0.000000000 -0.000000000
     0.029782301  0.000000000  0.000000000     0.000000000  0.500000000  0.000000000
     0.000000000 -0.001679391 -0.046425743    -0.000000000  0.000000000  0.500000000

  Length of vectors
     0.048853969  0.029782301  0.046456108

  Shift w.r.t. Gamma in fractional coordinates (k-lattice)
     0.000000000  0.000000000  0.000000000

 TETIRR: Found     24 inequivalent tetrahedra from       48
 
 Subroutine IBZKPT returns following result:
 ===========================================
 
 Found      8 irreducible k-points:
 
 Following reciprocal coordinates:
            Coordinates               Weight
  0.000000  0.000000  0.000000      1.000000
  0.500000  0.000000  0.000000      1.000000
  0.000000  0.500000  0.000000      1.000000
  0.500000  0.500000  0.000000      1.000000
  0.000000  0.000000  0.500000      1.000000
  0.500000  0.000000  0.500000      1.000000
  0.000000  0.500000  0.500000      1.000000
  0.500000  0.500000  0.500000      1.000000
 
 Following cartesian coordinates:
            Coordinates               Weight
  0.000000  0.000000 -0.000000      1.000000
  0.000000  0.048227 -0.007803      1.000000
  0.029782  0.000000 -0.000000      1.000000
  0.029782  0.048227 -0.007803      1.000000
  0.000000 -0.001679 -0.046426      1.000000
  0.000000  0.046547 -0.054229      1.000000
  0.029782 -0.001679 -0.046426      1.000000
  0.029782  0.046547 -0.054229      1.000000
 


--------------------------------------------------------------------------------------------------------




 Dimension of arrays:
   k-points           NKPTS =      8   k-points in BZ     NKDIM =      8   number of bands    NBANDS=    256
   number of dos      NEDOS =    301   number of ions     NIONS =     56
   non local maximal  LDIM  =      4   non local SUM 2l+1 LMDIM =      8
   total plane-waves  NPLWV = 846720
   max r-space proj   IRMAX =      1   max aug-charges    IRDMAX= 114695
   dimension x,y,z NGX =    80 NGY =  126 NGZ =   84
   dimension x,y,z NGXF=   160 NGYF=  252 NGZF=  168
   support grid    NGXF=   320 NGYF=  504 NGZF=  336
   ions per type =              56
   NGX,Y,Z   is equivalent  to a cutoff of  12.89, 12.48, 12.87 a.u.
   NGXF,Y,Z  is equivalent  to a cutoff of  25.79, 24.95, 25.75 a.u.

 SYSTEM =  unknown system                          
 POSCAR =  generated by phonopy                    

 Startparameter for this run:
   NWRITE =      2    write-flag & timer
   PREC   = accura    normal or accurate (medium, high low for compatibility)
   ISTART =      0    job   : 0-new  1-cont  2-samecut
   ICHARG =      2    charge: 1-file 2-atom 10-const
   ISPIN  =      2    spin polarized calculation?
   LNONCOLLINEAR =      F non collinear calculations
   LSORBIT =      F    spin-orbit coupling
   INIWAV =      1    electr: 0-lowe 1-rand  2-diag
   LASPH  =      T    aspherical Exc in radial PAW
 Electronic Relaxation 1
   ENCUT  =  520.0 eV  38.22 Ry    6.18 a.u.  19.18 31.22 20.17*2*pi/ulx,y,z
   ENINI  =  520.0     initial cutoff
   ENAUG  =  335.1 eV  augmentation charge cutoff
   NELM   =    100;   NELMIN=  2; NELMDL= -5     # of ELM steps 
   EDIFF  = 0.1E-08   stopping-criterion for ELM
   LREAL  =      F    real-space projection
   NLSPLINE    = F    spline interpolate recip. space projectors
   LCOMPAT=      F    compatible to vasp.4.4
   GGA_COMPAT  = T    GGA compatible to vasp.4.4-vasp.4.6
   LMAXPAW     = -100 max onsite density
   LMAXMIX     =    2 max onsite mixed and CHGCAR
   VOSKOWN=      0    Vosko Wilk Nusair interpolation
   ROPT   =    0.00000
 Ionic relaxation
   EDIFFG = -.5E-03   stopping-criterion for IOM
   NSW    =      0    number of steps for IOM
   NBLOCK =      1;   KBLOCK =      1    inner block; outer block 
   IBRION =     -1    ionic relax: 0-MD 1-quasi-New 2-CG
   NFREE  =      0    steps in history (QN), initial steepest desc. (CG)
   ISIF   =      2    stress and relaxation
   IWAVPR =     10    prediction:  0-non 1-charg 2-wave 3-comb
   ISYM   =      0    0-nonsym 1-usesym 2-fastsym
   LCORR  =      T    Harris-Foulkes like correction to forces

   POTIM  = 0.5000    time-step for ionic-motion
   TEIN   =    0.0    initial temperature
   TEBEG  =    0.0;   TEEND  =   0.0 temperature during run
   SMASS  =  -3.00    Nose mass-parameter (am)
   estimated Nose-frequenzy (Omega)   =  0.10E-29 period in steps = 0.13E+47 mass=  -0.243E-26a.u.
   SCALEE = 1.0000    scale energy and forces
   NPACO  =    256;   APACO  = 10.0  distance and # of slots for P.C.
   PSTRESS=    0.0 pullay stress

  Mass of Ions in am
   POMASS =  32.07
  Ionic Valenz
   ZVAL   =   6.00
  Atomic Wigner-Seitz radii
   RWIGS  =  -1.00
  virtual crystal weights 
   VCA    =   1.00
   NELECT =     336.0000    total number of electrons
   NUPDOWN=      -1.0000    fix difference up-down

 DOS related values:
   EMIN   =  10.00;   EMAX   =-10.00  energy-range for DOS
   EFERMI =   0.00
   ISMEAR =    -5;   SIGMA  =   0.05  broadening in eV -4-tet -1-fermi 0-gaus

 Electronic relaxation 2 (details)
   IALGO  =     38    algorithm
   LDIAG  =      T    sub-space diagonalisation (order eigenvalues)
   LSUBROT=      F    optimize rotation matrix (better conditioning)
   TURBO    =      0    0=normal 1=particle mesh
   IRESTART =      0    0=no restart 2=restart with 2 vectors
   NREBOOT  =      0    no. of reboots
   NMIN     =      0    reboot dimension
   EREF     =   0.00    reference energy to select bands
   IMIX   =      4    mixing-type and parameters
     AMIX     =   0.40;   BMIX     =  1.00
     AMIX_MAG =   1.60;   BMIX_MAG =  1.00
     AMIN     =   0.10
     WC   =   100.;   INIMIX=   1;  MIXPRE=   1;  MAXMIX= -45

 Intra band minimization:
   WEIMIN = 0.0000     energy-eigenvalue tresh-hold
   EBREAK =  0.98E-12  absolut break condition
   DEPER  =   0.30     relativ break condition  

   TIME   =   0.40     timestep for ELM

  volume/ion in A,a.u.               =      33.28       224.58
  Fermi-wavevector in a.u.,A,eV,Ry     =   0.924835  1.747685 11.637339  0.855320
  Thomas-Fermi vector in A             =   2.050624

 Write flags
   LWAVE        =      F    write WAVECAR
   LDOWNSAMPLE  =      F    k-point downsampling of WAVECAR
   LCHARG       =      F    write CHGCAR
   LVTOT        =      F    write LOCPOT, total local potential
   LVHAR        =      F    write LOCPOT, Hartree potential only
   LELF         =      F    write electronic localiz. function (ELF)
   LORBIT       =     11    0 simple, 1 ext, 2 COOP (PROOUT), +10 PAW based schemes


 Dipole corrections
   LMONO  =      F    monopole corrections only (constant potential shift)
   LDIPOL =      F    correct potential (dipole corrections)
   IDIPOL =      0    1-x, 2-y, 3-z, 4-all directions 
   EPSILON=  1.0000000 bulk dielectric constant

 Exchange correlation treatment:
   GGA     =    --    GGA type
   LEXCH   =     8    internal setting for exchange type
   LIBXC   =     F    Libxc                    
   VOSKOWN =     0    Vosko Wilk Nusair interpolation
   LHFCALC =     F    Hartree Fock is set to
   LHFONE  =     F    Hartree Fock one center treatment
   AEXX    =    0.0000 exact exchange contribution

 Linear response parameters
   LEPSILON=     F    determine dielectric tensor
   LRPA    =     F    only Hartree local field effects (RPA)
   LNABLA  =     F    use nabla operator in PAW spheres
   LVEL    =     F    velocity operator in full k-point grid
   CSHIFT  =0.1000    complex shift for real part using Kramers Kronig
   OMEGAMAX=  -1.0    maximum frequency
   DEG_THRESHOLD= 0.2000000E-02 threshold for treating states as degnerate
   RTIME   =   -0.100 relaxation time in fs
  (WPLASMAI=    0.000 imaginary part of plasma frequency in eV, 0.658/RTIME)
   DFIELD  = 0.0000000 0.0000000 0.0000000 field for delta impulse in time

  Optional k-point grid parameters
   LKPOINTS_OPT  =     F    use optional k-point grid
   KPOINTS_OPT_MODE=     1    mode for optional k-point grid

 Orbital magnetization related:
   ORBITALMAG=     F  switch on orbital magnetization
   LCHIMAG   =     F  perturbation theory with respect to B field
   DQ        =  0.001000  dq finite difference perturbation B field
   LLRAUG    =     F  two centre corrections for induced B field



--------------------------------------------------------------------------------------------------------


 Static calculation
 charge density and potential will be updated during run
 spin polarized calculation
 Variant of blocked Davidson
 Davidson routine will perform the subspace rotation
 perform sub-space diagonalisation
    after iterative eigenvector-optimisation
 modified Broyden-mixing scheme, WC =      100.0
 initial mixing is a Kerker type mixing with AMIX =  0.4000 and BMIX =      1.0000
 Hartree-type preconditioning will be used
 using additional bands           88
 reciprocal scheme for non local part
 use partial core corrections
 calculate Harris-corrections to forces   (improved forces if not selfconsistent)
 use gradient corrections 
 use of overlap-Matrix (Vanderbilt PP)
 Fermi weights with tetrahedron method with Bloechl corrections


--------------------------------------------------------------------------------------------------------


  energy-cutoff  :      520.00
  volume of cell :     1863.68
      direct lattice vectors                 reciprocal lattice vectors
     0.000000000 10.307367086 -0.372855731     0.000000000  0.096453423 -0.015606996
    16.788494411  0.000000000  0.000000000     0.059564603  0.000000000  0.000000000
     0.000000000 -1.732519801-10.707215182     0.000000000 -0.003358783 -0.092851486

  length of vectors
    10.314108670 16.788494411 10.846477853     0.097707938  0.059564603  0.092912216



 k-points in units of 2pi/SCALE and weight: pymatgen with grid density = 595 / numbe
   0.00000000  0.00000000 -0.00000000       0.125
   0.00000000  0.04822671 -0.00780350       0.125
   0.02978230  0.00000000 -0.00000000       0.125
   0.02978230  0.04822671 -0.00780350       0.125
   0.00000000 -0.00167939 -0.04642574       0.125
   0.00000000  0.04654732 -0.05422924       0.125
   0.02978230 -0.00167939 -0.04642574       0.125
   0.02978230  0.04654732 -0.05422924       0.125

 k-points in reciprocal lattice and weights: pymatgen with grid density = 595 / numbe
   0.00000000  0.00000000  0.00000000       0.125
   0.50000000  0.00000000  0.00000000       0.125
   0.00000000  0.50000000  0.00000000       0.125
   0.50000000  0.50000000  0.00000000       0.125
   0.00000000  0.00000000  0.50000000       0.125
   0.50000000  0.00000000  0.50000000       0.125
   0.00000000  0.50000000  0.50000000       0.125
   0.50000000  0.50000000  0.50000000       0.125

 position of ions in fractional coordinates (direct lattice) 
   0.88642314  0.46700475  0.67812639
   0.88642314  0.96700475  0.67812639
   0.32956326  0.18874382  0.55070772
   0.32956326  0.68874382  0.55070772
   0.91267129  0.10524188  0.91196047
   0.91267129  0.60524188  0.91196047
   0.23973640  0.30083105  0.77657419
   0.23973640  0.80083105  0.77657419
   0.14441752  0.30568876  0.22439668
   0.14441752  0.80568876  0.22439668
   0.85558248  0.19431124  0.77560332
   0.85558248  0.69431124  0.77560332
   0.76026360  0.19916895  0.22342581
   0.76026360  0.69916895  0.22342581
   0.17043674  0.43874382  0.44929228
   0.17043674  0.93874382  0.44929228
   0.41267129  0.14475812  0.91196047
   0.41267129  0.64475812  0.91196047
   0.38642314  0.28299525  0.67812639
   0.38642314  0.78299525  0.67812639
   0.64441752  0.44431124  0.22439668
   0.64441752  0.94431124  0.22439668
   0.82956326  0.06125618  0.55070772
   0.82956326  0.56125618  0.55070772
   0.26026360  0.05083105  0.22342581
   0.26026360  0.55083105  0.22342581
   0.61357686  0.21700475  0.32187361
   0.61357686  0.71700475  0.32187361
   0.11357686  0.03299525  0.32187361
   0.11357686  0.53299525  0.32187361
   0.05989570  0.34508773  0.37448437
   0.05989570  0.84508773  0.37448437
   0.74342521  0.28993999  0.07116523
   0.74342521  0.78934434  0.07116523
   0.58732871  0.35524188  0.08803953
   0.58732871  0.85524188  0.08803953
   0.25657479  0.21065566  0.92883477
   0.25657479  0.71065566  0.92883477
   0.08732871  0.39475812  0.08803953
   0.08732871  0.89475812  0.08803953
   0.44010430  0.09508773  0.62551563
   0.44010430  0.59508773  0.62551563
   0.35558248  0.05568876  0.77560332
   0.35558248  0.55568876  0.77560332
   0.73973640  0.44916895  0.77657419
   0.73973640  0.94916895  0.77657419
   0.94010430  0.15491227  0.62551563
   0.94010430  0.65491227  0.62551563
   0.24342521  0.46065566  0.07116523
   0.24342521  0.96065566  0.07116523
   0.75657479  0.03934434  0.92883477
   0.75657479  0.53934434  0.92883477
   0.55989570  0.40491227  0.37448437
   0.55989570  0.90491227  0.37448437
   0.67043674  0.31125618  0.44929228
   0.67043674  0.81125618  0.44929228

 position of ions in cartesian coordinates  (Angst):
   7.84030666  7.96182132 -7.59135308
  16.23455387  7.96182132 -7.59135308
   3.16872461  2.44281751 -6.01942562
  11.56297182  2.44281751 -6.01942562
   1.76685280  7.82724839-10.10485172
  10.16110000  7.82724839-10.10485172
   5.05050035  1.12562097 -8.40433404
  13.44474755  1.12562097 -8.40433404
   5.13205407  1.09979266 -2.45651044
  13.52630128  1.09979266 -2.45651044
   3.26219313  7.47505463 -8.62356047
  11.65644034  7.47505463 -8.62356047
   3.34374686  7.44922632 -2.67573688
  11.73799406  7.44922632 -2.67573688
   7.36584822  0.97834624 -4.87421742
  15.76009542  0.97834624 -4.87421742
   2.43027081  2.67356485 -9.91842386
  10.82451801  2.67356485 -9.91842386
   4.75106415  2.80813777 -7.40492521
  13.14531135  2.80813777 -7.40492521
   7.45931673  6.25347620 -2.64293831
  15.85356394  6.25347620 -2.64293831
   1.02839899  7.59650105 -6.20585349
   9.42264619  7.59650105 -6.20585349
   0.85337674  2.29554277 -2.48930901
   9.24762395  2.29554277 -2.48930901
   3.64318306  5.76670951 -3.67514570
  12.03743026  5.76670951 -3.67514570
   0.55394055  0.61302597 -3.48871783
   8.94818775  0.61302597 -3.48871783
   5.79350349 -0.03143461 -4.03201715
  14.18775070 -0.03143461 -4.03201715
   4.86765589  7.53946136 -1.03917182
  13.25190310  7.53946136 -1.03917182
   5.96397640  5.90128244 -1.16164705
  14.35822361  5.90128244 -1.16164705
   3.53659131  1.03538593-10.04089909
  11.93083852  1.03538593-10.04089909
   6.62739441  0.74759889 -0.97521919
  15.02164161  0.74759889 -0.97521919
   1.59637989  3.45259836 -6.86162589
   9.99062710  3.45259836 -6.86162589
   0.93493047  2.32137108 -8.43713261
   9.32917768  2.32137108 -8.43713261
   7.54087046  6.27930451 -8.59076190
  15.93511767  6.27930451 -8.59076190
   2.60074371  8.60628190 -7.04805376
  10.99499092  8.60628190 -7.04805376
   7.73371492  2.38577782 -0.85274396
  16.12796212  2.38577782 -0.85274396
   0.66053229  6.18906947-10.22732695
   9.05477950  6.18906947-10.22732695
   6.79786731  5.12224893 -4.21844502
  15.19211452  5.12224893 -4.21844502
   5.22552259  6.13202978 -5.06064529
  13.61976980  6.13202978 -5.06064529



--------------------------------------------------------------------------------------------------------


 k-point   1 :   0.0000 0.0000 0.0000  plane waves:   50179
 k-point   2 :   0.5000 0.0000 0.0000  plane waves:   50160
 k-point   3 :   0.0000 0.5000 0.0000  plane waves:   50162
 k-point   4 :   0.5000 0.5000 0.0000  plane waves:   50192
 k-point   5 :   0.0000 0.0000 0.5000  plane waves:   50190
 k-point   6 :   0.5000 0.0000 0.5000  plane waves:   50190
 k-point   7 :   0.0000 0.5000 0.5000  plane waves:   50172
 k-point   8 :   0.5000 0.5000 0.5000  plane waves:   50200

 maximum and minimum number of plane-waves per node :     50200    50160

 maximum number of plane-waves:     50200
 maximum index in each direction: 
   IXMAX=   19   IYMAX=   31   IZMAX=   20
   IXMIN=  -19   IYMIN=  -31   IZMIN=  -20


 serial   3D FFT for wavefunctions
 parallel 3D FFT for charge:
    minimum data exchange during FFTs selected (reduces bandwidth)


 total amount of memory used by VASP MPI-rank0   322725. kBytes
=======================================================================

   base      :      30000. kBytes
   nonl-proj :      70692. kBytes
   fftplans  :      34504. kBytes
   grid      :      83442. kBytes
   one-center:        344. kBytes
   wavefun   :     103743. kBytes

     INWAV:  cpu time      0.0000: real time      0.0002
 Broyden mixing: mesh for mixing (old mesh)
   NGX = 39   NGY = 63   NGZ = 41
  (NGX  =160   NGY  =252   NGZ  =168)
  gives a total of 100737 points

 initial charge density was supplied:
 charge density of overlapping atoms calculated
 number of electron     336.0000000 magnetization      56.0000000
 keeping initial charge density in first step


--------------------------------------------------------------------------------------------------------


 Maximum index for augmentation-charges         3947 (set IRDMAX)


--------------------------------------------------------------------------------------------------------


 First call to EWALD:  gamma=   0.144
 Maximum number of real-space cells 3x 2x 3
 Maximum number of reciprocal cells 2x 4x 2

    FEWALD:  cpu time      0.0019: real time      0.0019


--------------------------------------- Iteration      1(   1)  ---------------------------------------


    POTLOK:  cpu time      0.5030: real time      0.5032
    SETDIJ:  cpu time     12.8596: real time     12.8607
     EDDAV:  cpu time     51.5852: real time     51.5929
 BZINTS: Fermi energy:   10.166285;  336.000000 electrons
         Band energy: 0.225109E+03;  BLOECHL correction:   -0.008835
       DOS:  cpu time      0.0489: real time      0.0490
    --------------------------------------------
      LOOP:  cpu time     64.9967: real time     65.0058

 eigenvalue-minimisations  :  8192
 total energy-change (2. order) : 0.2106212E+04  (-0.1333797E+05)
 number of electron     336.0000000 magnetization      56.0000000
 augmentation part      336.0000000 magnetization      56.0000000

 Free energy of the ion-electron system (eV)
  ---------------------------------------------------
  alpha Z        PSCENC =       253.99581917
  Ewald energy   TEWEN  =     -9970.72729788
  -Hartree energ DENC   =     -4765.92671619
  -exchange      EXHF   =         0.00000000
  -V(xc)+E(xc)   XCENC  =       682.51446538
  PAW double counting   =     12174.71095765   -11995.46358648
  entropy T*S    EENTRO =         0.00000000
  eigenvalues    EBANDS =       225.10865244
  atomic energy  EATOM  =     15501.99929693
  Solvation  Ediel_sol  =         0.00000000
  ---------------------------------------------------
  free energy    TOTEN  =      2106.21159103 eV

  energy without entropy =     2106.21159103  energy(sigma->0) =     2106.21159103


--------------------------------------------------------------------------------------------------------




--------------------------------------- Iteration      1(   2)  ---------------------------------------


     EDDAV:  cpu time     58.5419: real time     58.5516
 BZINTS: Fermi energy:    1.451169;  336.000000 electrons
         Band energy:-0.187483E+04;  BLOECHL correction:    0.000000
       DOS:  cpu time      0.0270: real time      0.0270
    --------------------------------------------
      LOOP:  cpu time     58.5689: real time     58.5786

 eigenvalue-minimisations  : 10272
 total energy-change (2. order) :-0.2099941E+04  (-0.2021749E+04)
 number of electron     336.0000000 magnetization      56.0000000
 augmentation part      336.0000000 magnetization      56.0000000

 Free energy of the ion-electron system (eV)
  ---------------------------------------------------
  alpha Z        PSCENC =       253.99581917
  Ewald energy   TEWEN  =     -9970.72729788
  -Hartree energ DENC   =     -4765.92671619
  -exchange      EXHF   =         0.00000000
  -V(xc)+E(xc)   XCENC  =       682.51446538
  PAW double counting   =     12174.71095765   -11995.46358648
  entropy T*S    EENTRO =         0.00000000
  eigenvalues    EBANDS =     -1874.83223057
  atomic energy  EATOM  =     15501.99929693
  Solvation  Ediel_sol  =         0.00000000
  ---------------------------------------------------
  free energy    TOTEN  =         6.27070802 eV

  energy without entropy =        6.27070802  energy(sigma->0) =        6.27070802


--------------------------------------------------------------------------------------------------------




--------------------------------------- Iteration      1(   3)  ---------------------------------------


     EDDAV:  cpu time     60.4091: real time     60.4190
 BZINTS: Fermi energy:    0.219802;  336.000000 electrons
         Band energy:-0.209468E+04;  BLOECHL correction:    0.000000
       DOS:  cpu time      0.0267: real time      0.0268
    --------------------------------------------
      LOOP:  cpu time     60.4358: real time     60.4457

 eigenvalue-minimisations  : 10240
 total energy-change (2. order) :-0.2198504E+03  (-0.2171644E+03)
 number of electron     336.0000000 magnetization      56.0000000
 augmentation part      336.0000000 magnetization      56.0000000

 Free energy of the ion-electron system (eV)
  ---------------------------------------------------
  alpha Z        PSCENC =       253.99581917
  Ewald energy   TEWEN  =     -9970.72729788
  -Hartree energ DENC   =     -4765.92671619
  -exchange      EXHF   =         0.00000000
  -V(xc)+E(xc)   XCENC  =       682.51446538
  PAW double counting   =     12174.71095765   -11995.46358648
  entropy T*S    EENTRO =         0.00000000
  eigenvalues    EBANDS =     -2094.68262226
  atomic energy  EATOM  =     15501.99929693
  Solvation  Ediel_sol  =         0.00000000
  ---------------------------------------------------
  free energy    TOTEN  =      -213.57968367 eV

  energy without entropy =     -213.57968367  energy(sigma->0) =     -213.57968367


--------------------------------------------------------------------------------------------------------




--------------------------------------- Iteration      1(   4)  ---------------------------------------


     EDDAV:  cpu time     58.1417: real time     58.1542
 BZINTS: Fermi energy:    0.191566;  336.000000 electrons
         Band energy:-0.209958E+04;  BLOECHL correction:    0.000000
       DOS:  cpu time      0.0269: real time      0.0270
    --------------------------------------------
      LOOP:  cpu time     58.1686: real time     58.1812

 eigenvalue-minimisations  : 10336
 total energy-change (2. order) :-0.4896180E+01  (-0.4877813E+01)
 number of electron     336.0000000 magnetization      56.0000000
 augmentation part      336.0000000 magnetization      56.0000000

 Free energy of the ion-electron system (eV)
  ---------------------------------------------------
  alpha Z        PSCENC =       253.99581917
  Ewald energy   TEWEN  =     -9970.72729788
  -Hartree energ DENC   =     -4765.92671619
  -exchange      EXHF   =         0.00000000
  -V(xc)+E(xc)   XCENC  =       682.51446538
  PAW double counting   =     12174.71095765   -11995.46358648
  entropy T*S    EENTRO =         0.00000000
  eigenvalues    EBANDS =     -2099.57880237
  atomic energy  EATOM  =     15501.99929693
  Solvation  Ediel_sol  =         0.00000000
  ---------------------------------------------------
  free energy    TOTEN  =      -218.47586378 eV

  energy without entropy =     -218.47586378  energy(sigma->0) =     -218.47586378


--------------------------------------------------------------------------------------------------------




--------------------------------------- Iteration      1(   5)  ---------------------------------------


     EDDAV:  cpu time     60.9018: real time     60.9114
 BZINTS: Fermi energy:    0.191396;  336.000000 electrons
         Band energy:-0.209972E+04;  BLOECHL correction:    0.000000
       DOS:  cpu time      0.0265: real time      0.0266
    CHARGE:  cpu time      8.7807: real time      8.7822
    MIXING:  cpu time      0.0101: real time      0.0101
    --------------------------------------------
      LOOP:  cpu time     69.7191: real time     69.7303

 eigenvalue-minimisations  : 10048
 total energy-change (2. order) :-0.1371439E+00  (-0.1370777E+00)
 number of electron     335.9999997 magnetization      44.9918631
 augmentation part      -47.3224479 magnetization      44.8836840

 Broyden mixing:
  rms(total) = 0.82950E+01    rms(broyden)= 0.82950E+01
  rms(prec ) = 0.83149E+01
  weight for this iteration     100.00

 Free energy of the ion-electron system (eV)
  ---------------------------------------------------
  alpha Z        PSCENC =       253.99581917
  Ewald energy   TEWEN  =     -9970.72729788
  -Hartree energ DENC   =     -4765.92671619
  -exchange      EXHF   =         0.00000000
  -V(xc)+E(xc)   XCENC  =       682.51446538
  PAW double counting   =     12174.71095765   -11995.46358648
  entropy T*S    EENTRO =         0.00000000
  eigenvalues    EBANDS =     -2099.71594624
  atomic energy  EATOM  =     15501.99929693
  Solvation  Ediel_sol  =         0.00000000
  ---------------------------------------------------
  free energy    TOTEN  =      -218.61300765 eV

  energy without entropy =     -218.61300765  energy(sigma->0) =     -218.61300765


--------------------------------------------------------------------------------------------------------




--------------------------------------- Iteration      1(   6)  ---------------------------------------


    POTLOK:  cpu time      0.4312: real time      0.4354
    SETDIJ:  cpu time     11.2676: real time     11.2686
     EDDAV:  cpu time     56.0933: real time     56.1021
 BZINTS: Fermi energy:    0.408686;  336.000000 electrons
         Band energy:-0.201419E+04;  BLOECHL correction:   -0.000000
       DOS:  cpu time      0.0289: real time      0.0290
    CHARGE:  cpu time      6.9707: real time      6.9714
    MIXING:  cpu time      1.4316: real time      1.4317
    --------------------------------------------
      LOOP:  cpu time     76.2234: real time     76.2381

 eigenvalue-minimisations  :  9632
 total energy-change (2. order) : 0.1022851E+03  (-0.2667770E+02)
 number of electron     335.9999997 magnetization      26.4980276
 augmentation part      -47.6485544 magnetization      27.5565360

 Broyden mixing:
  rms(total) = 0.49371E+01    rms(broyden)= 0.49371E+01
  rms(prec ) = 0.49594E+01
  weight for this iteration     100.00

 eigenvalues of (default mixing * dielectric matrix)
  average eigenvalue GAMMA=   1.6662
  1.6662

 Free energy of the ion-electron system (eV)
  ---------------------------------------------------
  alpha Z        PSCENC =       253.99581917
  Ewald energy   TEWEN  =     -9970.72729788
  -Hartree energ DENC   =     -4810.28704833
  -exchange      EXHF   =         0.00000000
  -V(xc)+E(xc)   XCENC  =       746.10015359
  PAW double counting   =     20736.99043319   -20560.21289458
  entropy T*S    EENTRO =         0.00000000
  eigenvalues    EBANDS =     -2014.18635507
  atomic energy  EATOM  =     15501.99929693
  Solvation  Ediel_sol  =         0.00000000
  ---------------------------------------------------
  free energy    TOTEN  =      -116.32789297 eV

  energy without entropy =     -116.32789297  energy(sigma->0) =     -116.32789297


--------------------------------------------------------------------------------------------------------




--------------------------------------- Iteration      1(   7)  ---------------------------------------


    POTLOK:  cpu time      0.4290: real time      0.4365
    SETDIJ:  cpu time      8.2322: real time      8.2328
     EDDAV:  cpu time     58.8872: real time     58.8962
 BZINTS: Fermi energy:    0.737782;  336.000000 electrons
         Band energy:-0.186783E+04;  BLOECHL correction:    0.000000
       DOS:  cpu time      0.0257: real time      0.0257
    CHARGE:  cpu time     12.3679: real time     12.3689
    MIXING:  cpu time      1.7885: real time      1.7886
    --------------------------------------------
      LOOP:  cpu time     81.7305: real time     81.7487

 eigenvalue-minimisations  : 10080
 total energy-change (2. order) :-0.1114140E+02  (-0.2694991E+01)
 number of electron     335.9999997 magnetization      19.7229624
 augmentation part      -47.3164753 magnetization      20.9285459

 Broyden mixing:
  rms(total) = 0.13991E+01    rms(broyden)= 0.13991E+01
  rms(prec ) = 0.14028E+01
  weight for this iteration     100.00

 eigenvalues of (default mixing * dielectric matrix)
  average eigenvalue GAMMA=   1.4854
  0.7901  2.1806

 Free energy of the ion-electron system (eV)
  ---------------------------------------------------
  alpha Z        PSCENC =       253.99581917
  Ewald energy   TEWEN  =     -9970.72729788
  -Hartree energ DENC   =     -4969.70373350
  -exchange      EXHF   =         0.00000000
  -V(xc)+E(xc)   XCENC  =       751.43341843
  PAW double counting   =     37037.49303901   -36864.12790171
  entropy T*S    EENTRO =         0.00000000
  eigenvalues    EBANDS =     -1867.83193601
  atomic energy  EATOM  =     15501.99929693
  Solvation  Ediel_sol  =         0.00000000
  ---------------------------------------------------
  free energy    TOTEN  =      -127.46929556 eV

  energy without entropy =     -127.46929556  energy(sigma->0) =     -127.46929556


--------------------------------------------------------------------------------------------------------




--------------------------------------- Iteration      1(   8)  ---------------------------------------


    POTLOK:  cpu time      0.4273: real time      0.4286
    SETDIJ:  cpu time      8.9873: real time      8.9918
     EDDAV:  cpu time     52.5472: real time     52.5555
 BZINTS: Fermi energy:    0.705593;  336.000000 electrons
         Band energy:-0.185530E+04;  BLOECHL correction:    0.000000
       DOS:  cpu time      0.0277: real time      0.0278
    CHARGE:  cpu time     11.0007: real time     11.0018
    MIXING:  cpu time      0.0130: real time      0.0130
    --------------------------------------------
      LOOP:  cpu time     73.0033: real time     73.0184

 eigenvalue-minimisations  :  9312
 total energy-change (2. order) :-0.4274335E+02  (-0.1977364E+01)
 number of electron     335.9999997 magnetization      16.0636652
 augmentation part      -47.0119383 magnetization      17.1081872

 Broyden mixing:
  rms(total) = 0.78240E+00    rms(broyden)= 0.78240E+00
  rms(prec ) = 0.78755E+00
  weight for this iteration     100.00

 eigenvalues of (default mixing * dielectric matrix)
  average eigenvalue GAMMA=   1.3384
  2.4898  0.9419  0.5834

 Free energy of the ion-electron system (eV)
  ---------------------------------------------------
  alpha Z        PSCENC =       253.99581917
  Ewald energy   TEWEN  =     -9970.72729788
  -Hartree energ DENC   =     -4999.32773204
  -exchange      EXHF   =         0.00000000
  -V(xc)+E(xc)   XCENC  =       726.54552748
  PAW double counting   =     40186.94704444   -40014.34884424
  entropy T*S    EENTRO =         0.00000000
  eigenvalues    EBANDS =     -1855.29645875
  atomic energy  EATOM  =     15501.99929693
  Solvation  Ediel_sol  =         0.00000000
  ---------------------------------------------------
  free energy    TOTEN  =      -170.21264489 eV

  energy without entropy =     -170.21264489  energy(sigma->0) =     -170.21264489


--------------------------------------------------------------------------------------------------------




--------------------------------------- Iteration      1(   9)  ---------------------------------------


    POTLOK:  cpu time      0.4509: real time      0.4515
    SETDIJ:  cpu time     14.4536: real time     14.4548
     EDDAV:  cpu time     59.2910: real time     59.2997
 BZINTS: Fermi energy:    0.628020;  336.000000 electrons
         Band energy:-0.186654E+04;  BLOECHL correction:    0.000000
       DOS:  cpu time      0.0258: real time      0.0258
    CHARGE:  cpu time     12.7267: real time     12.7277
    MIXING:  cpu time      0.0147: real time      0.0147
    --------------------------------------------
      LOOP:  cpu time     86.9627: real time     86.9742

 eigenvalue-minimisations  : 10240
 total energy-change (2. order) :-0.1674017E+02  (-0.6407013E+00)
 number of electron     335.9999997 magnetization      11.5346108
 augmentation part      -46.9156212 magnetization      12.3723410

 Broyden mixing:
  rms(total) = 0.43634E+00    rms(broyden)= 0.43633E+00
  rms(prec ) = 0.44838E+00
  weight for this iteration     100.00

 eigenvalues of (default mixing * dielectric matrix)
  average eigenvalue GAMMA=   1.3244
  2.5742  1.3009  0.7113  0.7113

 Free energy of the ion-electron system (eV)
  ---------------------------------------------------
  alpha Z        PSCENC =       253.99581917
  Ewald energy   TEWEN  =     -9970.72729788
  -Hartree energ DENC   =     -4995.52634938
  -exchange      EXHF   =         0.00000000
  -V(xc)+E(xc)   XCENC  =       717.22999177
  PAW double counting   =     40966.51337420   -40793.89673996
  entropy T*S    EENTRO =         0.00000000
  eigenvalues    EBANDS =     -1866.54090701
  atomic energy  EATOM  =     15501.99929693
  Solvation  Ediel_sol  =         0.00000000
  ---------------------------------------------------
  free energy    TOTEN  =      -186.95281216 eV

  energy without entropy =     -186.95281216  energy(sigma->0) =     -186.95281216


--------------------------------------------------------------------------------------------------------




--------------------------------------- Iteration      1(  10)  ---------------------------------------


    POTLOK:  cpu time      0.4337: real time      0.4342
    SETDIJ:  cpu time      8.9805: real time      8.9812
     EDDAV:  cpu time     60.5566: real time     60.5675
 BZINTS: Fermi energy:    0.475089;  336.000000 electrons
         Band energy:-0.190103E+04;  BLOECHL correction:    0.000000
       DOS:  cpu time      0.0257: real time      0.0258
    CHARGE:  cpu time     10.2001: real time     10.2009
    MIXING:  cpu time      0.0149: real time      0.0149
    --------------------------------------------
      LOOP:  cpu time     80.2116: real time     80.2246

 eigenvalue-minimisations  :  9984
 total energy-change (2. order) :-0.2006677E+02  (-0.1302236E+01)
 number of electron     335.9999997 magnetization       5.3080974
 augmentation part      -46.8737128 magnetization       5.8428310

 Broyden mixing:
  rms(total) = 0.32430E+00    rms(broyden)= 0.32430E+00
  rms(prec ) = 0.33725E+00
  weight for this iteration     100.00

 eigenvalues of (default mixing * dielectric matrix)
  average eigenvalue GAMMA=   1.4491
  2.4867  2.4867  0.9418  0.7283  0.6022

 Free energy of the ion-electron system (eV)
  ---------------------------------------------------
  alpha Z        PSCENC =       253.99581917
  Ewald energy   TEWEN  =     -9970.72729788
  -Hartree energ DENC   =     -4970.17782732
  -exchange      EXHF   =         0.00000000
  -V(xc)+E(xc)   XCENC  =       705.65100827
  PAW double counting   =     40976.09483622   -40802.82400910
  entropy T*S    EENTRO =         0.00000000
  eigenvalues    EBANDS =     -1901.03140361
  atomic energy  EATOM  =     15501.99929693
  Solvation  Ediel_sol  =         0.00000000
  ---------------------------------------------------
  free energy    TOTEN  =      -207.01957731 eV

  energy without entropy =     -207.01957731  energy(sigma->0) =     -207.01957731


--------------------------------------------------------------------------------------------------------




--------------------------------------- Iteration      1(  11)  ---------------------------------------


    POTLOK:  cpu time      0.4281: real time      0.4290
    SETDIJ:  cpu time     12.6057: real time     12.6067
     EDDAV:  cpu time     56.6803: real time     56.6890
 BZINTS: Fermi energy:    0.257021;  336.000000 electrons
         Band energy:-0.195841E+04;  BLOECHL correction:    0.000000
       DOS:  cpu time      0.0266: real time      0.0266
    CHARGE:  cpu time     10.2849: real time     10.2857
    MIXING:  cpu time      0.0081: real time      0.0081
    --------------------------------------------
      LOOP:  cpu time     80.0336: real time     80.0451

 eigenvalue-minimisations  :  9952
 total energy-change (2. order) :-0.1785327E+02  (-0.2165456E+01)
 number of electron     335.9999997 magnetization       3.5773872
 augmentation part      -46.9053639 magnetization       3.7607232

 Broyden mixing:
  rms(total) = 0.18666E+00    rms(broyden)= 0.18666E+00
  rms(prec ) = 0.20035E+00
  weight for this iteration     100.00

 eigenvalues of (default mixing * dielectric matrix)
  average eigenvalue GAMMA=   1.4663
  2.7962  2.7962  1.0266  0.8897  0.6991  0.5900

 Free energy of the ion-electron system (eV)
  ---------------------------------------------------
  alpha Z        PSCENC =       253.99581917
  Ewald energy   TEWEN  =     -9970.72729788
  -Hartree energ DENC   =     -4920.59817366
  -exchange      EXHF   =         0.00000000
  -V(xc)+E(xc)   XCENC  =       694.53863207
  PAW double counting   =     40403.26298078   -40228.93252937
  entropy T*S    EENTRO =         0.00000000
  eigenvalues    EBANDS =     -1958.41158033
  atomic energy  EATOM  =     15501.99929693
  Solvation  Ediel_sol  =         0.00000000
  ---------------------------------------------------
  free energy    TOTEN  =      -224.87285228 eV

  energy without entropy =     -224.87285228  energy(sigma->0) =     -224.87285228


--------------------------------------------------------------------------------------------------------




--------------------------------------- Iteration      1(  12)  ---------------------------------------


    POTLOK:  cpu time      0.4253: real time      0.4263
    SETDIJ:  cpu time      9.8855: real time      9.8862
     EDDAV:  cpu time     60.5198: real time     60.5361
 BZINTS: Fermi energy:    0.184167;  336.000000 electrons
         Band energy:-0.197901E+04;  BLOECHL correction:    0.000000
       DOS:  cpu time      0.0257: real time      0.0258
    CHARGE:  cpu time      7.2167: real time      7.2174
    MIXING:  cpu time      0.0109: real time      0.0109
    --------------------------------------------
      LOOP:  cpu time     78.0839: real time     78.1027

 eigenvalue-minimisations  : 10048
 total energy-change (2. order) :-0.3385846E+01  (-0.3874394E+00)
 number of electron     335.9999997 magnetization       2.3931951
 augmentation part      -46.9152665 magnetization       2.4764839

 Broyden mixing:
  rms(total) = 0.15987E+00    rms(broyden)= 0.15987E+00
  rms(prec ) = 0.17242E+00
  weight for this iteration     100.00

 eigenvalues of (default mixing * dielectric matrix)
  average eigenvalue GAMMA=   1.4914
  3.1002  3.1002  1.0548  1.0548  0.7810  0.7810  0.5678

 Free energy of the ion-electron system (eV)
  ---------------------------------------------------
  alpha Z        PSCENC =       253.99581917
  Ewald energy   TEWEN  =     -9970.72729788
  -Hartree energ DENC   =     -4901.16969454
  -exchange      EXHF   =         0.00000000
  -V(xc)+E(xc)   XCENC  =       692.08944104
  PAW double counting   =     39972.28642335   -39797.72006798
  entropy T*S    EENTRO =         0.00000000
  eigenvalues    EBANDS =     -1979.01261878
  atomic energy  EATOM  =     15501.99929693
  Solvation  Ediel_sol  =         0.00000000
  ---------------------------------------------------
  free energy    TOTEN  =      -228.25869869 eV

  energy without entropy =     -228.25869869  energy(sigma->0) =     -228.25869869


--------------------------------------------------------------------------------------------------------




--------------------------------------- Iteration      1(  13)  ---------------------------------------


    POTLOK:  cpu time      0.4485: real time      0.4494
    SETDIJ:  cpu time     12.1327: real time     12.1336
     EDDAV:  cpu time     53.0019: real time     53.0101
 BZINTS: Fermi energy:    0.115996;  336.000000 electrons
         Band energy:-0.200149E+04;  BLOECHL correction:    0.000000
       DOS:  cpu time      0.0258: real time      0.0258
    CHARGE:  cpu time     11.5376: real time     11.5385
    MIXING:  cpu time      0.0098: real time      0.0098
    --------------------------------------------
      LOOP:  cpu time     77.1563: real time     77.1673

 eigenvalue-minimisations  :  9568
 total energy-change (2. order) :-0.1055873E+01  (-0.1339806E+00)
 number of electron     335.9999997 magnetization       0.8909526
 augmentation part      -46.9736348 magnetization       0.9169828

 Broyden mixing:
  rms(total) = 0.93152E-01    rms(broyden)= 0.93151E-01
  rms(prec ) = 0.99971E-01
  weight for this iteration     100.00

 eigenvalues of (default mixing * dielectric matrix)
  average eigenvalue GAMMA=   1.5510
  3.3213  3.3213  1.5831  1.2844  0.9269  0.6996  0.6996  0.5721

 Free energy of the ion-electron system (eV)
  ---------------------------------------------------
  alpha Z        PSCENC =       253.99581917
  Ewald energy   TEWEN  =     -9970.72729788
  -Hartree energ DENC   =     -4878.00026138
  -exchange      EXHF   =         0.00000000
  -V(xc)+E(xc)   XCENC  =       690.10344636
  PAW double counting   =     39151.24759461   -38976.44091866
  entropy T*S    EENTRO =         0.00000000
  eigenvalues    EBANDS =     -2001.49225059
  atomic energy  EATOM  =     15501.99929693
  Solvation  Ediel_sol  =         0.00000000
  ---------------------------------------------------
  free energy    TOTEN  =      -229.31457144 eV

  energy without entropy =     -229.31457144  energy(sigma->0) =     -229.31457144


--------------------------------------------------------------------------------------------------------




--------------------------------------- Iteration      1(  14)  ---------------------------------------


    POTLOK:  cpu time      0.4363: real time      0.4382
    SETDIJ:  cpu time      6.9246: real time      6.9252
     EDDAV:  cpu time     52.8812: real time     52.8924
 BZINTS: Fermi energy:    0.080154;  336.000000 electrons
         Band energy:-0.201197E+04;  BLOECHL correction:    0.000000
       DOS:  cpu time      0.0275: real time      0.0276
    CHARGE:  cpu time      9.6453: real time      9.6462
    MIXING:  cpu time      0.0091: real time      0.0091
    --------------------------------------------
      LOOP:  cpu time     69.9241: real time     69.9389

 eigenvalue-minimisations  :  8992
 total energy-change (2. order) :-0.6531890E-01  (-0.1628602E-01)
 number of electron     335.9999997 magnetization       0.4182189
 augmentation part      -47.0007356 magnetization       0.4252520

 Broyden mixing:
  rms(total) = 0.43794E-01    rms(broyden)= 0.43794E-01
  rms(prec ) = 0.46499E-01
  weight for this iteration     100.00

 eigenvalues of (default mixing * dielectric matrix)
  average eigenvalue GAMMA=   1.5782
  4.1292  2.5563  2.5563  1.0965  1.0965  0.7711  0.7711  0.5747  0.6518

 Free energy of the ion-electron system (eV)
  ---------------------------------------------------
  alpha Z        PSCENC =       253.99581917
  Ewald energy   TEWEN  =     -9970.72729788
  -Hartree energ DENC   =     -4866.63042066
  -exchange      EXHF   =         0.00000000
  -V(xc)+E(xc)   XCENC  =       689.19012949
  PAW double counting   =     39089.62180390   -38914.86019236
  entropy T*S    EENTRO =         0.00000000
  eigenvalues    EBANDS =     -2011.96902895
  atomic energy  EATOM  =     15501.99929693
  Solvation  Ediel_sol  =         0.00000000
  ---------------------------------------------------
  free energy    TOTEN  =      -229.37989034 eV

  energy without entropy =     -229.37989034  energy(sigma->0) =     -229.37989034


--------------------------------------------------------------------------------------------------------




--------------------------------------- Iteration      1(  15)  ---------------------------------------


    POTLOK:  cpu time      0.4305: real time      0.4314
    SETDIJ:  cpu time      2.5414: real time      2.5416
     EDDAV:  cpu time     53.8021: real time     53.8105
 BZINTS: Fermi energy:    0.078270;  336.000000 electrons
         Band energy:-0.201168E+04;  BLOECHL correction:   -0.000000
       DOS:  cpu time      0.0281: real time      0.0282
    CHARGE:  cpu time      8.5343: real time      8.5350
    MIXING:  cpu time      0.0081: real time      0.0081
    --------------------------------------------
      LOOP:  cpu time     65.3445: real time     65.3548

 eigenvalue-minimisations  :  9600
 total energy-change (2. order) : 0.1231955E-02  (-0.2077249E-02)
 number of electron     335.9999997 magnetization       0.1725917
 augmentation part      -46.9946511 magnetization       0.1768751

 Broyden mixing:
  rms(total) = 0.20244E-01    rms(broyden)= 0.20244E-01
  rms(prec ) = 0.21824E-01
  weight for this iteration     100.00

 eigenvalues of (default mixing * dielectric matrix)
  average eigenvalue GAMMA=   1.5644
  4.5521  2.5274  2.5274  1.3331  0.9968  0.9968  0.7586  0.7586  0.6240  0.5691

 Free energy of the ion-electron system (eV)
  ---------------------------------------------------
  alpha Z        PSCENC =       253.99581917
  Ewald energy   TEWEN  =     -9970.72729788
  -Hartree energ DENC   =     -4866.78958122
  -exchange      EXHF   =         0.00000000
  -V(xc)+E(xc)   XCENC  =       689.15101452
  PAW double counting   =     39175.03200545   -39000.35744360
  entropy T*S    EENTRO =         0.00000000
  eigenvalues    EBANDS =     -2011.68247176
  atomic energy  EATOM  =     15501.99929693
  Solvation  Ediel_sol  =         0.00000000
  ---------------------------------------------------
  free energy    TOTEN  =      -229.37865839 eV

  energy without entropy =     -229.37865839  energy(sigma->0) =     -229.37865839


--------------------------------------------------------------------------------------------------------




--------------------------------------- Iteration      1(  16)  ---------------------------------------


    POTLOK:  cpu time      0.4305: real time      0.4313
    SETDIJ:  cpu time      5.9781: real time      5.9803
     EDDAV:  cpu time     55.1952: real time     55.2036
 BZINTS: Fermi energy:    0.076664;  336.000000 electrons
         Band energy:-0.201214E+04;  BLOECHL correction:    0.000000
       DOS:  cpu time      0.0258: real time      0.0259
    CHARGE:  cpu time      8.2861: real time      8.2868
    MIXING:  cpu time      0.0105: real time      0.0105
    --------------------------------------------
      LOOP:  cpu time     69.9261: real time     69.9382

 eigenvalue-minimisations  :  9120
 total energy-change (2. order) : 0.3120522E-02  (-0.5515764E-03)
 number of electron     335.9999997 magnetization       0.0697640
 augmentation part      -46.9934924 magnetization       0.0705638

 Broyden mixing:
  rms(total) = 0.12356E-01    rms(broyden)= 0.12356E-01
  rms(prec ) = 0.13370E-01
  weight for this iteration     100.00

 eigenvalues of (default mixing * dielectric matrix)
  average eigenvalue GAMMA=   1.5464
  4.7577  2.4273  2.4273  1.8405  0.9957  0.9957  0.9226  0.7279  0.7279  0.5804
  0.6070

 Free energy of the ion-electron system (eV)
  ---------------------------------------------------
  alpha Z        PSCENC =       253.99581917
  Ewald energy   TEWEN  =     -9970.72729788
  -Hartree energ DENC   =     -4866.23276110
  -exchange      EXHF   =         0.00000000
  -V(xc)+E(xc)   XCENC  =       689.08302011
  PAW double counting   =     39145.25378854   -38970.60317520
  entropy T*S    EENTRO =         0.00000000
  eigenvalues    EBANDS =     -2012.14422844
  atomic energy  EATOM  =     15501.99929693
  Solvation  Ediel_sol  =         0.00000000
  ---------------------------------------------------
  free energy    TOTEN  =      -229.37553786 eV

  energy without entropy =     -229.37553786  energy(sigma->0) =     -229.37553786


--------------------------------------------------------------------------------------------------------




--------------------------------------- Iteration      1(  17)  ---------------------------------------


    POTLOK:  cpu time      0.4148: real time      0.4158
    SETDIJ:  cpu time      6.4383: real time      6.4388
     EDDAV:  cpu time     53.3976: real time     53.4059
 BZINTS: Fermi energy:    0.078416;  336.000000 electrons
         Band energy:-0.201122E+04;  BLOECHL correction:    0.000000
       DOS:  cpu time      0.0268: real time      0.0268
    CHARGE:  cpu time     10.4267: real time     10.4276
    MIXING:  cpu time      0.0133: real time      0.0133
    --------------------------------------------
      LOOP:  cpu time     70.7174: real time     70.7282

 eigenvalue-minimisations  :  9472
 total energy-change (2. order) :-0.5049511E-03  (-0.1193414E-03)
 number of electron     335.9999997 magnetization       0.0178299
 augmentation part      -46.9884234 magnetization       0.0182257

 Broyden mixing:
  rms(total) = 0.49331E-02    rms(broyden)= 0.49331E-02
  rms(prec ) = 0.55361E-02
  weight for this iteration     100.00

 eigenvalues of (default mixing * dielectric matrix)
  average eigenvalue GAMMA=   1.5758
  4.9481  2.6012  2.6012  2.2004  1.1771  0.9962  0.9962  0.7617  0.7617  0.6812
  0.5867  0.5981

 Free energy of the ion-electron system (eV)
  ---------------------------------------------------
  alpha Z        PSCENC =       253.99581917
  Ewald energy   TEWEN  =     -9970.72729788
  -Hartree energ DENC   =     -4867.19429289
  -exchange      EXHF   =         0.00000000
  -V(xc)+E(xc)   XCENC  =       689.14288068
  PAW double counting   =     39186.14058338   -39011.51427173
  entropy T*S    EENTRO =         0.00000000
  eigenvalues    EBANDS =     -2011.21876048
  atomic energy  EATOM  =     15501.99929693
  Solvation  Ediel_sol  =         0.00000000
  ---------------------------------------------------
  free energy    TOTEN  =      -229.37604281 eV

  energy without entropy =     -229.37604281  energy(sigma->0) =     -229.37604281


--------------------------------------------------------------------------------------------------------




--------------------------------------- Iteration      1(  18)  ---------------------------------------


    POTLOK:  cpu time      0.4116: real time      0.4203
    SETDIJ:  cpu time      5.9668: real time      5.9672
     EDDAV:  cpu time     54.8300: real time     54.8385
 BZINTS: Fermi energy:    0.079417;  336.000000 electrons
         Band energy:-0.201069E+04;  BLOECHL correction:   -0.000000
       DOS:  cpu time      0.0290: real time      0.0290
    CHARGE:  cpu time      7.4557: real time      7.4564
    MIXING:  cpu time      0.0103: real time      0.0103
    --------------------------------------------
      LOOP:  cpu time     68.7033: real time     68.7218

 eigenvalue-minimisations  :  9504
 total energy-change (2. order) :-0.1155139E-03  (-0.3974169E-04)
 number of electron     335.9999997 magnetization       0.0051485
 augmentation part      -46.9850744 magnetization       0.0056897

 Broyden mixing:
  rms(total) = 0.44629E-02    rms(broyden)= 0.44629E-02
  rms(prec ) = 0.47162E-02
  weight for this iteration     100.00

 eigenvalues of (default mixing * dielectric matrix)
  average eigenvalue GAMMA=   1.5443
  5.0021  2.6445  2.6445  2.2628  1.1303  1.1303  0.9905  0.9905  0.7252  0.7252
  0.5782  0.6445  0.6067

 Free energy of the ion-electron system (eV)
  ---------------------------------------------------
  alpha Z        PSCENC =       253.99581917
  Ewald energy   TEWEN  =     -9970.72729788
  -Hartree energ DENC   =     -4867.74087353
  -exchange      EXHF   =         0.00000000
  -V(xc)+E(xc)   XCENC  =       689.17836350
  PAW double counting   =     39215.01343828   -39040.40203207
  entropy T*S    EENTRO =         0.00000000
  eigenvalues    EBANDS =     -2010.69287275
  atomic energy  EATOM  =     15501.99929693
  Solvation  Ediel_sol  =         0.00000000
  ---------------------------------------------------
  free energy    TOTEN  =      -229.37615833 eV

  energy without entropy =     -229.37615833  energy(sigma->0) =     -229.37615833


--------------------------------------------------------------------------------------------------------




--------------------------------------- Iteration      1(  19)  ---------------------------------------


    POTLOK:  cpu time      0.4350: real time      0.4358
    SETDIJ:  cpu time     10.2311: real time     10.2319
     EDDAV:  cpu time     59.4898: real time     59.4986
 BZINTS: Fermi energy:    0.078818;  336.000000 electrons
         Band energy:-0.201095E+04;  BLOECHL correction:    0.000000
       DOS:  cpu time      0.0265: real time      0.0266
    CHARGE:  cpu time      8.3153: real time      8.3160
    MIXING:  cpu time      0.0148: real time      0.0148
    --------------------------------------------
      LOOP:  cpu time     78.5124: real time     78.5237

 eigenvalue-minimisations  :  9760
 total energy-change (2. order) :-0.6190479E-05  (-0.6234540E-05)
 number of electron     335.9999997 magnetization      -0.0005245
 augmentation part      -46.9859104 magnetization      -0.0002829

 Broyden mixing:
  rms(total) = 0.20238E-02    rms(broyden)= 0.20237E-02
  rms(prec ) = 0.21992E-02
  weight for this iteration     100.00

 eigenvalues of (default mixing * dielectric matrix)
  average eigenvalue GAMMA=   1.5453
  5.0451  2.7067  2.7067  2.1077  1.4082  1.4082  1.0325  1.0325  0.8589  0.7538
  0.7538  0.5796  0.6094  0.6309

 Free energy of the ion-electron system (eV)
  ---------------------------------------------------
  alpha Z        PSCENC =       253.99581917
  Ewald energy   TEWEN  =     -9970.72729788
  -Hartree energ DENC   =     -4867.46572218
  -exchange      EXHF   =         0.00000000
  -V(xc)+E(xc)   XCENC  =       689.16139342
  PAW double counting   =     39213.62306391   -39039.00850664
  entropy T*S    EENTRO =         0.00000000
  eigenvalues    EBANDS =     -2010.95421126
  atomic energy  EATOM  =     15501.99929693
  Solvation  Ediel_sol  =         0.00000000
  ---------------------------------------------------
  free energy    TOTEN  =      -229.37616452 eV

  energy without entropy =     -229.37616452  energy(sigma->0) =     -229.37616452


--------------------------------------------------------------------------------------------------------




--------------------------------------- Iteration      1(  20)  ---------------------------------------


    POTLOK:  cpu time      0.4097: real time      0.4167
    SETDIJ:  cpu time     11.0819: real time     11.0828
     EDDAV:  cpu time     53.3975: real time     53.4057
 BZINTS: Fermi energy:    0.078324;  336.000000 electrons
         Band energy:-0.201109E+04;  BLOECHL correction:    0.000000
       DOS:  cpu time      0.0257: real time      0.0258
    CHARGE:  cpu time      6.8539: real time      6.8545
    MIXING:  cpu time      0.0163: real time      0.0163
    --------------------------------------------
      LOOP:  cpu time     71.7849: real time     71.8018

 eigenvalue-minimisations  :  9184
 total energy-change (2. order) :-0.1061108E-04  (-0.3469384E-05)
 number of electron     335.9999997 magnetization      -0.0016362
 augmentation part      -46.9864376 magnetization      -0.0015572

 Broyden mixing:
  rms(total) = 0.95619E-03    rms(broyden)= 0.95607E-03
  rms(prec ) = 0.10156E-02
  weight for this iteration     100.00

 eigenvalues of (default mixing * dielectric matrix)
  average eigenvalue GAMMA=   1.5469
  5.0952  2.7078  2.7078  2.0981  2.0981  1.2301  1.2301  0.9904  0.9904  0.7803
  0.7329  0.7329  0.5776  0.6159  0.6159

 Free energy of the ion-electron system (eV)
  ---------------------------------------------------
  alpha Z        PSCENC =       253.99581917
  Ewald energy   TEWEN  =     -9970.72729788
  -Hartree energ DENC   =     -4867.32335082
  -exchange      EXHF   =         0.00000000
  -V(xc)+E(xc)   XCENC  =       689.15441463
  PAW double counting   =     39218.82721202   -39044.21075123
  entropy T*S    EENTRO =         0.00000000
  eigenvalues    EBANDS =     -2011.09151795
  atomic energy  EATOM  =     15501.99929693
  Solvation  Ediel_sol  =         0.00000000
  ---------------------------------------------------
  free energy    TOTEN  =      -229.37617513 eV

  energy without entropy =     -229.37617513  energy(sigma->0) =     -229.37617513


--------------------------------------------------------------------------------------------------------




--------------------------------------- Iteration      1(  21)  ---------------------------------------


    POTLOK:  cpu time      0.4074: real time      0.4082
    SETDIJ:  cpu time     12.2618: real time     12.2627
     EDDAV:  cpu time     53.5888: real time     53.5971
 BZINTS: Fermi energy:    0.078492;  336.000000 electrons
         Band energy:-0.201115E+04;  BLOECHL correction:    0.000000
       DOS:  cpu time      0.0257: real time      0.0258
    CHARGE:  cpu time      8.8538: real time      8.8545
    MIXING:  cpu time      0.0161: real time      0.0161
    --------------------------------------------
      LOOP:  cpu time     75.1535: real time     75.1643

 eigenvalue-minimisations  :  9280
 total energy-change (2. order) : 0.1135406E-05  (-0.8899188E-06)
 number of electron     335.9999997 magnetization      -0.0013481
 augmentation part      -46.9866345 magnetization      -0.0013520

 Broyden mixing:
  rms(total) = 0.42519E-03    rms(broyden)= 0.42492E-03
  rms(prec ) = 0.44735E-03
  weight for this iteration     100.00

 eigenvalues of (default mixing * dielectric matrix)
  average eigenvalue GAMMA=   1.5118
  5.0969  2.6675  2.6675  2.5706  1.6120  1.4014  1.1558  1.1558  0.9277  0.9277
  0.7392  0.7392  0.7252  0.5773  0.6126  0.6126

 Free energy of the ion-electron system (eV)
  ---------------------------------------------------
  alpha Z        PSCENC =       253.99581917
  Ewald energy   TEWEN  =     -9970.72729788
  -Hartree energ DENC   =     -4867.26351217
  -exchange      EXHF   =         0.00000000
  -V(xc)+E(xc)   XCENC  =       689.15074368
  PAW double counting   =     39218.24977620   -39043.63249365
  entropy T*S    EENTRO =         0.00000000
  eigenvalues    EBANDS =     -2011.14850627
  atomic energy  EATOM  =     15501.99929693
  Solvation  Ediel_sol  =         0.00000000
  ---------------------------------------------------
  free energy    TOTEN  =      -229.37617400 eV

  energy without entropy =     -229.37617400  energy(sigma->0) =     -229.37617400


--------------------------------------------------------------------------------------------------------




--------------------------------------- Iteration      1(  22)  ---------------------------------------


    POTLOK:  cpu time      0.4064: real time      0.4148
    SETDIJ:  cpu time      4.4249: real time      4.4253
     EDDAV:  cpu time     54.5354: real time     54.5439
 BZINTS: Fermi energy:    0.078353;  336.000000 electrons
         Band energy:-0.201117E+04;  BLOECHL correction:    0.000000
       DOS:  cpu time      0.0257: real time      0.0257
    CHARGE:  cpu time      9.0440: real time      9.0447
    MIXING:  cpu time      0.0234: real time      0.0234
    --------------------------------------------
      LOOP:  cpu time     68.4597: real time     68.4777

 eigenvalue-minimisations  :  9792
 total energy-change (2. order) : 0.4531976E-06  (-0.1418614E-06)
 number of electron     335.9999997 magnetization      -0.0004761
 augmentation part      -46.9867039 magnetization      -0.0004977

 Broyden mixing:
  rms(total) = 0.23148E-03    rms(broyden)= 0.23098E-03
  rms(prec ) = 0.24565E-03
  weight for this iteration     100.00

 eigenvalues of (default mixing * dielectric matrix)
  average eigenvalue GAMMA=   1.5003
  5.0913  2.6564  2.6564  2.6235  1.6701  1.4402  1.4402  1.0831  1.0831  0.9001
  0.9001  0.7423  0.7423  0.6731  0.5784  0.6127  0.6127

 Free energy of the ion-electron system (eV)
  ---------------------------------------------------
  alpha Z        PSCENC =       253.99581917
  Ewald energy   TEWEN  =     -9970.72729788
  -Hartree energ DENC   =     -4867.24174807
  -exchange      EXHF   =         0.00000000
  -V(xc)+E(xc)   XCENC  =       689.14915408
  PAW double counting   =     39216.83505271   -39042.21746278
  entropy T*S    EENTRO =         0.00000000
  eigenvalues    EBANDS =     -2011.16898770
  atomic energy  EATOM  =     15501.99929693
  Solvation  Ediel_sol  =         0.00000000
  ---------------------------------------------------
  free energy    TOTEN  =      -229.37617354 eV

  energy without entropy =     -229.37617354  energy(sigma->0) =     -229.37617354


--------------------------------------------------------------------------------------------------------




--------------------------------------- Iteration      1(  23)  ---------------------------------------


    POTLOK:  cpu time      0.4366: real time      0.4375
    SETDIJ:  cpu time     11.3987: real time     11.3995
     EDDAV:  cpu time     53.2922: real time     53.3004
 BZINTS: Fermi energy:    0.078429;  336.000000 electrons
         Band energy:-0.201116E+04;  BLOECHL correction:    0.000000
       DOS:  cpu time      0.0257: real time      0.0258
    CHARGE:  cpu time      5.9342: real time      5.9348
    MIXING:  cpu time      0.0171: real time      0.0171
    --------------------------------------------
      LOOP:  cpu time     71.1046: real time     71.1152

 eigenvalue-minimisations  :  9216
 total energy-change (2. order) :-0.2227389E-06  (-0.5739002E-07)
 number of electron     335.9999997 magnetization      -0.0002588
 augmentation part      -46.9866774 magnetization      -0.0002552

 Broyden mixing:
[...]

  length of vectors
    10.314108670 16.788494411 10.846477853     0.097707938  0.059564603  0.092912216


 FORCES acting on ions
    electron-ion (+dipol)            ewald-force                    non-local-force                 convergence-correction
 -----------------------------------------------------------------------------------------------
   0.987E+02 -.105E+03 -.126E+02   -.104E+03 0.113E+03 0.112E+02   0.495E+01 -.888E+01 0.132E+01   0.174E-05 -.301E-06 0.809E-06
   0.986E+02 -.105E+03 -.125E+02   -.104E+03 0.113E+03 0.112E+02   0.495E+01 -.888E+01 0.132E+01   0.162E-05 -.298E-06 0.826E-06
   -.123E+02 0.420E+02 -.127E+03   0.126E+02 -.472E+02 0.134E+03   -.246E+00 0.519E+01 -.705E+01   0.151E-06 0.433E-07 -.111E-05
   -.124E+02 0.420E+02 -.127E+03   0.126E+02 -.472E+02 0.134E+03   -.246E+00 0.519E+01 -.705E+01   0.853E-07 0.339E-07 -.123E-05
   -.212E+02 -.901E+02 0.981E+02   0.198E+02 0.989E+02 -.103E+03   0.134E+01 -.874E+01 0.530E+01   -.434E-07 -.104E-06 0.176E-05
   -.212E+02 -.902E+02 0.980E+02   0.198E+02 0.990E+02 -.103E+03   0.134E+01 -.874E+01 0.530E+01   -.753E-07 -.677E-07 0.186E-05
   -.108E+03 0.950E+02 0.625E+01   0.114E+03 -.101E+03 -.413E+01   -.534E+01 0.592E+01 -.212E+01   -.160E-05 -.259E-07 0.663E-06
   -.108E+03 0.950E+02 0.625E+01   0.114E+03 -.101E+03 -.414E+01   -.534E+01 0.592E+01 -.212E+01   -.179E-05 0.615E-08 0.670E-06
   0.137E+03 -.540E+02 -.187E+02   -.143E+03 0.595E+02 0.193E+02   0.680E+01 -.552E+01 -.558E+00   0.164E-05 -.245E-07 -.102E-05
   0.136E+03 -.540E+02 -.187E+02   -.143E+03 0.595E+02 0.193E+02   0.680E+01 -.552E+01 -.558E+00   0.156E-05 0.831E-08 -.101E-05
   -.136E+03 0.540E+02 0.188E+02   0.143E+03 -.595E+02 -.193E+02   -.680E+01 0.552E+01 0.558E+00   -.153E-05 -.469E-07 0.100E-05
   -.136E+03 0.539E+02 0.187E+02   0.143E+03 -.595E+02 -.193E+02   -.680E+01 0.552E+01 0.558E+00   -.165E-05 -.350E-07 0.101E-05
   0.108E+03 -.951E+02 -.689E+01   -.114E+03 0.101E+03 0.483E+01   0.532E+01 -.591E+01 0.208E+01   0.174E-05 0.276E-07 -.700E-06
   0.108E+03 -.950E+02 -.625E+01   -.114E+03 0.101E+03 0.413E+01   0.534E+01 -.592E+01 0.212E+01   0.167E-05 0.934E-08 -.669E-06
   -.123E+02 -.420E+02 0.127E+03   0.126E+02 0.472E+02 -.134E+03   -.246E+00 -.519E+01 0.705E+01   0.141E-06 0.114E-08 0.126E-05
   -.124E+02 -.420E+02 0.127E+03   0.126E+02 0.472E+02 -.134E+03   -.246E+00 -.519E+01 0.705E+01   0.478E-07 0.388E-07 0.124E-05
   0.211E+02 -.903E+02 0.981E+02   -.198E+02 0.990E+02 -.103E+03   -.134E+01 -.874E+01 0.530E+01   0.972E-07 0.463E-08 0.173E-05
   0.211E+02 -.902E+02 0.981E+02   -.197E+02 0.989E+02 -.103E+03   -.134E+01 -.874E+01 0.530E+01   0.628E-07 -.119E-08 0.184E-05
   -.986E+02 -.105E+03 -.125E+02   0.104E+03 0.113E+03 0.112E+02   -.495E+01 -.888E+01 0.132E+01   -.160E-05 -.186E-06 0.824E-06
   -.987E+02 -.105E+03 -.125E+02   0.104E+03 0.113E+03 0.112E+02   -.495E+01 -.888E+01 0.132E+01   -.175E-05 -.207E-06 0.767E-06
   -.137E+03 -.538E+02 -.185E+02   0.143E+03 0.593E+02 0.191E+02   -.676E+01 -.553E+01 -.575E+00   -.160E-05 0.277E-08 -.102E-05
   -.136E+03 -.540E+02 -.187E+02   0.143E+03 0.595E+02 0.193E+02   -.680E+01 -.552E+01 -.558E+00   -.161E-05 -.114E-07 -.102E-05
   0.123E+02 0.420E+02 -.127E+03   -.126E+02 -.472E+02 0.134E+03   0.246E+00 0.519E+01 -.705E+01   -.985E-07 -.471E-07 -.109E-05
   0.123E+02 0.420E+02 -.127E+03   -.126E+02 -.472E+02 0.134E+03   0.245E+00 0.519E+01 -.705E+01   -.118E-06 -.551E-07 -.119E-05
   -.108E+03 -.950E+02 -.626E+01   0.114E+03 0.101E+03 0.415E+01   -.534E+01 -.592E+01 0.212E+01   -.169E-05 0.102E-06 -.703E-06
   -.108E+03 -.950E+02 -.624E+01   0.114E+03 0.101E+03 0.413E+01   -.534E+01 -.592E+01 0.212E+01   -.171E-05 0.936E-07 -.678E-06
   0.988E+02 0.105E+03 0.125E+02   -.104E+03 -.113E+03 -.111E+02   0.494E+01 0.888E+01 -.133E+01   0.174E-05 0.278E-06 -.747E-06
   0.986E+02 0.105E+03 0.125E+02   -.104E+03 -.113E+03 -.112E+02   0.495E+01 0.888E+01 -.132E+01   0.166E-05 0.248E-06 -.786E-06
   -.987E+02 0.105E+03 0.125E+02   0.104E+03 -.113E+03 -.112E+02   -.495E+01 0.888E+01 -.132E+01   -.168E-05 0.226E-06 -.741E-06
   -.987E+02 0.105E+03 0.126E+02   0.104E+03 -.113E+03 -.112E+02   -.495E+01 0.888E+01 -.132E+01   -.170E-05 0.229E-06 -.779E-06
   0.728E+02 0.961E+02 0.633E+02   -.756E+02 -.106E+03 -.653E+02   0.274E+01 0.971E+01 0.207E+01   0.903E-06 0.360E-06 0.615E-06
   0.727E+02 0.961E+02 0.632E+02   -.755E+02 -.106E+03 -.653E+02   0.274E+01 0.971E+01 0.207E+01   0.821E-06 0.387E-06 0.556E-06
   0.226E+02 -.947E+02 -.886E+02   -.212E+02 0.101E+03 0.936E+02   -.142E+01 -.620E+01 -.504E+01   0.341E-06 0.887E-07 -.155E-05
   0.218E+02 -.938E+02 -.889E+02   -.204E+02 0.100E+03 0.940E+02   -.133E+01 -.628E+01 -.509E+01   0.248E-06 0.502E-07 -.148E-05
   -.211E+02 0.912E+02 -.980E+02   0.197E+02 -.999E+02 0.103E+03   0.140E+01 0.864E+01 -.529E+01   -.337E-07 0.659E-07 -.191E-05
   -.212E+02 0.902E+02 -.981E+02   0.198E+02 -.989E+02 0.103E+03   0.134E+01 0.874E+01 -.530E+01   -.127E-06 0.516E-07 -.187E-05
   -.218E+02 0.938E+02 0.889E+02   0.204E+02 -.100E+03 -.940E+02   0.133E+01 0.628E+01 0.509E+01   -.234E-06 -.696E-07 0.136E-05
   -.218E+02 0.938E+02 0.889E+02   0.205E+02 -.100E+03 -.940E+02   0.133E+01 0.628E+01 0.509E+01   -.330E-06 -.626E-07 0.148E-05
   0.212E+02 0.901E+02 -.981E+02   -.198E+02 -.988E+02 0.103E+03   -.134E+01 0.874E+01 -.530E+01   0.107E-06 0.151E-08 -.189E-05
   0.211E+02 0.902E+02 -.981E+02   -.197E+02 -.989E+02 0.103E+03   -.134E+01 0.874E+01 -.530E+01   0.194E-07 0.327E-07 -.187E-05
   0.728E+02 -.962E+02 -.632E+02   -.755E+02 0.106E+03 0.653E+02   0.274E+01 -.971E+01 -.207E+01   0.853E-06 -.382E-06 -.463E-06
   0.728E+02 -.961E+02 -.633E+02   -.755E+02 0.106E+03 0.653E+02   0.274E+01 -.971E+01 -.207E+01   0.881E-06 -.374E-06 -.551E-06
   0.136E+03 0.539E+02 0.187E+02   -.143E+03 -.595E+02 -.193E+02   0.680E+01 0.552E+01 0.558E+00   0.154E-05 0.437E-07 0.996E-06
   0.136E+03 0.540E+02 0.187E+02   -.143E+03 -.595E+02 -.192E+02   0.680E+01 0.552E+01 0.558E+00   0.165E-05 0.352E-07 0.992E-06
   0.108E+03 0.950E+02 0.616E+01   -.114E+03 -.101E+03 -.404E+01   0.534E+01 0.592E+01 -.212E+01   0.175E-05 -.578E-07 0.675E-06
   0.108E+03 0.950E+02 0.627E+01   -.114E+03 -.101E+03 -.415E+01   0.534E+01 0.592E+01 -.212E+01   0.160E-05 -.787E-07 0.682E-06
   -.727E+02 -.961E+02 -.632E+02   0.755E+02 0.106E+03 0.653E+02   -.274E+01 -.971E+01 -.207E+01   -.820E-06 -.481E-06 -.445E-06
   -.728E+02 -.962E+02 -.633E+02   0.755E+02 0.106E+03 0.653E+02   -.274E+01 -.971E+01 -.207E+01   -.896E-06 -.449E-06 -.551E-06
   -.218E+02 -.938E+02 -.889E+02   0.205E+02 0.100E+03 0.940E+02   0.133E+01 -.628E+01 -.509E+01   -.267E-06 0.120E-06 -.150E-05
   -.218E+02 -.938E+02 -.889E+02   0.205E+02 0.100E+03 0.940E+02   0.133E+01 -.628E+01 -.509E+01   -.346E-06 0.145E-06 -.152E-05
   0.217E+02 0.938E+02 0.889E+02   -.204E+02 -.100E+03 -.940E+02   -.133E+01 0.628E+01 0.509E+01   0.278E-06 -.129E-06 0.136E-05
   0.217E+02 0.938E+02 0.888E+02   -.204E+02 -.100E+03 -.939E+02   -.133E+01 0.628E+01 0.508E+01   0.293E-06 -.125E-06 0.145E-05
   -.727E+02 0.962E+02 0.633E+02   0.755E+02 -.106E+03 -.654E+02   -.274E+01 0.971E+01 0.208E+01   -.861E-06 0.460E-06 0.563E-06
   -.728E+02 0.961E+02 0.632E+02   0.755E+02 -.106E+03 -.653E+02   -.274E+01 0.971E+01 0.207E+01   -.905E-06 0.438E-06 0.576E-06
   0.124E+02 -.420E+02 0.127E+03   -.127E+02 0.472E+02 -.134E+03   0.241E+00 -.519E+01 0.705E+01   -.464E-07 0.264E-07 0.129E-05
   0.123E+02 -.420E+02 0.127E+03   -.126E+02 0.472E+02 -.134E+03   0.246E+00 -.519E+01 0.705E+01   -.161E-06 -.179E-07 0.123E-05
 -----------------------------------------------------------------------------------------------
   0.210E-01 0.194E-01 0.306E-02   0.782E-13 -.497E-13 0.199E-12   -.210E-01 -.194E-01 -.306E-02   -.163E-07 0.218E-07 0.337E-08


 POSITION                                       TOTAL-FORCE (eV/Angst)
 -----------------------------------------------------------------------------------
      7.84031      7.96182     -7.59135         0.002452     -0.001124      0.000955
     16.23455      7.96182     -7.59135         0.002531     -0.001339      0.001075
      3.16872      2.44282     -6.01943         0.002110     -0.000931     -0.002580
     11.56297      2.44282     -6.01943         0.002122     -0.000877     -0.002556
      1.76685      7.82725    -10.10485        -0.000054     -0.000276     -0.000507
     10.16110      7.82725    -10.10485         0.000017      0.000267     -0.000535
      5.05050      1.12562     -8.40433         0.001626     -0.000690     -0.000693
     13.44475      1.12562     -8.40433         0.001574     -0.000628     -0.000675
      5.13205      1.09979     -2.45651        -0.000119      0.000335     -0.000134
     13.52630      1.09979     -2.45651        -0.000100      0.000468     -0.000277
      3.26219      7.47505     -8.62356         0.000100     -0.000390      0.000084
     11.65644      7.47505     -8.62356         0.000016     -0.000563      0.000212
      3.34375      7.44923     -2.67574         0.018415     -0.002109      0.016676
     11.73799      7.44923     -2.67574        -0.001565      0.000648      0.000673
      7.36585      0.97835     -4.87422         0.001999      0.001005      0.002538
     15.76010      0.97835     -4.87422         0.002154      0.000935      0.002528
      2.43027      2.67356     -9.91842        -0.000129      0.000051     -0.000552
     10.82452      2.67356     -9.91842         0.000112     -0.000040     -0.000512
      4.75106      2.80814     -7.40493        -0.002477     -0.001204      0.001031
     13.14531      2.80814     -7.40493        -0.002470     -0.001273      0.000937
      7.45932      6.25348     -2.64294         0.011883     -0.008300     -0.013604
     15.85356      6.25348     -2.64294         0.000094      0.000450     -0.000262
      1.02840      7.59650     -6.20585        -0.002227     -0.000637     -0.002511
      9.42265      7.59650     -6.20585        -0.002203     -0.001018     -0.002562
      0.85338      2.29554     -2.48931         0.001536      0.000653      0.000654
      9.24762      2.29554     -2.48931         0.001559      0.000529      0.000604
      3.64318      5.76671     -3.67515         0.007300      0.010083      0.009547
     12.03743      5.76671     -3.67515         0.002444      0.001263     -0.000970
      0.55394      0.61303     -3.48872        -0.002420      0.001175     -0.000940
      8.94819      0.61303     -3.48872        -0.002433      0.001250     -0.000825
      5.79350     -0.03143     -4.03202        -0.001139      0.001650      0.000082
     14.18775     -0.03143     -4.03202        -0.001208      0.001759      0.000227
      4.86766      7.53946     -1.03917        -0.082604      0.064779     -0.011309
     13.25190      7.53946     -1.03917        -0.003915      0.002087     -0.000260
      5.96398      5.90128     -1.16165         0.039625     -0.060886      0.000438
     14.35822      5.90128     -1.16165        -0.000036     -0.000054      0.000409
      3.53659      1.03539    -10.04090         0.003990     -0.002092      0.000246
     11.93084      1.03539    -10.04090         0.003931     -0.002030      0.000256
      6.62739      0.74760     -0.97522         0.000421      0.000278      0.000333
     15.02164      0.74760     -0.97522         0.000088     -0.000024      0.000473
      1.59638      3.45260     -6.86163        -0.001192     -0.001832     -0.000261
      9.99063      3.45260     -6.86163        -0.001204     -0.001767     -0.000132
      0.93493      2.32137     -8.43713         0.000037     -0.000340      0.000293
      9.32918      2.32137     -8.43713        -0.000123     -0.000450      0.000268
      7.54087      6.27930     -8.59076        -0.001383     -0.000640     -0.000303
     15.93512      6.27930     -8.59076        -0.001663     -0.000675     -0.000719
      2.60074      8.60628     -7.04805         0.001247     -0.001874     -0.000074
     10.99499      8.60628     -7.04805         0.001079     -0.001754     -0.000333
      7.73371      2.38578     -0.85274         0.004055      0.002158     -0.000237
     16.12796      2.38578     -0.85274         0.003910      0.002079     -0.000257
      0.66053      6.18907    -10.22733        -0.003601     -0.001935      0.000106
      9.05478      6.18907    -10.22733        -0.003600     -0.002228      0.000463
      6.79787      5.12225     -4.21845         0.003773      0.002462      0.000405
     15.19211      5.12225     -4.21845         0.001219      0.001787      0.000312
      5.22552      6.13203     -5.06065        -0.003371      0.000926      0.000248
     13.61977      6.13203     -5.06065        -0.002187      0.000902      0.002507
 -----------------------------------------------------------------------------------
    total drift:                                0.000008      0.000000     -0.000000


--------------------------------------------------------------------------------------------------------



  FREE ENERGIE OF THE ION-ELECTRON SYSTEM (eV)
  ---------------------------------------------------
  free  energy   TOTEN  =      -229.37617357 eV

  energy  without entropy=     -229.37617357  energy(sigma->0) =     -229.37617357



--------------------------------------------------------------------------------------------------------


    POTLOK:  cpu time      4.6673: real time      4.6702


--------------------------------------------------------------------------------------------------------


     LOOP+:  cpu time   2550.6360: real time   2551.0644
    4ORBIT:  cpu time      0.0000: real time      0.0000



 total charge

# of ion       s       p       d       tot
------------------------------------------
    1        1.376   2.247   0.000   3.623
    2        1.376   2.247   0.000   3.623
    3        1.376   2.258   0.000   3.635
    4        1.376   2.258   0.000   3.635
    5        1.376   2.247   0.000   3.623
    6        1.376   2.247   0.000   3.622
    7        1.375   2.262   0.000   3.638
    8        1.375   2.262   0.000   3.638
    9        1.377   2.257   0.000   3.634
   10        1.377   2.257   0.000   3.634
   11        1.377   2.257   0.000   3.634
   12        1.377   2.257   0.000   3.634
   13        1.376   2.261   0.000   3.637
   14        1.375   2.262   0.000   3.638
   15        1.376   2.258   0.000   3.635
   16        1.376   2.258   0.000   3.635
   17        1.376   2.247   0.000   3.623
   18        1.376   2.247   0.000   3.623
   19        1.376   2.247   0.000   3.623
   20        1.376   2.247   0.000   3.623
   21        1.377   2.258   0.000   3.635
   22        1.377   2.257   0.000   3.634
   23        1.376   2.258   0.000   3.635
   24        1.376   2.258   0.000   3.635
   25        1.375   2.262   0.000   3.638
   26        1.375   2.262   0.000   3.638
   27        1.376   2.247   0.000   3.622
   28        1.376   2.247   0.000   3.623
   29        1.376   2.247   0.000   3.623
   30        1.376   2.247   0.000   3.623
   31        1.376   2.254   0.000   3.630
   32        1.376   2.254   0.000   3.630
   33        1.375   2.264   0.000   3.640
   34        1.375   2.263   0.000   3.638
   35        1.376   2.249   0.000   3.624
   36        1.376   2.247   0.000   3.623
   37        1.375   2.263   0.000   3.638
   38        1.375   2.263   0.000   3.638
   39        1.376   2.247   0.000   3.623
   40        1.376   2.247   0.000   3.623
   41        1.376   2.254   0.000   3.630
   42        1.376   2.254   0.000   3.630
   43        1.377   2.257   0.000   3.634
   44        1.377   2.257   0.000   3.634
   45        1.375   2.262   0.000   3.638
   46        1.375   2.262   0.000   3.638
   47        1.376   2.254   0.000   3.630
   48        1.376   2.254   0.000   3.630
   49        1.375   2.263   0.000   3.638
   50        1.375   2.263   0.000   3.638
   51        1.375   2.263   0.000   3.638
   52        1.375   2.263   0.000   3.638
   53        1.376   2.254   0.000   3.630
   54        1.376   2.254   0.000   3.630
   55        1.376   2.258   0.000   3.635
   56        1.376   2.258   0.000   3.635
--------------------------------------------------
tot         77.049 126.315   0.000 203.364



 magnetization (x)

# of ion       s       p       d       tot
------------------------------------------
    1        0.000   0.000   0.000   0.000
    2        0.000   0.000   0.000   0.000
    3        0.000   0.000   0.000   0.000
    4        0.000   0.000   0.000   0.000
    5        0.000   0.000   0.000   0.000
    6        0.000   0.000   0.000   0.000
    7        0.000   0.000   0.000   0.000
    8        0.000   0.000   0.000   0.000
    9        0.000   0.000   0.000   0.000
   10        0.000   0.000   0.000   0.000
   11        0.000   0.000   0.000   0.000
   12        0.000   0.000   0.000   0.000
   13        0.000   0.000   0.000   0.000
   14        0.000   0.000   0.000   0.000
   15        0.000   0.000   0.000   0.000
   16        0.000   0.000   0.000   0.000
   17        0.000   0.000   0.000   0.000
   18        0.000   0.000   0.000   0.000
   19        0.000   0.000   0.000   0.000
   20        0.000   0.000   0.000   0.000
   21        0.000   0.000   0.000   0.000
   22        0.000   0.000   0.000   0.000
   23        0.000   0.000   0.000   0.000
   24        0.000   0.000   0.000   0.000
   25        0.000   0.000   0.000   0.000
   26        0.000   0.000   0.000   0.000
   27        0.000   0.000   0.000   0.000
   28        0.000   0.000   0.000   0.000
   29        0.000   0.000   0.000   0.000
   30        0.000   0.000   0.000   0.000
   31        0.000   0.000   0.000   0.000
   32        0.000   0.000   0.000   0.000
   33        0.000   0.000   0.000   0.000
   34        0.000   0.000   0.000   0.000
   35        0.000   0.000   0.000   0.000
   36        0.000   0.000   0.000   0.000
   37        0.000   0.000   0.000   0.000
   38        0.000   0.000   0.000   0.000
   39        0.000   0.000   0.000   0.000
   40        0.000   0.000   0.000   0.000
   41        0.000   0.000   0.000   0.000
   42        0.000   0.000   0.000   0.000
   43        0.000   0.000   0.000   0.000
   44        0.000   0.000   0.000   0.000
   45        0.000   0.000   0.000   0.000
   46        0.000   0.000   0.000   0.000
   47        0.000   0.000   0.000   0.000
   48        0.000   0.000   0.000   0.000
   49        0.000   0.000   0.000   0.000
   50        0.000   0.000   0.000   0.000
   51        0.000   0.000   0.000   0.000
   52        0.000   0.000   0.000   0.000
   53        0.000   0.000   0.000   0.000
   54        0.000   0.000   0.000   0.000
   55        0.000   0.000   0.000   0.000
   56        0.000   0.000   0.000   0.000
--------------------------------------------------
tot          0.000   0.000   0.000   0.000

 BZINTS: Fermi energy:    0.078062;  336.000000 electrons
         Band energy:-0.201118E+04;  BLOECHL correction:    0.000000

 total amount of memory used by VASP MPI-rank0   322725. kBytes
=======================================================================

   base      :      30000. kBytes
   nonl-proj :      70692. kBytes
   fftplans  :      34504. kBytes
   grid      :      83442. kBytes
   one-center:        344. kBytes
   wavefun   :     103743. kBytes

  
  
 General timing and accounting informations for this job:
 ========================================================
  
                  Total CPU time used (sec):     2591.120
                            User time (sec):     2589.637
                          System time (sec):        1.483
                         Elapsed time (sec):     2591.991
  
                   Maximum memory used (kb):      612116.
                   Average memory used (kb):          N/A
  
                          Minor page faults:       738044
                          Major page faults:           65
                 Voluntary context switches:         3414
