       N       E                     dE             d eps       ncg     rms          rms(c)
DAV:   1     0.407276721980E+04    0.40728E+04   -0.23726E+05 11968   0.120E+03
DAV:   2    -0.918571011491E+02   -0.41646E+04   -0.39643E+04 14273   0.320E+02
DAV:   3    -0.524637141825E+03   -0.43278E+03   -0.42935E+03 15312   0.117E+02
DAV:   4    -0.535624482429E+03   -0.10987E+02   -0.10952E+02 15184   0.196E+01
DAV:   5    -0.536408812887E+03   -0.78433E+00   -0.78389E+00 19200   0.401E+00    0.881E+01
DAV:   6    -0.228088748499E+03    0.30832E+03   -0.78771E+02 13409   0.466E+01    0.432E+01
DAV:   7    -0.393673181042E+03   -0.16558E+03   -0.13189E+02 14003   0.179E+01    0.271E+01
DAV:   8    -0.459007574143E+03   -0.65334E+02   -0.31885E+01 13864   0.838E+00    0.177E+01
DAV:   9    -0.551766862752E+03   -0.92759E+02   -0.81703E+01 13346   0.120E+01    0.868E+00
DAV:  10    -0.589659485652E+03   -0.37893E+02   -0.49742E+01 14008   0.858E+00    0.533E+00
DAV:  11    -0.593875179054E+03   -0.42157E+01   -0.10337E+01 14200   0.449E+00    0.251E+00
DAV:  12    -0.593943015086E+03   -0.67836E-01   -0.10415E+00 13536   0.170E+00    0.183E+00
DAV:  13    -0.593969497430E+03   -0.26482E-01   -0.88628E-02 15064   0.595E-01    0.115E+00
DAV:  14    -0.594003353024E+03   -0.33856E-01   -0.62929E-02 13480   0.439E-01    0.528E-01
DAV:  15    -0.594006651610E+03   -0.32986E-02   -0.69650E-03 14776   0.157E-01    0.187E-01
DAV:  16    -0.594006744315E+03   -0.92704E-04   -0.10481E-03 14672   0.580E-02    0.117E-01
DAV:  17    -0.594006869581E+03   -0.12527E-03   -0.21624E-04 13880   0.287E-02    0.645E-02
DAV:  18    -0.594006925011E+03   -0.55430E-04   -0.52812E-05 13784   0.196E-02    0.291E-02
DAV:  19    -0.594006942743E+03   -0.17731E-04   -0.44866E-05 13472   0.138E-02    0.125E-02
DAV:  20    -0.594006945419E+03   -0.26766E-05   -0.62722E-06 13424   0.498E-03    0.652E-03
DAV:  21    -0.594006946722E+03   -0.13029E-05   -0.31265E-06 11672   0.359E-03    0.280E-03
DAV:  22    -0.594006946853E+03   -0.13133E-06   -0.66877E-07  9848   0.196E-03
   1 F= -.60802141E+03 E0= -.60802141E+03  d E =-.608021E+03  mag=    -0.0003
       N       E                     dE             d eps       ncg     rms          rms(c)
DAV:   1    -0.609740030822E+03   -0.15733E+02   -0.38041E+02 13475   0.474E+01    0.315E+01
DAV:   2    -0.595422161028E+03    0.14318E+02   -0.37054E+01 13104   0.149E+01    0.104E+01
DAV:   3    -0.594547826737E+03    0.87433E+00   -0.53894E+00 13432   0.539E+00    0.215E+00
DAV:   4    -0.594456709061E+03    0.91118E-01   -0.34922E-01 14656   0.125E+00    0.161E+00
DAV:   5    -0.594448265518E+03    0.84435E-02   -0.42968E-02 15424   0.377E-01    0.116E+00
DAV:   6    -0.594443490781E+03    0.47747E-02   -0.22619E-02 15536   0.366E-01    0.316E-01
DAV:   7    -0.594444046247E+03   -0.55547E-03   -0.40124E-03 17024   0.109E-01    0.126E-01
DAV:   8    -0.594443978947E+03    0.67300E-04   -0.37006E-04 14464   0.474E-02    0.650E-02
DAV:   9    -0.594444033131E+03   -0.54184E-04   -0.35854E-05 15408   0.142E-02    0.186E-02
DAV:  10    -0.594444040779E+03   -0.76479E-05   -0.72308E-06 14312   0.527E-03    0.755E-03
DAV:  11    -0.594444042571E+03   -0.17919E-05   -0.83356E-07  8624   0.250E-03    0.337E-03
DAV:  12    -0.594444043796E+03   -0.12245E-05   -0.75773E-07  8528   0.241E-03    0.124E-03
DAV:  13    -0.594444043979E+03   -0.18303E-06   -0.25044E-07  6960   0.125E-03
   2 F= -.60951853E+03 E0= -.60951853E+03  d E =-.149713E+01  mag=    -0.0000
       N       E                     dE             d eps       ncg     rms          rms(c)
DAV:   1    -0.595546280563E+03   -0.11022E+01   -0.18456E+01 13482   0.110E+01    0.683E+00
DAV:   2    -0.594864872877E+03    0.68141E+00   -0.18177E+00 13357   0.309E+00    0.222E+00
DAV:   3    -0.594819297687E+03    0.45575E-01   -0.24607E-01 13288   0.104E+00    0.463E-01
DAV:   4    -0.594814809225E+03    0.44885E-02   -0.15134E-02 14544   0.247E-01    0.299E-01
DAV:   5    -0.594814340130E+03    0.46910E-03   -0.18735E-03 15704   0.746E-02    0.206E-01
DAV:   6    -0.594814084725E+03    0.25540E-03   -0.83240E-04 15360   0.659E-02    0.685E-02
DAV:   7    -0.594814062772E+03    0.21953E-04   -0.16186E-04 17232   0.219E-02    0.246E-02
DAV:   8    -0.594814058965E+03    0.38074E-05   -0.16800E-05 14280   0.939E-03    0.123E-02
DAV:   9    -0.594814054162E+03    0.48033E-05   -0.14095E-06  9592   0.313E-03    0.255E-03
DAV:  10    -0.594814053990E+03    0.17205E-06   -0.39569E-07  7128   0.130E-03
   3 F= -.60965123E+03 E0= -.60965123E+03  d E =-.162982E+01  mag=    -0.0000
