  28  28   0   0
  0.2362104E+02  0.8712692E-09  0.8712692E-09  0.8712692E-09  0.1500000E-16
   1.0000000000000000E-004
  CAR 
 unknown system                          
     10.10008238    -22.53275632  301      2.39057424      1.00000000
    -22.533  0.0000E+00  0.0000E+00
    -22.424  0.0000E+00  0.0000E+00
    -22.315  0.0000E+00  0.0000E+00
    -22.206  0.0000E+00  0.0000E+00
    -22.098  0.0000E+00  0.0000E+00
    -21.989  0.0000E+00  0.0000E+00
    -21.880  0.0000E+00  0.0000E+00
    -21.771  0.0000E+00  0.0000E+00
    -21.663  0.0000E+00  0.0000E+00
    -21.554  0.0000E+00  0.0000E+00
    -21.445  0.0000E+00  0.0000E+00
    -21.336  0.5712E-16  0.6213E-17
    -21.227  0.6488E-07  0.7057E-08
    -21.119  0.8805E-02  0.9578E-03
    -21.010  0.4507E+00  0.4998E-01
    -20.901  0.1319E+00  0.6434E-01
    -20.792  0.7245E-04  0.6434E-01
    -20.684  0.2324E-10  0.6434E-01
    -20.575  0.9769E-04  0.6435E-01
    -20.466  0.1574E+00  0.8147E-01
    -20.357  0.6136E+00  0.1482E+00
    -20.248  0.4066E+00  0.1924E+00
    -20.140  0.5366E-02  0.1930E+00
    -20.031  0.5077E-07  0.1930E+00
    -19.922  0.8756E-16  0.1930E+00
    -19.813  0.0000E+00  0.1930E+00
    -19.705  0.0000E+00  0.1930E+00
    -19.596  0.0000E+00  0.1930E+00
    -19.487  0.0000E+00  0.1930E+00
    -19.378  0.0000E+00  0.1930E+00
    -19.269  0.0000E+00  0.1930E+00
    -19.161  0.0000E+00  0.1930E+00
    -19.052  0.0000E+00  0.1930E+00
    -18.943  0.0000E+00  0.1930E+00
    -18.834  0.0000E+00  0.1930E+00
    -18.726  0.0000E+00  0.1930E+00
    -18.617  0.0000E+00  0.1930E+00
    -18.508  0.0000E+00  0.1930E+00
    -18.399  0.0000E+00  0.1930E+00
    -18.290  0.0000E+00  0.1930E+00
    -18.182  0.0000E+00  0.1930E+00
    -18.073  0.0000E+00  0.1930E+00
    -17.964  0.0000E+00  0.1930E+00
    -17.855  0.0000E+00  0.1930E+00
    -17.747  0.0000E+00  0.1930E+00
    -17.638  0.0000E+00  0.1930E+00
    -17.529  0.0000E+00  0.1930E+00
    -17.420  0.0000E+00  0.1930E+00
    -17.312  0.0000E+00  0.1930E+00
    -17.203  0.0000E+00  0.1930E+00
    -17.094  0.0000E+00  0.1930E+00
    -16.985  0.0000E+00  0.1930E+00
    -16.876  0.0000E+00  0.1930E+00
    -16.768  0.0000E+00  0.1930E+00
    -16.659  0.0000E+00  0.1930E+00
    -16.550  0.0000E+00  0.1930E+00
    -16.441  0.0000E+00  0.1930E+00
    -16.333  0.0000E+00  0.1930E+00
    -16.224  0.0000E+00  0.1930E+00
    -16.115  0.0000E+00  0.1930E+00
    -16.006  0.0000E+00  0.1930E+00
    -15.897  0.0000E+00  0.1930E+00
    -15.789  0.0000E+00  0.1930E+00
    -15.680  0.0000E+00  0.1930E+00
    -15.571  0.0000E+00  0.1930E+00
    -15.462  0.0000E+00  0.1930E+00
    -15.354  0.0000E+00  0.1930E+00
    -15.245  0.0000E+00  0.1930E+00
    -15.136  0.0000E+00  0.1930E+00
    -15.027  0.0000E+00  0.1930E+00
    -14.918  0.0000E+00  0.1930E+00
    -14.810  0.0000E+00  0.1930E+00
    -14.701  0.0000E+00  0.1930E+00
    -14.592  0.0000E+00  0.1930E+00
    -14.483  0.0000E+00  0.1930E+00
    -14.375  0.0000E+00  0.1930E+00
    -14.266  0.0000E+00  0.1930E+00
    -14.157  0.0000E+00  0.1930E+00
    -14.048  0.0000E+00  0.1930E+00
    -13.939  0.0000E+00  0.1930E+00
    -13.831  0.0000E+00  0.1930E+00
    -13.722  0.0000E+00  0.1930E+00
    -13.613  0.0000E+00  0.1930E+00
    -13.504  0.0000E+00  0.1930E+00
    -13.396  0.0000E+00  0.1930E+00
    -13.287  0.0000E+00  0.1930E+00
    -13.178  0.0000E+00  0.1930E+00
    -13.069  0.0000E+00  0.1930E+00
    -12.960  0.0000E+00  0.1930E+00
    -12.852  0.0000E+00  0.1930E+00
    -12.743  0.0000E+00  0.1930E+00
    -12.634  0.0000E+00  0.1930E+00
    -12.525  0.0000E+00  0.1930E+00
    -12.417  0.0000E+00  0.1930E+00
    -12.308  0.0000E+00  0.1930E+00
    -12.199  0.0000E+00  0.1930E+00
    -12.090  0.0000E+00  0.1930E+00
    -11.981  0.0000E+00  0.1930E+00
    -11.873  0.0000E+00  0.1930E+00
    -11.764  0.0000E+00  0.1930E+00
    -11.655  0.0000E+00  0.1930E+00
    -11.546  0.0000E+00  0.1930E+00
    -11.438  0.0000E+00  0.1930E+00
    -11.329  0.0000E+00  0.1930E+00
    -11.220  0.0000E+00  0.1930E+00
    -11.111  0.0000E+00  0.1930E+00
    -11.002  0.0000E+00  0.1930E+00
    -10.894  0.0000E+00  0.1930E+00
    -10.785  0.0000E+00  0.1930E+00
    -10.676  0.0000E+00  0.1930E+00
    -10.567  0.2736E-17  0.1930E+00
    -10.459  0.2145E-08  0.1930E+00
    -10.350  0.1828E-03  0.1930E+00
    -10.241  0.5410E-02  0.1936E+00
    -10.132  0.2803E-01  0.1967E+00
    -10.024  0.1014E+00  0.2077E+00
     -9.915  0.6067E-01  0.2143E+00
     -9.806  0.1439E-02  0.2145E+00
     -9.697  0.1481E-07  0.2145E+00
     -9.588  0.1710E-16  0.2145E+00
     -9.480  0.0000E+00  0.2145E+00
     -9.371  0.0000E+00  0.2145E+00
     -9.262  0.1368E-17  0.2145E+00
     -9.153  0.2248E-08  0.2145E+00
     -9.045  0.4481E-03  0.2145E+00
     -8.936  0.6311E-01  0.2214E+00
     -8.827  0.1780E+00  0.2408E+00
     -8.718  0.1461E+00  0.2566E+00
     -8.609  0.6722E-02  0.2574E+00
     -8.501  0.6017E-06  0.2574E+00
     -8.392  0.1195E-13  0.2574E+00
     -8.283  0.0000E+00  0.2574E+00
     -8.174  0.0000E+00  0.2574E+00
     -8.066  0.0000E+00  0.2574E+00
     -7.957  0.0000E+00  0.2574E+00
     -7.848  0.0000E+00  0.2574E+00
     -7.739  0.0000E+00  0.2574E+00
     -7.630  0.0000E+00  0.2574E+00
     -7.522  0.0000E+00  0.2574E+00
     -7.413  0.0000E+00  0.2574E+00
     -7.304  0.0000E+00  0.2574E+00
     -7.195  0.0000E+00  0.2574E+00
     -7.087  0.0000E+00  0.2574E+00
     -6.978  0.0000E+00  0.2574E+00
     -6.869  0.0000E+00  0.2574E+00
     -6.760  0.0000E+00  0.2574E+00
     -6.651  0.0000E+00  0.2574E+00
     -6.543  0.0000E+00  0.2574E+00
     -6.434  0.0000E+00  0.2574E+00
     -6.325  0.0000E+00  0.2574E+00
     -6.216  0.0000E+00  0.2574E+00
     -6.108  0.0000E+00  0.2574E+00
     -5.999  0.0000E+00  0.2574E+00
     -5.890  0.0000E+00  0.2574E+00
     -5.781  0.0000E+00  0.2574E+00
     -5.672  0.8619E-16  0.2574E+00
     -5.564  0.3820E-07  0.2574E+00
     -5.455  0.2256E-02  0.2576E+00
     -5.346  0.6418E-01  0.2646E+00
     -5.237  0.3137E-01  0.2680E+00
     -5.129  0.1962E-01  0.2701E+00
     -5.020  0.5275E-01  0.2759E+00
     -4.911  0.2507E-01  0.2786E+00
     -4.802  0.1933E-02  0.2788E+00
     -4.693  0.1111E-05  0.2788E+00
     -4.585  0.9401E-13  0.2788E+00
     -4.476  0.0000E+00  0.2788E+00
     -4.367  0.0000E+00  0.2788E+00
     -4.258  0.0000E+00  0.2788E+00
     -4.150  0.0000E+00  0.2788E+00
     -4.041  0.0000E+00  0.2788E+00
     -3.932  0.0000E+00  0.2788E+00
     -3.823  0.0000E+00  0.2788E+00
     -3.714  0.0000E+00  0.2788E+00
     -3.606  0.0000E+00  0.2788E+00
     -3.497  0.0000E+00  0.2788E+00
     -3.388  0.0000E+00  0.2788E+00
     -3.279  0.0000E+00  0.2788E+00
     -3.171  0.0000E+00  0.2788E+00
     -3.062  0.0000E+00  0.2788E+00
     -2.953  0.0000E+00  0.2788E+00
     -2.844  0.0000E+00  0.2788E+00
     -2.736  0.0000E+00  0.2788E+00
     -2.627  0.0000E+00  0.2788E+00
     -2.518  0.0000E+00  0.2788E+00
     -2.409  0.0000E+00  0.2788E+00
     -2.300  0.0000E+00  0.2788E+00
     -2.192  0.0000E+00  0.2788E+00
     -2.083  0.0000E+00  0.2788E+00
     -1.974  0.0000E+00  0.2788E+00
     -1.865  0.0000E+00  0.2788E+00
     -1.757  0.4785E-15  0.2788E+00
     -1.648  0.7781E-07  0.2788E+00
     -1.539  0.1545E-02  0.2790E+00
     -1.430  0.1674E-01  0.2808E+00
     -1.321  0.4217E-01  0.2854E+00
     -1.213  0.3435E-01  0.2891E+00
     -1.104  0.6891E-01  0.2966E+00
     -0.995  0.5345E-01  0.3024E+00
     -0.886  0.5470E-01  0.3084E+00
     -0.778  0.6079E-01  0.3150E+00
     -0.669  0.3666E-01  0.3190E+00
     -0.560  0.4745E-01  0.3242E+00
     -0.451  0.6068E-01  0.3308E+00
     -0.342  0.3976E-01  0.3351E+00
     -0.234  0.9617E-02  0.3361E+00
     -0.125  0.5434E-01  0.3420E+00
     -0.016  0.1267E-01  0.3434E+00
      0.093  0.2932E-01  0.3466E+00
      0.201  0.3621E-01  0.3505E+00
      0.310  0.4255E-01  0.3552E+00
      0.419  0.1852E-01  0.3572E+00
      0.528  0.6834E-01  0.3646E+00
      0.637  0.3030E-01  0.3679E+00
      0.745  0.7815E-02  0.3688E+00
      0.854  0.3079E-01  0.3721E+00
      0.963  0.8012E-01  0.3808E+00
      1.072  0.1012E+00  0.3918E+00
      1.180  0.6156E-01  0.3985E+00
      1.289  0.1078E+00  0.4103E+00
      1.398  0.6091E-01  0.4169E+00
      1.507  0.7541E-01  0.4251E+00
      1.616  0.1117E+00  0.4372E+00
      1.724  0.7717E-01  0.4456E+00
      1.833  0.6929E-01  0.4532E+00
      1.942  0.1181E-01  0.4545E+00
      2.051  0.6758E-01  0.4618E+00
      2.159  0.8881E-01  0.4715E+00
      2.268  0.3495E-02  0.4718E+00
      2.377  0.1517E-06  0.4718E+00
      2.486  0.9358E-15  0.4718E+00
      2.595  0.0000E+00  0.4718E+00
      2.703  0.0000E+00  0.4718E+00
      2.812  0.0000E+00  0.4718E+00
      2.921  0.0000E+00  0.4718E+00
      3.030  0.0000E+00  0.4718E+00
      3.138  0.0000E+00  0.4718E+00
      3.247  0.0000E+00  0.4718E+00
      3.356  0.0000E+00  0.4718E+00
      3.465  0.0000E+00  0.4718E+00
      3.574  0.0000E+00  0.4718E+00
      3.682  0.0000E+00  0.4718E+00
      3.791  0.0000E+00  0.4718E+00
      3.900  0.0000E+00  0.4718E+00
      4.009  0.0000E+00  0.4718E+00
      4.117  0.0000E+00  0.4718E+00
      4.226  0.4447E-17  0.4718E+00
      4.335  0.4332E-08  0.4718E+00
      4.444  0.5311E-03  0.4719E+00
      4.552  0.2070E-01  0.4742E+00
      4.661  0.2945E-01  0.4774E+00
      4.770  0.2552E-01  0.4801E+00
      4.879  0.7419E-01  0.4882E+00
      4.988  0.3779E-02  0.4886E+00
      5.096  0.2343E-01  0.4912E+00
      5.205  0.1340E-01  0.4926E+00
      5.314  0.1131E-02  0.4927E+00
      5.423  0.6471E-01  0.4998E+00
      5.531  0.7330E-01  0.5078E+00
      5.640  0.2582E-02  0.5080E+00
      5.749  0.2217E-02  0.5083E+00
      5.858  0.3745E-01  0.5124E+00
      5.967  0.4672E-02  0.5129E+00
      6.075  0.5008E-01  0.5183E+00
      6.184  0.3778E-01  0.5224E+00
      6.293  0.3256E-01  0.5260E+00
      6.402  0.1858E-01  0.5280E+00
      6.510  0.2055E-01  0.5302E+00
      6.619  0.3984E-01  0.5346E+00
      6.728  0.1504E-01  0.5362E+00
      6.837  0.3821E-02  0.5366E+00
      6.946  0.3538E-01  0.5405E+00
      7.054  0.4193E-02  0.5409E+00
      7.163  0.1899E-01  0.5430E+00
      7.272  0.3324E-01  0.5466E+00
      7.381  0.5627E-01  0.5527E+00
      7.489  0.3152E-01  0.5561E+00
      7.598  0.5031E-01  0.5616E+00
      7.707  0.4717E-03  0.5617E+00
      7.816  0.1847E-01  0.5637E+00
      7.925  0.4859E-01  0.5690E+00
      8.033  0.2676E-01  0.5719E+00
      8.142  0.7172E-01  0.5797E+00
      8.251  0.4923E-01  0.5850E+00
      8.360  0.3401E-01  0.5887E+00
      8.468  0.7422E-02  0.5895E+00
      8.577  0.6424E-01  0.5965E+00
      8.686  0.3644E-01  0.6005E+00
      8.795  0.4581E-03  0.6005E+00
      8.904  0.3149E-08  0.6005E+00
      9.012  0.2052E-17  0.6005E+00
      9.121  0.0000E+00  0.6005E+00
      9.230  0.0000E+00  0.6005E+00
      9.339  0.0000E+00  0.6005E+00
      9.447  0.0000E+00  0.6005E+00
      9.556  0.0000E+00  0.6005E+00
      9.665  0.0000E+00  0.6005E+00
      9.774  0.0000E+00  0.6005E+00
      9.883  0.0000E+00  0.6005E+00
      9.991  0.0000E+00  0.6005E+00
     10.100  0.0000E+00  0.6005E+00
