       N       E                     dE             d eps       ncg     rms          rms(c)
DAV:   1     0.160289744974E+04    0.16029E+04   -0.69225E+04   960   0.130E+03
DAV:   2     0.103363945488E+03   -0.14995E+04   -0.14321E+04   992   0.364E+02
DAV:   3    -0.101262495409E+03   -0.20463E+03   -0.20109E+03  1096   0.148E+02
DAV:   4    -0.112399260174E+03   -0.11137E+02   -0.11018E+02  1040   0.336E+01
DAV:   5    -0.112869976601E+03   -0.47072E+00   -0.46995E+00  1168   0.718E+00    0.176E+01
DAV:   6    -0.106546353647E+03    0.63236E+01   -0.11533E+01  1000   0.723E+00    0.134E+01
DAV:   7    -0.106327107543E+03    0.21925E+00   -0.36784E+00  1152   0.414E+00    0.641E+00
DAV:   8    -0.106294368321E+03    0.32739E-01   -0.21989E-01  1056   0.130E+00    0.224E+00
DAV:   9    -0.106296057781E+03   -0.16895E-02   -0.61823E-02  1016   0.723E-01    0.477E-01
DAV:  10    -0.106297191546E+03   -0.11338E-02   -0.33982E-03  1040   0.189E-01    0.245E-01
DAV:  11    -0.106298699208E+03   -0.15077E-02   -0.42933E-03   960   0.187E-01    0.167E-01
DAV:  12    -0.106298644112E+03    0.55096E-04   -0.14528E-04  1088   0.424E-02    0.104E-01
DAV:  13    -0.106298641266E+03    0.28461E-05   -0.54884E-05   944   0.158E-02    0.472E-02
DAV:  14    -0.106298649979E+03   -0.87138E-05   -0.17354E-05   896   0.110E-02    0.900E-03
DAV:  15    -0.106298652011E+03   -0.20312E-05   -0.65468E-06   936   0.669E-03    0.568E-03
DAV:  16    -0.106298651964E+03    0.47003E-07   -0.75427E-07   552   0.274E-03
   1 F= -.10629865E+03 E0= -.10629865E+03  d E =-.138443E-14
 Found     7 degrees of freedom:
 Adding 6 more for cell shape distortion
       N       E                     dE             d eps       ncg     rms          rms(c)
DAV:   1    -0.107164968944E+03   -0.86632E+00   -0.39948E+01  2016   0.281E+01    0.708E+00
DAV:   2    -0.106451577627E+03    0.71339E+00   -0.16993E+00  1984   0.576E+00    0.358E+00
DAV:   3    -0.106199593328E+03    0.25198E+00   -0.53719E-01  2048   0.252E+00    0.133E+00
DAV:   4    -0.106175028011E+03    0.24565E-01   -0.31609E-02  2120   0.598E-01    0.757E-01
DAV:   5    -0.106169017927E+03    0.60101E-02   -0.80467E-03  2072   0.283E-01    0.318E-01
DAV:   6    -0.106168793132E+03    0.22479E-03   -0.19199E-03  2088   0.181E-01    0.121E-01
DAV:   7    -0.106168772699E+03    0.20434E-04   -0.21505E-04  2096   0.466E-02    0.581E-02
DAV:   8    -0.106168780572E+03   -0.78732E-05   -0.41223E-05  1952   0.236E-02    0.195E-02
DAV:   9    -0.106168785363E+03   -0.47912E-05   -0.90345E-06  1832   0.898E-03    0.125E-02
DAV:  10    -0.106168785973E+03   -0.60983E-06   -0.11185E-06  1200   0.439E-03
   2 F= -.10616879E+03 E0= -.10616879E+03  d E =-.192380E-12
       N       E                     dE             d eps       ncg     rms          rms(c)
DAV:   1    -0.106474630535E+03   -0.30585E+00   -0.20784E+01  1960   0.178E+01    0.341E+00
DAV:   2    -0.106330269887E+03    0.14436E+00   -0.68751E-01  2040   0.309E+00    0.181E+00
DAV:   3    -0.106269340414E+03    0.60929E-01   -0.20104E-01  2056   0.165E+00    0.729E-01
DAV:   4    -0.106267090028E+03    0.22504E-02   -0.11490E-02  2208   0.449E-01    0.563E-01
DAV:   5    -0.106265462689E+03    0.16273E-02   -0.17381E-03  2288   0.129E-01    0.262E-01
DAV:   6    -0.106265211661E+03    0.25103E-03   -0.87852E-04  2040   0.112E-01    0.741E-02
DAV:   7    -0.106265217085E+03   -0.54241E-05   -0.67848E-05  2072   0.356E-02    0.484E-02
DAV:   8    -0.106265214986E+03    0.20992E-05   -0.12126E-05  1776   0.941E-03    0.859E-03
DAV:   9    -0.106265215726E+03   -0.74029E-06   -0.15728E-06  1368   0.485E-03
   3 F= -.10626522E+03 E0= -.10626522E+03  d E =-.931224E-14
       N       E                     dE             d eps       ncg     rms          rms(c)
DAV:   1    -0.107265291762E+03   -0.10001E+01   -0.31833E+01  2088   0.252E+01    0.745E+00
DAV:   2    -0.106532703815E+03    0.73259E+00   -0.15107E+00  2056   0.512E+00    0.368E+00
DAV:   3    -0.106285320045E+03    0.24738E+00   -0.52641E-01  2024   0.256E+00    0.144E+00
DAV:   4    -0.106264584672E+03    0.20735E-01   -0.31879E-02  2120   0.657E-01    0.902E-01
DAV:   5    -0.106258064986E+03    0.65197E-02   -0.85761E-03  2144   0.299E-01    0.344E-01
DAV:   6    -0.106257947891E+03    0.11710E-03   -0.19084E-03  2064   0.185E-01    0.115E-01
DAV:   7    -0.106257958086E+03   -0.10195E-04   -0.14519E-04  2192   0.410E-02    0.630E-02
DAV:   8    -0.106257951557E+03    0.65290E-05   -0.36681E-05  1960   0.193E-02    0.225E-02
DAV:   9    -0.106257952057E+03   -0.50026E-06   -0.62654E-06  1840   0.721E-03
   4 F= -.10625795E+03 E0= -.10625795E+03  d E =-.136210E-14
       N       E                     dE             d eps       ncg     rms          rms(c)
DAV:   1    -0.106346858905E+03   -0.88907E-01   -0.24201E+01  1936   0.185E+01    0.419E+00
DAV:   2    -0.106204556690E+03    0.14230E+00   -0.80587E-01  2040   0.330E+00    0.195E+00
DAV:   3    -0.106145704214E+03    0.58852E-01   -0.10703E-01  2088   0.121E+00    0.944E-01
DAV:   4    -0.106133333515E+03    0.12371E-01   -0.96896E-03  2040   0.333E-01    0.438E-01
DAV:   5    -0.106131376577E+03    0.19569E-02   -0.24012E-03  2224   0.165E-01    0.172E-01
DAV:   6    -0.106131399618E+03   -0.23040E-04   -0.50478E-04  2040   0.909E-02    0.718E-02
DAV:   7    -0.106131399865E+03   -0.24732E-06   -0.32530E-05  2112   0.211E-02    0.296E-02
DAV:   8    -0.106131400434E+03   -0.56923E-06   -0.17390E-05  2016   0.136E-02    0.105E-02
DAV:   9    -0.106131399527E+03    0.90724E-06   -0.18088E-06  1232   0.581E-03
   5 F= -.10613140E+03 E0= -.10613140E+03  d E =-.270944E-16
       N       E                     dE             d eps       ncg     rms          rms(c)
DAV:   1    -0.109280661568E+03   -0.31493E+01   -0.11204E+02  2272   0.531E+01    0.120E+01
DAV:   2    -0.106902842505E+03    0.23778E+01   -0.53199E+00  1992   0.104E+01    0.577E+00
DAV:   3    -0.106239656727E+03    0.66319E+00   -0.18277E+00  2136   0.498E+00    0.197E+00
DAV:   4    -0.106187571547E+03    0.52085E-01   -0.72640E-02  2056   0.904E-01    0.123E+00
DAV:   5    -0.106169978743E+03    0.17593E-01   -0.17376E-02  2104   0.381E-01    0.504E-01
DAV:   6    -0.106168872622E+03    0.11061E-02   -0.32293E-03  2128   0.253E-01    0.197E-01
DAV:   7    -0.106168774587E+03    0.98035E-04   -0.40190E-04  2216   0.621E-02    0.830E-02
DAV:   8    -0.106168785926E+03   -0.11339E-04   -0.90911E-05  1968   0.339E-02    0.439E-02
DAV:   9    -0.106168784004E+03    0.19220E-05   -0.16798E-05  2080   0.161E-02    0.186E-02
DAV:  10    -0.106168784704E+03   -0.69971E-06   -0.19297E-06  1304   0.545E-03
   6 F= -.10616878E+03 E0= -.10616878E+03  d E =-.194073E-12
       N       E                     dE             d eps       ncg     rms          rms(c)
DAV:   1    -0.106474449446E+03   -0.30567E+00   -0.20704E+01  1920   0.178E+01    0.341E+00
DAV:   2    -0.106330220119E+03    0.14423E+00   -0.68967E-01  2032   0.307E+00    0.181E+00
DAV:   3    -0.106269360704E+03    0.60859E-01   -0.20407E-01  2040   0.165E+00    0.732E-01
DAV:   4    -0.106267121626E+03    0.22391E-02   -0.11975E-02  2200   0.462E-01    0.569E-01
DAV:   5    -0.106265506475E+03    0.16152E-02   -0.17099E-03  2272   0.127E-01    0.275E-01
DAV:   6    -0.106265211074E+03    0.29540E-03   -0.96682E-04  2048   0.117E-01    0.758E-02
DAV:   7    -0.106265217756E+03   -0.66815E-05   -0.79252E-05  2040   0.384E-02    0.506E-02
DAV:   8    -0.106265214967E+03    0.27888E-05   -0.11473E-05  1800   0.920E-03    0.972E-03
DAV:   9    -0.106265215760E+03   -0.79298E-06   -0.18239E-06  1376   0.543E-03
   7 F= -.10626522E+03 E0= -.10626522E+03  d E =-.929250E-14
       N       E                     dE             d eps       ncg     rms          rms(c)
DAV:   1    -0.107265346103E+03   -0.10001E+01   -0.31785E+01  2080   0.252E+01    0.745E+00
DAV:   2    -0.106532747252E+03    0.73260E+00   -0.15088E+00  2048   0.511E+00    0.368E+00
DAV:   3    -0.106285423196E+03    0.24732E+00   -0.52854E-01  2032   0.256E+00    0.144E+00
DAV:   4    -0.106264632498E+03    0.20791E-01   -0.32019E-02  2112   0.658E-01    0.901E-01
DAV:   5    -0.106258067317E+03    0.65652E-02   -0.86224E-03  2144   0.300E-01    0.344E-01
DAV:   6    -0.106257947505E+03    0.11981E-03   -0.19316E-03  2064   0.186E-01    0.114E-01
DAV:   7    -0.106257958372E+03   -0.10866E-04   -0.14671E-04  2216   0.412E-02    0.625E-02
DAV:   8    -0.106257951610E+03    0.67619E-05   -0.37044E-05  1936   0.194E-02    0.220E-02
DAV:   9    -0.106257952015E+03   -0.40473E-06   -0.62257E-06  1824   0.722E-03
   8 F= -.10625795E+03 E0= -.10625795E+03  d E =-.136157E-14
       N       E                     dE             d eps       ncg     rms          rms(c)
DAV:   1    -0.106346518352E+03   -0.88567E-01   -0.24208E+01  1952   0.185E+01    0.418E+00
DAV:   2    -0.106204806277E+03    0.14171E+00   -0.80115E-01  2040   0.328E+00    0.195E+00
DAV:   3    -0.106145612092E+03    0.59194E-01   -0.10751E-01  2072   0.121E+00    0.940E-01
DAV:   4    -0.106133353500E+03    0.12259E-01   -0.97472E-03  2040   0.334E-01    0.442E-01
DAV:   5    -0.106131375995E+03    0.19775E-02   -0.24163E-03  2208   0.165E-01    0.172E-01
DAV:   6    -0.106131399667E+03   -0.23672E-04   -0.51801E-04  2064   0.928E-02    0.713E-02
DAV:   7    -0.106131399850E+03   -0.18270E-06   -0.32550E-05  2120   0.209E-02    0.300E-02
DAV:   8    -0.106131400397E+03   -0.54699E-06   -0.17272E-05  2056   0.136E-02    0.107E-02
DAV:   9    -0.106131399530E+03    0.86655E-06   -0.17281E-06  1224   0.579E-03
   9 F= -.10613140E+03 E0= -.10613140E+03  d E =-.214598E-16
       N       E                     dE             d eps       ncg     rms          rms(c)
DAV:   1    -0.109283704673E+03   -0.31523E+01   -0.11191E+02  2248   0.531E+01    0.120E+01
DAV:   2    -0.106902591351E+03    0.23811E+01   -0.53268E+00  2008   0.104E+01    0.577E+00
DAV:   3    -0.106239743380E+03    0.66285E+00   -0.18079E+00  2136   0.496E+00    0.196E+00
DAV:   4    -0.106187287569E+03    0.52456E-01   -0.71125E-02  2048   0.896E-01    0.121E+00
DAV:   5    -0.106169922293E+03    0.17365E-01   -0.17185E-02  2120   0.378E-01    0.499E-01
DAV:   6    -0.106168870925E+03    0.10514E-02   -0.31411E-03  2120   0.251E-01    0.197E-01
DAV:   7    -0.106168773989E+03    0.96936E-04   -0.39311E-04  2200   0.615E-02    0.814E-02
DAV:   8    -0.106168785764E+03   -0.11775E-04   -0.85956E-05  1952   0.335E-02    0.435E-02
DAV:   9    -0.106168784051E+03    0.17131E-05   -0.16039E-05  2080   0.159E-02    0.182E-02
DAV:  10    -0.106168784722E+03   -0.67072E-06   -0.18416E-06  1304   0.540E-03
  10 F= -.10616878E+03 E0= -.10616878E+03  d E =-.194021E-12
       N       E                     dE             d eps       ncg     rms          rms(c)
DAV:   1    -0.106473742722E+03   -0.30496E+00   -0.20623E+01  1960   0.178E+01    0.340E+00
DAV:   2    -0.106330127344E+03    0.14362E+00   -0.69598E-01  1984   0.307E+00    0.182E+00
DAV:   3    -0.106269358061E+03    0.60769E-01   -0.20726E-01  2040   0.166E+00    0.728E-01
DAV:   4    -0.106267123510E+03    0.22346E-02   -0.12312E-02  2176   0.470E-01    0.572E-01
DAV:   5    -0.106265550386E+03    0.15731E-02   -0.17161E-03  2288   0.126E-01    0.287E-01
DAV:   6    -0.106265210384E+03    0.34000E-03   -0.10429E-03  2040   0.122E-01    0.784E-02
DAV:   7    -0.106265218728E+03   -0.83440E-05   -0.93902E-05  2168   0.409E-02    0.555E-02
DAV:   8    -0.106265214976E+03    0.37516E-05   -0.10669E-05  1792   0.929E-03    0.133E-02
DAV:   9    -0.106265215875E+03   -0.89914E-06   -0.25652E-06  1488   0.664E-03
  11 F= -.10626522E+03 E0= -.10626522E+03  d E =-.927491E-14
       N       E                     dE             d eps       ncg     rms          rms(c)
DAV:   1    -0.107264783933E+03   -0.99957E+00   -0.31729E+01  2096   0.252E+01    0.744E+00
DAV:   2    -0.106532859527E+03    0.73192E+00   -0.15106E+00  2064   0.510E+00    0.369E+00
DAV:   3    -0.106285175040E+03    0.24768E+00   -0.52940E-01  2040   0.256E+00    0.143E+00
DAV:   4    -0.106264616186E+03    0.20559E-01   -0.32061E-02  2120   0.660E-01    0.902E-01
DAV:   5    -0.106258070912E+03    0.65453E-02   -0.85999E-03  2128   0.300E-01    0.345E-01
DAV:   6    -0.106257947279E+03    0.12363E-03   -0.19357E-03  2064   0.186E-01    0.116E-01
DAV:   7    -0.106257957989E+03   -0.10711E-04   -0.14784E-04  2200   0.411E-02    0.629E-02
DAV:   8    -0.106257951550E+03    0.64394E-05   -0.36672E-05  1944   0.193E-02    0.224E-02
DAV:   9    -0.106257952010E+03   -0.46012E-06   -0.62425E-06  1808   0.724E-03
  12 F= -.10625795E+03 E0= -.10625795E+03  d E =-.136069E-14
       N       E                     dE             d eps       ncg     rms          rms(c)
DAV:   1    -0.106346731316E+03   -0.88780E-01   -0.24221E+01  1968   0.185E+01    0.419E+00
DAV:   2    -0.106204847412E+03    0.14188E+00   -0.80017E-01  2048   0.329E+00    0.195E+00
DAV:   3    -0.106145744098E+03    0.59103E-01   -0.10621E-01  2072   0.121E+00    0.943E-01
DAV:   4    -0.106133317517E+03    0.12427E-01   -0.98297E-03  2064   0.337E-01    0.439E-01
DAV:   5    -0.106131376107E+03    0.19414E-02   -0.23922E-03  2176   0.164E-01    0.172E-01
DAV:   6    -0.106131399463E+03   -0.23356E-04   -0.50472E-04  2056   0.910E-02    0.709E-02
DAV:   7    -0.106131399921E+03   -0.45806E-06   -0.32625E-05  2112   0.209E-02    0.299E-02
DAV:   8    -0.106131400368E+03   -0.44673E-06   -0.16988E-05  2040   0.135E-02    0.106E-02
DAV:   9    -0.106131399524E+03    0.84332E-06   -0.17751E-06  1224   0.579E-03
  13 F= -.10613140E+03 E0= -.10613140E+03  d E =-.356943E-16
       N       E                     dE             d eps       ncg     rms          rms(c)
DAV:   1    -0.107489851032E+03   -0.13585E+01   -0.53739E+01  2008   0.321E+01    0.784E+00
DAV:   2    -0.106632168995E+03    0.85768E+00   -0.21229E+00  1992   0.636E+00    0.421E+00
DAV:   3    -0.106287927397E+03    0.34424E+00   -0.79615E-01  2040   0.309E+00    0.142E+00
DAV:   4    -0.106267678821E+03    0.20249E-01   -0.54858E-02  2128   0.860E-01    0.921E-01
DAV:   5    -0.106261680938E+03    0.59979E-02   -0.10619E-02  2128   0.324E-01    0.432E-01
DAV:   6    -0.106260914589E+03    0.76635E-03   -0.31081E-03  2056   0.221E-01    0.174E-01
DAV:   7    -0.106260862590E+03    0.51999E-04   -0.48182E-04  2144   0.711E-02    0.101E-01
DAV:   8    -0.106260867847E+03   -0.52565E-05   -0.54139E-05  1976   0.236E-02    0.344E-02
DAV:   9    -0.106260873372E+03   -0.55254E-05   -0.20064E-05  2080   0.154E-02    0.224E-02
DAV:  10    -0.106260874290E+03   -0.91853E-06   -0.18283E-06  1392   0.540E-03
  14 F= -.10626087E+03 E0= -.10626087E+03  d E =-.238560E-14
       N       E                     dE             d eps       ncg     rms          rms(c)
DAV:   1    -0.106321525167E+03   -0.60652E-01   -0.91929E+00  1888   0.105E+01    0.168E+00
DAV:   2    -0.106306784759E+03    0.14740E-01   -0.22850E-01  2128   0.170E+00    0.997E-01
DAV:   3    -0.106289275825E+03    0.17509E-01   -0.25757E-02  2192   0.569E-01    0.227E-01
DAV:   4    -0.106289106750E+03    0.16908E-03   -0.42515E-03  2136   0.221E-01    0.164E-01
DAV:   5    -0.106289091557E+03    0.15193E-04   -0.41335E-04  2160   0.673E-02    0.712E-02
DAV:   6    -0.106289087227E+03    0.43297E-05   -0.71968E-05  2072   0.255E-02    0.292E-02
DAV:   7    -0.106289089656E+03   -0.24293E-05   -0.11144E-05  1864   0.113E-02    0.193E-02
DAV:   8    -0.106289090480E+03   -0.82372E-06   -0.34308E-06  1672   0.631E-03
  15 F= -.10628909E+03 E0= -.10628909E+03  d E =-.920927E-15
       N       E                     dE             d eps       ncg     rms          rms(c)
DAV:   1    -0.106480414790E+03   -0.19133E+00   -0.11008E+01  1840   0.111E+01    0.344E+00
DAV:   2    -0.106364425987E+03    0.11599E+00   -0.29076E-01  2112   0.211E+00    0.199E+00
DAV:   3    -0.106293038228E+03    0.71388E-01   -0.57950E-02  2232   0.819E-01    0.658E-01
DAV:   4    -0.106289131515E+03    0.39067E-02   -0.18678E-02  2280   0.407E-01    0.272E-01
DAV:   5    -0.106289069867E+03    0.61648E-04   -0.17305E-03  2152   0.150E-01    0.144E-01
DAV:   6    -0.106289073229E+03   -0.33621E-05   -0.28965E-04  2120   0.473E-02    0.574E-02
DAV:   7    -0.106289087297E+03   -0.14068E-04   -0.57757E-05  2104   0.223E-02    0.271E-02
DAV:   8    -0.106289089299E+03   -0.20022E-05   -0.10068E-05  1704   0.110E-02    0.201E-02
DAV:   9    -0.106289090679E+03   -0.13794E-05   -0.75848E-06  1776   0.693E-03    0.479E-03
DAV:  10    -0.106289090654E+03    0.24724E-07   -0.74452E-07  1088   0.377E-03
  16 F= -.10628909E+03 E0= -.10628909E+03  d E =-.903139E-15
       N       E                     dE             d eps       ncg     rms          rms(c)
DAV:   1    -0.106292740332E+03   -0.36497E-02   -0.10018E+01  1864   0.103E+01    0.180E+00
DAV:   2    -0.106279650124E+03    0.13090E-01   -0.21985E-01  2136   0.165E+00    0.102E+00
DAV:   3    -0.106264012837E+03    0.15637E-01   -0.12595E-02  2192   0.422E-01    0.479E-01
DAV:   4    -0.106260844355E+03    0.31685E-02   -0.58168E-03  2256   0.251E-01    0.125E-01
DAV:   5    -0.106260865318E+03   -0.20963E-04   -0.82115E-04  2000   0.123E-01    0.973E-02
DAV:   6    -0.106260870735E+03   -0.54175E-05   -0.13068E-04  2136   0.309E-02    0.291E-02
DAV:   7    -0.106260874325E+03   -0.35899E-05   -0.17081E-05  1912   0.133E-02    0.130E-02
DAV:   8    -0.106260875603E+03   -0.12774E-05   -0.24360E-06  1584   0.560E-03    0.631E-03
DAV:   9    -0.106260875897E+03   -0.29424E-06   -0.58379E-07  1088   0.329E-03
  17 F= -.10626088E+03 E0= -.10626088E+03  d E =-.238541E-14
       N       E                     dE             d eps       ncg     rms          rms(c)
DAV:   1    -0.106615425370E+03   -0.35455E+00   -0.34792E+01  1856   0.201E+01    0.473E+00
DAV:   2    -0.106427156416E+03    0.18827E+00   -0.83806E-01  2120   0.346E+00    0.279E+00
DAV:   3    -0.106276751374E+03    0.15041E+00   -0.98087E-02  2184   0.109E+00    0.913E-01
DAV:   4    -0.106261593962E+03    0.15157E-01   -0.39852E-02  2248   0.645E-01    0.333E-01
DAV:   5    -0.106261317660E+03    0.27630E-03   -0.49414E-03  2200   0.257E-01    0.195E-01
DAV:   6    -0.106261030236E+03    0.28742E-03   -0.73479E-04  2240   0.906E-02    0.596E-02
DAV:   7    -0.106260921581E+03    0.10865E-03   -0.37864E-04  2128   0.569E-02    0.420E-02
DAV:   8    -0.106260904443E+03    0.17139E-04   -0.77250E-05  2104   0.284E-02    0.372E-02
DAV:   9    -0.106260885023E+03    0.19420E-04   -0.42483E-05  1896   0.220E-02    0.734E-03
DAV:  10    -0.106260881880E+03    0.31433E-05   -0.13381E-05  2168   0.124E-02    0.690E-03
DAV:  11    -0.106260878972E+03    0.29078E-05   -0.27431E-06  1616   0.859E-03    0.223E-03
DAV:  12    -0.106260876806E+03    0.21660E-05   -0.43884E-06  1672   0.111E-02    0.377E-03
DAV:  13    -0.106260876745E+03    0.60920E-07   -0.13398E-06  1120   0.423E-03
  18 F= -.10626088E+03 E0= -.10626088E+03  d E =-.240538E-14
       N       E                     dE             d eps       ncg     rms          rms(c)
DAV:   1    -0.106321940513E+03   -0.61064E-01   -0.91787E+00  1880   0.103E+01    0.168E+00
DAV:   2    -0.106306801671E+03    0.15139E-01   -0.22441E-01  2144   0.166E+00    0.995E-01
DAV:   3    -0.106289249736E+03    0.17552E-01   -0.25463E-02  2176   0.572E-01    0.227E-01
DAV:   4    -0.106289105960E+03    0.14378E-03   -0.43856E-03  2176   0.225E-01    0.163E-01
DAV:   5    -0.106289091513E+03    0.14447E-04   -0.41118E-04  2120   0.679E-02    0.705E-02
DAV:   6    -0.106289087181E+03    0.43325E-05   -0.72428E-05  2096   0.252E-02    0.294E-02
DAV:   7    -0.106289089662E+03   -0.24816E-05   -0.11248E-05  1896   0.114E-02    0.197E-02
DAV:   8    -0.106289090499E+03   -0.83613E-06   -0.35100E-06  1648   0.638E-03
  19 F= -.10628909E+03 E0= -.10628909E+03  d E =-.920266E-15
       N       E                     dE             d eps       ncg     rms          rms(c)
DAV:   1    -0.106481193564E+03   -0.19210E+00   -0.11001E+01  1856   0.111E+01    0.344E+00
DAV:   2    -0.106364323788E+03    0.11687E+00   -0.28364E-01  2112   0.202E+00    0.199E+00
DAV:   3    -0.106292958071E+03    0.71366E-01   -0.58326E-02  2264   0.804E-01    0.651E-01
DAV:   4    -0.106289129844E+03    0.38282E-02   -0.18439E-02  2288   0.406E-01    0.274E-01
DAV:   5    -0.106289069818E+03    0.60026E-04   -0.17262E-03  2152   0.148E-01    0.145E-01
DAV:   6    -0.106289073069E+03   -0.32512E-05   -0.28653E-04  2176   0.464E-02    0.568E-02
DAV:   7    -0.106289086886E+03   -0.13817E-04   -0.55818E-05  2080   0.218E-02    0.273E-02
DAV:   8    -0.106289089303E+03   -0.24164E-05   -0.96249E-06  1728   0.105E-02    0.204E-02
DAV:   9    -0.106289090659E+03   -0.13558E-05   -0.72321E-06  1760   0.682E-03    0.485E-03
DAV:  10    -0.106289090659E+03   -0.17644E-09   -0.73134E-07  1088   0.368E-03
  20 F= -.10628909E+03 E0= -.10628909E+03  d E =-.902921E-15
       N       E                     dE             d eps       ncg     rms          rms(c)
DAV:   1    -0.106292664185E+03   -0.35735E-02   -0.10019E+01  1856   0.104E+01    0.179E+00
DAV:   2    -0.106279647553E+03    0.13017E-01   -0.22120E-01  2152   0.166E+00    0.101E+00
DAV:   3    -0.106263864142E+03    0.15783E-01   -0.12520E-02  2216   0.427E-01    0.469E-01
DAV:   4    -0.106260846402E+03    0.30177E-02   -0.57619E-03  2184   0.252E-01    0.129E-01
DAV:   5    -0.106260866129E+03   -0.19726E-04   -0.80327E-04  1968   0.121E-01    0.985E-02
DAV:   6    -0.106260870534E+03   -0.44055E-05   -0.12333E-04  2144   0.304E-02    0.292E-02
DAV:   7    -0.106260874485E+03   -0.39504E-05   -0.19300E-05  1888   0.138E-02    0.123E-02
DAV:   8    -0.106260875583E+03   -0.10987E-05   -0.24034E-06  1576   0.573E-03    0.747E-03
DAV:   9    -0.106260875904E+03   -0.32096E-06   -0.72816E-07  1088   0.348E-03
  21 F= -.10626088E+03 E0= -.10626088E+03  d E =-.238536E-14
       N       E                     dE             d eps       ncg     rms          rms(c)
DAV:   1    -0.106617015558E+03   -0.35614E+00   -0.34763E+01  1864   0.201E+01    0.473E+00
DAV:   2    -0.106427045272E+03    0.18997E+00   -0.82335E-01  2128   0.336E+00    0.279E+00
DAV:   3    -0.106276197270E+03    0.15085E+00   -0.98744E-02  2160   0.109E+00    0.895E-01
DAV:   4    -0.106261604528E+03    0.14593E-01   -0.39552E-02  2232   0.647E-01    0.337E-01
DAV:   5    -0.106261328898E+03    0.27563E-03   -0.48143E-03  2152   0.254E-01    0.199E-01
DAV:   6    -0.106261030138E+03    0.29876E-03   -0.74880E-04  2168   0.100E-01    0.586E-02
DAV:   7    -0.106260922124E+03    0.10801E-03   -0.40057E-04  2160   0.586E-02    0.430E-02
DAV:   8    -0.106260905533E+03    0.16591E-04   -0.76088E-05  2096   0.281E-02    0.385E-02
DAV:   9    -0.106260885017E+03    0.20516E-04   -0.44453E-05  1952   0.224E-02    0.795E-03
DAV:  10    -0.106260881892E+03    0.31241E-05   -0.14510E-05  2160   0.128E-02    0.755E-03
DAV:  11    -0.106260879287E+03    0.26056E-05   -0.25027E-06  1592   0.788E-03    0.254E-03
DAV:  12    -0.106260876817E+03    0.24696E-05   -0.49473E-06  1664   0.123E-02    0.445E-03
DAV:  13    -0.106260876763E+03    0.53846E-07   -0.14502E-06  1136   0.439E-03
  22 F= -.10626088E+03 E0= -.10626088E+03  d E =-.240658E-14
       N       E                     dE             d eps       ncg     rms          rms(c)
DAV:   1    -0.106321851306E+03   -0.60974E-01   -0.91652E+00  1856   0.104E+01    0.168E+00
DAV:   2    -0.106306786045E+03    0.15065E-01   -0.22535E-01  2144   0.166E+00    0.996E-01
DAV:   3    -0.106289295229E+03    0.17491E-01   -0.25506E-02  2240   0.568E-01    0.232E-01
DAV:   4    -0.106289106503E+03    0.18873E-03   -0.42831E-03  2192   0.220E-01    0.164E-01
DAV:   5    -0.106289090300E+03    0.16202E-04   -0.41237E-04  2136   0.679E-02    0.704E-02
DAV:   6    -0.106289087222E+03    0.30783E-05   -0.71708E-05  2104   0.251E-02    0.294E-02
DAV:   7    -0.106289089604E+03   -0.23825E-05   -0.10335E-05  1864   0.111E-02    0.190E-02
DAV:   8    -0.106289090507E+03   -0.90312E-06   -0.36914E-06  1696   0.644E-03
  23 F= -.10628909E+03 E0= -.10628909E+03  d E =-.920163E-15
       N       E                     dE             d eps       ncg     rms          rms(c)
DAV:   1    -0.106480815061E+03   -0.19173E+00   -0.10993E+01  1840   0.111E+01    0.344E+00
DAV:   2    -0.106364382922E+03    0.11643E+00   -0.28688E-01  2112   0.205E+00    0.199E+00
DAV:   3    -0.106293064020E+03    0.71319E-01   -0.57737E-02  2200   0.808E-01    0.658E-01
DAV:   4    -0.106289133789E+03    0.39302E-02   -0.18748E-02  2280   0.409E-01    0.273E-01
DAV:   5    -0.106289068700E+03    0.65089E-04   -0.17336E-03  2152   0.148E-01    0.145E-01
DAV:   6    -0.106289073181E+03   -0.44804E-05   -0.29541E-04  2160   0.475E-02    0.574E-02
DAV:   7    -0.106289087325E+03   -0.14144E-04   -0.58123E-05  2088   0.222E-02    0.274E-02
DAV:   8    -0.106289089273E+03   -0.19480E-05   -0.10223E-05  1720   0.110E-02    0.201E-02
DAV:   9    -0.106289090690E+03   -0.14172E-05   -0.75970E-06  1768   0.691E-03    0.493E-03
DAV:  10    -0.106289090648E+03    0.41524E-07   -0.71061E-07  1088   0.371E-03
  24 F= -.10628909E+03 E0= -.10628909E+03  d E =-.902839E-15
       N       E                     dE             d eps       ncg     rms          rms(c)
DAV:   1    -0.106292719717E+03   -0.36290E-02   -0.10022E+01  1856   0.104E+01    0.180E+00
DAV:   2    -0.106279656921E+03    0.13063E-01   -0.22048E-01  2144   0.166E+00    0.101E+00
DAV:   3    -0.106263945527E+03    0.15711E-01   -0.12467E-02  2232   0.420E-01    0.474E-01
DAV:   4    -0.106260845061E+03    0.31005E-02   -0.58024E-03  2240   0.251E-01    0.127E-01
DAV:   5    -0.106260865934E+03   -0.20873E-04   -0.82136E-04  2024   0.123E-01    0.981E-02
DAV:   6    -0.106260870649E+03   -0.47145E-05   -0.12902E-04  2136   0.304E-02    0.295E-02
DAV:   7    -0.106260874355E+03   -0.37066E-05   -0.18129E-05  1904   0.136E-02    0.129E-02
DAV:   8    -0.106260875598E+03   -0.12432E-05   -0.24069E-06  1568   0.563E-03    0.686E-03
DAV:   9    -0.106260875898E+03   -0.29949E-06   -0.64590E-07  1080   0.340E-03
  25 F= -.10626088E+03 E0= -.10626088E+03  d E =-.238530E-14
       N       E                     dE             d eps       ncg     rms          rms(c)
DAV:   1    -0.106475402698E+03   -0.21453E+00   -0.16936E+01  1872   0.138E+01    0.341E+00
DAV:   2    -0.106372154213E+03    0.10325E+00   -0.43825E-01  2120   0.245E+00    0.200E+00
DAV:   3    -0.106301333842E+03    0.70820E-01   -0.71230E-02  2168   0.909E-01    0.600E-01
DAV:   4    -0.106298372686E+03    0.29612E-02   -0.17772E-02  2240   0.438E-01    0.295E-01
DAV:   5    -0.106298309542E+03    0.63144E-04   -0.17637E-03  2080   0.144E-01    0.146E-01
DAV:   6    -0.106298307908E+03    0.16340E-05   -0.27766E-04  2136   0.499E-02    0.560E-02
DAV:   7    -0.106298320091E+03   -0.12183E-04   -0.49759E-05  2168   0.279E-02    0.299E-02
DAV:   8    -0.106298323312E+03   -0.32211E-05   -0.11478E-05  1920   0.133E-02    0.234E-02
DAV:   9    -0.106298324324E+03   -0.10121E-05   -0.66949E-06  1784   0.710E-03    0.720E-03
DAV:  10    -0.106298324414E+03   -0.90075E-07   -0.77452E-07  1088   0.350E-03
  26 F= -.10629832E+03 E0= -.10629832E+03  d E =-.117983E-14
       N       E                     dE             d eps       ncg     rms          rms(c)
DAV:   1    -0.106294638040E+03    0.36863E-02   -0.26168E+00  1968   0.224E+00    0.374E-02
DAV:   2    -0.106298582528E+03   -0.39445E-02   -0.39600E-02  1920   0.336E-01    0.146E-02
DAV:   3    -0.106298689438E+03   -0.10691E-03   -0.11029E-03  2360   0.584E-02    0.135E-02
DAV:   4    -0.106298692358E+03   -0.29192E-05   -0.46374E-05  1464   0.152E-02    0.802E-03
DAV:   5    -0.106298692425E+03   -0.67184E-07   -0.67099E-06  1736   0.126E-02
  27 F= -.10629869E+03 E0= -.10629869E+03  d E =-.145289E-14
       N       E                     dE             d eps       ncg     rms          rms(c)
DAV:   1    -0.106294204023E+03    0.44883E-02   -0.26193E+00  1952   0.241E+00    0.850E-02
DAV:   2    -0.106298040786E+03   -0.38368E-02   -0.38928E-02  1944   0.373E-01    0.212E-02
DAV:   3    -0.106298161826E+03   -0.12104E-03   -0.12866E-03  2320   0.656E-02    0.171E-02
DAV:   4    -0.106298165551E+03   -0.37251E-05   -0.61902E-05  2128   0.195E-02    0.111E-02
DAV:   5    -0.106298165719E+03   -0.16757E-06   -0.46212E-06  1344   0.104E-02
  28 F= -.10629817E+03 E0= -.10629817E+03  d E =-.140722E-14
       N       E                     dE             d eps       ncg     rms          rms(c)
DAV:   1    -0.106293132878E+03    0.50327E-02   -0.26165E+00  1936   0.236E+00    0.735E-02
DAV:   2    -0.106297132247E+03   -0.39994E-02   -0.40654E-02  2000   0.345E-01    0.201E-02
DAV:   3    -0.106297228839E+03   -0.96592E-04   -0.10692E-03  2352   0.652E-02    0.187E-02
DAV:   4    -0.106297229872E+03   -0.10327E-05   -0.50275E-05  1744   0.153E-02    0.125E-02
DAV:   5    -0.106297228431E+03    0.14414E-05   -0.48603E-06  1344   0.958E-03    0.568E-03
DAV:   6    -0.106297228348E+03    0.82868E-07   -0.28686E-06  1320   0.806E-03
  29 F= -.10629723E+03 E0= -.10629723E+03  d E =-.117493E-14
       N       E                     dE             d eps       ncg     rms          rms(c)
DAV:   1    -0.106286778239E+03    0.10450E-01   -0.69901E+00  2024   0.412E+00    0.130E-01
DAV:   2    -0.106297673145E+03   -0.10895E-01   -0.11026E-01  1912   0.624E-01    0.325E-02
DAV:   3    -0.106297950180E+03   -0.27703E-03   -0.29564E-03  2336   0.109E-01    0.286E-02
DAV:   4    -0.106297958616E+03   -0.84363E-05   -0.14851E-04  2288   0.326E-02    0.175E-02
DAV:   5    -0.106297958990E+03   -0.37354E-06   -0.11244E-05  1600   0.181E-02    0.892E-03
DAV:   6    -0.106297960067E+03   -0.10769E-05   -0.59095E-06  1944   0.117E-02    0.284E-03
DAV:   7    -0.106297960028E+03    0.38628E-07   -0.11990E-06  1288   0.666E-03
  30 F= -.10629796E+03 E0= -.10629796E+03  d E =-.134710E-14
       N       E                     dE             d eps       ncg     rms          rms(c)
DAV:   1    -0.106294582603E+03    0.33775E-02   -0.26195E+00  1936   0.221E+00    0.345E-02
DAV:   2    -0.106298396866E+03   -0.38143E-02   -0.38269E-02  1936   0.314E-01    0.129E-02
DAV:   3    -0.106298504103E+03   -0.10724E-03   -0.11001E-03  2328   0.553E-02    0.123E-02
DAV:   4    -0.106298506735E+03   -0.26323E-05   -0.39825E-05  1464   0.131E-02    0.801E-03
DAV:   5    -0.106298506653E+03    0.82106E-07   -0.64232E-06  1656   0.118E-02
  31 F= -.10629851E+03 E0= -.10629851E+03  d E =-.154525E-14
       N       E                     dE             d eps       ncg     rms          rms(c)
DAV:   1    -0.106294575503E+03    0.39312E-02   -0.26217E+00  2016   0.223E+00    0.828E-02
DAV:   2    -0.106298319750E+03   -0.37442E-02   -0.37877E-02  1928   0.338E-01    0.205E-02
DAV:   3    -0.106298410002E+03   -0.90252E-04   -0.96786E-04  2280   0.563E-02    0.156E-02
DAV:   4    -0.106298413496E+03   -0.34938E-05   -0.49060E-05  2072   0.172E-02    0.104E-02
DAV:   5    -0.106298413765E+03   -0.26943E-06   -0.32198E-06  1352   0.802E-03
  32 F= -.10629841E+03 E0= -.10629841E+03  d E =-.124877E-14
       N       E                     dE             d eps       ncg     rms          rms(c)
DAV:   1    -0.106293790484E+03    0.46230E-02   -0.26193E+00  1976   0.221E+00    0.688E-02
DAV:   2    -0.106297672487E+03   -0.38820E-02   -0.39256E-02  1968   0.318E-01    0.162E-02
DAV:   3    -0.106297792110E+03   -0.11962E-03   -0.12417E-03  2264   0.568E-02    0.173E-02
DAV:   4    -0.106297795495E+03   -0.33848E-05   -0.60157E-05  1704   0.142E-02    0.120E-02
DAV:   5    -0.106297794612E+03    0.88294E-06   -0.42382E-06  1264   0.713E-03
  33 F= -.10629779E+03 E0= -.10629779E+03  d E =-.895444E-15
       N       E                     dE             d eps       ncg     rms          rms(c)
DAV:   1    -0.106287337872E+03    0.10458E-01   -0.69926E+00  2032   0.392E+00    0.119E-01
DAV:   2    -0.106297732632E+03   -0.10395E-01   -0.10503E-01  1912   0.602E-01    0.276E-02
DAV:   3    -0.106298039303E+03   -0.30667E-03   -0.31629E-03  2344   0.979E-02    0.252E-02
DAV:   4    -0.106298052096E+03   -0.12793E-04   -0.15218E-04  2112   0.249E-02    0.168E-02
DAV:   5    -0.106298052651E+03   -0.55508E-06   -0.89658E-06  1544   0.886E-03
  34 F= -.10629805E+03 E0= -.10629805E+03  d E =-.114871E-14
       N       E                     dE             d eps       ncg     rms          rms(c)
DAV:   1    -0.106294426222E+03    0.36259E-02   -0.26142E+00  1920   0.184E+00    0.334E-02
DAV:   2    -0.106298380200E+03   -0.39540E-02   -0.39642E-02  1928   0.274E-01    0.118E-02
DAV:   3    -0.106298468931E+03   -0.88731E-04   -0.91025E-04  2144   0.391E-02    0.112E-02
DAV:   4    -0.106298471602E+03   -0.26703E-05   -0.35181E-05  1416   0.996E-03    0.713E-03
DAV:   5    -0.106298471633E+03   -0.31932E-07   -0.42506E-06  1664   0.749E-03
  35 F= -.10629847E+03 E0= -.10629847E+03  d E =-.140047E-14
       N       E                     dE             d eps       ncg     rms          rms(c)
DAV:   1    -0.106294626597E+03    0.38450E-02   -0.26167E+00  2008   0.200E+00    0.789E-02
DAV:   2    -0.106298492194E+03   -0.38656E-02   -0.39236E-02  1880   0.276E-01    0.182E-02
DAV:   3    -0.106298619523E+03   -0.12733E-03   -0.13119E-03  2088   0.513E-02    0.158E-02
DAV:   4    -0.106298625305E+03   -0.57825E-05   -0.65086E-05  1888   0.139E-02    0.113E-02
DAV:   5    -0.106298625803E+03   -0.49742E-06   -0.40070E-06  1296   0.648E-03
  36 F= -.10629863E+03 E0= -.10629863E+03  d E =-.134841E-14
       N       E                     dE             d eps       ncg     rms          rms(c)
DAV:   1    -0.106294327838E+03    0.42975E-02   -0.26153E+00  1928   0.201E+00    0.656E-02
DAV:   2    -0.106298282074E+03   -0.39542E-02   -0.39988E-02  1896   0.275E-01    0.145E-02
DAV:   3    -0.106298414389E+03   -0.13232E-03   -0.13455E-03  2136   0.456E-02    0.170E-02
DAV:   4    -0.106298418987E+03   -0.45975E-05   -0.64753E-05  1512   0.110E-02    0.128E-02
DAV:   5    -0.106298418316E+03    0.67074E-06   -0.41059E-06  1240   0.602E-03
  37 F= -.10629842E+03 E0= -.10629842E+03  d E =-.104574E-14
       N       E                     dE             d eps       ncg     rms          rms(c)
DAV:   1    -0.106288454319E+03    0.99647E-02   -0.36986E+00  1840   0.265E+00    0.450E-01
DAV:   2    -0.106294314174E+03   -0.58599E-02   -0.66066E-02  2176   0.486E-01    0.146E-01
DAV:   3    -0.106294390334E+03   -0.76160E-04   -0.21049E-03  2200   0.114E-01    0.644E-02
DAV:   4    -0.106294363070E+03    0.27264E-04   -0.13779E-04  2136   0.297E-02    0.463E-02
DAV:   5    -0.106294346080E+03    0.16990E-04   -0.63465E-05  2072   0.242E-02    0.190E-02
DAV:   6    -0.106294346414E+03   -0.33458E-06   -0.89722E-06  2144   0.969E-03
  38 F= -.10629435E+03 E0= -.10629435E+03  d E =-.173721E-14
       N       E                     dE             d eps       ncg     rms          rms(c)
DAV:   1    -0.106296824561E+03   -0.24785E-02   -0.16124E-01  1800   0.758E-01    0.141E-01
DAV:   2    -0.106297727832E+03   -0.90327E-03   -0.10460E-02  2056   0.182E-01    0.924E-02
DAV:   3    -0.106297722230E+03    0.56023E-05   -0.37404E-04  2392   0.512E-02    0.677E-02
DAV:   4    -0.106297708794E+03    0.13435E-04   -0.47846E-05  1896   0.174E-02    0.243E-02
DAV:   5    -0.106297705798E+03    0.29959E-05   -0.97774E-06  1912   0.109E-02    0.119E-02
DAV:   6    -0.106297705955E+03   -0.15651E-06   -0.40386E-06  1736   0.475E-03
  39 F= -.10629771E+03 E0= -.10629771E+03  d E =-.143818E-14
       N       E                     dE             d eps       ncg     rms          rms(c)
DAV:   1    -0.106297017692E+03    0.68811E-03   -0.15558E-01  1800   0.759E-01    0.354E-01
DAV:   2    -0.106297227419E+03   -0.20973E-03   -0.83096E-03  2088   0.188E-01    0.153E-01
DAV:   3    -0.106297191161E+03    0.36258E-04   -0.92264E-04  2344   0.826E-02    0.546E-02
DAV:   4    -0.106297163176E+03    0.27986E-04   -0.69537E-05  2056   0.316E-02    0.406E-02
DAV:   5    -0.106297148904E+03    0.14272E-04   -0.53759E-05  2048   0.248E-02    0.167E-02
DAV:   6    -0.106297148872E+03    0.32405E-07   -0.70180E-06  2080   0.925E-03
  40 F= -.10629715E+03 E0= -.10629715E+03  d E =-.119304E-14
       N       E                     dE             d eps       ncg     rms          rms(c)
DAV:   1    -0.106292795101E+03    0.43538E-02   -0.15704E-01  1816   0.742E-01    0.252E-01
DAV:   2    -0.106293542364E+03   -0.74726E-03   -0.98465E-03  2056   0.174E-01    0.675E-02
DAV:   3    -0.106293540233E+03    0.21306E-05   -0.39591E-04  2016   0.530E-02    0.446E-02
DAV:   4    -0.106293529506E+03    0.10727E-04   -0.44420E-05  1824   0.142E-02    0.263E-02
DAV:   5    -0.106293522054E+03    0.74521E-05   -0.16055E-05  1816   0.116E-02    0.127E-02
DAV:   6    -0.106293521770E+03    0.28341E-06   -0.35159E-06  1880   0.557E-03
  41 F= -.10629352E+03 E0= -.10629352E+03  d E =-.113644E-14
       N       E                     dE             d eps       ncg     rms          rms(c)
DAV:   1    -0.106292296548E+03    0.12255E-02   -0.11975E+00  1800   0.184E+00    0.525E-01
DAV:   2    -0.106297590637E+03   -0.52941E-02   -0.61252E-02  2152   0.537E-01    0.217E-01
DAV:   3    -0.106297505679E+03    0.84958E-04   -0.21846E-03  2152   0.134E-01    0.151E-01
DAV:   4    -0.106297351121E+03    0.15456E-03   -0.44985E-04  2024   0.503E-02    0.734E-02
DAV:   5    -0.106297363003E+03   -0.11882E-04   -0.19741E-04  2096   0.299E-02    0.398E-02
DAV:   6    -0.106297362865E+03    0.13855E-06   -0.13545E-05  1984   0.996E-03    0.293E-02
DAV:   7    -0.106297358243E+03    0.46211E-05   -0.20203E-05  1784   0.955E-03    0.734E-03
DAV:   8    -0.106297358757E+03   -0.51344E-06   -0.52946E-06  1672   0.518E-03
  42 F= -.10629736E+03 E0= -.10629736E+03  d E =-.154673E-14
       N       E                     dE             d eps       ncg     rms          rms(c)
DAV:   1    -0.106295472062E+03    0.18862E-02   -0.69663E-01  1888   0.126E+00    0.138E-01
DAV:   2    -0.106298201725E+03   -0.27297E-02   -0.29111E-02  2032   0.360E-01    0.564E-02
DAV:   3    -0.106298287265E+03   -0.85540E-04   -0.11309E-03  2504   0.812E-02    0.490E-02
DAV:   4    -0.106298270547E+03    0.16719E-04   -0.63855E-05  2192   0.195E-02    0.236E-02
DAV:   5    -0.106298270123E+03    0.42354E-06   -0.20166E-05  1912   0.107E-02    0.875E-03
DAV:   6    -0.106298269400E+03    0.72276E-06   -0.20259E-06  1432   0.460E-03
  43 F= -.10629827E+03 E0= -.10629827E+03  d E =-.163967E-14
       N       E                     dE             d eps       ncg     rms          rms(c)
DAV:   1    -0.106296164403E+03    0.21057E-02   -0.73758E-01  1848   0.133E+00    0.300E-01
DAV:   2    -0.106298690414E+03   -0.25260E-02   -0.29179E-02  2016   0.389E-01    0.130E-01
DAV:   3    -0.106298626055E+03    0.64359E-04   -0.92953E-04  2304   0.969E-02    0.101E-01
DAV:   4    -0.106298529207E+03    0.96848E-04   -0.40868E-04  2184   0.831E-02    0.397E-02
DAV:   5    -0.106298538520E+03   -0.93134E-05   -0.11000E-04  2088   0.271E-02    0.178E-02
DAV:   6    -0.106298536123E+03    0.23968E-05   -0.40797E-06  1920   0.708E-03    0.126E-02
DAV:   7    -0.106298535047E+03    0.10761E-05   -0.45989E-06  1696   0.570E-03    0.383E-03
DAV:   8    -0.106298535106E+03   -0.58475E-07   -0.72402E-07  1176   0.304E-03
  44 F= -.10629854E+03 E0= -.10629854E+03  d E =-.882758E-15
       N       E                     dE             d eps       ncg     rms          rms(c)
DAV:   1    -0.106295072837E+03    0.34622E-02   -0.71171E-01  1832   0.125E+00    0.280E-01
DAV:   2    -0.106297945564E+03   -0.28727E-02   -0.30781E-02  2096   0.361E-01    0.115E-01
DAV:   3    -0.106297964876E+03   -0.19312E-04   -0.99725E-04  2160   0.835E-02    0.917E-02
DAV:   4    -0.106297907082E+03    0.57794E-04   -0.16212E-04  1960   0.311E-02    0.441E-02
DAV:   5    -0.106297911644E+03   -0.45625E-05   -0.57721E-05  1856   0.154E-02    0.117E-02
DAV:   6    -0.106297911431E+03    0.21367E-06   -0.17544E-06  1496   0.433E-03
  45 F= -.10629791E+03 E0= -.10629791E+03  d E =-.491674E-15
       N       E                     dE             d eps       ncg     rms          rms(c)
DAV:   1    -0.106287139655E+03    0.10772E-01   -0.19114E+00  1824   0.222E+00    0.501E-01
DAV:   2    -0.106294223235E+03   -0.70836E-02   -0.81650E-02  2088   0.640E-01    0.204E-01
DAV:   3    -0.106294083772E+03    0.13946E-03   -0.29170E-03  2280   0.151E-01    0.149E-01
DAV:   4    -0.106293885018E+03    0.19875E-03   -0.57419E-04  2048   0.620E-02    0.683E-02
DAV:   5    -0.106293889480E+03   -0.44621E-05   -0.17946E-04  2168   0.360E-02    0.435E-02
DAV:   6    -0.106293889834E+03   -0.35381E-06   -0.15299E-05  2040   0.115E-02    0.309E-02
DAV:   7    -0.106293885324E+03    0.45107E-05   -0.21385E-05  1688   0.107E-02    0.902E-03
DAV:   8    -0.106293885170E+03    0.15365E-06   -0.47181E-06  1760   0.616E-03
  46 F= -.10629389E+03 E0= -.10629389E+03  d E =-.464708E-15
       N       E                     dE             d eps       ncg     rms          rms(c)
DAV:   1    -0.106294396189E+03   -0.51087E-03   -0.65039E-01  1824   0.119E+00    0.221E-01
DAV:   2    -0.106297084035E+03   -0.26878E-02   -0.30720E-02  2056   0.362E-01    0.644E-02
DAV:   3    -0.106297163998E+03   -0.79964E-04   -0.12957E-03  2536   0.873E-02    0.510E-02
DAV:   4    -0.106297156042E+03    0.79559E-05   -0.56469E-05  1872   0.175E-02    0.324E-02
DAV:   5    -0.106297153293E+03    0.27495E-05   -0.15190E-05  1864   0.100E-02    0.961E-03
DAV:   6    -0.106297153221E+03    0.72345E-07   -0.20685E-06  1584   0.508E-03
  47 F= -.10629715E+03 E0= -.10629715E+03  d E =-.746619E-15
       N       E                     dE             d eps       ncg     rms          rms(c)
DAV:   1    -0.106296275194E+03    0.87810E-03   -0.71532E-01  1816   0.130E+00    0.505E-01
DAV:   2    -0.106298489578E+03   -0.22144E-02   -0.31153E-02  2024   0.394E-01    0.111E-01
DAV:   3    -0.106298316870E+03    0.17271E-03   -0.15218E-03  2248   0.108E-01    0.650E-02
DAV:   4    -0.106298272864E+03    0.44005E-04   -0.28180E-04  2176   0.462E-02    0.400E-02
DAV:   5    -0.106298266564E+03    0.63000E-05   -0.38600E-05  2080   0.187E-02    0.250E-02
DAV:   6    -0.106298266063E+03    0.50170E-06   -0.11551E-05  1848   0.103E-02    0.179E-02
DAV:   7    -0.106298265553E+03    0.50954E-06   -0.44477E-06  1744   0.646E-03
  48 F= -.10629827E+03 E0= -.10629827E+03  d E =-.235347E-14
       N       E                     dE             d eps       ncg     rms          rms(c)
DAV:   1    -0.106292839642E+03    0.54264E-02   -0.68229E-01  1824   0.125E+00    0.396E-01
DAV:   2    -0.106295911050E+03   -0.30714E-02   -0.33244E-02  2048   0.359E-01    0.816E-02
DAV:   3    -0.106295890977E+03    0.20073E-04   -0.11062E-03  2184   0.858E-02    0.757E-02
DAV:   4    -0.106295853274E+03    0.37702E-04   -0.13177E-04  1920   0.238E-02    0.452E-02
DAV:   5    -0.106295848318E+03    0.49560E-05   -0.28646E-05  1784   0.122E-02    0.166E-02
DAV:   6    -0.106295848534E+03   -0.21578E-06   -0.14148E-05  1776   0.793E-03    0.139E-02
DAV:   7    -0.106295848017E+03    0.51752E-06   -0.47069E-06  1664   0.527E-03
  49 F= -.10629585E+03 E0= -.10629585E+03  d E =-.477821E-14
       N       E                     dE             d eps       ncg     rms          rms(c)
DAV:   1    -0.106290461397E+03    0.53871E-02   -0.18986E+00  1848   0.217E+00    0.521E-01
DAV:   2    -0.106297747173E+03   -0.72858E-02   -0.86948E-02  2192   0.691E-01    0.221E-01
DAV:   3    -0.106297579640E+03    0.16753E-03   -0.30147E-03  2368   0.162E-01    0.166E-01
DAV:   4    -0.106297375153E+03    0.20449E-03   -0.68968E-04  1976   0.765E-02    0.737E-02
DAV:   5    -0.106297389781E+03   -0.14628E-04   -0.21635E-04  2144   0.376E-02    0.354E-02
DAV:   6    -0.106297387854E+03    0.19271E-05   -0.10171E-05  1952   0.112E-02    0.247E-02
DAV:   7    -0.106297384246E+03    0.36074E-05   -0.12044E-05  1728   0.887E-03    0.981E-03
DAV:   8    -0.106297384311E+03   -0.64920E-07   -0.33443E-06  1680   0.501E-03
  50 F= -.10629738E+03 E0= -.10629738E+03  d E =-.130489E-14
       N       E                     dE             d eps       ncg     rms          rms(c)
DAV:   1    -0.106295422330E+03    0.19619E-02   -0.69943E-01  1864   0.126E+00    0.144E-01
DAV:   2    -0.106298363128E+03   -0.29408E-02   -0.31252E-02  2176   0.379E-01    0.639E-02
DAV:   3    -0.106298390392E+03   -0.27264E-04   -0.59884E-04  2328   0.609E-02    0.511E-02
DAV:   4    -0.106298369135E+03    0.21257E-04   -0.75938E-05  2152   0.236E-02    0.219E-02
DAV:   5    -0.106298369847E+03   -0.71149E-06   -0.18671E-05  2048   0.112E-02    0.944E-03
DAV:   6    -0.106298369321E+03    0.52574E-06   -0.70719E-07  1112   0.325E-03
  51 F= -.10629837E+03 E0= -.10629837E+03  d E =-.150089E-14
       N       E                     dE             d eps       ncg     rms          rms(c)
DAV:   1    -0.106295768998E+03    0.26008E-02   -0.74363E-01  1880   0.134E+00    0.318E-01
DAV:   2    -0.106298451926E+03   -0.26829E-02   -0.30942E-02  2240   0.413E-01    0.148E-01
DAV:   3    -0.106298322349E+03    0.12958E-03   -0.56413E-04  2208   0.751E-02    0.108E-01
DAV:   4    -0.106298215333E+03    0.10702E-03   -0.53249E-04  2104   0.877E-02    0.440E-02
DAV:   5    -0.106298225056E+03   -0.97236E-05   -0.12135E-04  2056   0.296E-02    0.171E-02
DAV:   6    -0.106298222922E+03    0.21349E-05   -0.42086E-06  1880   0.745E-03    0.112E-02
DAV:   7    -0.106298221202E+03    0.17199E-05   -0.86807E-06  1664   0.763E-03    0.330E-03
DAV:   8    -0.106298221326E+03   -0.12440E-06   -0.22872E-06  1504   0.432E-03
  52 F= -.10629822E+03 E0= -.10629822E+03  d E =-.935224E-15
       N       E                     dE             d eps       ncg     rms          rms(c)
DAV:   1    -0.106294146398E+03    0.40748E-02   -0.71863E-01  1848   0.126E+00    0.287E-01
DAV:   2    -0.106297198128E+03   -0.30517E-02   -0.32793E-02  2288   0.383E-01    0.128E-01
DAV:   3    -0.106297138002E+03    0.60125E-04   -0.46663E-04  2064   0.559E-02    0.976E-02
DAV:   4    -0.106297077335E+03    0.60668E-04   -0.25491E-04  1944   0.342E-02    0.448E-02
DAV:   5    -0.106297083155E+03   -0.58206E-05   -0.57217E-05  1864   0.182E-02    0.150E-02
DAV:   6    -0.106297083197E+03   -0.41546E-07   -0.48575E-06  1720   0.604E-03
  53 F= -.10629708E+03 E0= -.10629708E+03  d E =-.550399E-15
