 vasp.6.3.2 27Jun22 (build Jun 14 2024 17:29:11) complex                         
 executed on             LinuxGNU date 2026.03.30  08:46:19
 running on    8 total cores
 distrk:  each k-point on    8 cores,    1 groups
 distr:  one band on NCORE=   1 cores,    8 groups


--------------------------------------------------------------------------------------------------------


 INCAR:
   EDIFF = 1e-06
   ENCUT = 400.0
   IBRION = 6
   ISIF = 3
   ISMEAR = 0
   LCHARG = False
   LREAL = Auto
   LWAVE = False
   NFREE = 4
   NSW = 1
   POTIM = 0.015
   SIGMA = 0.05

 POTCAR:    PAW_PBE Na_pv 19Sep2006               
 POTCAR:    PAW_PBE Sb 06Sep2000                  
 POTCAR:    PAW_PBE S 06Sep2000                   
 -----------------------------------------------------------------------------
|                                                                             |
|           W    W    AA    RRRRR   N    N  II  N    N   GGGG   !!!           |
|           W    W   A  A   R    R  NN   N  II  NN   N  G    G  !!!           |
|           W    W  A    A  R    R  N N  N  II  N N  N  G       !!!           |
|           W WW W  AAAAAA  RRRRR   N  N N  II  N  N N  G  GGG   !            |
|           WW  WW  A    A  R   R   N   NN  II  N   NN  G    G                |
|           W    W  A    A  R    R  N    N  II  N    N   GGGG   !!!           |
|                                                                             |
|     For optimal performance we recommend to set                             |
|       NCORE = 2 up to number-of-cores-per-socket                            |
|     NCORE specifies how many cores store one orbital (NPAR=cpu/NCORE).      |
|     This setting can greatly improve the performance of VASP for DFT.       |
|     The default, NCORE=1 might be grossly inefficient on modern             |
|     multi-core architectures or massively parallel machines. Do your        |
|     own testing! More info at https://www.vasp.at/wiki/index.php/NCORE      |
|     Unfortunately you need to use the default for GW and RPA                |
|     calculations (for HF NCORE is supported but not extensively tested      |
|     yet).                                                                   |
|                                                                             |
 -----------------------------------------------------------------------------

 POTCAR:    PAW_PBE Na_pv 19Sep2006               
   SHA256 =  6a2f546d9e11350984debacf3dc457d8cffc0868e817d445faca461816a32b94 Na_pv/POTCAR          
   COPYR  = (c) Copyright 19Sep2006 Georg Kresse                                                    
   COPYR  = This file is part of the software VASP. Any use, copying, and all other rights are regul
   COPYR  = If you do not have a valid VASP license, you may not use, copy or distribute this file. 
   VRHFIN =Na: p6s1                                                                                 
   LEXCH  = PE                                                                                      
   EATOM  =   766.0439 eV,   56.3026 Ry                                                             
                                                                                                    
   TITEL  = PAW_PBE Na_pv 19Sep2006                                                                 
   LULTRA =        F    use ultrasoft PP ?                                                          
   IUNSCR =        1    unscreen: 0-lin 1-nonlin 2-no                                               
   RPACOR =    1.800    partial core radius                                                         
   POMASS =   22.990; ZVAL   =    7.000    mass and valenz                                          
   RCORE  =    2.200    outmost cutoff radius                                                       
   RWIGS  =    2.200; RWIGS  =    1.164    wigner-seitz radius (au A)                               
   ENMAX  =  259.561; ENMIN  =  194.671 eV                                                          
   ICORE  =        2    local potential                                                             
   LCOR   =        T    correct aug charges                                                         
   LPAW   =        T    paw PP                                                                      
   EAUG   =  368.056                                                                                
   DEXC   =    0.000                                                                                
   RMAX   =    2.245    core radius for proj-oper                                                   
   RAUG   =    1.300    factor for augmentation sphere                                              
   RDEP   =    2.259    radius for radial grids                                                     
   RDEPT  =    1.738    core radius for aug-charge                                                  
                                                                                                    
   Atomic configuration                                                                             
    5 entries                                                                                       
     n  l   j            E        occ.                                                              
     1  0  0.50     -1033.6933   2.0000                                                             
     2  0  0.50       -56.7526   2.0000                                                             
     2  1  1.50       -28.6721   6.0000                                                             
     3  0  0.50        -2.7440   1.0000                                                             
     3  2  1.50        -1.3606   0.0000                                                             
   Description                                                                                      
     l       E           TYP  RCUT    TYP  RCUT                                                     
     1    -28.6720912     23  2.000                                                                 
     1      6.8029130     23  2.000                                                                 
     0     -2.7439560     23  2.200                                                                 
     0     34.0145650     23  2.200                                                                 
     2     -1.3605826     23  2.200                                                                 
  local pseudopotential read in
  partial core-charges read in
  partial kinetic energy density read in
  atomic valenz-charges read in
  non local Contribution for L=           1  read in
    real space projection operators read in
  non local Contribution for L=           1  read in
    real space projection operators read in
  non local Contribution for L=           0  read in
    real space projection operators read in
  non local Contribution for L=           0  read in
    real space projection operators read in
    PAW grid and wavefunctions read in

   number of l-projection  operators is LMAX  =           4
   number of lm-projection operators is LMMAX =           8

 POTCAR:    PAW_PBE Sb 06Sep2000                  
   SHA256 =  8a1325a3afd8ca988779475cff04188eb880a428d1acb53275fe456fa3b784fc Sb/POTCAR             
   COPYR  = (c) Copyright 06Sep2000 Georg Kresse                                                    
   COPYR  = This file is part of the software VASP. Any use, copying, and all other rights are regul
   COPYR  = If you do not have a valid VASP license, you may not use, copy or distribute this file. 
   VRHFIN =Sb: s2p3                                                                                 
   LEXCH  = PE                                                                                      
   EATOM  =   149.9515 eV,   11.0211 Ry                                                             
                                                                                                    
   TITEL  = PAW_PBE Sb 06Sep2000                                                                    
   LULTRA =        F    use ultrasoft PP ?                                                          
   IUNSCR =        1    unscreen: 0-lin 1-nonlin 2-no                                               
   RPACOR =    2.200    partial core radius                                                         
   POMASS =  121.750; ZVAL   =    5.000    mass and valenz                                          
   RCORE  =    2.300    outmost cutoff radius                                                       
   RWIGS  =    2.980; RWIGS  =    1.577    wigner-seitz radius (au A)                               
   ENMAX  =  172.069; ENMIN  =  129.052 eV                                                          
   ICORE  =        3    local potential                                                             
   LCOR   =        T    correct aug charges                                                         
   LPAW   =        T    paw PP                                                                      
   EAUG   =  380.513                                                                                
   DEXC   =    0.000                                                                                
   RMAX   =    2.346    core radius for proj-oper                                                   
   RAUG   =    1.300    factor for augmentation sphere                                              
   RDEP   =    2.360    radius for radial grids                                                     
   RDEPT  =    2.192    core radius for aug-charge                                                  
                                                                                                    
   Atomic configuration                                                                             
   13 entries                                                                                       
     n  l   j            E        occ.                                                              
     1  0  0.50    -30298.2797   2.0000                                                             
     2  0  0.50     -4610.2252   2.0000                                                             
     2  1  1.50     -4138.3407   6.0000                                                             
     3  0  0.50      -903.8815   2.0000                                                             
     3  1  1.50      -750.1337   6.0000                                                             
     3  2  2.50      -515.7092  10.0000                                                             
     4  0  0.50      -148.8034   2.0000                                                             
     4  1  1.50      -101.7581   6.0000                                                             
     4  2  2.50       -33.5048  10.0000                                                             
     5  0  0.50       -12.8298   2.0000                                                             
     5  1  0.50        -4.8276   3.0000                                                             
     5  2  1.50        -4.0817   0.0000                                                             
     4  3  2.50        -4.0817   0.0000                                                             
   Description                                                                                      
     l       E           TYP  RCUT    TYP  RCUT                                                     
     0    -12.8297861     23  2.300                                                                 
     0     13.6058260     23  2.300                                                                 
     1     -4.8275512     23  2.300                                                                 
     1     -0.7245443     23  2.300                                                                 
     2     -4.0817478     23  2.300                                                                 
     3     -1.3605826     23  2.300                                                                 
  local pseudopotential read in
  partial core-charges read in
  partial kinetic energy density read in
  atomic valenz-charges read in
  non local Contribution for L=           0  read in
    real space projection operators read in
  non local Contribution for L=           0  read in
    real space projection operators read in
  non local Contribution for L=           1  read in
    real space projection operators read in
  non local Contribution for L=           1  read in
    real space projection operators read in
  non local Contribution for L=           2  read in
    real space projection operators read in
    PAW grid and wavefunctions read in

   number of l-projection  operators is LMAX  =           5
   number of lm-projection operators is LMMAX =          13

 POTCAR:    PAW_PBE S 06Sep2000                   
   SHA256 =  0fc7481fb0695f01bdc6462160264c5c84044ae9ec85a907d398b887a2bc3132 S/POTCAR              
   COPYR  = (c) Copyright 06Sep2000 Georg Kresse                                                    
   COPYR  = This file is part of the software VASP. Any use, copying, and all other rights are regul
   COPYR  = If you do not have a valid VASP license, you may not use, copy or distribute this file. 
   VRHFIN =S : s2p4                                                                                 
   LEXCH  = PE                                                                                      
   EATOM  =   276.8230 eV,   20.3459 Ry                                                             
                                                                                                    
   TITEL  = PAW_PBE S 06Sep2000                                                                     
   LULTRA =        F    use ultrasoft PP ?                                                          
   IUNSCR =        1    unscreen: 0-lin 1-nonlin 2-no                                               
   RPACOR =    1.500    partial core radius                                                         
   POMASS =   32.066; ZVAL   =    6.000    mass and valenz                                          
   RCORE  =    1.900    outmost cutoff radius                                                       
   RWIGS  =    2.200; RWIGS  =    1.164    wigner-seitz radius (au A)                               
   ENMAX  =  258.689; ENMIN  =  194.016 eV                                                          
   ICORE  =        2    local potential                                                             
   LCOR   =        T    correct aug charges                                                         
   LPAW   =        T    paw PP                                                                      
   EAUG   =  335.092                                                                                
   DEXC   =    0.000                                                                                
   RMAX   =    1.942    core radius for proj-oper                                                   
   RAUG   =    1.300    factor for augmentation sphere                                              
   RDEP   =    1.954    radius for radial grids                                                     
   RDEPT  =    1.744    core radius for aug-charge                                                  
                                                                                                    
   Atomic configuration                                                                             
    6 entries                                                                                       
     n  l   j            E        occ.                                                              
     1  0  0.50     -2405.8406   2.0000                                                             
     2  0  0.50      -211.7007   2.0000                                                             
     2  1  1.50      -156.4958   6.0000                                                             
     3  0  0.50       -17.2562   2.0000                                                             
     3  1  0.50        -7.0085   4.0000                                                             
     3  2  1.50        -6.8029   0.0000                                                             
   Description                                                                                      
     l       E           TYP  RCUT    TYP  RCUT                                                     
     0    -17.2561641     23  1.900                                                                 
     0    -15.8743224     23  1.900                                                                 
     1     -7.0085400     23  1.900                                                                 
     1     -2.7779785     23  1.900                                                                 
     2     -6.8029130     23  1.900                                                                 
  local pseudopotential read in
  partial core-charges read in
  partial kinetic energy density read in
  atomic valenz-charges read in
  non local Contribution for L=           0  read in
    real space projection operators read in
  non local Contribution for L=           0  read in
    real space projection operators read in
  non local Contribution for L=           1  read in
    real space projection operators read in
  non local Contribution for L=           1  read in
    real space projection operators read in
    PAW grid and wavefunctions read in

   number of l-projection  operators is LMAX  =           4
   number of lm-projection operators is LMMAX =           8

 Optimization of the real space projectors (new method)

 maximal supplied QI-value         = 17.01
 optimisation between [QCUT,QGAM] = [ 10.20, 20.41] = [ 29.16,116.64] Ry 
 Optimized for a Real-space Cutoff    1.30 Angstroem

   l    n(q)    QCUT    max X(q) W(low)/X(q) W(high)/X(q)  e(spline) 
   1      7    10.205     4.940    0.23E-03    0.84E-03    0.11E-06
   1      7    10.205     6.253    0.40E-03    0.13E-02    0.18E-06
   0      8    10.205    37.438    0.23E-03    0.37E-03    0.42E-07
   0      8    10.205     9.606    0.16E-03    0.26E-03    0.31E-07
 Optimization of the real space projectors (new method)

 maximal supplied QI-value         = 16.25
 optimisation between [QCUT,QGAM] = [ 10.24, 20.48] = [ 29.35,117.42] Ry 
 Optimized for a Real-space Cutoff    1.38 Angstroem

   l    n(q)    QCUT    max X(q) W(low)/X(q) W(high)/X(q)  e(spline) 
   0      8    10.239    19.000    0.74E-04    0.15E-03    0.61E-07
   0      8    10.239     9.057    0.91E-04    0.19E-03    0.74E-07
   1      8    10.239   125.345    0.50E-03    0.38E-03    0.74E-07
   1      8    10.239    79.963    0.49E-03    0.37E-03    0.73E-07
   2      7    10.239     6.963    0.74E-04    0.11E-03    0.40E-07
 Optimization of the real space projectors (new method)

 maximal supplied QI-value         = 19.84
 optimisation between [QCUT,QGAM] = [ 10.12, 20.44] = [ 28.68,116.96] Ry 
 Optimized for a Real-space Cutoff    1.23 Angstroem

   l    n(q)    QCUT    max X(q) W(low)/X(q) W(high)/X(q)  e(spline) 
   0      7    10.119   187.594    0.62E-04    0.28E-03    0.52E-07
   0      7    10.119   164.243    0.61E-04    0.28E-03    0.52E-07
   1      7    10.119    67.533    0.45E-03    0.63E-03    0.13E-06
   1      7    10.119    50.729    0.44E-03    0.62E-03    0.12E-06
  PAW_PBE Na_pv 19Sep2006               :
 energy of atom  1       EATOM= -766.0439
 kinetic energy error for atom=    0.0103 (will be added to EATOM!!)
  PAW_PBE Sb 06Sep2000                  :
 energy of atom  2       EATOM= -149.9515
 kinetic energy error for atom=    0.0008 (will be added to EATOM!!)
  PAW_PBE S 06Sep2000                   :
 energy of atom  3       EATOM= -276.8230
 kinetic energy error for atom=    0.0046 (will be added to EATOM!!)


 POSCAR: Na12 Sb4 S12
  positions in direct lattice
  velocities in cartesian coordinates
 exchange correlation table for  LEXCH =        8
   RHO(1)=    0.500       N(1)  =     2000
   RHO(2)=  100.500       N(2)  =     4000



--------------------------------------------------------------------------------------------------------


 ion  position               nearest neighbor table
   1  0.439  0.939  0.561-
   2  0.939  0.561  0.439-
   3  0.561  0.439  0.939-
   4  0.061  0.061  0.061-
   5  0.931  0.431  0.069-
   6  0.431  0.069  0.931-
   7  0.069  0.931  0.431-
   8  0.569  0.569  0.569-
   9  0.675  0.175  0.325-
  10  0.175  0.325  0.675-
  11  0.325  0.675  0.175-
  12  0.825  0.825  0.825-
  13  0.214  0.714  0.786-  17 2.47  18 2.47  19 2.47
  14  0.714  0.786  0.214-  20 2.47  21 2.47  22 2.47
  15  0.786  0.214  0.714-  23 2.47  24 2.47  25 2.47
  16  0.286  0.286  0.286-  26 2.47  27 2.47  28 2.47
  17  0.141  0.985  0.750-  13 2.47
  18  0.250  0.641  0.515-  13 2.47
  19  0.485  0.750  0.859-  13 2.47
  20  0.641  0.515  0.250-  14 2.47
  21  0.750  0.859  0.485-  14 2.47
  22  0.985  0.750  0.141-  14 2.47
  23  0.859  0.485  0.750-  15 2.47
  24  0.750  0.141  0.985-  15 2.47
  25  0.515  0.250  0.641-  15 2.47
  26  0.359  0.015  0.250-  16 2.47
  27  0.250  0.359  0.015-  16 2.47
  28  0.015  0.250  0.359-  16 2.47

  LATTYP: Found a simple cubic cell.
 ALAT       =     8.7126920662
  
  Lattice vectors:
  
 A1 = (   8.7126920662,  -0.0000000000,   0.0000000000)
 A2 = (  -0.0000000000,   8.7126920662,   0.0000000000)
 A3 = (   0.0000000000,   0.0000000000,   8.7126920662)


Analysis of symmetry for initial positions (statically):
=====================================================================
 Subroutine PRICEL returns:
 Original cell was already a primitive cell.
 

 Routine SETGRP: Setting up the symmetry group for a 
 simple cubic supercell.


 Subroutine GETGRP returns: Found 12 space group operations
 (whereof  3 operations were pure point group operations)
 out of a pool of 48 trial point group operations.


The static configuration has the point symmetry C_3 .
 The point group associated with its full space group is T   .


Analysis of symmetry for dynamics (positions and initial velocities):
=====================================================================
 Subroutine PRICEL returns:
 Original cell was already a primitive cell.
 

 Routine SETGRP: Setting up the symmetry group for a 
 simple cubic supercell.


 Subroutine GETGRP returns: Found 12 space group operations
 (whereof  3 operations were pure point group operations)
 out of a pool of 48 trial point group operations.


The dynamic configuration has the point symmetry C_3 .
 The point group associated with its full space group is T   .


 Subroutine INISYM returns: Found 12 space group operations
 (whereof  3 operations are pure point group operations),
 and found     1 'primitive' translations


----------------------------------------------------------------------------------------

                                     Primitive cell                                     

  volume of cell :     661.3892

  direct lattice vectors                    reciprocal lattice vectors
     8.712692066 -0.000000000  0.000000000     0.114775088  0.000000000 -0.000000000
    -0.000000000  8.712692066  0.000000000     0.000000000  0.114775088 -0.000000000
     0.000000000  0.000000000  8.712692066    -0.000000000 -0.000000000  0.114775088

  length of vectors
     8.712692066  8.712692066  8.712692066     0.114775088  0.114775088  0.114775088

  position of ions in fractional coordinates (direct lattice)
     0.439087538  0.939087538  0.560912462
     0.939087538  0.560912462  0.439087538
     0.560912462  0.439087538  0.939087538
     0.060912462  0.060912462  0.060912462
     0.931318720  0.431318720  0.068681280
     0.431318720  0.068681280  0.931318720
     0.068681280  0.931318720  0.431318720
     0.568681280  0.568681280  0.568681280
     0.674757651  0.174757651  0.325242349
     0.174757651  0.325242349  0.674757651
     0.325242349  0.674757651  0.174757651
     0.825242349  0.825242349  0.825242349
     0.214293279  0.714293279  0.785706721
     0.714293279  0.785706721  0.214293279
     0.785706721  0.214293279  0.714293279
     0.285706721  0.285706721  0.285706721
     0.141092105  0.985327422  0.749995917
     0.250004083  0.641092105  0.514672578
     0.485327422  0.750004083  0.858907895
     0.641092105  0.514672578  0.250004083
     0.750004083  0.858907895  0.485327422
     0.985327422  0.749995917  0.141092105
     0.858907895  0.485327422  0.750004083
     0.749995917  0.141092105  0.985327422
     0.514672578  0.250004083  0.641092105
     0.358907895  0.014672578  0.249995917
     0.249995917  0.358907895  0.014672578
     0.014672578  0.249995917  0.358907895

  ion indices of the primitive-cell ions
   primitive index   ion index
                 1           1
                 2           2
                 3           3
                 4           4
                 5           5
                 6           6
                 7           7
                 8           8
                 9           9
                10          10
                11          11
                12          12
                13          13
                14          14
                15          15
                16          16
                17          17
                18          18
                19          19
                20          20
                21          21
                22          22
                23          23
                24          24
                25          25
                26          26
                27          27
                28          28

----------------------------------------------------------------------------------------



 KPOINTS: pymatgen with grid density = 600 / numbe

Automatic generation of k-mesh.
 Grid dimensions read from file:
 generate k-points for:    2    2    2

 Generating k-lattice:

  Cartesian coordinates                     Fractional coordinates (reciprocal lattice)
     0.057387544  0.000000000 -0.000000000     0.500000000 -0.000000000  0.000000000
     0.000000000  0.057387544 -0.000000000     0.000000000  0.500000000  0.000000000
    -0.000000000 -0.000000000  0.057387544     0.000000000  0.000000000  0.500000000

  Length of vectors
     0.057387544  0.057387544  0.057387544

  Shift w.r.t. Gamma in fractional coordinates (k-lattice)
     0.000000000  0.000000000  0.000000000

 
 Subroutine IBZKPT returns following result:
 ===========================================
 
 Found      4 irreducible k-points:
 
 Following reciprocal coordinates:
            Coordinates               Weight
  0.000000  0.000000  0.000000      1.000000
  0.500000  0.000000  0.000000      3.000000
  0.500000  0.500000  0.000000      3.000000
  0.500000  0.500000  0.500000      1.000000
 
 Following cartesian coordinates:
            Coordinates               Weight
  0.000000  0.000000  0.000000      1.000000
  0.057388  0.000000  0.000000      3.000000
  0.057388  0.057388  0.000000      3.000000
  0.057388  0.057388  0.057388      1.000000
 
 
 Subroutine IBZKPT_HF returns following result:
 ==============================================
 
 Found      8 k-points in 1st BZ
 the following      8 k-points will be used (e.g. in the exchange kernel)
 Following reciprocal coordinates:   # in IRBZ
  0.000000  0.000000  0.000000    0.12500000   1 t-inv F
  0.500000  0.000000  0.000000    0.12500000   2 t-inv F
  0.500000  0.500000  0.000000    0.12500000   3 t-inv F
  0.500000  0.500000  0.500000    0.12500000   4 t-inv F
  0.000000  0.500000  0.000000    0.12500000   2 t-inv F
  0.000000  0.000000  0.500000    0.12500000   2 t-inv F
  0.000000  0.500000  0.500000    0.12500000   3 t-inv F
  0.500000  0.000000  0.500000    0.12500000   3 t-inv F


--------------------------------------------------------------------------------------------------------




 Dimension of arrays:
   k-points           NKPTS =      4   k-points in BZ     NKDIM =      4   number of bands    NBANDS=    112
   number of dos      NEDOS =    301   number of ions     NIONS =     28
   non local maximal  LDIM  =      5   non local SUM 2l+1 LMDIM =     13
   total plane-waves  NPLWV = 110592
   max r-space proj   IRMAX =   1892   max aug-charges    IRDMAX=   9478
   dimension x,y,z NGX =    48 NGY =   48 NGZ =   48
   dimension x,y,z NGXF=    96 NGYF=   96 NGZF=   96
   support grid    NGXF=    96 NGYF=   96 NGZF=   96
   ions per type =              12   4  12
   NGX,Y,Z   is equivalent  to a cutoff of   9.16,  9.16,  9.16 a.u.
   NGXF,Y,Z  is equivalent  to a cutoff of  18.32, 18.32, 18.32 a.u.

 SYSTEM =  unknown system                          
 POSCAR =  Na12 Sb4 S12                            

 Startparameter for this run:
   NWRITE =      2    write-flag & timer
   PREC   = normal    normal or accurate (medium, high low for compatibility)
   ISTART =      0    job   : 0-new  1-cont  2-samecut
   ICHARG =      2    charge: 1-file 2-atom 10-const
   ISPIN  =      1    spin polarized calculation?
   LNONCOLLINEAR =      F non collinear calculations
   LSORBIT =      F    spin-orbit coupling
   INIWAV =      1    electr: 0-lowe 1-rand  2-diag
   LASPH  =      F    aspherical Exc in radial PAW
 Electronic Relaxation 1
   ENCUT  =  400.0 eV  29.40 Ry    5.42 a.u.  14.21 14.21 14.21*2*pi/ulx,y,z
   ENINI  =  400.0     initial cutoff
   ENAUG  =  380.5 eV  augmentation charge cutoff
   NELM   =     60;   NELMIN=  2; NELMDL= -5     # of ELM steps 
   EDIFF  = 0.1E-05   stopping-criterion for ELM
   LREAL  =      T    real-space projection
   NLSPLINE    = F    spline interpolate recip. space projectors
   LCOMPAT=      F    compatible to vasp.4.4
   GGA_COMPAT  = T    GGA compatible to vasp.4.4-vasp.4.6
   LMAXPAW     = -100 max onsite density
   LMAXMIX     =    2 max onsite mixed and CHGCAR
   VOSKOWN=      0    Vosko Wilk Nusair interpolation
   ROPT   =   -0.00050  -0.00050  -0.00050
 Ionic relaxation
   EDIFFG = 0.1E-04   stopping-criterion for IOM
   NSW    =    373    number of steps for IOM
   NBLOCK =      1;   KBLOCK =    373    inner block; outer block 
   IBRION =      6    ionic relax: 0-MD 1-quasi-New 2-CG
   NFREE  =      4    steps in history (QN), initial steepest desc. (CG)
   ISIF   =      3    stress and relaxation
   IWAVPR =     11    prediction:  0-non 1-charg 2-wave 3-comb
   ISYM   =      2    0-nonsym 1-usesym 2-fastsym
   LCORR  =      T    Harris-Foulkes like correction to forces

   POTIM  = 0.0150    time-step for ionic-motion
   TEIN   =    0.0    initial temperature
   TEBEG  =    0.0;   TEEND  =   0.0 temperature during run
   SMASS  =  -3.00    Nose mass-parameter (am)
   estimated Nose-frequenzy (Omega)   =  0.10E-29 period in steps = 0.42E+48 mass=  -0.173E-26a.u.
   SCALEE = 1.0000    scale energy and forces
   NPACO  =    256;   APACO  = 10.0  distance and # of slots for P.C.
   PSTRESS=    0.0 pullay stress

  Mass of Ions in am
   POMASS =  22.99121.75 32.07
  Ionic Valenz
   ZVAL   =   7.00  5.00  6.00
  Atomic Wigner-Seitz radii
   RWIGS  =  -1.00 -1.00 -1.00
  virtual crystal weights 
   VCA    =   1.00  1.00  1.00
   NELECT =     176.0000    total number of electrons
   NUPDOWN=      -1.0000    fix difference up-down

 DOS related values:
   EMIN   =  10.00;   EMAX   =-10.00  energy-range for DOS
   EFERMI =   0.00
   ISMEAR =     0;   SIGMA  =   0.05  broadening in eV -4-tet -1-fermi 0-gaus

 Electronic relaxation 2 (details)
   IALGO  =     38    algorithm
   LDIAG  =      T    sub-space diagonalisation (order eigenvalues)
   LSUBROT=      F    optimize rotation matrix (better conditioning)
   TURBO    =      0    0=normal 1=particle mesh
   IRESTART =      0    0=no restart 2=restart with 2 vectors
   NREBOOT  =      0    no. of reboots
   NMIN     =      0    reboot dimension
   EREF     =   0.00    reference energy to select bands
   IMIX   =      4    mixing-type and parameters
     AMIX     =   0.40;   BMIX     =  1.00
     AMIX_MAG =   1.60;   BMIX_MAG =  1.00
     AMIN     =   0.10
     WC   =   100.;   INIMIX=   1;  MIXPRE=   1;  MAXMIX= -45

 Intra band minimization:
   WEIMIN = 0.0010     energy-eigenvalue tresh-hold
   EBREAK =  0.22E-08  absolut break condition
   DEPER  =   0.30     relativ break condition  

   TIME   =   0.40     timestep for ELM

  volume/ion in A,a.u.               =      23.62       159.40
  Fermi-wavevector in a.u.,A,eV,Ry     =   1.052996  1.989874 15.086145  1.108800
  Thomas-Fermi vector in A             =   2.188100

 Write flags
   LWAVE        =      F    write WAVECAR
   LDOWNSAMPLE  =      F    k-point downsampling of WAVECAR
   LCHARG       =      F    write CHGCAR
   LVTOT        =      F    write LOCPOT, total local potential
   LVHAR        =      F    write LOCPOT, Hartree potential only
   LELF         =      F    write electronic localiz. function (ELF)
   LORBIT       =      0    0 simple, 1 ext, 2 COOP (PROOUT), +10 PAW based schemes


 Dipole corrections
   LMONO  =      F    monopole corrections only (constant potential shift)
   LDIPOL =      F    correct potential (dipole corrections)
   IDIPOL =      0    1-x, 2-y, 3-z, 4-all directions 
   EPSILON=  1.0000000 bulk dielectric constant

 Exchange correlation treatment:
   GGA     =    --    GGA type
   LEXCH   =     8    internal setting for exchange type
   LIBXC   =     F    Libxc                    
   VOSKOWN =     0    Vosko Wilk Nusair interpolation
   LHFCALC =     F    Hartree Fock is set to
   LHFONE  =     F    Hartree Fock one center treatment
   AEXX    =    0.0000 exact exchange contribution

 Linear response parameters
   LEPSILON=     F    determine dielectric tensor
   LRPA    =     F    only Hartree local field effects (RPA)
   LNABLA  =     F    use nabla operator in PAW spheres
   LVEL    =     F    velocity operator in full k-point grid
   CSHIFT  =0.1000    complex shift for real part using Kramers Kronig
   OMEGAMAX=  -1.0    maximum frequency
   DEG_THRESHOLD= 0.2000000E-02 threshold for treating states as degnerate
   RTIME   =   -0.100 relaxation time in fs
  (WPLASMAI=    0.000 imaginary part of plasma frequency in eV, 0.658/RTIME)
   DFIELD  = 0.0000000 0.0000000 0.0000000 field for delta impulse in time

  Optional k-point grid parameters
   LKPOINTS_OPT  =     F    use optional k-point grid
   KPOINTS_OPT_MODE=     1    mode for optional k-point grid

 Orbital magnetization related:
   ORBITALMAG=     F  switch on orbital magnetization
   LCHIMAG   =     F  perturbation theory with respect to B field
   DQ        =  0.001000  dq finite difference perturbation B field
   LLRAUG    =     F  two centre corrections for induced B field



--------------------------------------------------------------------------------------------------------


 finite differences with symmetry
 charge density and potential will be updated during run
 non-spin polarized calculation
 Variant of blocked Davidson
 Davidson routine will perform the subspace rotation
 perform sub-space diagonalisation
    after iterative eigenvector-optimisation
 modified Broyden-mixing scheme, WC =      100.0
 initial mixing is a Kerker type mixing with AMIX =  0.4000 and BMIX =      1.0000
 Hartree-type preconditioning will be used
 using additional bands           24
 real space projection scheme for non local part
 use partial core corrections
 calculate Harris-corrections to forces   (improved forces if not selfconsistent)
 use gradient corrections 
 use of overlap-Matrix (Vanderbilt PP)
 Gauss-broadening in eV      SIGMA  =   0.05


--------------------------------------------------------------------------------------------------------


  energy-cutoff  :      400.00
  volume of cell :      661.39
      direct lattice vectors                 reciprocal lattice vectors
     8.712692066 -0.000000000  0.000000000     0.114775088  0.000000000 -0.000000000
    -0.000000000  8.712692066  0.000000000     0.000000000  0.114775088 -0.000000000
     0.000000000  0.000000000  8.712692066    -0.000000000 -0.000000000  0.114775088

  length of vectors
     8.712692066  8.712692066  8.712692066     0.114775088  0.114775088  0.114775088



 k-points in units of 2pi/SCALE and weight: pymatgen with grid density = 600 / numbe
   0.00000000  0.00000000  0.00000000       0.125
   0.05738754  0.00000000  0.00000000       0.375
   0.05738754  0.05738754  0.00000000       0.375
   0.05738754  0.05738754  0.05738754       0.125

 k-points in reciprocal lattice and weights: pymatgen with grid density = 600 / numbe
   0.00000000  0.00000000  0.00000000       0.125
   0.50000000  0.00000000  0.00000000       0.375
   0.50000000  0.50000000  0.00000000       0.375
   0.50000000  0.50000000  0.50000000       0.125

 position of ions in fractional coordinates (direct lattice) 
   0.43908754  0.93908754  0.56091246
   0.93908754  0.56091246  0.43908754
   0.56091246  0.43908754  0.93908754
   0.06091246  0.06091246  0.06091246
   0.93131872  0.43131872  0.06868128
   0.43131872  0.06868128  0.93131872
   0.06868128  0.93131872  0.43131872
   0.56868128  0.56868128  0.56868128
   0.67475765  0.17475765  0.32524235
   0.17475765  0.32524235  0.67475765
   0.32524235  0.67475765  0.17475765
   0.82524235  0.82524235  0.82524235
   0.21429328  0.71429328  0.78570672
   0.71429328  0.78570672  0.21429328
   0.78570672  0.21429328  0.71429328
   0.28570672  0.28570672  0.28570672
   0.14109211  0.98532742  0.74999592
   0.25000408  0.64109211  0.51467258
   0.48532742  0.75000408  0.85890789
   0.64109211  0.51467258  0.25000408
   0.75000408  0.85890789  0.48532742
   0.98532742  0.74999592  0.14109211
   0.85890789  0.48532742  0.75000408
   0.74999592  0.14109211  0.98532742
   0.51467258  0.25000408  0.64109211
   0.35890789  0.01467258  0.24999592
   0.24999592  0.35890789  0.01467258
   0.01467258  0.24999592  0.35890789

 position of ions in cartesian coordinates  (Angst):
   3.82563451  8.18198054  4.88705756
   8.18198054  4.88705756  3.82563451
   4.88705756  3.82563451  8.18198054
   0.53071152  0.53071152  0.53071152
   8.11429322  3.75794719  0.59839885
   3.75794719  0.59839885  8.11429322
   0.59839885  8.11429322  3.75794719
   4.95474488  4.95474488  4.95474488
   5.87895563  1.52260960  2.83373643
   1.52260960  2.83373643  5.87895563
   2.83373643  5.87895563  1.52260960
   7.19008247  7.19008247  7.19008247
   1.86707135  6.22341738  6.84562072
   6.22341738  6.84562072  1.86707135
   6.84562072  1.86707135  6.22341738
   2.48927468  2.48927468  2.48927468
   1.22929207  8.58485442  6.53448348
   2.17820859  5.58563810  4.48418368
   4.22850838  6.53455462  7.48340000
   5.58563810  4.48418368  2.17820859
   6.53455462  7.48340000  4.22850838
   8.58485442  6.53448348  1.22929207
   7.48340000  4.22850838  6.53455462
   6.53448348  1.22929207  8.58485442
   4.48418368  2.17820859  5.58563810
   3.12705397  0.12783765  2.17813744
   2.17813744  3.12705397  0.12783765
   0.12783765  2.17813744  3.12705397



--------------------------------------------------------------------------------------------------------


 k-point   1 :   0.0000 0.0000 0.0000  plane waves:   11981
 k-point   2 :   0.5000 0.0000 0.0000  plane waves:   12012
 k-point   3 :   0.5000 0.5000 0.0000  plane waves:   12032
 k-point   4 :   0.5000 0.5000 0.5000  plane waves:   11992

 maximum and minimum number of plane-waves per node :     12032    11981

 maximum number of plane-waves:     12032
 maximum index in each direction: 
   IXMAX=   14   IYMAX=   14   IZMAX=   14
   IXMIN=  -14   IYMIN=  -14   IZMIN=  -14


 serial   3D FFT for wavefunctions
 parallel 3D FFT for charge:
    minimum data exchange during FFTs selected (reduces bandwidth)


 total amount of memory used by VASP MPI-rank0    61148. kBytes
=======================================================================

   base      :      30000. kBytes
   nonlr-proj:       4030. kBytes
   fftplans  :       4240. kBytes
   grid      :      11649. kBytes
   one-center:        227. kBytes
   wavefun   :      11002. kBytes

     INWAV:  cpu time      0.0000: real time      0.0003
 Broyden mixing: mesh for mixing (old mesh)
   NGX = 29   NGY = 29   NGZ = 29
  (NGX  = 96   NGY  = 96   NGZ  = 96)
  gives a total of  24389 points

 initial charge density was supplied:
 charge density of overlapping atoms calculated
 number of electron     176.0000000 magnetization 
 keeping initial charge density in first step


--------------------------------------------------------------------------------------------------------


 Maximum index for non-local projection operator         1797
 Maximum index for augmentation-charges         1083 (set IRDMAX)


--------------------------------------------------------------------------------------------------------


 First call to EWALD:  gamma=   0.203
 Maximum number of real-space cells 3x 3x 3
 Maximum number of reciprocal cells 3x 3x 3

    FEWALD:  cpu time      0.0015: real time      0.0015


--------------------------------------- Iteration      1(   1)  ---------------------------------------


    POTLOK:  cpu time      0.0564: real time      0.0565
    SETDIJ:  cpu time      0.0053: real time      0.0054
     EDDAV:  cpu time      1.3159: real time      1.3162
       DOS:  cpu time      0.0004: real time      0.0005
    --------------------------------------------
      LOOP:  cpu time      1.3780: real time      1.3785

 eigenvalue-minimisations  :   960
 total energy-change (2. order) : 0.1602897E+04  (-0.6922478E+04)
 number of electron     176.0000000 magnetization 
 augmentation part      176.0000000 magnetization 

 Free energy of the ion-electron system (eV)
  ---------------------------------------------------
  alpha Z        PSCENC =       206.73769837
  Ewald energy   TEWEN  =     -7887.03209255
  -Hartree energ DENC   =     -3250.94124754
  -exchange      EXHF   =         0.00000000
  -V(xc)+E(xc)   XCENC  =       257.49893570
  PAW double counting   =      9292.70176790   -10101.46807451
  entropy T*S    EENTRO =        -0.01160165
  eigenvalues    EBANDS =       -28.61448517
  atomic energy  EATOM  =     13114.02654919
  Solvation  Ediel_sol  =         0.00000000
  ---------------------------------------------------
  free energy    TOTEN  =      1602.89744974 eV

  energy without entropy =     1602.90905139  energy(sigma->0) =     1602.90325057


--------------------------------------------------------------------------------------------------------




--------------------------------------- Iteration      1(   2)  ---------------------------------------


     EDDAV:  cpu time      1.3549: real time      1.3554
       DOS:  cpu time      0.0002: real time      0.0003
    --------------------------------------------
      LOOP:  cpu time      1.3551: real time      1.3557

 eigenvalue-minimisations  :   992
 total energy-change (2. order) :-0.1499534E+04  (-0.1432091E+04)
 number of electron     176.0000000 magnetization 
 augmentation part      176.0000000 magnetization 

 Free energy of the ion-electron system (eV)
  ---------------------------------------------------
  alpha Z        PSCENC =       206.73769837
  Ewald energy   TEWEN  =     -7887.03209255
  -Hartree energ DENC   =     -3250.94124754
  -exchange      EXHF   =         0.00000000
  -V(xc)+E(xc)   XCENC  =       257.49893570
  PAW double counting   =      9292.70176790   -10101.46807451
  entropy T*S    EENTRO =        -0.00000000
  eigenvalues    EBANDS =     -1528.15959108
  atomic energy  EATOM  =     13114.02654919
  Solvation  Ediel_sol  =         0.00000000
  ---------------------------------------------------
  free energy    TOTEN  =       103.36394549 eV

  energy without entropy =      103.36394549  energy(sigma->0) =      103.36394549


--------------------------------------------------------------------------------------------------------




--------------------------------------- Iteration      1(   3)  ---------------------------------------


     EDDAV:  cpu time      1.4622: real time      1.4625
       DOS:  cpu time      0.0003: real time      0.0003
    --------------------------------------------
      LOOP:  cpu time      1.4624: real time      1.4629

 eigenvalue-minimisations  :  1096
 total energy-change (2. order) :-0.2046264E+03  (-0.2010865E+03)
 number of electron     176.0000000 magnetization 
 augmentation part      176.0000000 magnetization 

 Free energy of the ion-electron system (eV)
  ---------------------------------------------------
  alpha Z        PSCENC =       206.73769837
  Ewald energy   TEWEN  =     -7887.03209255
  -Hartree energ DENC   =     -3250.94124754
  -exchange      EXHF   =         0.00000000
  -V(xc)+E(xc)   XCENC  =       257.49893570
  PAW double counting   =      9292.70176790   -10101.46807451
  entropy T*S    EENTRO =        -0.00000000
  eigenvalues    EBANDS =     -1732.78603198
  atomic energy  EATOM  =     13114.02654919
  Solvation  Ediel_sol  =         0.00000000
  ---------------------------------------------------
  free energy    TOTEN  =      -101.26249541 eV

  energy without entropy =     -101.26249541  energy(sigma->0) =     -101.26249541


--------------------------------------------------------------------------------------------------------




--------------------------------------- Iteration      1(   4)  ---------------------------------------


     EDDAV:  cpu time      1.3953: real time      1.3956
       DOS:  cpu time      0.0003: real time      0.0003
    --------------------------------------------
      LOOP:  cpu time      1.3956: real time      1.3959

 eigenvalue-minimisations  :  1040
 total energy-change (2. order) :-0.1113676E+02  (-0.1101833E+02)
 number of electron     176.0000000 magnetization 
 augmentation part      176.0000000 magnetization 

 Free energy of the ion-electron system (eV)
  ---------------------------------------------------
  alpha Z        PSCENC =       206.73769837
  Ewald energy   TEWEN  =     -7887.03209255
  -Hartree energ DENC   =     -3250.94124754
  -exchange      EXHF   =         0.00000000
  -V(xc)+E(xc)   XCENC  =       257.49893570
  PAW double counting   =      9292.70176790   -10101.46807451
  entropy T*S    EENTRO =        -0.00000000
  eigenvalues    EBANDS =     -1743.92279674
  atomic energy  EATOM  =     13114.02654919
  Solvation  Ediel_sol  =         0.00000000
  ---------------------------------------------------
  free energy    TOTEN  =      -112.39926017 eV

  energy without entropy =     -112.39926017  energy(sigma->0) =     -112.39926017


--------------------------------------------------------------------------------------------------------




--------------------------------------- Iteration      1(   5)  ---------------------------------------


     EDDAV:  cpu time      1.5223: real time      1.5228
       DOS:  cpu time      0.0002: real time      0.0003
    CHARGE:  cpu time      0.0875: real time      0.0875
    MIXING:  cpu time      0.0017: real time      0.0017
    --------------------------------------------
      LOOP:  cpu time      1.6118: real time      1.6124

 eigenvalue-minimisations  :  1168
 total energy-change (2. order) :-0.4707164E+00  (-0.4699515E+00)
 number of electron     176.0000004 magnetization 
 augmentation part       40.1736011 magnetization 

 Broyden mixing:
  rms(total) = 0.17624E+01    rms(broyden)= 0.17623E+01
  rms(prec ) = 0.23375E+01
  weight for this iteration     100.00

 Free energy of the ion-electron system (eV)
  ---------------------------------------------------
  alpha Z        PSCENC =       206.73769837
  Ewald energy   TEWEN  =     -7887.03209255
  -Hartree energ DENC   =     -3250.94124754
  -exchange      EXHF   =         0.00000000
  -V(xc)+E(xc)   XCENC  =       257.49893570
  PAW double counting   =      9292.70176790   -10101.46807451
  entropy T*S    EENTRO =        -0.00000000
  eigenvalues    EBANDS =     -1744.39351317
  atomic energy  EATOM  =     13114.02654919
  Solvation  Ediel_sol  =         0.00000000
  ---------------------------------------------------
  free energy    TOTEN  =      -112.86997660 eV

  energy without entropy =     -112.86997660  energy(sigma->0) =     -112.86997660


--------------------------------------------------------------------------------------------------------




--------------------------------------- Iteration      1(   6)  ---------------------------------------


    POTLOK:  cpu time      0.0544: real time      0.0546
    SETDIJ:  cpu time      0.0049: real time      0.0049
     EDDAV:  cpu time      1.3505: real time      1.3507
       DOS:  cpu time      0.0003: real time      0.0004
    CHARGE:  cpu time      0.0896: real time      0.0896
    MIXING:  cpu time      0.0018: real time      0.0018
    --------------------------------------------
      LOOP:  cpu time      1.5015: real time      1.5019

 eigenvalue-minimisations  :  1000
 total energy-change (2. order) : 0.6323623E+01  (-0.1153345E+01)
 number of electron     176.0000006 magnetization 
 augmentation part       40.5854300 magnetization 

 Broyden mixing:
  rms(total) = 0.13430E+01    rms(broyden)= 0.13430E+01
  rms(prec ) = 0.14328E+01
  weight for this iteration     100.00

 eigenvalues of (default mixing * dielectric matrix)
  average eigenvalue GAMMA=   1.6571
  1.6571

 Free energy of the ion-electron system (eV)
  ---------------------------------------------------
  alpha Z        PSCENC =       206.73769837
  Ewald energy   TEWEN  =     -7887.03209255
  -Hartree energ DENC   =     -3285.52721820
  -exchange      EXHF   =         0.00000000
  -V(xc)+E(xc)   XCENC  =       262.04476376
  PAW double counting   =     10482.42059913   -11290.31918985
  entropy T*S    EENTRO =        -0.00000000
  eigenvalues    EBANDS =     -1708.89746349
  atomic energy  EATOM  =     13114.02654919
  Solvation  Ediel_sol  =         0.00000000
  ---------------------------------------------------
  free energy    TOTEN  =      -106.54635365 eV

  energy without entropy =     -106.54635365  energy(sigma->0) =     -106.54635365


--------------------------------------------------------------------------------------------------------




--------------------------------------- Iteration      1(   7)  ---------------------------------------


    POTLOK:  cpu time      0.0547: real time      0.0548
    SETDIJ:  cpu time      0.0049: real time      0.0049
     EDDAV:  cpu time      1.5027: real time      1.5033
       DOS:  cpu time      0.0003: real time      0.0004
    CHARGE:  cpu time      0.0902: real time      0.0902
    MIXING:  cpu time      0.0016: real time      0.0016
    --------------------------------------------
      LOOP:  cpu time      1.6544: real time      1.6552

 eigenvalue-minimisations  :  1152
 total energy-change (2. order) : 0.2192461E+00  (-0.3678427E+00)
 number of electron     176.0000007 magnetization 
 augmentation part       40.7060485 magnetization 

 Broyden mixing:
  rms(total) = 0.64121E+00    rms(broyden)= 0.64121E+00
  rms(prec ) = 0.67688E+00
  weight for this iteration     100.00

 eigenvalues of (default mixing * dielectric matrix)
  average eigenvalue GAMMA=   1.4447
  1.1721  1.7174

 Free energy of the ion-electron system (eV)
  ---------------------------------------------------
  alpha Z        PSCENC =       206.73769837
  Ewald energy   TEWEN  =     -7887.03209255
  -Hartree energ DENC   =     -3293.10839331
  -exchange      EXHF   =         0.00000000
  -V(xc)+E(xc)   XCENC  =       264.23051159
  PAW double counting   =     12166.68415230   -12975.67488199
  entropy T*S    EENTRO =        -0.00000000
  eigenvalues    EBANDS =     -1702.19065114
  atomic energy  EATOM  =     13114.02654919
  Solvation  Ediel_sol  =         0.00000000
  ---------------------------------------------------
  free energy    TOTEN  =      -106.32710754 eV

  energy without entropy =     -106.32710754  energy(sigma->0) =     -106.32710754


--------------------------------------------------------------------------------------------------------




--------------------------------------- Iteration      1(   8)  ---------------------------------------


    POTLOK:  cpu time      0.0535: real time      0.0537
    SETDIJ:  cpu time      0.0050: real time      0.0050
     EDDAV:  cpu time      1.4054: real time      1.4055
       DOS:  cpu time      0.0003: real time      0.0003
    CHARGE:  cpu time      0.0895: real time      0.0895
    MIXING:  cpu time      0.0017: real time      0.0017
    --------------------------------------------
      LOOP:  cpu time      1.5554: real time      1.5558

 eigenvalue-minimisations  :  1056
 total energy-change (2. order) : 0.3273922E-01  (-0.2198893E-01)
 number of electron     176.0000006 magnetization 
 augmentation part       40.6654649 magnetization 

 Broyden mixing:
  rms(total) = 0.22422E+00    rms(broyden)= 0.22422E+00
  rms(prec ) = 0.24662E+00
  weight for this iteration     100.00

 eigenvalues of (default mixing * dielectric matrix)
  average eigenvalue GAMMA=   1.5874
  2.4328  1.1647  1.1647

 Free energy of the ion-electron system (eV)
  ---------------------------------------------------
  alpha Z        PSCENC =       206.73769837
  Ewald energy   TEWEN  =     -7887.03209255
  -Hartree energ DENC   =     -3286.68339635
  -exchange      EXHF   =         0.00000000
  -V(xc)+E(xc)   XCENC  =       264.46768859
  PAW double counting   =     13052.91647673   -13863.28618022
  entropy T*S    EENTRO =        -0.00000000
  eigenvalues    EBANDS =     -1707.44111209
  atomic energy  EATOM  =     13114.02654919
  Solvation  Ediel_sol  =         0.00000000
  ---------------------------------------------------
  free energy    TOTEN  =      -106.29436832 eV

  energy without entropy =     -106.29436832  energy(sigma->0) =     -106.29436832


--------------------------------------------------------------------------------------------------------




--------------------------------------- Iteration      1(   9)  ---------------------------------------


    POTLOK:  cpu time      0.0528: real time      0.0529
    SETDIJ:  cpu time      0.0048: real time      0.0048
     EDDAV:  cpu time      1.3628: real time      1.3632
       DOS:  cpu time      0.0003: real time      0.0003
    CHARGE:  cpu time      0.0893: real time      0.0893
    MIXING:  cpu time      0.0017: real time      0.0017
    --------------------------------------------
      LOOP:  cpu time      1.5116: real time      1.5122

 eigenvalue-minimisations  :  1016
 total energy-change (2. order) :-0.1689460E-02  (-0.6182337E-02)
 number of electron     176.0000006 magnetization 
 augmentation part       40.6790823 magnetization 

 Broyden mixing:
  rms(total) = 0.47681E-01    rms(broyden)= 0.47681E-01
  rms(prec ) = 0.52698E-01
  weight for this iteration     100.00

 eigenvalues of (default mixing * dielectric matrix)
  average eigenvalue GAMMA=   1.3937
  2.2338  1.0884  1.0884  1.1642

 Free energy of the ion-electron system (eV)
  ---------------------------------------------------
  alpha Z        PSCENC =       206.73769837
  Ewald energy   TEWEN  =     -7887.03209255
  -Hartree energ DENC   =     -3286.38553531
  -exchange      EXHF   =         0.00000000
  -V(xc)+E(xc)   XCENC  =       265.04819515
  PAW double counting   =     13587.18975895   -14398.34685951
  entropy T*S    EENTRO =        -0.00000000
  eigenvalues    EBANDS =     -1707.53377208
  atomic energy  EATOM  =     13114.02654919
  Solvation  Ediel_sol  =         0.00000000
  ---------------------------------------------------
  free energy    TOTEN  =      -106.29605778 eV

  energy without entropy =     -106.29605778  energy(sigma->0) =     -106.29605778


--------------------------------------------------------------------------------------------------------




--------------------------------------- Iteration      1(  10)  ---------------------------------------


    POTLOK:  cpu time      0.0522: real time      0.0525
    SETDIJ:  cpu time      0.0049: real time      0.0049
     EDDAV:  cpu time      1.3874: real time      1.3875
       DOS:  cpu time      0.0003: real time      0.0004
    CHARGE:  cpu time      0.0906: real time      0.0906
    MIXING:  cpu time      0.0019: real time      0.0019
    --------------------------------------------
      LOOP:  cpu time      1.5374: real time      1.5378

 eigenvalue-minimisations  :  1040
 total energy-change (2. order) :-0.1133765E-02  (-0.3398222E-03)
 number of electron     176.0000006 magnetization 
 augmentation part       40.6760394 magnetization 

 Broyden mixing:
  rms(total) = 0.24543E-01    rms(broyden)= 0.24543E-01
  rms(prec ) = 0.30857E-01
  weight for this iteration     100.00

 eigenvalues of (default mixing * dielectric matrix)
  average eigenvalue GAMMA=   1.7684
  3.1927  2.2114  1.1500  1.1440  1.1440

 Free energy of the ion-electron system (eV)
  ---------------------------------------------------
  alpha Z        PSCENC =       206.73769837
  Ewald energy   TEWEN  =     -7887.03209255
  -Hartree energ DENC   =     -3285.98302122
  -exchange      EXHF   =         0.00000000
  -V(xc)+E(xc)   XCENC  =       265.01432777
  PAW double counting   =     13484.59791955   -14295.85625092
  entropy T*S    EENTRO =        -0.00000000
  eigenvalues    EBANDS =     -1707.80232173
  atomic energy  EATOM  =     13114.02654919
  Solvation  Ediel_sol  =         0.00000000
  ---------------------------------------------------
  free energy    TOTEN  =      -106.29719155 eV

  energy without entropy =     -106.29719155  energy(sigma->0) =     -106.29719155


--------------------------------------------------------------------------------------------------------




--------------------------------------- Iteration      1(  11)  ---------------------------------------


    POTLOK:  cpu time      0.0540: real time      0.0542
    SETDIJ:  cpu time      0.0047: real time      0.0047
     EDDAV:  cpu time      1.2996: real time      1.2999
       DOS:  cpu time      0.0002: real time      0.0003
    CHARGE:  cpu time      0.0885: real time      0.0885
    MIXING:  cpu time      0.0019: real time      0.0018
    --------------------------------------------
      LOOP:  cpu time      1.4489: real time      1.4495

 eigenvalue-minimisations  :   960
 total energy-change (2. order) :-0.1507662E-02  (-0.4293309E-03)
 number of electron     176.0000006 magnetization 
 augmentation part       40.6742414 magnetization 

 Broyden mixing:
  rms(total) = 0.16733E-01    rms(broyden)= 0.16733E-01
  rms(prec ) = 0.17432E-01
  weight for this iteration     100.00

 eigenvalues of (default mixing * dielectric matrix)
  average eigenvalue GAMMA=   1.5656
  2.7030  2.4259  1.3239  1.1274  1.1274  0.6861

 Free energy of the ion-electron system (eV)
  ---------------------------------------------------
  alpha Z        PSCENC =       206.73769837
  Ewald energy   TEWEN  =     -7887.03209255
  -Hartree energ DENC   =     -3285.13375272
  -exchange      EXHF   =         0.00000000
  -V(xc)+E(xc)   XCENC  =       265.07488606
  PAW double counting   =     13462.47666540   -14274.02747764
  entropy T*S    EENTRO =        -0.00000000
  eigenvalues    EBANDS =     -1708.42117532
  atomic energy  EATOM  =     13114.02654919
  Solvation  Ediel_sol  =         0.00000000
  ---------------------------------------------------
  free energy    TOTEN  =      -106.29869921 eV

  energy without entropy =     -106.29869921  energy(sigma->0) =     -106.29869921


--------------------------------------------------------------------------------------------------------




--------------------------------------- Iteration      1(  12)  ---------------------------------------


    POTLOK:  cpu time      0.0530: real time      0.0533
    SETDIJ:  cpu time      0.0047: real time      0.0047
     EDDAV:  cpu time      1.4485: real time      1.4488
       DOS:  cpu time      0.0003: real time      0.0003
    CHARGE:  cpu time      0.0880: real time      0.0880
    MIXING:  cpu time      0.0019: real time      0.0019
    --------------------------------------------
      LOOP:  cpu time      1.5964: real time      1.5971

 eigenvalue-minimisations  :  1088
 total energy-change (2. order) : 0.5509635E-04  (-0.1452839E-04)
 number of electron     176.0000006 magnetization 
 augmentation part       40.6751612 magnetization 

 Broyden mixing:
  rms(total) = 0.10417E-01    rms(broyden)= 0.10417E-01
  rms(prec ) = 0.10755E-01
  weight for this iteration     100.00

 eigenvalues of (default mixing * dielectric matrix)
  average eigenvalue GAMMA=   1.4867
  2.5321  2.5321  1.3244  1.1437  1.1437  0.8656  0.8656

 Free energy of the ion-electron system (eV)
  ---------------------------------------------------
  alpha Z        PSCENC =       206.73769837
  Ewald energy   TEWEN  =     -7887.03209255
  -Hartree energ DENC   =     -3285.27265492
  -exchange      EXHF   =         0.00000000
  -V(xc)+E(xc)   XCENC  =       265.07219018
  PAW double counting   =     13449.07269100   -14260.58551801
  entropy T*S    EENTRO =        -0.00000000
  eigenvalues    EBANDS =     -1708.31750738
  atomic energy  EATOM  =     13114.02654919
  Solvation  Ediel_sol  =         0.00000000
  ---------------------------------------------------
  free energy    TOTEN  =      -106.29864411 eV

  energy without entropy =     -106.29864411  energy(sigma->0) =     -106.29864411


--------------------------------------------------------------------------------------------------------




--------------------------------------- Iteration      1(  13)  ---------------------------------------


    POTLOK:  cpu time      0.0529: real time      0.0532
    SETDIJ:  cpu time      0.0047: real time      0.0047
     EDDAV:  cpu time      1.2865: real time      1.2867
       DOS:  cpu time      0.0002: real time      0.0003
    CHARGE:  cpu time      0.0878: real time      0.0878
    MIXING:  cpu time      0.0019: real time      0.0019
    --------------------------------------------
      LOOP:  cpu time      1.4341: real time      1.4346

 eigenvalue-minimisations  :   944
 total energy-change (2. order) : 0.2846107E-05  (-0.5488419E-05)
 number of electron     176.0000006 magnetization 
 augmentation part       40.6758902 magnetization 

 Broyden mixing:
  rms(total) = 0.47201E-02    rms(broyden)= 0.47201E-02
  rms(prec ) = 0.48624E-02
  weight for this iteration     100.00

 eigenvalues of (default mixing * dielectric matrix)
  average eigenvalue GAMMA=   1.6434
  3.0522  2.3976  1.7968  1.7968  1.1136  1.1136  0.9381  0.9381

 Free energy of the ion-electron system (eV)
  ---------------------------------------------------
  alpha Z        PSCENC =       206.73769837
  Ewald energy   TEWEN  =     -7887.03209255
  -Hartree energ DENC   =     -3285.31859818
  -exchange      EXHF   =         0.00000000
  -V(xc)+E(xc)   XCENC  =       265.07302398
  PAW double counting   =     13441.24845753   -14252.75570676
  entropy T*S    EENTRO =        -0.00000000
  eigenvalues    EBANDS =     -1708.27797285
  atomic energy  EATOM  =     13114.02654919
  Solvation  Ediel_sol  =         0.00000000
  ---------------------------------------------------
  free energy    TOTEN  =      -106.29864127 eV

  energy without entropy =     -106.29864127  energy(sigma->0) =     -106.29864127


--------------------------------------------------------------------------------------------------------




--------------------------------------- Iteration      1(  14)  ---------------------------------------


    POTLOK:  cpu time      0.0526: real time      0.0528
    SETDIJ:  cpu time      0.0049: real time      0.0049
     EDDAV:  cpu time      1.2338: real time      1.2339
       DOS:  cpu time      0.0003: real time      0.0003
    CHARGE:  cpu time      0.0894: real time      0.0894
    MIXING:  cpu time      0.0020: real time      0.0020
    --------------------------------------------
      LOOP:  cpu time      1.3830: real time      1.3834

 eigenvalue-minimisations  :   896
 total energy-change (2. order) :-0.8713751E-05  (-0.1735371E-05)
 number of electron     176.0000006 magnetization 
 augmentation part       40.6757685 magnetization 

 Broyden mixing:
  rms(total) = 0.89960E-03    rms(broyden)= 0.89960E-03
  rms(prec ) = 0.10575E-02
  weight for this iteration     100.00

 eigenvalues of (default mixing * dielectric matrix)
  average eigenvalue GAMMA=   1.5989
  3.0688  2.1965  2.1965  1.3889  1.3889  1.0896  1.0896  0.9857  0.9857

 Free energy of the ion-electron system (eV)
  ---------------------------------------------------
  alpha Z        PSCENC =       206.73769837
  Ewald energy   TEWEN  =     -7887.03209255
  -Hartree energ DENC   =     -3285.30072847
  -exchange      EXHF   =         0.00000000
  -V(xc)+E(xc)   XCENC  =       265.07315991
  PAW double counting   =     13435.84404741   -14247.35859708
  entropy T*S    EENTRO =        -0.00000000
  eigenvalues    EBANDS =     -1708.28868677
  atomic energy  EATOM  =     13114.02654919
  Solvation  Ediel_sol  =         0.00000000
  ---------------------------------------------------
  free energy    TOTEN  =      -106.29864998 eV

  energy without entropy =     -106.29864998  energy(sigma->0) =     -106.29864998


--------------------------------------------------------------------------------------------------------




--------------------------------------- Iteration      1(  15)  ---------------------------------------


    POTLOK:  cpu time      0.0526: real time      0.0529
    SETDIJ:  cpu time      0.0047: real time      0.0047
     EDDAV:  cpu time      1.2786: real time      1.2789
       DOS:  cpu time      0.0002: real time      0.0003
    CHARGE:  cpu time      0.0870: real time      0.0871
    MIXING:  cpu time      0.0021: real time      0.0021
    --------------------------------------------
      LOOP:  cpu time      1.4252: real time      1.4259

 eigenvalue-minimisations  :   936
 total energy-change (2. order) :-0.2031198E-05  (-0.6546827E-06)
 number of electron     176.0000006 magnetization 
 augmentation part       40.6761228 magnetization 

 Broyden mixing:
  rms(total) = 0.56791E-03    rms(broyden)= 0.56791E-03
  rms(prec ) = 0.62984E-03
  weight for this iteration     100.00

 eigenvalues of (default mixing * dielectric matrix)
  average eigenvalue GAMMA=   1.5555
  3.0363  2.4035  1.8366  1.6198  1.6198  1.0825  1.0825  1.0267  1.0267  0.8204

 Free energy of the ion-electron system (eV)
  ---------------------------------------------------
  alpha Z        PSCENC =       206.73769837
  Ewald energy   TEWEN  =     -7887.03209255
  -Hartree energ DENC   =     -3285.32897861
  -exchange      EXHF   =         0.00000000
  -V(xc)+E(xc)   XCENC  =       265.07494064
  PAW double counting   =     13435.31569056   -14246.82485157
  entropy T*S    EENTRO =        -0.00000000
  eigenvalues    EBANDS =     -1708.26760804
  atomic energy  EATOM  =     13114.02654919
  Solvation  Ediel_sol  =         0.00000000
  ---------------------------------------------------
  free energy    TOTEN  =      -106.29865201 eV

  energy without entropy =     -106.29865201  energy(sigma->0) =     -106.29865201


--------------------------------------------------------------------------------------------------------




--------------------------------------- Iteration      1(  16)  ---------------------------------------


    POTLOK:  cpu time      0.0532: real time      0.0535
    SETDIJ:  cpu time      0.0048: real time      0.0048
     EDDAV:  cpu time      0.8862: real time      0.8864
       DOS:  cpu time      0.0002: real time      0.0002
    --------------------------------------------
      LOOP:  cpu time      0.9444: real time      0.9449

 eigenvalue-minimisations  :   552
 total energy-change (2. order) : 0.4700269E-07  (-0.7542685E-07)
 number of electron     176.0000006 magnetization 
 augmentation part       40.6761228 magnetization 

 Free energy of the ion-electron system (eV)
  ---------------------------------------------------
  alpha Z        PSCENC =       206.73769837
  Ewald energy   TEWEN  =     -7887.03209255
  -Hartree energ DENC   =     -3285.32506182
  -exchange      EXHF   =         0.00000000
  -V(xc)+E(xc)   XCENC  =       265.07432603
  PAW double counting   =     13435.35609455   -14246.86523835
  entropy T*S    EENTRO =        -0.00000000
  eigenvalues    EBANDS =     -1708.27092739
  atomic energy  EATOM  =     13114.02654919
  Solvation  Ediel_sol  =         0.00000000
  ---------------------------------------------------
  free energy    TOTEN  =      -106.29865196 eV

  energy without entropy =     -106.29865196  energy(sigma->0) =     -106.29865196


--------------------------------------------------------------------------------------------------------




 average (electrostatic) potential at core
  the test charge radii are     0.9254  1.1712  0.9698
  (the norm of the test charge is              1.0000)
       1 -46.2431       2 -46.2431       3 -46.2431       4 -46.2431       5 -46.1477
       6 -46.1477       7 -46.1477       8 -46.1477       9 -46.8493      10 -46.8493
      11 -46.8493      12 -46.8493      13 -90.2349      14 -90.2349      15 -90.2349
      16 -90.2349      17 -87.7853      18 -87.7853      19 -87.7853      20 -87.7853
      21 -87.7853      22 -87.7853      23 -87.7853      24 -87.7853      25 -87.7853
      26 -87.7853      27 -87.7853      28 -87.7853



 E-fermi :   2.3880     XC(G=0):  -8.5028     alpha+bet : -9.0436

 Fermi energy:         2.3880010927

 k-point     1 :       0.0000    0.0000    0.0000
  band No.  band energies     occupation 
      1     -21.0461      2.00000
      2     -21.0461      2.00000
      3     -21.0461      2.00000
      4     -21.0458      2.00000
      5     -21.0458      2.00000
      6     -21.0457      2.00000
      7     -21.0457      2.00000
      8     -21.0457      2.00000
      9     -21.0215      2.00000
     10     -21.0215      2.00000
     11     -21.0215      2.00000
     12     -21.0211      2.00000
     13     -20.4427      2.00000
     14     -20.4427      2.00000
     15     -20.4427      2.00000
     16     -20.4420      2.00000
     17     -20.4420      2.00000
     18     -20.4411      2.00000
     19     -20.4411      2.00000
     20     -20.4411      2.00000
     21     -20.4400      2.00000
     22     -20.4398      2.00000
     23     -20.4398      2.00000
     24     -20.4398      2.00000
     25     -20.3488      2.00000
     26     -20.3488      2.00000
     27     -20.3488      2.00000
     28     -20.3470      2.00000
     29     -20.3470      2.00000
     30     -20.3470      2.00000
     31     -20.3469      2.00000
     32     -20.3469      2.00000
     33     -20.3292      2.00000
     34     -20.3291      2.00000
     35     -20.3291      2.00000
     36     -20.3291      2.00000
     37     -10.2840      2.00000
     38      -9.9876      2.00000
     39      -9.9876      2.00000
     40      -9.9876      2.00000
     41      -8.9126      2.00000
     42      -8.9126      2.00000
     43      -8.9126      2.00000
     44      -8.8443      2.00000
     45      -8.8443      2.00000
     46      -8.8443      2.00000
     47      -8.7937      2.00000
     48      -8.7937      2.00000
     49      -5.3037      2.00000
     50      -5.3037      2.00000
     51      -5.3037      2.00000
     52      -4.9279      2.00000
     53      -1.4907      2.00000
     54      -1.4907      2.00000
     55      -1.4907      2.00000
     56      -1.1713      2.00000
     57      -0.5893      2.00000
     58      -0.5893      2.00000
     59      -0.5719      2.00000
     60      -0.5719      2.00000
     61      -0.5719      2.00000
     62      -0.4172      2.00000
     63      -0.4172      2.00000
     64      -0.4172      2.00000
     65       0.0248      2.00000
     66       0.0248      2.00000
     67       0.0248      2.00000
     68       0.9480      2.00000
     69       0.9480      2.00000
     70       0.9480      2.00000
     71       0.9690      2.00000
     72       1.0978      2.00000
     73       1.0978      2.00000
     74       1.2559      2.00000
     75       1.2559      2.00000
     76       1.2559      2.00000
     77       1.3007      2.00000
     78       1.3336      2.00000
     79       1.3336      2.00000
     80       1.4878      2.00000
     81       1.4878      2.00000
     82       1.4878      2.00000
     83       1.6996      2.00000
     84       1.6996      2.00000
     85       1.6996      2.00000
     86       2.0294      2.00000
     87       2.0294      2.00000
     88       2.0294      2.00000
     89       4.8035      0.00000
     90       4.8035      0.00000
     91       4.8035      0.00000
     92       5.4223      0.00000
     93       5.4223      0.00000
     94       5.4521      0.00000
     95       5.4521      0.00000
     96       5.4521      0.00000
     97       5.7972      0.00000
     98       6.6193      0.00000
     99       6.6193      0.00000
    100       6.6193      0.00000
    101       6.8403      0.00000
    102       7.3599      0.00000
    103       7.3599      0.00000
    104       7.3599      0.00000
    105       7.8138      0.00000
    106       7.8138      0.00000
    107       7.8138      0.00000
    108       8.0445      0.00000
    109       8.0445      0.00000
    110       8.0445      0.00000
    111       8.1829      0.00000
    112       8.5266      0.00000

 k-point     2 :       0.5000    0.0000    0.0000
  band No.  band energies     occupation 
      1     -21.0462      2.00000
      2     -21.0462      2.00000
      3     -21.0458      2.00000
      4     -21.0458      2.00000
      5     -21.0458      2.00000
      6     -21.0458      2.00000
      7     -21.0457      2.00000
      8     -21.0457      2.00000
      9     -21.0215      2.00000
     10     -21.0215      2.00000
     11     -21.0213      2.00000
     12     -21.0213      2.00000
     13     -20.4427      2.00000
     14     -20.4427      2.00000
     15     -20.4419      2.00000
     16     -20.4419      2.00000
     17     -20.4417      2.00000
     18     -20.4417      2.00000
     19     -20.4408      2.00000
     20     -20.4408      2.00000
     21     -20.4401      2.00000
     22     -20.4401      2.00000
     23     -20.4401      2.00000
     24     -20.4401      2.00000
     25     -20.3490      2.00000
     26     -20.3490      2.00000
     27     -20.3478      2.00000
     28     -20.3478      2.00000
     29     -20.3470      2.00000
     30     -20.3470      2.00000
     31     -20.3470      2.00000
     32     -20.3470      2.00000
     33     -20.3291      2.00000
     34     -20.3291      2.00000
     35     -20.3291      2.00000
     36     -20.3291      2.00000
     37     -10.1483      2.00000
     38     -10.1483      2.00000
     39      -9.9830      2.00000
     40      -9.9830      2.00000
     41      -8.9085      2.00000
     42      -8.9085      2.00000
     43      -8.8834      2.00000
     44      -8.8834      2.00000
     45      -8.8401      2.00000
     46      -8.8401      2.00000
     47      -8.7900      2.00000
     48      -8.7900      2.00000
     49      -5.3942      2.00000
     50      -5.3942      2.00000
     51      -5.0321      2.00000
     52      -5.0321      2.00000
     53      -1.3556      2.00000
     54      -1.3556      2.00000
     55      -1.1425      2.00000
     56      -1.1425      2.00000
     57      -0.9351      2.00000
     58      -0.9351      2.00000
     59      -0.8139      2.00000
     60      -0.8139      2.00000
     61      -0.4746      2.00000
     62      -0.4746      2.00000
     63      -0.1473      2.00000
     64      -0.1473      2.00000
     65       0.2178      2.00000
     66       0.2178      2.00000
     67       0.4526      2.00000
     68       0.4526      2.00000
     69       0.5569      2.00000
     70       0.5569      2.00000
     71       0.9354      2.00000
     72       0.9354      2.00000
     73       1.0655      2.00000
     74       1.0655      2.00000
     75       1.2142      2.00000
     76       1.2142      2.00000
     77       1.3630      2.00000
     78       1.3630      2.00000
     79       1.4843      2.00000
     80       1.4843      2.00000
     81       1.6193      2.00000
     82       1.6193      2.00000
     83       1.7243      2.00000
     84       1.7243      2.00000
     85       1.9743      2.00000
     86       1.9743      2.00000
     87       2.1125      2.00000
     88       2.1125      2.00000
     89       4.6441      0.00000
     90       4.6441      0.00000
     91       5.0866      0.00000
     92       5.0866      0.00000
     93       5.4783      0.00000
     94       5.4783      0.00000
     95       5.8094      0.00000
     96       5.8094      0.00000
     97       6.0359      0.00000
     98       6.0359      0.00000
     99       6.2322      0.00000
    100       6.2322      0.00000
    101       6.9022      0.00000
    102       6.9022      0.00000
    103       7.5003      0.00000
    104       7.5003      0.00000
    105       7.9116      0.00000
    106       7.9116      0.00000
    107       8.1184      0.00000
    108       8.1184      0.00000
    109       8.3126      0.00000
    110       8.3126      0.00000
    111       8.5687      0.00000
    112       8.5754      0.00000

 k-point     3 :       0.5000    0.5000    0.0000
  band No.  band energies     occupation 
      1     -21.0462      2.00000
      2     -21.0462      2.00000
      3     -21.0460      2.00000
      4     -21.0460      2.00000
      5     -21.0458      2.00000
      6     -21.0458      2.00000
      7     -21.0456      2.00000
      8     -21.0456      2.00000
      9     -21.0215      2.00000
     10     -21.0215      2.00000
     11     -21.0213      2.00000
     12     -21.0213      2.00000
     13     -20.4423      2.00000
     14     -20.4423      2.00000
     15     -20.4421      2.00000
     16     -20.4421      2.00000
     17     -20.4411      2.00000
     18     -20.4411      2.00000
     19     -20.4411      2.00000
     20     -20.4411      2.00000
     21     -20.4403      2.00000
     22     -20.4403      2.00000
     23     -20.4403      2.00000
     24     -20.4403      2.00000
     25     -20.3490      2.00000
     26     -20.3490      2.00000
     27     -20.3481      2.00000
     28     -20.3481      2.00000
     29     -20.3470      2.00000
     30     -20.3470      2.00000
     31     -20.3470      2.00000
     32     -20.3470      2.00000
     33     -20.3292      2.00000
     34     -20.3292      2.00000
     35     -20.3291      2.00000
     36     -20.3291      2.00000
     37     -10.0747      2.00000
     38     -10.0747      2.00000
     39     -10.0561      2.00000
     40     -10.0561      2.00000
     41      -8.9404      2.00000
     42      -8.9404      2.00000
     43      -8.9080      2.00000
     44      -8.9080      2.00000
     45      -8.7898      2.00000
     46      -8.7898      2.00000
     47      -8.7879      2.00000
     48      -8.7879      2.00000
     49      -5.3777      2.00000
     50      -5.3777      2.00000
     51      -5.0478      2.00000
     52      -5.0478      2.00000
     53      -1.3034      2.00000
     54      -1.3034      2.00000
     55      -1.1442      2.00000
     56      -1.1442      2.00000
     57      -0.8808      2.00000
     58      -0.8808      2.00000
     59      -0.7412      2.00000
[...]
      2.178209  5.585638  4.484184     0.058723    0.204036   -0.119436  
      4.228508  6.534555  7.483400    -0.047794   -0.000675    0.033465  
      5.585638  4.484184  2.178209     0.119734   -0.202075    0.006641  
      6.534555  7.483400  4.228508     0.057373   -0.175811    0.073481  
      8.584854  6.534483  1.229292    -0.028233    0.012423   -0.052009  
      7.483400  4.228508  6.534555     0.080312   -0.182053    0.005408  
      6.534483  1.229292  8.584854     0.058732   -0.184682   -0.081372  
      4.484184  2.178209  5.585638    -0.067301    0.012414    0.071873  
      3.127054  0.127838  2.178137     0.111091    0.194387    0.005316  
      2.178137  3.127054  0.127838     0.057363    0.195165    0.111545  
      0.127838  2.178137  3.127054    -0.008726   -0.000684   -0.013600  

  79 f  =    1.515477 THz     9.522026 2PiTHz   50.550886 cm-1     6.267508 meV
             X         Y         Z           dx          dy          dz
      3.825635  8.181981  4.887058     0.001628    0.030662   -0.002156  
      8.181981  4.887058  3.825635    -0.016568    0.040219   -0.009891  
      4.887058  3.825635  8.181981    -0.048413    0.065993    0.059673  
      0.530712  0.530712  0.530712     0.033473    0.056436    0.051939  
      8.114293  3.757947  0.598399     0.013249    0.030059    0.052595  
      3.757947  0.598399  8.114293    -0.019584    0.016791    0.054353  
      0.598399  8.114293  3.757947     0.024626    0.010931   -0.033242  
      4.954745  4.954745  4.954745    -0.030962    0.024199   -0.031483  
      5.878956  1.522610  2.833736     0.140750   -0.046039    0.072555  
      1.522610  2.833736  5.878956    -0.142254   -0.062221    0.037145  
      2.833736  5.878956  1.522610    -0.088333    0.055769   -0.032134  
      7.190082  7.190082  7.190082     0.086830    0.071951   -0.067543  
      1.867071  6.223417  6.845621     0.034537   -0.154015   -0.249770  
      6.223417  6.845621  1.867071    -0.025437   -0.073657   -0.300428  
      6.845621  1.867071  6.223417    -0.293201    0.095145    0.270107  
      2.489275  2.489275  2.489275     0.302301    0.014787    0.219449  
      1.229292  8.584854  6.534483    -0.138251   -0.103933    0.032429  
      2.178209  5.585638  4.484184    -0.005024    0.078631   -0.171659  
      4.228508  6.534555  7.483400     0.004798    0.052580   -0.131032  
      5.585638  4.484184  2.178209     0.111922   -0.052152    0.032441  
      6.534555  7.483400  4.228508    -0.010946    0.130882   -0.198196  
      8.584854  6.534483  1.229292     0.005661    0.050779   -0.119274  
      7.483400  4.228508  6.534555    -0.062185    0.036274    0.020772  
      6.534483  1.229292  8.584854    -0.004942    0.091704    0.163348  
      4.484184  2.178209  5.585638    -0.166885    0.050737    0.207006  
      3.127054  0.127838  2.178137     0.035857   -0.015508    0.020785  
      2.178137  3.127054  0.127838    -0.011028    0.039453    0.136811  
      0.127838  2.178137  3.127054     0.177343    0.052538    0.218763  

  80 f  =    1.488142 THz     9.350272 2PiTHz   49.639074 cm-1     6.154458 meV
             X         Y         Z           dx          dy          dz
      3.825635  8.181981  4.887058     0.031714   -0.035361   -0.003647  
      8.181981  4.887058  3.825635     0.031714    0.035361    0.003647  
      4.887058  3.825635  8.181981    -0.031714   -0.035361    0.003647  
      0.530712  0.530712  0.530712    -0.031714    0.035361   -0.003647  
      8.114293  3.757947  0.598399    -0.050196    0.056669    0.006474  
      3.757947  0.598399  8.114293    -0.050196   -0.056669   -0.006474  
      0.598399  8.114293  3.757947     0.050196    0.056669   -0.006474  
      4.954745  4.954745  4.954745     0.050196   -0.056669    0.006474  
      5.878956  1.522610  2.833736    -0.053596    0.145081    0.091486  
      1.522610  2.833736  5.878956    -0.053596   -0.145081   -0.091486  
      2.833736  5.878956  1.522610     0.053596    0.145081   -0.091486  
      7.190082  7.190082  7.190082     0.053596   -0.145081    0.091486  
      1.867071  6.223417  6.845621     0.029640   -0.289344   -0.259704  
      6.223417  6.845621  1.867071     0.029640    0.289344    0.259704  
      6.845621  1.867071  6.223417    -0.029640   -0.289344    0.259704  
      2.489275  2.489275  2.489275    -0.029640    0.289344   -0.259704  
      1.229292  8.584854  6.534483    -0.020614   -0.132111    0.025592  
      2.178209  5.585638  4.484184     0.095551    0.020020   -0.155322  
      4.228508  6.534555  7.483400    -0.023211   -0.069959   -0.000594  
      5.585638  4.484184  2.178209    -0.020614    0.132111   -0.025592  
      6.534555  7.483400  4.228508     0.095551   -0.020020    0.155322  
      8.584854  6.534483  1.229292    -0.023211    0.069959    0.000594  
      7.483400  4.228508  6.534555     0.020614   -0.132111   -0.025592  
      6.534483  1.229292  8.584854    -0.095551    0.020020    0.155322  
      4.484184  2.178209  5.585638     0.023211   -0.069959    0.000594  
      3.127054  0.127838  2.178137     0.020614    0.132111    0.025592  
      2.178137  3.127054  0.127838    -0.095551   -0.020020   -0.155322  
      0.127838  2.178137  3.127054     0.023211    0.069959   -0.000594  

  81 f  =    1.488142 THz     9.350272 2PiTHz   49.639074 cm-1     6.154458 meV
             X         Y         Z           dx          dy          dz
      3.825635  8.181981  4.887058     0.022522    0.016204    0.038726  
      8.181981  4.887058  3.825635     0.022522   -0.016204   -0.038726  
      4.887058  3.825635  8.181981    -0.022522    0.016204   -0.038726  
      0.530712  0.530712  0.530712    -0.022522   -0.016204    0.038726  
      8.114293  3.757947  0.598399    -0.036456   -0.025243   -0.061698  
      3.757947  0.598399  8.114293    -0.036456    0.025243    0.061698  
      0.598399  8.114293  3.757947     0.036456   -0.025243    0.061698  
      4.954745  4.954745  4.954745     0.036456    0.025243   -0.061698  
      5.878956  1.522610  2.833736    -0.136582    0.021876   -0.114706  
      1.522610  2.833736  5.878956    -0.136582   -0.021876    0.114706  
      2.833736  5.878956  1.522610     0.136582    0.021876    0.114706  
      7.190082  7.190082  7.190082     0.136582   -0.021876   -0.114706  
      1.867071  6.223417  6.845621     0.316993   -0.132828    0.184165  
      6.223417  6.845621  1.867071     0.316993    0.132828   -0.184165  
      6.845621  1.867071  6.223417    -0.316993   -0.132828   -0.184165  
      2.489275  2.489275  2.489275    -0.316993    0.132828    0.184165  
      1.229292  8.584854  6.534483    -0.011216   -0.103076    0.095557  
      2.178209  5.585638  4.484184     0.025615   -0.012244    0.062874  
      4.228508  6.534555  7.483400     0.165950    0.069942   -0.023460  
      5.585638  4.484184  2.178209    -0.011216    0.103076   -0.095557  
      6.534555  7.483400  4.228508     0.025615    0.012244   -0.062874  
      8.584854  6.534483  1.229292     0.165950   -0.069942    0.023460  
      7.483400  4.228508  6.534555     0.011216   -0.103076   -0.095557  
      6.534483  1.229292  8.584854    -0.025615   -0.012244   -0.062874  
      4.484184  2.178209  5.585638    -0.165950    0.069942    0.023460  
      3.127054  0.127838  2.178137     0.011216    0.103076    0.095557  
      2.178137  3.127054  0.127838    -0.025615    0.012244    0.062874  
      0.127838  2.178137  3.127054    -0.165950   -0.069942   -0.023460  

  82 f/i=    0.171224 THz     1.075830 2PiTHz    5.711406 cm-1     0.708124 meV
             X         Y         Z           dx          dy          dz
      3.825635  8.181981  4.887058    -0.116189    0.058719   -0.015798  
      8.181981  4.887058  3.825635    -0.114704    0.058119   -0.013022  
      4.887058  3.825635  8.181981    -0.114780    0.058469   -0.016102  
      0.530712  0.530712  0.530712    -0.116113    0.059069   -0.013326  
      8.114293  3.757947  0.598399    -0.120692    0.056136   -0.017282  
      3.757947  0.598399  8.114293    -0.123320    0.067992   -0.019514  
      0.598399  8.114293  3.757947    -0.121825    0.067711   -0.011265  
      4.954745  4.954745  4.954745    -0.122187    0.055855   -0.013497  
      5.878956  1.522610  2.833736    -0.122177    0.055835   -0.024027  
      1.522610  2.833736  5.878956    -0.115838    0.063164   -0.009715  
      2.833736  5.878956  1.522610    -0.114914    0.064969   -0.020307  
      7.190082  7.190082  7.190082    -0.123102    0.057640   -0.005996  
      1.867071  6.223417  6.845621    -0.305391    0.166746   -0.044481  
      6.223417  6.845621  1.867071    -0.282797    0.127404   -0.009742  
      6.845621  1.867071  6.223417    -0.287760    0.131786   -0.064450  
      2.489275  2.489275  2.489275    -0.300429    0.171128   -0.029710  
      1.229292  8.584854  6.534483    -0.146631    0.091633   -0.018312  
      2.178209  5.585638  4.484184    -0.141957    0.088245   -0.021535  
      4.228508  6.534555  7.483400    -0.163352    0.073743   -0.008041  
      5.585638  4.484184  2.178209    -0.147128    0.066387   -0.014560  
      6.534555  7.483400  4.228508    -0.139402    0.061803   -0.005428  
      8.584854  6.534483  1.229292    -0.151992    0.068586   -0.015592  
      7.483400  4.228508  6.534555    -0.150464    0.068418   -0.020929  
      6.534483  1.229292  8.584854    -0.140053    0.060851   -0.034349  
      4.484184  2.178209  5.585638    -0.155177    0.069059   -0.021462  
      3.127054  0.127838  2.178137    -0.143296    0.093665   -0.017178  
      2.178137  3.127054  0.127838    -0.141306    0.087293   -0.018241  
      0.127838  2.178137  3.127054    -0.160167    0.074216   -0.029012  

  83 f/i=    0.171224 THz     1.075830 2PiTHz    5.711406 cm-1     0.708124 meV
             X         Y         Z           dx          dy          dz
      3.825635  8.181981  4.887058     0.057446    0.101227   -0.054702  
      8.181981  4.887058  3.825635     0.060189    0.101533   -0.056117  
      4.887058  3.825635  8.181981     0.059900    0.102872   -0.055233  
      0.530712  0.530712  0.530712     0.057735    0.102566   -0.056647  
      8.114293  3.757947  0.598399     0.066005    0.111406   -0.064647  
      3.757947  0.598399  8.114293     0.058314    0.105366   -0.063510  
      0.598399  8.114293  3.757947     0.064031    0.104289   -0.054166  
      4.954745  4.954745  4.954745     0.060287    0.110330   -0.053029  
      5.878956  1.522610  2.833736     0.056073    0.103613   -0.056986  
      1.522610  2.833736  5.878956     0.065190    0.099880   -0.064277  
      2.833736  5.878956  1.522610     0.068724    0.106781   -0.050507  
      7.190082  7.190082  7.190082     0.052539    0.110515   -0.057799  
      1.867071  6.223417  6.845621     0.124993    0.241567   -0.115591  
      6.223417  6.845621  1.867071     0.174675    0.261611   -0.133289  
      6.845621  1.867071  6.223417     0.155701    0.278365   -0.150368  
      2.489275  2.489275  2.489275     0.143967    0.258320   -0.168067  
      1.229292  8.584854  6.534483     0.071793    0.129060   -0.064608  
      2.178209  5.585638  4.484184     0.068771    0.124920   -0.060777  
      4.228508  6.534555  7.483400     0.067124    0.122136   -0.061070  
      5.585638  4.484184  2.178209     0.077871    0.141922   -0.066520  
      6.534555  7.483400  4.228508     0.074575    0.138391   -0.068983  
      8.584854  6.534483  1.229292     0.093537    0.124763   -0.057223  
      7.483400  4.228508  6.534555     0.065119    0.149690   -0.069167  
      6.534483  1.229292  8.584854     0.072088    0.134750   -0.083094  
      4.484184  2.178209  5.585638     0.081362    0.126573   -0.084444  
      3.127054  0.127838  2.178137     0.084545    0.136828   -0.071079  
      2.178137  3.127054  0.127838     0.071258    0.121279   -0.091300  
      0.127838  2.178137  3.127054     0.079299    0.123945   -0.080597  

  84 f/i=    0.171224 THz     1.075830 2PiTHz    5.711406 cm-1     0.708124 meV
             X         Y         Z           dx          dy          dz
      3.825635  8.181981  4.887058    -0.013265   -0.057279   -0.117192  
      8.181981  4.887058  3.825635    -0.014002   -0.057350   -0.116864  
      4.887058  3.825635  8.181981    -0.014609   -0.054539   -0.116901  
      0.530712  0.530712  0.530712    -0.012657   -0.054469   -0.116573  
      8.114293  3.757947  0.598399    -0.008947   -0.058656   -0.120521  
      3.757947  0.598399  8.114293    -0.019869   -0.057256   -0.120784  
      0.598399  8.114293  3.757947    -0.007866   -0.059516   -0.126263  
      4.954745  4.954745  4.954745    -0.020950   -0.060916   -0.126526  
      5.878956  1.522610  2.833736    -0.006879   -0.065312   -0.119558  
      1.522610  2.833736  5.878956    -0.021229   -0.064446   -0.117868  
      2.833736  5.878956  1.522610    -0.013809   -0.049956   -0.123108  
      7.190082  7.190082  7.190082    -0.014298   -0.050822   -0.121417  
      1.867071  6.223417  6.845621    -0.046235   -0.157689   -0.309330  
      6.223417  6.845621  1.867071    -0.023226   -0.162335   -0.305228  
      6.845621  1.867071  6.223417    -0.063058   -0.127164   -0.290277  
      2.489275  2.489275  2.489275    -0.006402   -0.122518   -0.286174  
      1.229292  8.584854  6.534483    -0.032559   -0.083022   -0.143900  
      2.178209  5.585638  4.484184    -0.018315   -0.065749   -0.166698  
      4.228508  6.534555  7.483400    -0.027500   -0.069724   -0.154664  
      5.585638  4.484184  2.178209    -0.002132   -0.086003   -0.143457  
      6.534555  7.483400  4.228508    -0.014911   -0.068871   -0.164795  
      8.584854  6.534483  1.229292    -0.009740   -0.070333   -0.155555  
      7.483400  4.228508  6.534555    -0.028903   -0.069696   -0.141402  
      6.534483  1.229292  8.584854    -0.020132   -0.076516   -0.154471  
      4.484184  2.178209  5.585638    -0.035300   -0.066535   -0.141858  
      3.127054  0.127838  2.178137    -0.005788   -0.066714   -0.140959  
      2.178137  3.127054  0.127838    -0.013094   -0.073393   -0.152569  
      0.127838  2.178137  3.127054    -0.001939   -0.065926   -0.142750  



--------------------------------------------------------------------------------------------------------



 ELASTIC MODULI CONTR FROM IONIC RELAXATION (kBar)
 Direction    XX          YY          ZZ          XY          YZ          ZX
 --------------------------------------------------------------------------------
 XX        -455.5094    -96.5258    -96.5258     -0.0000      0.0000     -0.0000
 YY         -96.5258   -455.5094    -96.5258      0.0000      0.0000     -0.0000
 ZZ         -96.5258    -96.5258   -455.5094     -0.0000     -0.0000     -0.0000
 XY          -0.0000      0.0000     -0.0000   -106.2228     -0.0000     -0.0000
 YZ           0.0000     -0.0000     -0.0000     -0.0000   -106.2228      0.0000
 ZX          -0.0000     -0.0000     -0.0000     -0.0000      0.0000   -106.2228
 --------------------------------------------------------------------------------


 TOTAL ELASTIC MODULI (kBar)
 Direction    XX          YY          ZZ          XY          YZ          ZX
 --------------------------------------------------------------------------------
 XX         342.0982    132.4938    132.4938     -0.0000      0.0000     -0.0000
 YY         132.4938    342.0982    132.4938      0.0000      0.0000      0.0000
 ZZ         132.4938    132.4938    342.0982     -0.0000      0.0000      0.0000
 XY          -0.0000      0.0000     -0.0000    101.0656     -0.0000     -0.0000
 YZ           0.0000      0.0000     -0.0000     -0.0000    101.0656     -0.0000
 ZX           0.0000     -0.0000     -0.0000     -0.0000      0.0000    101.0656
 --------------------------------------------------------------------------------



--------------------------------------------------------------------------------------------------------


  LATTYP: Found a simple cubic cell.
 ALAT       =     8.7126920662
  
  Lattice vectors:
  
 A1 = (   8.7126920662,  -0.0000000000,   0.0000000000)
 A2 = (  -0.0000000000,   8.7126920662,   0.0000000000)
 A3 = (   0.0000000000,   0.0000000000,   8.7126920662)


Analysis of symmetry for initial positions (statically):
=====================================================================
 Subroutine PRICEL returns:
 Original cell was already a primitive cell.
 

 Routine SETGRP: Setting up the symmetry group for a 
 simple cubic supercell.


 Subroutine GETGRP returns: Found 12 space group operations
 (whereof  3 operations were pure point group operations)
 out of a pool of 48 trial point group operations.


The static configuration has the point symmetry C_3 .
 The point group associated with its full space group is T   .


Analysis of symmetry for dynamics (positions and initial velocities):
=====================================================================
 Subroutine PRICEL returns:
 Original cell was already a primitive cell.
 

 Routine SETGRP: Setting up the symmetry group for a 
 simple cubic supercell.


 Subroutine GETGRP returns: Found 12 space group operations
 (whereof  3 operations were pure point group operations)
 out of a pool of 48 trial point group operations.


The dynamic configuration has the point symmetry C_3 .
 The point group associated with its full space group is T   .


 Subroutine INISYM returns: Found 12 space group operations
 (whereof  3 operations are pure point group operations),
 and found     1 'primitive' translations


 KPOINTS: pymatgen with grid density = 600 / numbe

Automatic generation of k-mesh.
 Grid dimensions read from file:
 generate k-points for:    2    2    2

 Generating k-lattice:

  Cartesian coordinates                     Fractional coordinates (reciprocal lattice)
     0.057387544  0.000000000 -0.000000000     0.500000000 -0.000000000  0.000000000
     0.000000000  0.057387544 -0.000000000     0.000000000  0.500000000  0.000000000
    -0.000000000 -0.000000000  0.057387544     0.000000000  0.000000000  0.500000000

  Length of vectors
     0.057387544  0.057387544  0.057387544

  Shift w.r.t. Gamma in fractional coordinates (k-lattice)
     0.000000000  0.000000000  0.000000000

 
 Subroutine IBZKPT returns following result:
 ===========================================
 
 Found      4 irreducible k-points:
 
 Following reciprocal coordinates:
            Coordinates               Weight
  0.000000  0.000000  0.000000      1.000000
  0.500000  0.000000  0.000000      3.000000
  0.500000  0.500000  0.000000      3.000000
  0.500000  0.500000  0.500000      1.000000
 
 Following cartesian coordinates:
            Coordinates               Weight
  0.000000  0.000000  0.000000      1.000000
  0.057388  0.000000  0.000000      3.000000
  0.057388  0.057388  0.000000      3.000000
  0.057388  0.057388  0.057388      1.000000
 
     LOOP+:  cpu time     20.4475: real time     20.7150
    4ORBIT:  cpu time      0.0000: real time      0.0000

 total amount of memory used by VASP MPI-rank0    61148. kBytes
=======================================================================

   base      :      30000. kBytes
   nonlr-proj:       4030. kBytes
   fftplans  :       4240. kBytes
   grid      :      11649. kBytes
   one-center:        227. kBytes
   wavefun   :      11002. kBytes

  
  
 General timing and accounting informations for this job:
 ========================================================
  
                  Total CPU time used (sec):     1358.794
                            User time (sec):     1314.625
                          System time (sec):       44.169
                         Elapsed time (sec):     1374.951
  
                   Maximum memory used (kb):      187692.
                   Average memory used (kb):          N/A
  
                          Minor page faults:       224500
                          Major page faults:           93
                 Voluntary context switches:         1056
