   3   3   0   0
  0.3241717E+02  0.4398537E-09  0.7565088E-09  0.3588967E-09  0.1500000E-16
   1.0000000000000000E-004
  CAR 
 unknown system                          
     13.39621425    -23.55451710  301      2.23135994      1.00000000
    -23.555  0.0000E+00  0.0000E+00
    -23.431  0.0000E+00  0.0000E+00
    -23.308  0.0000E+00  0.0000E+00
    -23.185  0.0000E+00  0.0000E+00
    -23.062  0.0000E+00  0.0000E+00
    -22.939  0.0000E+00  0.0000E+00
    -22.816  0.0000E+00  0.0000E+00
    -22.692  0.0000E+00  0.0000E+00
    -22.569  0.0000E+00  0.0000E+00
    -22.446  0.0000E+00  0.0000E+00
    -22.323  0.0000E+00  0.0000E+00
    -22.200  0.0000E+00  0.0000E+00
    -22.076  0.3663E-09  0.4511E-10
    -21.953  0.1331E-02  0.1640E-03
    -21.830  0.2511E+00  0.3110E-01
    -21.707  0.4105E+00  0.8166E-01
    -21.584  0.4328E-02  0.8219E-01
    -21.461  0.2306E-08  0.8219E-01
    -21.337  0.0000E+00  0.8219E-01
    -21.214  0.0000E+00  0.8219E-01
    -21.091  0.0000E+00  0.8219E-01
    -20.968  0.0000E+00  0.8219E-01
    -20.845  0.0000E+00  0.8219E-01
    -20.722  0.0000E+00  0.8219E-01
    -20.598  0.0000E+00  0.8219E-01
    -20.475  0.0000E+00  0.8219E-01
    -20.352  0.0000E+00  0.8219E-01
    -20.229  0.0000E+00  0.8219E-01
    -20.106  0.0000E+00  0.8219E-01
    -19.983  0.0000E+00  0.8219E-01
    -19.859  0.0000E+00  0.8219E-01
    -19.736  0.0000E+00  0.8219E-01
    -19.613  0.0000E+00  0.8219E-01
    -19.490  0.0000E+00  0.8219E-01
    -19.367  0.0000E+00  0.8219E-01
    -19.244  0.0000E+00  0.8219E-01
    -19.120  0.0000E+00  0.8219E-01
    -18.997  0.0000E+00  0.8219E-01
    -18.874  0.0000E+00  0.8219E-01
    -18.751  0.0000E+00  0.8219E-01
    -18.628  0.0000E+00  0.8219E-01
    -18.505  0.0000E+00  0.8219E-01
    -18.381  0.0000E+00  0.8219E-01
    -18.258  0.0000E+00  0.8219E-01
    -18.135  0.0000E+00  0.8219E-01
    -18.012  0.0000E+00  0.8219E-01
    -17.889  0.0000E+00  0.8219E-01
    -17.766  0.0000E+00  0.8219E-01
    -17.642  0.0000E+00  0.8219E-01
    -17.519  0.0000E+00  0.8219E-01
    -17.396  0.0000E+00  0.8219E-01
    -17.273  0.0000E+00  0.8219E-01
    -17.150  0.0000E+00  0.8219E-01
    -17.027  0.0000E+00  0.8219E-01
    -16.903  0.0000E+00  0.8219E-01
    -16.780  0.0000E+00  0.8219E-01
    -16.657  0.0000E+00  0.8219E-01
    -16.534  0.0000E+00  0.8219E-01
    -16.411  0.0000E+00  0.8219E-01
    -16.288  0.0000E+00  0.8219E-01
    -16.164  0.0000E+00  0.8219E-01
    -16.041  0.0000E+00  0.8219E-01
    -15.918  0.0000E+00  0.8219E-01
    -15.795  0.0000E+00  0.8219E-01
    -15.672  0.0000E+00  0.8219E-01
    -15.549  0.0000E+00  0.8219E-01
    -15.425  0.0000E+00  0.8219E-01
    -15.302  0.0000E+00  0.8219E-01
    -15.179  0.0000E+00  0.8219E-01
    -15.056  0.0000E+00  0.8219E-01
    -14.933  0.0000E+00  0.8219E-01
    -14.810  0.0000E+00  0.8219E-01
    -14.686  0.0000E+00  0.8219E-01
    -14.563  0.0000E+00  0.8219E-01
    -14.440  0.0000E+00  0.8219E-01
    -14.317  0.0000E+00  0.8219E-01
    -14.194  0.0000E+00  0.8219E-01
    -14.070  0.0000E+00  0.8219E-01
    -13.947  0.0000E+00  0.8219E-01
    -13.824  0.0000E+00  0.8219E-01
    -13.701  0.0000E+00  0.8219E-01
    -13.578  0.0000E+00  0.8219E-01
    -13.455  0.0000E+00  0.8219E-01
    -13.331  0.0000E+00  0.8219E-01
    -13.208  0.0000E+00  0.8219E-01
    -13.085  0.0000E+00  0.8219E-01
    -12.962  0.0000E+00  0.8219E-01
    -12.839  0.0000E+00  0.8219E-01
    -12.716  0.0000E+00  0.8219E-01
    -12.592  0.0000E+00  0.8219E-01
    -12.469  0.0000E+00  0.8219E-01
    -12.346  0.0000E+00  0.8219E-01
    -12.223  0.0000E+00  0.8219E-01
    -12.100  0.0000E+00  0.8219E-01
    -11.977  0.0000E+00  0.8219E-01
    -11.853  0.0000E+00  0.8219E-01
    -11.730  0.0000E+00  0.8219E-01
    -11.607  0.0000E+00  0.8219E-01
    -11.484  0.0000E+00  0.8219E-01
    -11.361  0.0000E+00  0.8219E-01
    -11.238  0.0000E+00  0.8219E-01
    -11.114  0.0000E+00  0.8219E-01
    -10.991  0.1664E-16  0.8219E-01
    -10.868  0.2513E-07  0.8219E-01
    -10.745  0.6400E-03  0.8227E-01
    -10.622  0.2742E-01  0.8565E-01
    -10.499  0.5761E-01  0.9274E-01
    -10.375  0.4742E-01  0.9858E-01
    -10.252  0.5176E-01  0.1050E+00
    -10.129  0.3649E-01  0.1095E+00
    -10.006  0.1101E-02  0.1096E+00
     -9.883  0.2798E-07  0.1096E+00
     -9.760  0.1664E-16  0.1096E+00
     -9.636  0.0000E+00  0.1096E+00
     -9.513  0.0000E+00  0.1096E+00
     -9.390  0.0000E+00  0.1096E+00
     -9.267  0.0000E+00  0.1096E+00
     -9.144  0.0000E+00  0.1096E+00
     -9.021  0.0000E+00  0.1096E+00
     -8.897  0.0000E+00  0.1096E+00
     -8.774  0.0000E+00  0.1096E+00
     -8.651  0.0000E+00  0.1096E+00
     -8.528  0.0000E+00  0.1096E+00
     -8.405  0.0000E+00  0.1096E+00
     -8.282  0.0000E+00  0.1096E+00
     -8.158  0.0000E+00  0.1096E+00
     -8.035  0.0000E+00  0.1096E+00
     -7.912  0.0000E+00  0.1096E+00
     -7.789  0.0000E+00  0.1096E+00
     -7.666  0.0000E+00  0.1096E+00
     -7.543  0.0000E+00  0.1096E+00
     -7.419  0.0000E+00  0.1096E+00
     -7.296  0.0000E+00  0.1096E+00
     -7.173  0.0000E+00  0.1096E+00
     -7.050  0.6362E-15  0.1096E+00
     -6.927  0.2573E-06  0.1096E+00
     -6.804  0.1516E-02  0.1098E+00
     -6.680  0.8809E-02  0.1109E+00
     -6.557  0.1149E-01  0.1123E+00
     -6.434  0.1913E-01  0.1146E+00
     -6.311  0.3211E-01  0.1186E+00
     -6.188  0.1338E-01  0.1202E+00
     -6.065  0.3031E-01  0.1240E+00
     -5.941  0.2040E-01  0.1265E+00
     -5.818  0.1495E-01  0.1283E+00
     -5.695  0.2676E-01  0.1316E+00
     -5.572  0.1538E-01  0.1335E+00
     -5.449  0.1889E-01  0.1358E+00
     -5.325  0.5437E-02  0.1365E+00
     -5.202  0.3836E-02  0.1370E+00
     -5.079  0.2441E-04  0.1370E+00
     -4.956  0.5574E-11  0.1370E+00
     -4.833  0.0000E+00  0.1370E+00
     -4.710  0.0000E+00  0.1370E+00
     -4.586  0.0000E+00  0.1370E+00
     -4.463  0.0000E+00  0.1370E+00
     -4.340  0.0000E+00  0.1370E+00
     -4.217  0.0000E+00  0.1370E+00
     -4.094  0.0000E+00  0.1370E+00
     -3.971  0.0000E+00  0.1370E+00
     -3.847  0.0000E+00  0.1370E+00
     -3.724  0.0000E+00  0.1370E+00
     -3.601  0.0000E+00  0.1370E+00
     -3.478  0.0000E+00  0.1370E+00
     -3.355  0.0000E+00  0.1370E+00
     -3.232  0.0000E+00  0.1370E+00
     -3.108  0.0000E+00  0.1370E+00
     -2.985  0.0000E+00  0.1370E+00
     -2.862  0.0000E+00  0.1370E+00
     -2.739  0.0000E+00  0.1370E+00
     -2.616  0.0000E+00  0.1370E+00
     -2.493  0.4163E-10  0.1370E+00
     -2.369  0.3917E-04  0.1370E+00
     -2.246  0.2042E-02  0.1372E+00
     -2.123  0.2763E-02  0.1376E+00
     -2.000  0.7006E-02  0.1384E+00
     -1.877  0.1221E-01  0.1399E+00
     -1.754  0.1808E-01  0.1422E+00
     -1.630  0.1366E-01  0.1439E+00
     -1.507  0.2147E-01  0.1465E+00
     -1.384  0.2905E-01  0.1501E+00
     -1.261  0.2099E-01  0.1527E+00
     -1.138  0.3367E-01  0.1568E+00
     -1.015  0.4396E-01  0.1622E+00
     -0.891  0.5464E-01  0.1690E+00
     -0.768  0.3365E-01  0.1731E+00
     -0.645  0.2471E-01  0.1761E+00
     -0.522  0.4033E-01  0.1811E+00
     -0.399  0.3009E-01  0.1848E+00
     -0.276  0.3394E-01  0.1890E+00
     -0.152  0.2957E-01  0.1926E+00
     -0.029  0.3071E-01  0.1964E+00
      0.094  0.4531E-01  0.2020E+00
      0.217  0.3740E-01  0.2066E+00
      0.340  0.1069E-01  0.2079E+00
      0.463  0.1588E-01  0.2099E+00
      0.587  0.2844E-02  0.2102E+00
      0.710  0.2395E-02  0.2105E+00
      0.833  0.9991E-02  0.2118E+00
      0.956  0.3054E-01  0.2155E+00
      1.079  0.5296E-01  0.2220E+00
      1.202  0.3118E-01  0.2259E+00
      1.326  0.2411E-01  0.2289E+00
      1.449  0.2363E-01  0.2318E+00
      1.572  0.2795E-01  0.2352E+00
      1.695  0.2218E-01  0.2379E+00
      1.818  0.1611E-01  0.2399E+00
      1.941  0.1736E-01  0.2421E+00
      2.065  0.7441E-02  0.2430E+00
      2.188  0.1959E-01  0.2454E+00
      2.311  0.2251E-01  0.2482E+00
      2.434  0.1020E-01  0.2494E+00
      2.557  0.2528E-01  0.2525E+00
      2.681  0.2021E-01  0.2550E+00
      2.804  0.1651E-01  0.2571E+00
      2.927  0.1435E-01  0.2588E+00
      3.050  0.1533E-01  0.2607E+00
      3.173  0.1131E-01  0.2621E+00
      3.296  0.7315E-02  0.2630E+00
      3.420  0.7438E-02  0.2639E+00
      3.543  0.8696E-02  0.2650E+00
      3.666  0.1268E-01  0.2666E+00
      3.789  0.5446E-02  0.2672E+00
      3.912  0.4210E-02  0.2677E+00
      4.035  0.1955E-01  0.2702E+00
      4.159  0.3137E-01  0.2740E+00
      4.282  0.2131E-01  0.2766E+00
      4.405  0.1181E-01  0.2781E+00
      4.528  0.1106E-01  0.2795E+00
      4.651  0.1540E-01  0.2814E+00
      4.774  0.1804E-02  0.2816E+00
      4.898  0.7466E-02  0.2825E+00
      5.021  0.2824E-01  0.2860E+00
      5.144  0.1080E-01  0.2873E+00
      5.267  0.2872E-01  0.2908E+00
      5.390  0.1946E-01  0.2932E+00
      5.513  0.2818E-01  0.2967E+00
      5.637  0.3172E-01  0.3006E+00
      5.760  0.2157E-01  0.3033E+00
      5.883  0.1215E-01  0.3048E+00
      6.006  0.1104E-01  0.3061E+00
      6.129  0.1897E-01  0.3085E+00
      6.252  0.9541E-02  0.3096E+00
      6.376  0.2438E-01  0.3126E+00
      6.499  0.1860E-01  0.3149E+00
      6.622  0.6007E-01  0.3223E+00
      6.745  0.2921E-01  0.3259E+00
      6.868  0.1494E-01  0.3278E+00
      6.991  0.1605E-01  0.3298E+00
      7.115  0.1371E-01  0.3314E+00
      7.238  0.5316E-02  0.3321E+00
      7.361  0.2174E-01  0.3348E+00
      7.484  0.2326E-01  0.3376E+00
      7.607  0.2030E-01  0.3401E+00
      7.730  0.3639E-01  0.3446E+00
      7.854  0.3455E-01  0.3489E+00
      7.977  0.1551E-01  0.3508E+00
      8.100  0.2193E-01  0.3535E+00
      8.223  0.1711E-01  0.3556E+00
      8.346  0.9517E-02  0.3568E+00
      8.469  0.2238E-01  0.3595E+00
      8.593  0.3119E-01  0.3634E+00
      8.716  0.3489E-01  0.3677E+00
      8.839  0.2506E-01  0.3707E+00
      8.962  0.2609E-01  0.3740E+00
      9.085  0.3616E-01  0.3784E+00
      9.208  0.3755E-01  0.3830E+00
      9.332  0.3437E-01  0.3873E+00
      9.455  0.3335E-01  0.3914E+00
      9.578  0.3856E-01  0.3961E+00
      9.701  0.4728E-01  0.4020E+00
      9.824  0.3887E-01  0.4067E+00
      9.947  0.3114E-01  0.4106E+00
     10.071  0.4472E-01  0.4161E+00
     10.194  0.4311E-01  0.4214E+00
     10.317  0.1335E-01  0.4230E+00
     10.440  0.1165E-01  0.4245E+00
     10.563  0.3830E-01  0.4292E+00
     10.686  0.2447E-01  0.4322E+00
     10.810  0.2061E-01  0.4347E+00
     10.933  0.1298E-01  0.4363E+00
     11.056  0.1166E-02  0.4365E+00
     11.179  0.5602E-02  0.4372E+00
     11.302  0.3334E-03  0.4372E+00
     11.426  0.1725E-08  0.4372E+00
     11.549  0.7078E-05  0.4372E+00
     11.672  0.4436E-02  0.4378E+00
     11.795  0.4783E-02  0.4384E+00
     11.918  0.4141E-04  0.4384E+00
     12.041  0.1843E-10  0.4384E+00
     12.165  0.0000E+00  0.4384E+00
     12.288  0.0000E+00  0.4384E+00
     12.411  0.0000E+00  0.4384E+00
     12.534  0.0000E+00  0.4384E+00
     12.657  0.0000E+00  0.4384E+00
     12.780  0.0000E+00  0.4384E+00
     12.904  0.0000E+00  0.4384E+00
     13.027  0.0000E+00  0.4384E+00
     13.150  0.0000E+00  0.4384E+00
     13.273  0.0000E+00  0.4384E+00
     13.396  0.0000E+00  0.4384E+00
