   3   3   0   0
  0.3241717E+02  0.4398537E-09  0.7565088E-09  0.3588967E-09  0.1500000E-16
   1.0000000000000000E-004
  CAR 
 unknown system                          
     24.29735796    -24.07360487  301      2.23136156      1.00000000
    -24.074  0.0000E+00  0.0000E+00
    -23.912  0.0000E+00  0.0000E+00
    -23.751  0.0000E+00  0.0000E+00
    -23.590  0.0000E+00  0.0000E+00
    -23.429  0.0000E+00  0.0000E+00
    -23.267  0.0000E+00  0.0000E+00
    -23.106  0.0000E+00  0.0000E+00
    -22.945  0.0000E+00  0.0000E+00
    -22.784  0.0000E+00  0.0000E+00
    -22.622  0.0000E+00  0.0000E+00
    -22.461  0.0000E+00  0.0000E+00
    -22.300  0.0000E+00  0.0000E+00
    -22.139  0.1700E-14  0.2741E-15
    -21.978  0.1253E-03  0.2020E-04
    -21.816  0.2444E+00  0.3943E-01
    -21.655  0.2652E+00  0.8219E-01
    -21.494  0.2949E-04  0.8219E-01
    -21.333  0.0000E+00  0.8219E-01
    -21.171  0.0000E+00  0.8219E-01
    -21.010  0.0000E+00  0.8219E-01
    -20.849  0.0000E+00  0.8219E-01
    -20.688  0.0000E+00  0.8219E-01
    -20.526  0.0000E+00  0.8219E-01
    -20.365  0.0000E+00  0.8219E-01
    -20.204  0.0000E+00  0.8219E-01
    -20.043  0.0000E+00  0.8219E-01
    -19.881  0.0000E+00  0.8219E-01
    -19.720  0.0000E+00  0.8219E-01
    -19.559  0.0000E+00  0.8219E-01
    -19.398  0.0000E+00  0.8219E-01
    -19.237  0.0000E+00  0.8219E-01
    -19.075  0.0000E+00  0.8219E-01
    -18.914  0.0000E+00  0.8219E-01
    -18.753  0.0000E+00  0.8219E-01
    -18.592  0.0000E+00  0.8219E-01
    -18.430  0.0000E+00  0.8219E-01
    -18.269  0.0000E+00  0.8219E-01
    -18.108  0.0000E+00  0.8219E-01
    -17.947  0.0000E+00  0.8219E-01
    -17.785  0.0000E+00  0.8219E-01
    -17.624  0.0000E+00  0.8219E-01
    -17.463  0.0000E+00  0.8219E-01
    -17.302  0.0000E+00  0.8219E-01
    -17.140  0.0000E+00  0.8219E-01
    -16.979  0.0000E+00  0.8219E-01
    -16.818  0.0000E+00  0.8219E-01
    -16.657  0.0000E+00  0.8219E-01
    -16.495  0.0000E+00  0.8219E-01
    -16.334  0.0000E+00  0.8219E-01
    -16.173  0.0000E+00  0.8219E-01
    -16.012  0.0000E+00  0.8219E-01
    -15.851  0.0000E+00  0.8219E-01
    -15.689  0.0000E+00  0.8219E-01
    -15.528  0.0000E+00  0.8219E-01
    -15.367  0.0000E+00  0.8219E-01
    -15.206  0.0000E+00  0.8219E-01
    -15.044  0.0000E+00  0.8219E-01
    -14.883  0.0000E+00  0.8219E-01
    -14.722  0.0000E+00  0.8219E-01
    -14.561  0.0000E+00  0.8219E-01
    -14.399  0.0000E+00  0.8219E-01
    -14.238  0.0000E+00  0.8219E-01
    -14.077  0.0000E+00  0.8219E-01
    -13.916  0.0000E+00  0.8219E-01
    -13.754  0.0000E+00  0.8219E-01
    -13.593  0.0000E+00  0.8219E-01
    -13.432  0.0000E+00  0.8219E-01
    -13.271  0.0000E+00  0.8219E-01
    -13.110  0.0000E+00  0.8219E-01
    -12.948  0.0000E+00  0.8219E-01
    -12.787  0.0000E+00  0.8219E-01
    -12.626  0.0000E+00  0.8219E-01
    -12.465  0.0000E+00  0.8219E-01
    -12.303  0.0000E+00  0.8219E-01
    -12.142  0.0000E+00  0.8219E-01
    -11.981  0.0000E+00  0.8219E-01
    -11.820  0.0000E+00  0.8219E-01
    -11.658  0.0000E+00  0.8219E-01
    -11.497  0.0000E+00  0.8219E-01
    -11.336  0.0000E+00  0.8219E-01
    -11.175  0.0000E+00  0.8219E-01
    -11.013  0.6550E-19  0.8219E-01
    -10.852  0.1252E-06  0.8219E-01
    -10.691  0.4193E-02  0.8287E-01
    -10.530  0.5164E-01  0.9119E-01
    -10.368  0.4757E-01  0.9886E-01
    -10.207  0.5409E-01  0.1076E+00
    -10.046  0.1243E-01  0.1096E+00
     -9.885  0.1927E-05  0.1096E+00
     -9.724  0.0000E+00  0.1096E+00
     -9.562  0.0000E+00  0.1096E+00
     -9.401  0.0000E+00  0.1096E+00
     -9.240  0.0000E+00  0.1096E+00
     -9.079  0.0000E+00  0.1096E+00
     -8.917  0.0000E+00  0.1096E+00
     -8.756  0.0000E+00  0.1096E+00
     -8.595  0.0000E+00  0.1096E+00
     -8.434  0.0000E+00  0.1096E+00
     -8.272  0.0000E+00  0.1096E+00
     -8.111  0.0000E+00  0.1096E+00
     -7.950  0.0000E+00  0.1096E+00
     -7.789  0.0000E+00  0.1096E+00
     -7.627  0.0000E+00  0.1096E+00
     -7.466  0.0000E+00  0.1096E+00
     -7.305  0.0000E+00  0.1096E+00
     -7.144  0.0000E+00  0.1096E+00
     -6.983  0.1053E-09  0.1096E+00
     -6.821  0.5987E-03  0.1097E+00
     -6.660  0.9201E-02  0.1112E+00
     -6.499  0.1135E-01  0.1130E+00
     -6.338  0.3038E-01  0.1179E+00
     -6.176  0.1611E-01  0.1205E+00
     -6.015  0.2841E-01  0.1251E+00
     -5.854  0.1519E-01  0.1275E+00
     -5.693  0.2569E-01  0.1317E+00
     -5.531  0.1554E-01  0.1342E+00
     -5.370  0.1309E-01  0.1363E+00
     -5.209  0.4328E-02  0.1370E+00
     -5.048  0.3080E-04  0.1370E+00
     -4.886  0.0000E+00  0.1370E+00
     -4.725  0.0000E+00  0.1370E+00
     -4.564  0.0000E+00  0.1370E+00
     -4.403  0.0000E+00  0.1370E+00
     -4.242  0.0000E+00  0.1370E+00
     -4.080  0.0000E+00  0.1370E+00
     -3.919  0.0000E+00  0.1370E+00
     -3.758  0.0000E+00  0.1370E+00
     -3.597  0.0000E+00  0.1370E+00
     -3.435  0.0000E+00  0.1370E+00
     -3.274  0.0000E+00  0.1370E+00
     -3.113  0.0000E+00  0.1370E+00
     -2.952  0.0000E+00  0.1370E+00
     -2.790  0.0000E+00  0.1370E+00
     -2.629  0.0000E+00  0.1370E+00
     -2.468  0.1261E-08  0.1370E+00
     -2.307  0.5193E-03  0.1371E+00
     -2.145  0.3013E-02  0.1376E+00
     -1.984  0.6871E-02  0.1387E+00
     -1.823  0.1434E-01  0.1410E+00
     -1.662  0.1319E-01  0.1431E+00
     -1.500  0.2184E-01  0.1466E+00
     -1.339  0.2673E-01  0.1509E+00
     -1.178  0.2722E-01  0.1553E+00
     -1.017  0.4216E-01  0.1621E+00
     -0.856  0.4858E-01  0.1700E+00
     -0.694  0.3210E-01  0.1751E+00
     -0.533  0.3420E-01  0.1806E+00
     -0.372  0.3130E-01  0.1857E+00
     -0.211  0.3181E-01  0.1908E+00
     -0.049  0.2919E-01  0.1955E+00
      0.112  0.4602E-01  0.2029E+00
      0.273  0.2697E-01  0.2073E+00
      0.434  0.1391E-01  0.2095E+00
      0.596  0.4338E-02  0.2102E+00
      0.757  0.4947E-02  0.2110E+00
      0.918  0.1916E-01  0.2141E+00
      1.079  0.4914E-01  0.2220E+00
      1.241  0.2912E-01  0.2267E+00
      1.402  0.2779E-01  0.2312E+00
      1.563  0.2205E-01  0.2348E+00
      1.724  0.2126E-01  0.2382E+00
      1.885  0.2187E-01  0.2417E+00
      2.047  0.5994E-02  0.2427E+00
      2.208  0.1985E-01  0.2459E+00
      2.369  0.1609E-01  0.2485E+00
      2.530  0.2328E-01  0.2522E+00
      2.692  0.1805E-01  0.2552E+00
      2.853  0.1551E-01  0.2577E+00
      3.014  0.1576E-01  0.2602E+00
      3.175  0.1198E-01  0.2621E+00
      3.337  0.6319E-02  0.2631E+00
      3.498  0.8671E-02  0.2645E+00
      3.659  0.1210E-01  0.2665E+00
      3.820  0.4977E-02  0.2673E+00
      3.982  0.9389E-02  0.2688E+00
      4.143  0.2875E-01  0.2735E+00
      4.304  0.2086E-01  0.2768E+00
      4.465  0.1083E-01  0.2786E+00
      4.626  0.1668E-01  0.2812E+00
      4.788  0.2744E-02  0.2817E+00
      4.949  0.1147E-01  0.2835E+00
      5.110  0.2222E-01  0.2871E+00
      5.271  0.2413E-01  0.2910E+00
      5.433  0.2153E-01  0.2945E+00
      5.594  0.3037E-01  0.2994E+00
      5.755  0.2358E-01  0.3032E+00
      5.916  0.1110E-01  0.3050E+00
      6.078  0.1693E-01  0.3077E+00
      6.239  0.1028E-01  0.3094E+00
      6.400  0.2225E-01  0.3129E+00
      6.561  0.3688E-01  0.3189E+00
      6.723  0.4037E-01  0.3254E+00
      6.884  0.1550E-01  0.3279E+00
      7.045  0.1656E-01  0.3306E+00
      7.206  0.8517E-02  0.3319E+00
      7.368  0.1851E-01  0.3349E+00
      7.529  0.2240E-01  0.3385E+00
      7.690  0.2851E-01  0.3431E+00
      7.851  0.3515E-01  0.3488E+00
      8.012  0.1666E-01  0.3515E+00
      8.174  0.2246E-01  0.3551E+00
      8.335  0.9386E-02  0.3566E+00
      8.496  0.2324E-01  0.3604E+00
      8.657  0.3255E-01  0.3656E+00
      8.819  0.2894E-01  0.3703E+00
      8.980  0.2715E-01  0.3747E+00
      9.141  0.3295E-01  0.3800E+00
      9.302  0.4344E-01  0.3870E+00
      9.464  0.2950E-01  0.3917E+00
      9.625  0.4041E-01  0.3983E+00
      9.786  0.4449E-01  0.4054E+00
      9.947  0.4086E-01  0.4120E+00
     10.109  0.4878E-01  0.4199E+00
     10.270  0.2885E-01  0.4245E+00
     10.431  0.1361E-01  0.4267E+00
     10.592  0.4393E-01  0.4338E+00
     10.753  0.4340E-01  0.4408E+00
     10.915  0.3818E-01  0.4470E+00
     11.076  0.3664E-01  0.4529E+00
     11.237  0.3994E-01  0.4593E+00
     11.398  0.2982E-01  0.4641E+00
     11.560  0.3249E-01  0.4694E+00
     11.721  0.2576E-01  0.4735E+00
     11.882  0.4511E-01  0.4808E+00
     12.043  0.6526E-01  0.4913E+00
     12.205  0.4762E-01  0.4990E+00
     12.366  0.2254E-01  0.5026E+00
     12.527  0.5081E-01  0.5108E+00
     12.688  0.5661E-01  0.5199E+00
     12.850  0.3439E-01  0.5255E+00
     13.011  0.2938E-01  0.5302E+00
     13.172  0.4209E-01  0.5370E+00
     13.333  0.5027E-01  0.5451E+00
     13.495  0.3546E-01  0.5508E+00
     13.656  0.4591E-01  0.5582E+00
     13.817  0.2888E-01  0.5629E+00
     13.978  0.3748E-01  0.5689E+00
     14.139  0.4044E-01  0.5755E+00
     14.301  0.2824E-01  0.5800E+00
     14.462  0.5468E-01  0.5888E+00
     14.623  0.3112E-01  0.5938E+00
     14.784  0.4455E-01  0.6010E+00
     14.946  0.3858E-01  0.6072E+00
     15.107  0.4540E-01  0.6146E+00
     15.268  0.5309E-01  0.6231E+00
     15.429  0.4469E-01  0.6303E+00
     15.591  0.4353E-01  0.6373E+00
     15.752  0.4685E-01  0.6449E+00
     15.913  0.3719E-01  0.6509E+00
     16.074  0.6388E-01  0.6612E+00
     16.236  0.3780E-01  0.6673E+00
     16.397  0.4652E-01  0.6748E+00
     16.558  0.2878E-01  0.6794E+00
     16.719  0.4945E-01  0.6874E+00
     16.880  0.4997E-01  0.6955E+00
     17.042  0.4203E-01  0.7022E+00
     17.203  0.5721E-01  0.7115E+00
     17.364  0.3247E-01  0.7167E+00
     17.525  0.3031E-01  0.7216E+00
     17.687  0.3201E-01  0.7267E+00
     17.848  0.4075E-01  0.7333E+00
     18.009  0.3738E-01  0.7393E+00
     18.170  0.4982E-01  0.7474E+00
     18.332  0.5991E-01  0.7570E+00
     18.493  0.5391E-01  0.7657E+00
     18.654  0.5654E-01  0.7748E+00
     18.815  0.6476E-01  0.7853E+00
     18.977  0.4496E-01  0.7925E+00
     19.138  0.4592E-01  0.7999E+00
     19.299  0.6134E-01  0.8098E+00
     19.460  0.2769E-01  0.8143E+00
     19.621  0.4227E-01  0.8211E+00
     19.783  0.5006E-01  0.8292E+00
     19.944  0.4062E-01  0.8357E+00
     20.105  0.5490E-01  0.8446E+00
     20.266  0.4831E-01  0.8524E+00
     20.428  0.3707E-01  0.8584E+00
     20.589  0.4452E-01  0.8655E+00
     20.750  0.2004E-01  0.8688E+00
     20.911  0.1696E-01  0.8715E+00
     21.073  0.1831E-01  0.8744E+00
     21.234  0.2288E-02  0.8748E+00
     21.395  0.4856E-02  0.8756E+00
     21.556  0.3363E-02  0.8761E+00
     21.718  0.7805E-03  0.8763E+00
     21.879  0.3996E-03  0.8763E+00
     22.040  0.1148E-03  0.8764E+00
     22.201  0.2241E-02  0.8767E+00
     22.363  0.4374E-05  0.8767E+00
     22.524  0.0000E+00  0.8767E+00
     22.685  0.0000E+00  0.8767E+00
     22.846  0.0000E+00  0.8767E+00
     23.007  0.0000E+00  0.8767E+00
     23.169  0.0000E+00  0.8767E+00
     23.330  0.0000E+00  0.8767E+00
     23.491  0.0000E+00  0.8767E+00
     23.652  0.0000E+00  0.8767E+00
     23.814  0.0000E+00  0.8767E+00
     23.975  0.0000E+00  0.8767E+00
     24.136  0.0000E+00  0.8767E+00
     24.297  0.0000E+00  0.8767E+00
