       N       E                     dE             d eps       ncg     rms          rms(c)
DAV:   1     0.926065642328E+02    0.92607E+02   -0.70466E+03  1600   0.803E+02
DAV:   2    -0.260316574861E+01   -0.95210E+02   -0.90232E+02  1864   0.205E+02
DAV:   3    -0.107220536604E+02   -0.81189E+01   -0.80267E+01  2112   0.613E+01
DAV:   4    -0.108801358262E+02   -0.15808E+00   -0.15800E+00  2016   0.996E+00
DAV:   5    -0.108844139946E+02   -0.42782E-02   -0.42780E-02  2200   0.158E+00    0.549E+00
DAV:   6    -0.101586756341E+02    0.72574E+00   -0.97733E-01  2016   0.604E+00    0.400E+00
DAV:   7    -0.101633958245E+02   -0.47202E-02   -0.28241E-01  2000   0.248E+00    0.239E+00
DAV:   8    -0.101612527313E+02    0.21431E-02   -0.21935E-02  2000   0.100E+00    0.482E-01
DAV:   9    -0.101605481954E+02    0.70454E-03   -0.96879E-03  2096   0.692E-01    0.165E-01
DAV:  10    -0.101609502960E+02   -0.40210E-03   -0.14225E-03  1984   0.230E-01    0.112E-01
DAV:  11    -0.101616058858E+02   -0.65559E-03   -0.10811E-03  1752   0.194E-01    0.392E-02
DAV:  12    -0.101615399448E+02    0.65941E-04   -0.18363E-04  2160   0.925E-02    0.163E-02
DAV:  13    -0.101615446713E+02   -0.47265E-05   -0.43464E-05  1928   0.348E-02    0.789E-03
DAV:  14    -0.101615473430E+02   -0.26717E-05   -0.56452E-06  1920   0.133E-02    0.255E-03
DAV:  15    -0.101615479914E+02   -0.64844E-06   -0.75324E-07  1592   0.518E-03
   1 F= -.10161548E+02 E0= -.10160186E+02  d E =-.272444E-02
 Found     9 degrees of freedom:
 Adding 6 more for cell shape distortion
       N       E                     dE             d eps       ncg     rms          rms(c)
DAV:   1    -0.102559728154E+02   -0.94425E-01   -0.34603E+00  1920   0.177E+01    0.191E+00
DAV:   2    -0.101811058842E+02    0.74867E-01   -0.14773E-01  2088   0.359E+00    0.105E+00
DAV:   3    -0.101554740100E+02    0.25632E-01   -0.52159E-02  1976   0.173E+00    0.339E-01
DAV:   4    -0.101539790783E+02    0.14949E-02   -0.28569E-03  2120   0.328E-01    0.218E-01
DAV:   5    -0.101536096794E+02    0.36940E-03   -0.36015E-04  2016   0.158E-01    0.103E-01
DAV:   6    -0.101536009433E+02    0.87360E-05   -0.14441E-04  1808   0.999E-02    0.224E-02
DAV:   7    -0.101536008482E+02    0.95130E-07   -0.12100E-05  2216   0.314E-02    0.145E-02
DAV:   8    -0.101536044270E+02   -0.35789E-05   -0.86682E-06  1800   0.161E-02    0.376E-03
DAV:   9    -0.101536043389E+02    0.88099E-07   -0.85662E-07  1536   0.651E-03
   2 F= -.10153604E+02 E0= -.10152482E+02  d E =-.224401E-02
       N       E                     dE             d eps       ncg     rms          rms(c)
DAV:   1    -0.101850563629E+02   -0.31452E-01   -0.83154E-01  1888   0.832E+00    0.978E-01
DAV:   2    -0.101666877494E+02    0.18369E-01   -0.35505E-02  2088   0.171E+00    0.528E-01
DAV:   3    -0.101606818733E+02    0.60059E-02   -0.12317E-02  1968   0.848E-01    0.182E-01
DAV:   4    -0.101603477869E+02    0.33409E-03   -0.67963E-04  2144   0.161E-01    0.128E-01
DAV:   5    -0.101602565035E+02    0.91283E-04   -0.93695E-05  2008   0.751E-02    0.527E-02
DAV:   6    -0.101602578658E+02   -0.13623E-05   -0.29495E-05  1880   0.421E-02    0.120E-02
DAV:   7    -0.101602577285E+02    0.13729E-06   -0.21387E-06  1912   0.130E-02
   3 F= -.10160258E+02 E0= -.10158874E+02  d E =-.276804E-02
       N       E                     dE             d eps       ncg     rms          rms(c)
DAV:   1    -0.102581766451E+02   -0.97919E-01   -0.34350E+00  1904   0.169E+01    0.202E+00
DAV:   2    -0.101838538847E+02    0.74323E-01   -0.14763E-01  2112   0.346E+00    0.109E+00
DAV:   3    -0.101588209347E+02    0.25033E-01   -0.51118E-02  2008   0.173E+00    0.387E-01
DAV:   4    -0.101573692728E+02    0.14517E-02   -0.29198E-03  2144   0.334E-01    0.280E-01
DAV:   5    -0.101569433545E+02    0.42592E-03   -0.45794E-04  2080   0.161E-01    0.108E-01
DAV:   6    -0.101569453943E+02   -0.20398E-05   -0.12297E-04  1880   0.846E-02    0.260E-02
DAV:   7    -0.101569447263E+02    0.66794E-06   -0.91715E-06  2192   0.259E-02
   4 F= -.10156945E+02 E0= -.10155977E+02  d E =-.193566E-02
       N       E                     dE             d eps       ncg     rms          rms(c)
DAV:   1    -0.101716938227E+02   -0.14748E-01   -0.90465E-01  1984   0.883E+00    0.102E+00
DAV:   2    -0.101524224399E+02    0.19271E-01   -0.38543E-02  2040   0.180E+00    0.559E-01
DAV:   3    -0.101456581079E+02    0.67643E-02   -0.13672E-02  2072   0.901E-01    0.192E-01
DAV:   4    -0.101452556869E+02    0.40242E-03   -0.79139E-04  2160   0.178E-01    0.137E-01
DAV:   5    -0.101451457040E+02    0.10998E-03   -0.13619E-04  2128   0.863E-02    0.547E-02
DAV:   6    -0.101451483350E+02   -0.26310E-05   -0.36071E-05  1920   0.468E-02    0.133E-02
DAV:   7    -0.101451480900E+02    0.24496E-06   -0.25960E-06  2152   0.141E-02
   5 F= -.10145148E+02 E0= -.10144474E+02  d E =-.134819E-02
       N       E                     dE             d eps       ncg     rms          rms(c)
DAV:   1    -0.104201552105E+02   -0.27501E+00   -0.84219E+00  2000   0.325E+01    0.347E+00
DAV:   2    -0.102000071253E+02    0.22015E+00   -0.39518E-01  2152   0.631E+00    0.170E+00
DAV:   3    -0.101369149876E+02    0.63092E-01   -0.11333E-01  2008   0.283E+00    0.599E-01
DAV:   4    -0.101300306800E+02    0.68843E-02   -0.89319E-03  2104   0.581E-01    0.329E-01
DAV:   5    -0.101290268678E+02    0.10038E-02   -0.64868E-04  1960   0.243E-01    0.164E-01
DAV:   6    -0.101288401163E+02    0.18675E-03   -0.23091E-04  1904   0.115E-01    0.217E-02
DAV:   7    -0.101288384931E+02    0.16232E-05   -0.28377E-05  2104   0.473E-02    0.182E-02
DAV:   8    -0.101288422659E+02   -0.37728E-05   -0.86784E-06  1824   0.209E-02    0.699E-03
DAV:   9    -0.101288427251E+02   -0.45920E-06   -0.76257E-07  1632   0.934E-03
   6 F= -.10128843E+02 E0= -.10127506E+02  d E =-.267429E-02
       N       E                     dE             d eps       ncg     rms          rms(c)
DAV:   1    -0.101729368910E+02   -0.44095E-01   -0.76865E-01  2016   0.829E+00    0.106E+00
DAV:   2    -0.101586219613E+02    0.14315E-01   -0.34219E-02  2160   0.176E+00    0.527E-01
DAV:   3    -0.101535954482E+02    0.50265E-02   -0.74311E-03  2072   0.747E-01    0.186E-01
DAV:   4    -0.101529531096E+02    0.64234E-03   -0.80959E-04  2192   0.209E-01    0.928E-02
DAV:   5    -0.101528978805E+02    0.55229E-04   -0.95351E-05  2032   0.926E-02    0.317E-02
DAV:   6    -0.101528966257E+02    0.12549E-05   -0.16301E-05  2032   0.339E-02    0.737E-03
DAV:   7    -0.101528965754E+02    0.50249E-07   -0.23550E-06  1840   0.143E-02
   7 F= -.10152897E+02 E0= -.10151527E+02  d E =-.273898E-02
       N       E                     dE             d eps       ncg     rms          rms(c)
DAV:   1    -0.102343948194E+02   -0.81498E-01   -0.31523E+00  2088   0.168E+01    0.220E+00
DAV:   2    -0.101763496013E+02    0.58045E-01   -0.14139E-01  2104   0.355E+00    0.109E+00
DAV:   3    -0.101555715658E+02    0.20778E-01   -0.31995E-02  2112   0.153E+00    0.370E-01
DAV:   4    -0.101531277620E+02    0.24438E-02   -0.27487E-03  2136   0.363E-01    0.198E-01
DAV:   5    -0.101528672025E+02    0.26056E-03   -0.34707E-04  2056   0.185E-01    0.618E-02
DAV:   6    -0.101528628314E+02    0.43711E-05   -0.68419E-05  2088   0.713E-02    0.153E-02
DAV:   7    -0.101528627968E+02    0.34640E-07   -0.90045E-06  2144   0.289E-02
   8 F= -.10152863E+02 E0= -.10151540E+02  d E =-.264511E-02
       N       E                     dE             d eps       ncg     rms          rms(c)
DAV:   1    -0.101457573738E+02    0.71055E-02   -0.82398E-01  2056   0.876E+00    0.112E+00
DAV:   2    -0.101306682271E+02    0.15089E-01   -0.36736E-02  2104   0.185E+00    0.561E-01
DAV:   3    -0.101251927843E+02    0.54754E-02   -0.86595E-03  2080   0.804E-01    0.183E-01
DAV:   4    -0.101246026157E+02    0.59017E-03   -0.66506E-04  2160   0.195E-01    0.961E-02
DAV:   5    -0.101245414101E+02    0.61206E-04   -0.99461E-05  2016   0.891E-02    0.315E-02
DAV:   6    -0.101245415682E+02   -0.15813E-06   -0.19104E-05  2104   0.388E-02    0.814E-03
DAV:   7    -0.101245415375E+02    0.30703E-07   -0.20667E-06  1480   0.141E-02
   9 F= -.10124542E+02 E0= -.10123274E+02  d E =-.253548E-02
       N       E                     dE             d eps       ncg     rms          rms(c)
DAV:   1    -0.104381498195E+02   -0.31361E+00   -0.83016E+00  1920   0.319E+01    0.348E+00
DAV:   2    -0.102127579756E+02    0.22539E+00   -0.39011E-01  2128   0.655E+00    0.172E+00
DAV:   3    -0.101539237087E+02    0.58834E-01   -0.12372E-01  1936   0.295E+00    0.589E-01
DAV:   4    -0.101468235923E+02    0.71001E-02   -0.62942E-03  2208   0.562E-01    0.341E-01
DAV:   5    -0.101456176731E+02    0.12059E-02   -0.71472E-04  1936   0.224E-01    0.148E-01
DAV:   6    -0.101455045029E+02    0.11317E-03   -0.29169E-04  1976   0.157E-01    0.239E-02
DAV:   7    -0.101454949469E+02    0.95560E-05   -0.53116E-05  2040   0.763E-02    0.191E-02
DAV:   8    -0.101454976012E+02   -0.26542E-05   -0.74457E-06  1992   0.170E-02    0.761E-03
DAV:   9    -0.101454986941E+02   -0.10929E-05   -0.68563E-07  1536   0.522E-03    0.266E-03
DAV:  10    -0.101454994523E+02   -0.75821E-06   -0.39622E-07  1416   0.508E-03
  10 F= -.10145499E+02 E0= -.10144631E+02  d E =-.173713E-02
       N       E                     dE             d eps       ncg     rms          rms(c)
DAV:   1    -0.101838050157E+02   -0.38306E-01   -0.92709E-01  1752   0.827E+00    0.986E-01
DAV:   2    -0.101626123708E+02    0.21193E-01   -0.35369E-02  2032   0.180E+00    0.534E-01
DAV:   3    -0.101558895918E+02    0.67228E-02   -0.13199E-02  2024   0.876E-01    0.206E-01
DAV:   4    -0.101552773316E+02    0.61226E-03   -0.79865E-04  2192   0.164E-01    0.149E-01
DAV:   5    -0.101551637179E+02    0.11361E-03   -0.13392E-04  1944   0.853E-02    0.429E-02
DAV:   6    -0.101551671542E+02   -0.34363E-05   -0.26693E-05  1872   0.418E-02    0.988E-03
DAV:   7    -0.101551663171E+02    0.83710E-06   -0.36606E-06  2096   0.182E-02
  11 F= -.10155166E+02 E0= -.10154145E+02  d E =-.204216E-02
       N       E                     dE             d eps       ncg     rms          rms(c)
DAV:   1    -0.102813706444E+02   -0.12620E+00   -0.38207E+00  1760   0.167E+01    0.204E+00
DAV:   2    -0.101949856177E+02    0.86385E-01   -0.14918E-01  2032   0.363E+00    0.110E+00
DAV:   3    -0.101673197763E+02    0.27666E-01   -0.54075E-02  2024   0.178E+00    0.431E-01
DAV:   4    -0.101650193199E+02    0.23005E-02   -0.31810E-03  2216   0.329E-01    0.317E-01
DAV:   5    -0.101645534830E+02    0.46584E-03   -0.42333E-04  1976   0.163E-01    0.909E-02
DAV:   6    -0.101645520377E+02    0.14453E-05   -0.87880E-05  1864   0.759E-02    0.195E-02
DAV:   7    -0.101645499563E+02    0.20814E-05   -0.13413E-05  2144   0.347E-02    0.105E-02
DAV:   8    -0.101645523675E+02   -0.24112E-05   -0.47864E-06  1800   0.121E-02    0.168E-03
DAV:   9    -0.101645524899E+02   -0.12247E-06   -0.31707E-07  1336   0.361E-03
  12 F= -.10164552E+02 E0= -.10163179E+02  d E =-.274685E-02
       N       E                     dE             d eps       ncg     rms          rms(c)
DAV:   1    -0.101936898231E+02   -0.29137E-01   -0.99909E-01  1760   0.866E+00    0.103E+00
DAV:   2    -0.101715076451E+02    0.22182E-01   -0.39246E-02  2032   0.188E+00    0.557E-01
DAV:   3    -0.101643900745E+02    0.71176E-02   -0.13602E-02  2032   0.905E-01    0.206E-01
DAV:   4    -0.101638339563E+02    0.55612E-03   -0.73209E-04  2192   0.161E-01    0.150E-01
DAV:   5    -0.101637176801E+02    0.11628E-03   -0.10042E-04  1952   0.794E-02    0.454E-02
DAV:   6    -0.101637180577E+02   -0.37760E-06   -0.22719E-05  1928   0.394E-02    0.966E-03
DAV:   7    -0.101637169559E+02    0.11018E-05   -0.34368E-06  2056   0.180E-02    0.522E-03
DAV:   8    -0.101637173973E+02   -0.44141E-06   -0.95904E-07  1480   0.607E-03
  13 F= -.10163717E+02 E0= -.10162812E+02  d E =-.181099E-02
       N       E                     dE             d eps       ncg     rms          rms(c)
DAV:   1    -0.103120071904E+02   -0.14829E+00   -0.55001E+00  1824   0.204E+01    0.229E+00
DAV:   2    -0.102008029229E+02    0.11120E+00   -0.22944E-01  2072   0.433E+00    0.125E+00
DAV:   3    -0.101588782221E+02    0.41925E-01   -0.78532E-02  2072   0.207E+00    0.441E-01
DAV:   4    -0.101558901159E+02    0.29881E-02   -0.49595E-03  2136   0.442E-01    0.305E-01
DAV:   5    -0.101553700790E+02    0.52004E-03   -0.79607E-04  2072   0.215E-01    0.107E-01
DAV:   6    -0.101553732258E+02   -0.31468E-05   -0.27826E-04  1848   0.142E-01    0.266E-02
DAV:   7    -0.101553714788E+02    0.17470E-05   -0.25197E-05  2184   0.448E-02    0.164E-02
DAV:   8    -0.101553787161E+02   -0.72373E-05   -0.12973E-05  1776   0.206E-02    0.413E-03
DAV:   9    -0.101553785845E+02    0.13162E-06   -0.81185E-07  1648   0.769E-03
  14 F= -.10155379E+02 E0= -.10154009E+02  d E =-.273918E-02
       N       E                     dE             d eps       ncg     rms          rms(c)
DAV:   1    -0.101664851890E+02   -0.11106E-01   -0.34090E-01  1928   0.434E+00    0.576E-01
DAV:   2    -0.101628402573E+02    0.36449E-02   -0.11339E-02  1936   0.753E-01    0.307E-01
DAV:   3    -0.101607901382E+02    0.20501E-02   -0.22431E-03  2216   0.253E-01    0.115E-01
DAV:   4    -0.101606189865E+02    0.17115E-03   -0.49268E-04  2024   0.127E-01    0.370E-02
DAV:   5    -0.101606173019E+02    0.16847E-05   -0.37161E-05  2088   0.421E-02    0.173E-02
DAV:   6    -0.101606196237E+02   -0.23218E-05   -0.71142E-06  1864   0.150E-02    0.457E-03
DAV:   7    -0.101606201649E+02   -0.54117E-06   -0.42468E-07  1568   0.497E-03
  15 F= -.10160620E+02 E0= -.10159175E+02  d E =-.289011E-02
       N       E                     dE             d eps       ncg     rms          rms(c)
DAV:   1    -0.101812905485E+02   -0.20671E-01   -0.13634E+00  1920   0.867E+00    0.114E+00
DAV:   2    -0.101670067093E+02    0.14284E-01   -0.45396E-02  1952   0.150E+00    0.615E-01
DAV:   3    -0.101588036389E+02    0.82031E-02   -0.87607E-03  2232   0.500E-01    0.231E-01
DAV:   4    -0.101580896636E+02    0.71398E-03   -0.20336E-03  2032   0.251E-01    0.726E-02
DAV:   5    -0.101580840643E+02    0.55994E-05   -0.14520E-04  2032   0.820E-02    0.353E-02
DAV:   6    -0.101580935851E+02   -0.95208E-05   -0.30026E-05  1920   0.305E-02    0.889E-03
DAV:   7    -0.101580954356E+02   -0.18505E-05   -0.18873E-06  2008   0.985E-03    0.580E-03
DAV:   8    -0.101580967537E+02   -0.13181E-05   -0.12582E-06  1760   0.601E-03    0.122E-03
DAV:   9    -0.101580970333E+02   -0.27962E-06   -0.22012E-07  1472   0.283E-03
  16 F= -.10158097E+02 E0= -.10156968E+02  d E =-.225763E-02
       N       E                     dE             d eps       ncg     rms          rms(c)
DAV:   1    -0.101561350701E+02    0.19617E-02   -0.34208E-01  2000   0.434E+00    0.568E-01
DAV:   2    -0.101525726743E+02    0.35624E-02   -0.11129E-02  1944   0.750E-01    0.306E-01
DAV:   3    -0.101505040285E+02    0.20686E-02   -0.21942E-03  2296   0.255E-01    0.114E-01
DAV:   4    -0.101503233556E+02    0.18067E-03   -0.51449E-04  2000   0.130E-01    0.350E-02
DAV:   5    -0.101503221396E+02    0.12160E-05   -0.39049E-05  2112   0.437E-02    0.176E-02
DAV:   6    -0.101503245012E+02   -0.23616E-05   -0.72531E-06  1928   0.153E-02    0.423E-03
DAV:   7    -0.101503251129E+02   -0.61171E-06   -0.48817E-07  1536   0.523E-03
  17 F= -.10150325E+02 E0= -.10149464E+02  d E =-.172170E-02
       N       E                     dE             d eps       ncg     rms          rms(c)
DAV:   1    -0.101953338664E+02   -0.45009E-01   -0.25427E+00  2872   0.119E+01    0.149E+00
DAV:   2    -0.101749613206E+02    0.20373E-01   -0.70156E-02  3056   0.202E+00    0.831E-01
DAV:   3    -0.101621208206E+02    0.12841E-01   -0.13104E-02  3352   0.805E-01    0.257E-01
DAV:   4    -0.101615187658E+02    0.60205E-03   -0.26917E-03  3104   0.378E-01    0.872E-02
DAV:   5    -0.101615138592E+02    0.49066E-05   -0.21225E-04  3144   0.114E-01    0.447E-02
DAV:   6    -0.101615249349E+02   -0.11076E-04   -0.48200E-05  2888   0.420E-02    0.102E-02
DAV:   7    -0.101615288712E+02   -0.39363E-05   -0.53448E-06  3000   0.166E-02    0.818E-03
DAV:   8    -0.101615298147E+02   -0.94357E-06   -0.93605E-07  2416   0.566E-03
  18 F= -.10161530E+02 E0= -.10160180E+02  d E =-.270056E-02
       N       E                     dE             d eps       ncg     rms          rms(c)
DAV:   1    -0.101626469794E+02   -0.11181E-02   -0.94773E-01  2704   0.666E+00    0.471E-01
DAV:   2    -0.101625653051E+02    0.81674E-04   -0.22749E-02  3008   0.103E+00    0.282E-01
DAV:   3    -0.101615339016E+02    0.10314E-02   -0.16586E-03  3288   0.368E-01    0.310E-02
DAV:   4    -0.101615566068E+02   -0.22705E-04   -0.24544E-04  2936   0.117E-01    0.196E-02
DAV:   5    -0.101615576913E+02   -0.10845E-05   -0.65425E-06  3288   0.196E-02    0.704E-03
DAV:   6    -0.101615584375E+02   -0.74617E-06   -0.14693E-06  2248   0.900E-03
  19 F= -.10161558E+02 E0= -.10160197E+02  d E =-.272327E-02
       N       E                     dE             d eps       ncg     rms          rms(c)
DAV:   1    -0.101731940966E+02   -0.11636E-01   -0.78774E-01  2856   0.569E+00    0.930E-01
DAV:   2    -0.101659768688E+02    0.72172E-02   -0.16025E-02  2888   0.939E-01    0.565E-01
DAV:   3    -0.101614917559E+02    0.44851E-02   -0.47675E-03  3088   0.633E-01    0.583E-02
DAV:   4    -0.101615534488E+02   -0.61693E-04   -0.78769E-04  2688   0.205E-01    0.427E-02
DAV:   5    -0.101615547205E+02   -0.12717E-05   -0.19579E-05  3600   0.377E-02    0.205E-02
DAV:   6    -0.101615581184E+02   -0.33979E-05   -0.15686E-05  2992   0.245E-02    0.405E-03
DAV:   7    -0.101615583800E+02   -0.26158E-06   -0.15268E-06  2656   0.867E-03
  20 F= -.10161558E+02 E0= -.10160197E+02  d E =-.272317E-02
       N       E                     dE             d eps       ncg     rms          rms(c)
DAV:   1    -0.101627304838E+02   -0.11724E-02   -0.10099E+00  2712   0.658E+00    0.465E-01
DAV:   2    -0.101626477015E+02    0.82782E-04   -0.20111E-02  2984   0.971E-01    0.284E-01
DAV:   3    -0.101615035325E+02    0.11442E-02   -0.11453E-03  3184   0.365E-01    0.313E-02
DAV:   4    -0.101615283623E+02   -0.24830E-04   -0.25927E-04  2880   0.118E-01    0.219E-02
DAV:   5    -0.101615288401E+02   -0.47776E-06   -0.54133E-06  3416   0.176E-02
  21 F= -.10161529E+02 E0= -.10160178E+02  d E =-.270145E-02
       N       E                     dE             d eps       ncg     rms          rms(c)
DAV:   1    -0.101861557069E+02   -0.24627E-01   -0.24503E+00  2720   0.114E+01    0.133E+00
DAV:   2    -0.101715296089E+02    0.14626E-01   -0.49859E-02  3048   0.179E+00    0.809E-01
DAV:   3    -0.101618544788E+02    0.96751E-02   -0.12584E-02  3168   0.857E-01    0.916E-02
DAV:   4    -0.101619662610E+02   -0.11178E-03   -0.15293E-03  2832   0.283E-01    0.703E-02
DAV:   5    -0.101619803794E+02   -0.14118E-04   -0.43156E-05  3248   0.560E-02    0.336E-02
DAV:   6    -0.101619912053E+02   -0.10826E-04   -0.46409E-05  3016   0.382E-02    0.863E-03
DAV:   7    -0.101619921587E+02   -0.95345E-06   -0.37726E-06  3144   0.130E-02
  22 F= -.10161992E+02 E0= -.10160782E+02  d E =-.241955E-02
       N       E                     dE             d eps       ncg     rms          rms(c)
DAV:   1    -0.101631247708E+02   -0.11336E-02   -0.10279E+00  2776   0.681E+00    0.476E-01
DAV:   2    -0.101627233689E+02    0.40140E-03   -0.21829E-02  2984   0.104E+00    0.284E-01
DAV:   3    -0.101616272193E+02    0.10961E-02   -0.18655E-03  3344   0.372E-01    0.342E-02
DAV:   4    -0.101616492830E+02   -0.22064E-04   -0.22312E-04  2960   0.111E-01    0.210E-02
DAV:   5    -0.101616513984E+02   -0.21154E-05   -0.66572E-06  3208   0.191E-02    0.810E-03
DAV:   6    -0.101616525687E+02   -0.11702E-05   -0.18480E-06  2864   0.922E-03    0.121E-03
DAV:   7    -0.101616526575E+02   -0.88879E-07   -0.14832E-07  1792   0.344E-03
  23 F= -.10161653E+02 E0= -.10160332E+02  d E =-.264201E-02
       N       E                     dE             d eps       ncg     rms          rms(c)
DAV:   1    -0.101743960112E+02   -0.12743E-01   -0.86535E-01  2824   0.586E+00    0.935E-01
DAV:   2    -0.101663589628E+02    0.80370E-02   -0.16408E-02  2888   0.952E-01    0.569E-01
DAV:   3    -0.101615808897E+02    0.47781E-02   -0.59483E-03  3128   0.680E-01    0.642E-02
DAV:   4    -0.101616409096E+02   -0.60020E-04   -0.80060E-04  2712   0.208E-01    0.476E-02
DAV:   5    -0.101616473909E+02   -0.64813E-05   -0.21409E-05  3264   0.410E-02    0.219E-02
DAV:   6    -0.101616520721E+02   -0.46812E-05   -0.21847E-05  3072   0.267E-02    0.692E-03
DAV:   7    -0.101616524307E+02   -0.35859E-06   -0.17352E-06  2936   0.854E-03
  24 F= -.10161652E+02 E0= -.10160331E+02  d E =-.264196E-02
       N       E                     dE             d eps       ncg     rms          rms(c)
DAV:   1    -0.101635044840E+02   -0.18524E-02   -0.10999E+00  2792   0.677E+00    0.463E-01
DAV:   2    -0.101631885815E+02    0.31590E-03   -0.19615E-02  3024   0.987E-01    0.286E-01
DAV:   3    -0.101619663231E+02    0.12223E-02   -0.15499E-03  3256   0.396E-01    0.303E-02
DAV:   4    -0.101619894487E+02   -0.23126E-04   -0.25845E-04  2920   0.123E-01    0.242E-02
DAV:   5    -0.101619907322E+02   -0.12835E-05   -0.62648E-06  3408   0.193E-02    0.134E-02
DAV:   6    -0.101619925751E+02   -0.18429E-05   -0.60477E-06  2920   0.144E-02    0.178E-03
DAV:   7    -0.101619926828E+02   -0.10773E-06   -0.46640E-07  2016   0.519E-03
  25 F= -.10161993E+02 E0= -.10160783E+02  d E =-.241966E-02
       N       E                     dE             d eps       ncg     rms          rms(c)
DAV:   1    -0.101639055777E+02   -0.19130E-02   -0.47337E+00  1944   0.136E+01    0.911E-01
DAV:   2    -0.101655273501E+02   -0.16218E-02   -0.10727E-01  2056   0.236E+00    0.558E-01
DAV:   3    -0.101598433159E+02    0.56840E-02   -0.73830E-03  2528   0.760E-01    0.540E-02
DAV:   4    -0.101597727674E+02    0.70549E-04   -0.76033E-04  2040   0.198E-01    0.237E-02
DAV:   5    -0.101597532872E+02    0.19480E-04   -0.25502E-05  2224   0.450E-02    0.100E-02
DAV:   6    -0.101597371444E+02    0.16143E-04   -0.57310E-06  1912   0.146E-02    0.305E-03
DAV:   7    -0.101597340037E+02    0.31407E-05   -0.38941E-07  1344   0.486E-03    0.219E-03
DAV:   8    -0.101597326562E+02    0.13475E-05   -0.14038E-07  1144   0.263E-03    0.745E-04
DAV:   9    -0.101597320897E+02    0.56655E-06   -0.30571E-08  1160   0.139E-03
  26 F= -.10159732E+02 E0= -.10158364E+02  d E =-.273556E-02
       N       E                     dE             d eps       ncg     rms          rms(c)
DAV:   1    -0.101600185683E+02   -0.28591E-03   -0.86573E-01  1760   0.491E+00    0.336E-02
DAV:   2    -0.101610561453E+02   -0.10376E-02   -0.10405E-02  2040   0.604E-01    0.113E-02
DAV:   3    -0.101610826514E+02   -0.26506E-04   -0.26906E-04  2128   0.986E-02    0.857E-03
DAV:   4    -0.101610837344E+02   -0.10829E-05   -0.11952E-05  2032   0.237E-02    0.379E-03
DAV:   5    -0.101610840104E+02   -0.27603E-06   -0.76128E-07  1216   0.726E-03
  27 F= -.10161084E+02 E0= -.10159719E+02  d E =-.273047E-02
       N       E                     dE             d eps       ncg     rms          rms(c)
DAV:   1    -0.101566374882E+02    0.44462E-02   -0.34805E+00  1768   0.998E+00    0.692E-02
DAV:   2    -0.101609831914E+02   -0.43457E-02   -0.43650E-02  2024   0.124E+00    0.234E-02
DAV:   3    -0.101610955058E+02   -0.11231E-03   -0.11422E-03  2120   0.207E-01    0.181E-02
DAV:   4    -0.101610997207E+02   -0.42149E-05   -0.52919E-05  2112   0.537E-02    0.827E-03
DAV:   5    -0.101611011611E+02   -0.14404E-05   -0.43739E-06  1912   0.170E-02    0.401E-03
DAV:   6    -0.101611014484E+02   -0.28724E-06   -0.27224E-07  1360   0.412E-03
  28 F= -.10161101E+02 E0= -.10159743E+02  d E =-.271763E-02
       N       E                     dE             d eps       ncg     rms          rms(c)
DAV:   1    -0.101587174559E+02    0.23837E-02   -0.86573E-01  1784   0.494E+00    0.351E-02
DAV:   2    -0.101597592735E+02   -0.10418E-02   -0.10458E-02  2024   0.609E-01    0.117E-02
DAV:   3    -0.101597858823E+02   -0.26609E-04   -0.27068E-04  2128   0.998E-02    0.865E-03
DAV:   4    -0.101597870736E+02   -0.11913E-05   -0.12228E-05  2016   0.242E-02    0.387E-03
DAV:   5    -0.101597874034E+02   -0.32977E-06   -0.80591E-07  1224   0.744E-03
  29 F= -.10159787E+02 E0= -.10158432E+02  d E =-.270992E-02
       N       E                     dE             d eps       ncg     rms          rms(c)
DAV:   1    -0.101510535495E+02    0.87335E-02   -0.70042E+00  1768   0.144E+01    0.102E-01
DAV:   2    -0.101605395869E+02   -0.94860E-02   -0.95068E-02  2064   0.180E+00    0.343E-02
DAV:   3    -0.101607828167E+02   -0.24323E-03   -0.24941E-03  2064   0.304E-01    0.266E-02
DAV:   4    -0.101607887800E+02   -0.59633E-05   -0.11841E-04  2136   0.848E-02    0.115E-02
DAV:   5    -0.101607911498E+02   -0.23698E-05   -0.92618E-06  2024   0.254E-02    0.627E-03
DAV:   6    -0.101607917065E+02   -0.55665E-06   -0.57906E-07  1488   0.643E-03
  30 F= -.10160792E+02 E0= -.10159442E+02  d E =-.269896E-02
       N       E                     dE             d eps       ncg     rms          rms(c)
DAV:   1    -0.101603132244E+02    0.47793E-03   -0.86441E-01  1792   0.486E+00    0.365E-02
DAV:   2    -0.101614474388E+02   -0.11342E-02   -0.11456E-02  1960   0.621E-01    0.119E-02
DAV:   3    -0.101614798843E+02   -0.32446E-04   -0.32061E-04  2152   0.110E-01    0.111E-02
DAV:   4    -0.101614812767E+02   -0.13924E-05   -0.13090E-05  2008   0.244E-02    0.659E-03
DAV:   5    -0.101614819684E+02   -0.69172E-06   -0.18413E-06  1720   0.127E-02
  31 F= -.10161482E+02 E0= -.10160126E+02  d E =-.271164E-02
       N       E                     dE             d eps       ncg     rms          rms(c)
DAV:   1    -0.101560018193E+02    0.54795E-02   -0.34754E+00  1768   0.987E+00    0.763E-02
DAV:   2    -0.101608503604E+02   -0.48485E-02   -0.49046E-02  1976   0.127E+00    0.237E-02
DAV:   3    -0.101609924417E+02   -0.14208E-03   -0.13942E-03  2144   0.231E-01    0.229E-02
DAV:   4    -0.101609977081E+02   -0.52664E-05   -0.57060E-05  2072   0.524E-02    0.142E-02
DAV:   5    -0.101610008600E+02   -0.31519E-05   -0.10823E-05  1768   0.345E-02    0.296E-03
DAV:   6    -0.101610007924E+02    0.67582E-07   -0.80089E-07  1480   0.110E-02
  32 F= -.10161001E+02 E0= -.10159632E+02  d E =-.273679E-02
       N       E                     dE             d eps       ncg     rms          rms(c)
DAV:   1    -0.101587089842E+02    0.22919E-02   -0.86475E-01  1792   0.484E+00    0.370E-02
DAV:   2    -0.101598390507E+02   -0.11301E-02   -0.11404E-02  1984   0.620E-01    0.116E-02
DAV:   3    -0.101598721830E+02   -0.33132E-04   -0.32194E-04  2136   0.110E-01    0.109E-02
DAV:   4    -0.101598738234E+02   -0.16405E-05   -0.12707E-05  2016   0.238E-02    0.654E-03
DAV:   5    -0.101598748246E+02   -0.10012E-05   -0.21110E-06  1736   0.135E-02    0.126E-03
DAV:   6    -0.101598748315E+02   -0.68428E-08   -0.13483E-07  1152   0.415E-03
  33 F= -.10159875E+02 E0= -.10158500E+02  d E =-.274915E-02
       N       E                     dE             d eps       ncg     rms          rms(c)
DAV:   1    -0.101510077318E+02    0.88671E-02   -0.69825E+00  2672   0.138E+01    0.100E-01
DAV:   2    -0.101614456373E+02   -0.10438E-01   -0.10512E-01  3016   0.189E+00    0.279E-02
DAV:   3    -0.101617410563E+02   -0.29542E-03   -0.28236E-03  3176   0.317E-01    0.281E-02
DAV:   4    -0.101617485537E+02   -0.74974E-05   -0.11201E-04  3112   0.711E-02    0.188E-02
DAV:   5    -0.101617503572E+02   -0.18035E-05   -0.15952E-05  2736   0.427E-02    0.306E-03
DAV:   6    -0.101617505185E+02   -0.16122E-06   -0.95091E-07  2360   0.104E-02
  34 F= -.10161751E+02 E0= -.10160389E+02  d E =-.272384E-02
       N       E                     dE             d eps       ncg     rms          rms(c)
DAV:   1    -0.101571151075E+02    0.46352E-02   -0.31972E+00  2496   0.759E+00    0.184E-02
DAV:   2    -0.101614765189E+02   -0.43614E-02   -0.43625E-02  2832   0.986E-01    0.920E-03
DAV:   3    -0.101615908476E+02   -0.11433E-03   -0.11548E-03  3176   0.157E-01    0.799E-03
DAV:   4    -0.101615932231E+02   -0.23755E-05   -0.47019E-05  3032   0.485E-02    0.301E-03
DAV:   5    -0.101615937029E+02   -0.47978E-06   -0.38035E-06  3120   0.185E-02
  35 F= -.10161594E+02 E0= -.10160232E+02  d E =-.272423E-02
       N       E                     dE             d eps       ncg     rms          rms(c)
DAV:   1    -0.101585212354E+02    0.30720E-02   -0.23144E+00  2504   0.603E+00    0.516E-02
DAV:   2    -0.101615067752E+02   -0.29855E-02   -0.29836E-02  2896   0.792E-01    0.118E-02
DAV:   3    -0.101615901755E+02   -0.83400E-04   -0.80010E-04  2912   0.133E-01    0.107E-02
DAV:   4    -0.101615927961E+02   -0.26206E-05   -0.31107E-05  2880   0.348E-02    0.622E-03
DAV:   5    -0.101615933514E+02   -0.55528E-06   -0.20568E-06  2456   0.135E-02
  36 F= -.10161593E+02 E0= -.10160231E+02  d E =-.272429E-02
       N       E                     dE             d eps       ncg     rms          rms(c)
DAV:   1    -0.101572513365E+02    0.43415E-02   -0.31984E+00  2488   0.760E+00    0.518E-02
DAV:   2    -0.101616308674E+02   -0.43795E-02   -0.44125E-02  2896   0.993E-01    0.111E-02
DAV:   3    -0.101617492659E+02   -0.11840E-03   -0.11637E-03  2984   0.160E-01    0.137E-02
DAV:   4    -0.101617516135E+02   -0.23477E-05   -0.42394E-05  2952   0.342E-02    0.107E-02
DAV:   5    -0.101617506346E+02    0.97897E-06   -0.39880E-06  2432   0.218E-02
  37 F= -.10161751E+02 E0= -.10160389E+02  d E =-.272382E-02
       N       E                     dE             d eps       ncg     rms          rms(c)
DAV:   1    -0.101541519894E+02    0.75996E-02   -0.36739E+00  1600   0.104E+01    0.191E-01
DAV:   2    -0.101601768640E+02   -0.60249E-02   -0.61307E-02  2080   0.161E+00    0.725E-02
DAV:   3    -0.101603281014E+02   -0.15124E-03   -0.18027E-03  2056   0.279E-01    0.459E-02
DAV:   4    -0.101603307814E+02   -0.26800E-05   -0.12369E-04  2280   0.823E-02    0.211E-02
DAV:   5    -0.101603312809E+02   -0.49948E-06   -0.79478E-06  2208   0.196E-02
  38 F= -.10160331E+02 E0= -.10158978E+02  d E =-.270746E-02
       N       E                     dE             d eps       ncg     rms          rms(c)
DAV:   1    -0.101613113139E+02   -0.98053E-03   -0.53887E-02  1600   0.107E+00    0.818E-02
DAV:   2    -0.101614197888E+02   -0.10847E-03   -0.14232E-03  2040   0.209E-01    0.377E-02
DAV:   3    -0.101614147910E+02    0.49978E-05   -0.33267E-05  2032   0.344E-02    0.262E-02
DAV:   4    -0.101614124664E+02    0.23246E-05   -0.10596E-05  2168   0.160E-02    0.100E-02
DAV:   5    -0.101614124084E+02    0.58060E-07   -0.94926E-07  1464   0.594E-03
  39 F= -.10161412E+02 E0= -.10160055E+02  d E =-.271572E-02
       N       E                     dE             d eps       ncg     rms          rms(c)
DAV:   1    -0.101602573552E+02    0.11551E-02   -0.21416E-01  1600   0.214E+00    0.166E-01
DAV:   2    -0.101607068513E+02   -0.44950E-03   -0.57656E-03  2072   0.416E-01    0.783E-02
DAV:   3    -0.101606937295E+02    0.13122E-04   -0.12828E-04  2000   0.675E-02    0.544E-02
DAV:   4    -0.101606898515E+02    0.38780E-05   -0.42105E-05  2176   0.319E-02    0.193E-02
DAV:   5    -0.101606900185E+02   -0.16707E-06   -0.41081E-06  2056   0.118E-02
  40 F= -.10160690E+02 E0= -.10159324E+02  d E =-.273284E-02
       N       E                     dE             d eps       ncg     rms          rms(c)
DAV:   1    -0.101586692339E+02    0.20206E-02   -0.53210E-02  1600   0.106E+00    0.856E-02
DAV:   2    -0.101587819810E+02   -0.11275E-03   -0.14405E-03  2096   0.208E-01    0.382E-02
DAV:   3    -0.101587782427E+02    0.37383E-05   -0.32006E-05  2008   0.338E-02    0.263E-02
DAV:   4    -0.101587767177E+02    0.15250E-05   -0.10476E-05  2200   0.158E-02    0.974E-03
DAV:   5    -0.101587767360E+02   -0.18302E-07   -0.93080E-07  1448   0.588E-03
  41 F= -.10158777E+02 E0= -.10157407E+02  d E =-.274043E-02
       N       E                     dE             d eps       ncg     rms          rms(c)
DAV:   1    -0.101535121778E+02    0.52645E-02   -0.43466E-01  1600   0.303E+00    0.169E-01
DAV:   2    -0.101544289602E+02   -0.91678E-03   -0.10429E-02  2000   0.563E-01    0.852E-02
DAV:   3    -0.101544322967E+02   -0.33365E-05   -0.18589E-04  2040   0.842E-02    0.592E-02
DAV:   4    -0.101544343399E+02   -0.20433E-05   -0.47192E-05  2112   0.359E-02    0.183E-02
DAV:   5    -0.101544352560E+02   -0.91606E-06   -0.52396E-06  2104   0.132E-02
  42 F= -.10154435E+02 E0= -.10153052E+02  d E =-.276590E-02
       N       E                     dE             d eps       ncg     rms          rms(c)
DAV:   1    -0.101593481652E+02   -0.49138E-02   -0.45614E-02  1600   0.988E-01    0.145E-01
DAV:   2    -0.101594292699E+02   -0.81105E-04   -0.17902E-03  2160   0.240E-01    0.633E-02
DAV:   3    -0.101594102609E+02    0.19009E-04   -0.73573E-05  1904   0.474E-02    0.399E-02
DAV:   4    -0.101594094493E+02    0.81157E-06   -0.29284E-05  2128   0.254E-02    0.177E-02
DAV:   5    -0.101594093773E+02    0.71957E-07   -0.22046E-06  2024   0.869E-03
  43 F= -.10159409E+02 E0= -.10158037E+02  d E =-.274379E-02
       N       E                     dE             d eps       ncg     rms          rms(c)
DAV:   1    -0.101604960702E+02   -0.10866E-02   -0.18318E-01  1600   0.198E+00    0.309E-01
DAV:   2    -0.101608279798E+02   -0.33191E-03   -0.73814E-03  2176   0.489E-01    0.131E-01
DAV:   3    -0.101607428307E+02    0.85149E-04   -0.30980E-04  1896   0.970E-02    0.816E-02
DAV:   4    -0.101607345255E+02    0.83053E-05   -0.12271E-04  2168   0.518E-02    0.365E-02
DAV:   5    -0.101607341989E+02    0.32655E-06   -0.95171E-06  2088   0.180E-02
  44 F= -.10160734E+02 E0= -.10159380E+02  d E =-.270809E-02
       N       E                     dE             d eps       ncg     rms          rms(c)
DAV:   1    -0.101566346905E+02    0.40998E-02   -0.46287E-02  1600   0.100E+00    0.158E-01
DAV:   2    -0.101567233050E+02   -0.88614E-04   -0.19071E-03  2184   0.249E-01    0.692E-02
DAV:   3    -0.101567034319E+02    0.19873E-04   -0.79471E-05  1928   0.492E-02    0.436E-02
DAV:   4    -0.101567031584E+02    0.27353E-06   -0.33155E-05  2168   0.268E-02    0.185E-02
DAV:   5    -0.101567031177E+02    0.40716E-07   -0.26622E-06  2056   0.956E-03
  45 F= -.10156703E+02 E0= -.10155356E+02  d E =-.269438E-02
       N       E                     dE             d eps       ncg     rms          rms(c)
DAV:   1    -0.101607857826E+02   -0.40826E-02   -0.39457E-01  2368   0.293E+00    0.311E-01
DAV:   2    -0.101615626339E+02   -0.77685E-03   -0.12699E-02  3144   0.612E-01    0.152E-01
DAV:   3    -0.101614862904E+02    0.76344E-04   -0.37827E-04  2992   0.112E-01    0.101E-01
DAV:   4    -0.101614677952E+02    0.18495E-04   -0.15677E-04  3208   0.594E-02    0.371E-02
DAV:   5    -0.101614669305E+02    0.86468E-06   -0.13654E-05  3080   0.212E-02    0.144E-02
DAV:   6    -0.101614668952E+02    0.35324E-07   -0.36282E-06  3016   0.103E-02
  46 F= -.10161467E+02 E0= -.10160106E+02  d E =-.272261E-02
       N       E                     dE             d eps       ncg     rms          rms(c)
DAV:   1    -0.101611509434E+02    0.31599E-03   -0.19085E-01  2368   0.175E+00    0.328E-02
DAV:   2    -0.101615261901E+02   -0.37525E-03   -0.37189E-03  2800   0.276E-01    0.198E-02
DAV:   3    -0.101615331728E+02   -0.69827E-05   -0.53506E-05  3232   0.404E-02    0.102E-02
DAV:   4    -0.101615344159E+02   -0.12431E-05   -0.30287E-06  2912   0.992E-03    0.124E-03
DAV:   5    -0.101615344151E+02    0.78899E-09   -0.16114E-07  1912   0.256E-03
  47 F= -.10161534E+02 E0= -.10160172E+02  d E =-.272397E-02
       N       E                     dE             d eps       ncg     rms          rms(c)
DAV:   1    -0.101612530765E+02    0.28134E-03   -0.13903E-01  2472   0.142E+00    0.797E-02
DAV:   2    -0.101615175539E+02   -0.26448E-03   -0.25597E-03  2736   0.222E-01    0.329E-02
DAV:   3    -0.101615293142E+02   -0.11760E-04   -0.37692E-05  2976   0.363E-02    0.149E-02
DAV:   4    -0.101615341612E+02   -0.48471E-05   -0.68974E-06  2872   0.145E-02    0.259E-03
DAV:   5    -0.101615343757E+02   -0.21451E-06   -0.46433E-07  1856   0.417E-03
  48 F= -.10161534E+02 E0= -.10160172E+02  d E =-.272396E-02
       N       E                     dE             d eps       ncg     rms          rms(c)
DAV:   1    -0.101610904028E+02    0.44376E-03   -0.19087E-01  2368   0.175E+00    0.568E-02
DAV:   2    -0.101614600730E+02   -0.36967E-03   -0.37198E-03  2808   0.276E-01    0.173E-02
DAV:   3    -0.101614655150E+02   -0.54419E-05   -0.48065E-05  3120   0.391E-02    0.112E-02
DAV:   4    -0.101614669454E+02   -0.14304E-05   -0.39964E-06  3008   0.112E-02    0.270E-03
DAV:   5    -0.101614671918E+02   -0.24640E-06   -0.55815E-07  1816   0.416E-03
  49 F= -.10161467E+02 E0= -.10160106E+02  d E =-.272279E-02
       N       E                     dE             d eps       ncg     rms          rms(c)
DAV:   1    -0.101521554757E+02    0.93115E-02   -0.10826E+00  1600   0.452E+00    0.398E-01
DAV:   2    -0.101583753847E+02   -0.62199E-02   -0.68042E-02  1904   0.141E+00    0.166E-01
DAV:   3    -0.101582444697E+02    0.13091E-03   -0.12306E-03  2128   0.232E-01    0.115E-01
DAV:   4    -0.101581136050E+02    0.13086E-03   -0.52729E-04  1920   0.121E-01    0.540E-02
DAV:   5    -0.101581279711E+02   -0.14366E-04   -0.14722E-04  2040   0.619E-02    0.251E-02
DAV:   6    -0.101581260103E+02    0.19608E-05   -0.37096E-06  2216   0.130E-02    0.153E-02
DAV:   7    -0.101581244048E+02    0.16055E-05   -0.78978E-06  1776   0.141E-02    0.641E-03
DAV:   8    -0.101581242579E+02    0.14686E-06   -0.16459E-06  1632   0.758E-03
  50 F= -.10158124E+02 E0= -.10156760E+02  d E =-.272842E-02
       N       E                     dE             d eps       ncg     rms          rms(c)
DAV:   1    -0.101595842579E+02   -0.14599E-02   -0.22255E-01  1600   0.196E+00    0.213E-01
DAV:   2    -0.101606591813E+02   -0.10749E-02   -0.11879E-02  1824   0.600E-01    0.772E-02
DAV:   3    -0.101606273568E+02    0.31825E-04   -0.22872E-04  2168   0.977E-02    0.496E-02
DAV:   4    -0.101606042438E+02    0.23113E-04   -0.11404E-04  1832   0.556E-02    0.228E-02
DAV:   5    -0.101606065708E+02   -0.23270E-05   -0.26910E-05  2048   0.278E-02    0.992E-03
DAV:   6    -0.101606062030E+02    0.36785E-06   -0.68818E-07  1416   0.574E-03
  51 F= -.10160606E+02 E0= -.10159243E+02  d E =-.272677E-02
       N       E                     dE             d eps       ncg     rms          rms(c)
DAV:   1    -0.101569679276E+02    0.36386E-02   -0.89003E-01  1600   0.392E+00    0.450E-01
DAV:   2    -0.101612959987E+02   -0.43281E-02   -0.47743E-02  1840   0.120E+00    0.156E-01
DAV:   3    -0.101611643943E+02    0.13160E-03   -0.92580E-04  2184   0.196E-01    0.997E-02
DAV:   4    -0.101610699454E+02    0.94449E-04   -0.47767E-04  1816   0.114E-01    0.453E-02
DAV:   5    -0.101610788893E+02   -0.89439E-05   -0.11070E-04  2016   0.569E-02    0.198E-02
DAV:   6    -0.101610770591E+02    0.18302E-05   -0.36347E-06  2104   0.120E-02    0.111E-02
DAV:   7    -0.101610768146E+02    0.24447E-06   -0.55547E-06  1840   0.121E-02
  52 F= -.10161077E+02 E0= -.10159716E+02  d E =-.272231E-02
       N       E                     dE             d eps       ncg     rms          rms(c)
DAV:   1    -0.101581459113E+02    0.29311E-02   -0.22159E-01  1600   0.195E+00    0.214E-01
DAV:   2    -0.101592326275E+02   -0.10867E-02   -0.11949E-02  1872   0.602E-01    0.775E-02
DAV:   3    -0.101592006564E+02    0.31971E-04   -0.22975E-04  2200   0.974E-02    0.500E-02
DAV:   4    -0.101591779493E+02    0.22707E-04   -0.11611E-04  1824   0.562E-02    0.225E-02
DAV:   5    -0.101591803050E+02   -0.23557E-05   -0.27344E-05  1976   0.281E-02    0.100E-02
DAV:   6    -0.101591799538E+02    0.35120E-06   -0.75900E-07  1488   0.598E-03
  53 F= -.10159180E+02 E0= -.10157820E+02  d E =-.272079E-02
       N       E                     dE             d eps       ncg     rms          rms(c)
DAV:   1    -0.101481154297E+02    0.11065E-01   -0.17816E+00  1600   0.549E+00    0.581E-01
DAV:   2    -0.101568062255E+02   -0.86908E-02   -0.94371E-02  1856   0.168E+00    0.224E-01
DAV:   3    -0.101565689739E+02    0.23725E-03   -0.16998E-03  2208   0.260E-01    0.147E-01
DAV:   4    -0.101563750106E+02    0.19396E-03   -0.10139E-03  1864   0.166E-01    0.633E-02
DAV:   5    -0.101563917684E+02   -0.16758E-04   -0.22068E-04  1936   0.811E-02    0.248E-02
DAV:   6    -0.101563862134E+02    0.55549E-05   -0.82930E-06  2232   0.176E-02    0.137E-02
DAV:   7    -0.101563850156E+02    0.11978E-05   -0.16952E-05  1752   0.208E-02    0.694E-03
DAV:   8    -0.101563851126E+02   -0.96994E-07   -0.25452E-06  1752   0.916E-03
  54 F= -.10156385E+02 E0= -.10155025E+02  d E =-.271966E-02
       N       E                     dE             d eps       ncg     rms          rms(c)
DAV:   1    -0.101596594986E+02   -0.32745E-02   -0.21756E-01  1600   0.199E+00    0.327E-01
DAV:   2    -0.101606155715E+02   -0.95607E-03   -0.12244E-02  1840   0.618E-01    0.649E-02
DAV:   3    -0.101605629759E+02    0.52596E-04   -0.29258E-04  2120   0.106E-01    0.364E-02
DAV:   4    -0.101605429680E+02    0.20008E-04   -0.97747E-05  1872   0.462E-02    0.169E-02
DAV:   5    -0.101605427593E+02    0.20875E-06   -0.10808E-05  2152   0.190E-02    0.138E-02
DAV:   6    -0.101605423239E+02    0.43537E-06   -0.54398E-07  1272   0.473E-03
  55 F= -.10160542E+02 E0= -.10159182E+02  d E =-.272046E-02
       N       E                     dE             d eps       ncg     rms          rms(c)
DAV:   1    -0.101560917261E+02    0.44510E-02   -0.87158E-01  1600   0.396E+00    0.613E-01
DAV:   2    -0.101598561330E+02   -0.37644E-02   -0.48285E-02  1840   0.122E+00    0.133E-01
DAV:   3    -0.101596570763E+02    0.19906E-03   -0.11355E-03  2128   0.209E-01    0.751E-02
DAV:   4    -0.101595847031E+02    0.72373E-04   -0.39274E-04  1864   0.926E-02    0.347E-02
DAV:   5    -0.101595855163E+02   -0.81330E-06   -0.43777E-05  2160   0.382E-02    0.280E-02
DAV:   6    -0.101595845382E+02    0.97811E-06   -0.23769E-06  2072   0.939E-03
  56 F= -.10159585E+02 E0= -.10158219E+02  d E =-.273075E-02
       N       E                     dE             d eps       ncg     rms          rms(c)
DAV:   1    -0.101539478230E+02    0.56377E-02   -0.21845E-01  1600   0.198E+00    0.311E-01
DAV:   2    -0.101548883572E+02   -0.94053E-03   -0.12072E-02  1872   0.613E-01    0.679E-02
DAV:   3    -0.101548386955E+02    0.49662E-04   -0.28601E-04  2120   0.105E-01    0.379E-02
DAV:   4    -0.101548187934E+02    0.19902E-04   -0.10082E-04  1872   0.470E-02    0.170E-02
DAV:   5    -0.101548190451E+02   -0.25167E-06   -0.12045E-05  2160   0.197E-02    0.133E-02
DAV:   6    -0.101548187281E+02    0.31699E-06   -0.56544E-07  1256   0.484E-03
  57 F= -.10154819E+02 E0= -.10153449E+02  d E =-.274037E-02
       N       E                     dE             d eps       ncg     rms          rms(c)
DAV:   1    -0.101538373632E+02    0.98168E-03   -0.17800E+00  2368   0.557E+00    0.791E-01
DAV:   2    -0.101620874984E+02   -0.82501E-02   -0.94592E-02  2616   0.167E+00    0.236E-01
DAV:   3    -0.101618269600E+02    0.26054E-03   -0.19973E-03  3264   0.289E-01    0.152E-01
DAV:   4    -0.101616522278E+02    0.17473E-03   -0.76634E-04  2680   0.134E-01    0.641E-02
DAV:   5    -0.101616646132E+02   -0.12385E-04   -0.15082E-04  3192   0.656E-02    0.283E-02
DAV:   6    -0.101616634801E+02    0.11331E-05   -0.46161E-06  3112   0.135E-02    0.172E-02
DAV:   7    -0.101616635607E+02   -0.80644E-07   -0.46507E-06  3144   0.113E-02
  58 F= -.10161664E+02 E0= -.10160302E+02  d E =-.272255E-02
       N       E                     dE             d eps       ncg     rms          rms(c)
DAV:   1    -0.101580987353E+02    0.35647E-02   -0.80763E-01  2368   0.306E+00    0.991E-02
DAV:   2    -0.101615186138E+02   -0.34199E-02   -0.34488E-02  2520   0.860E-01    0.367E-02
DAV:   3    -0.101615869373E+02   -0.68323E-04   -0.72902E-04  3608   0.133E-01    0.285E-02
DAV:   4    -0.101615864746E+02    0.46266E-06   -0.20191E-05  2680   0.242E-02    0.574E-03
DAV:   5    -0.101615866309E+02   -0.15635E-06   -0.15339E-06  2560   0.740E-03
  59 F= -.10161587E+02 E0= -.10160225E+02  d E =-.272396E-02
       N       E                     dE             d eps       ncg     rms          rms(c)
DAV:   1    -0.101590520058E+02    0.25345E-02   -0.61584E-01  2456   0.250E+00    0.198E-01
DAV:   2    -0.101616228401E+02   -0.25708E-02   -0.27241E-02  2568   0.716E-01    0.120E-01
DAV:   3    -0.101616214926E+02    0.13475E-05   -0.52408E-04  3056   0.122E-01    0.882E-02
DAV:   4    -0.101615864964E+02    0.34996E-04   -0.24463E-04  2760   0.761E-02    0.274E-02
DAV:   5    -0.101615908848E+02   -0.43885E-05   -0.45154E-05  2720   0.342E-02    0.133E-02
DAV:   6    -0.101615872935E+02    0.35913E-05   -0.33844E-06  2800   0.101E-02    0.684E-03
DAV:   7    -0.101615864465E+02    0.84702E-06   -0.81756E-06  2784   0.129E-02
  60 F= -.10161586E+02 E0= -.10160224E+02  d E =-.272394E-02
       N       E                     dE             d eps       ncg     rms          rms(c)
DAV:   1    -0.101581270992E+02    0.34602E-02   -0.81489E-01  2368   0.307E+00    0.236E-01
DAV:   2    -0.101617009826E+02   -0.35739E-02   -0.38026E-02  2560   0.883E-01    0.124E-01
DAV:   3    -0.101617078919E+02   -0.69094E-05   -0.68861E-04  3200   0.146E-01    0.934E-02
DAV:   4    -0.101616597468E+02    0.48145E-04   -0.14545E-04  2760   0.597E-02    0.405E-02
DAV:   5    -0.101616636236E+02   -0.38768E-05   -0.36974E-05  2864   0.279E-02    0.149E-02
DAV:   6    -0.101616639781E+02   -0.35445E-06   -0.53998E-07  1976   0.505E-03
  61 F= -.10161664E+02 E0= -.10160303E+02  d E =-.272252E-02
