       N       E                     dE             d eps       ncg     rms          rms(c)
DAV:   1     0.286689467356E+02    0.28669E+02   -0.80025E+03  3200   0.403E+02
DAV:   2    -0.103405231082E+02   -0.39009E+02   -0.38853E+02  4736   0.550E+01
DAV:   3    -0.108819805505E+02   -0.54146E+00   -0.54142E+00  3392   0.864E+00
DAV:   4    -0.108846180577E+02   -0.26375E-02   -0.26375E-02  6208   0.687E-01
DAV:   5    -0.108846182579E+02   -0.20014E-06   -0.20006E-06  3392   0.626E-03    0.545E+00
DAV:   6    -0.101792859831E+02    0.70533E+00   -0.36916E+00  4576   0.302E+00    0.408E+00
DAV:   7    -0.101617004159E+02    0.17586E-01   -0.59818E-02  4576   0.619E-01    0.230E+00
DAV:   8    -0.101601034678E+02    0.15969E-02   -0.28677E-02  5344   0.452E-01    0.300E-01
DAV:   9    -0.101606222314E+02   -0.51876E-03   -0.28903E-03  4960   0.110E-01    0.145E-01
DAV:  10    -0.101614619510E+02   -0.83972E-03   -0.15913E-03  3840   0.938E-02    0.292E-02
DAV:  11    -0.101615261867E+02   -0.64236E-04   -0.24992E-04  5504   0.371E-02    0.299E-02
DAV:  12    -0.101615463402E+02   -0.20154E-04   -0.32993E-05  3648   0.140E-02    0.152E-02
DAV:  13    -0.101615478780E+02   -0.15378E-05   -0.22334E-06  5632   0.398E-03    0.556E-03
DAV:  14    -0.101615480944E+02   -0.21637E-06   -0.58013E-07  3680   0.180E-03
   1 F= -.10161548E+02 E0= -.10160186E+02  d E =-.272437E-02
 Found     9 degrees of freedom:
 Adding 6 more for cell shape distortion
       N       E                     dE             d eps       ncg     rms          rms(c)
DAV:   1    -0.102587505005E+02   -0.97203E-01   -0.40320E+00  3392   0.883E+00    0.188E+00
DAV:   2    -0.101813023988E+02    0.77448E-01   -0.21478E-01  5248   0.163E+00    0.105E+00
DAV:   3    -0.101561060430E+02    0.25196E-01   -0.50175E-02  4448   0.773E-01    0.334E-01
DAV:   4    -0.101538792412E+02    0.22268E-02   -0.33253E-03  5280   0.180E-01    0.202E-01
DAV:   5    -0.101536348483E+02    0.24439E-03   -0.32685E-04  3904   0.762E-02    0.992E-02
DAV:   6    -0.101535962727E+02    0.38576E-04   -0.77521E-05  4960   0.402E-02    0.151E-02
DAV:   7    -0.101536018650E+02   -0.55924E-05   -0.68081E-06  4352   0.850E-03    0.549E-03
DAV:   8    -0.101536045726E+02   -0.27076E-05   -0.34202E-06  4224   0.452E-03    0.410E-03
DAV:   9    -0.101536047241E+02   -0.15142E-06   -0.12219E-07  4704   0.993E-04
   2 F= -.10153605E+02 E0= -.10152483E+02  d E =-.224405E-02
       N       E                     dE             d eps       ncg     rms          rms(c)
DAV:   1    -0.101858065705E+02   -0.32202E-01   -0.97478E-01  3680   0.416E+00    0.953E-01
DAV:   2    -0.101667147762E+02    0.19092E-01   -0.50898E-02  5024   0.786E-01    0.524E-01
DAV:   3    -0.101608001538E+02    0.59146E-02   -0.12109E-02  4608   0.386E-01    0.169E-01
DAV:   4    -0.101603195121E+02    0.48064E-03   -0.66006E-04  4832   0.816E-02    0.109E-01
DAV:   5    -0.101602587027E+02    0.60809E-04   -0.93179E-05  4448   0.393E-02    0.453E-02
DAV:   6    -0.101602568769E+02    0.18258E-05   -0.12183E-05  4832   0.153E-02    0.799E-03
DAV:   7    -0.101602579257E+02   -0.10488E-05   -0.14602E-06  4512   0.391E-03    0.245E-03
DAV:   8    -0.101602582570E+02   -0.33131E-06   -0.51603E-07  3904   0.190E-03
   3 F= -.10160258E+02 E0= -.10158874E+02  d E =-.276775E-02
       N       E                     dE             d eps       ncg     rms          rms(c)
DAV:   1    -0.102617055536E+02   -0.10145E+00   -0.40392E+00  3744   0.843E+00    0.196E+00
DAV:   2    -0.101839064304E+02    0.77799E-01   -0.20525E-01  4800   0.160E+00    0.108E+00
DAV:   3    -0.101592764322E+02    0.24630E-01   -0.49423E-02  4608   0.792E-01    0.349E-01
DAV:   4    -0.101572270134E+02    0.20494E-02   -0.26677E-03  4800   0.160E-01    0.229E-01
DAV:   5    -0.101569487997E+02    0.27821E-03   -0.43124E-04  4416   0.837E-02    0.871E-02
DAV:   6    -0.101569414747E+02    0.73250E-05   -0.42902E-05  4832   0.278E-02    0.166E-02
DAV:   7    -0.101569456282E+02   -0.41536E-05   -0.56837E-06  4608   0.774E-03    0.480E-03
DAV:   8    -0.101569468408E+02   -0.12125E-05   -0.14997E-06  4128   0.368E-03    0.228E-03
DAV:   9    -0.101569469144E+02   -0.73672E-07   -0.27366E-07  4832   0.128E-03
   4 F= -.10156947E+02 E0= -.10155979E+02  d E =-.193533E-02
       N       E                     dE             d eps       ncg     rms          rms(c)
DAV:   1    -0.101726912285E+02   -0.15744E-01   -0.10617E+00  3840   0.442E+00    0.996E-01
DAV:   2    -0.101524186373E+02    0.20273E-01   -0.52967E-02  4736   0.819E-01    0.553E-01
DAV:   3    -0.101457892017E+02    0.66294E-02   -0.12972E-02  4544   0.409E-01    0.177E-01
DAV:   4    -0.101452213871E+02    0.56781E-03   -0.74493E-04  4960   0.866E-02    0.116E-01
DAV:   5    -0.101451480310E+02    0.73356E-04   -0.12455E-04  4608   0.447E-02    0.432E-02
DAV:   6    -0.101451472699E+02    0.76116E-06   -0.12629E-05  4864   0.144E-02    0.847E-03
DAV:   7    -0.101451483931E+02   -0.11232E-05   -0.15042E-06  4736   0.389E-03    0.245E-03
DAV:   8    -0.101451486484E+02   -0.25527E-06   -0.38329E-07  4224   0.190E-03
   5 F= -.10145149E+02 E0= -.10144475E+02  d E =-.134804E-02
       N       E                     dE             d eps       ncg     rms          rms(c)
DAV:   1    -0.104250673529E+02   -0.27992E+00   -0.97883E+00  3328   0.162E+01    0.342E+00
DAV:   2    -0.102017649955E+02    0.22330E+00   -0.69615E-01  4768   0.289E+00    0.174E+00
DAV:   3    -0.101387728231E+02    0.62992E-01   -0.12410E-01  4352   0.133E+00    0.607E-01
DAV:   4    -0.101298556637E+02    0.89172E-02   -0.13204E-02  5472   0.371E-01    0.324E-01
DAV:   5    -0.101290543910E+02    0.80127E-03   -0.79196E-04  3808   0.135E-01    0.170E-01
DAV:   6    -0.101288355966E+02    0.21879E-03   -0.15513E-04  5120   0.469E-02    0.265E-02
DAV:   7    -0.101288390321E+02   -0.34355E-05   -0.12796E-05  4736   0.147E-02    0.117E-02
DAV:   8    -0.101288425520E+02   -0.35199E-05   -0.37386E-06  4384   0.496E-03    0.464E-03
DAV:   9    -0.101288432101E+02   -0.65812E-06   -0.34421E-07  4768   0.185E-03
   6 F= -.10128843E+02 E0= -.10127506E+02  d E =-.267445E-02
       N       E                     dE             d eps       ncg     rms          rms(c)
DAV:   1    -0.101740897019E+02   -0.45247E-01   -0.90065E-01  4032   0.414E+00    0.102E+00
DAV:   2    -0.101586621981E+02    0.15428E-01   -0.47659E-02  4832   0.790E-01    0.538E-01
DAV:   3    -0.101536540183E+02    0.50082E-02   -0.78650E-03  4576   0.356E-01    0.186E-01
DAV:   4    -0.101529420634E+02    0.71195E-03   -0.98916E-04  5408   0.118E-01    0.855E-02
DAV:   5    -0.101528991492E+02    0.42914E-04   -0.79784E-05  3936   0.492E-02    0.363E-02
DAV:   6    -0.101528966758E+02    0.24734E-05   -0.83361E-06  5312   0.141E-02    0.573E-03
DAV:   7    -0.101528965093E+02    0.16650E-06   -0.98162E-07  4128   0.472E-03
   7 F= -.10152897E+02 E0= -.10151527E+02  d E =-.273910E-02
       N       E                     dE             d eps       ncg     rms          rms(c)
DAV:   1    -0.102397667383E+02   -0.86870E-01   -0.37088E+00  4064   0.838E+00    0.212E+00
DAV:   2    -0.101764071338E+02    0.63360E-01   -0.18399E-01  4704   0.160E+00    0.111E+00
DAV:   3    -0.101556331611E+02    0.20774E-01   -0.31150E-02  4768   0.733E-01    0.360E-01
DAV:   4    -0.101530636089E+02    0.25696E-02   -0.29530E-03  5088   0.194E-01    0.175E-01
DAV:   5    -0.101528656457E+02    0.19796E-03   -0.38781E-04  4448   0.111E-01    0.489E-02
DAV:   6    -0.101528628860E+02    0.27597E-05   -0.23302E-05  5120   0.236E-02    0.110E-02
DAV:   7    -0.101528627943E+02    0.91683E-07   -0.32176E-06  4928   0.870E-03
   8 F= -.10152863E+02 E0= -.10151540E+02  d E =-.264514E-02
       N       E                     dE             d eps       ncg     rms          rms(c)
DAV:   1    -0.101472946538E+02    0.55682E-02   -0.97126E-01  4320   0.438E+00    0.109E+00
DAV:   2    -0.101306547672E+02    0.16640E-01   -0.46215E-02  4576   0.814E-01    0.571E-01
DAV:   3    -0.101251974602E+02    0.54573E-02   -0.81496E-03  4832   0.386E-01    0.177E-01
DAV:   4    -0.101245894768E+02    0.60798E-03   -0.65553E-04  4992   0.996E-02    0.875E-02
DAV:   5    -0.101245414156E+02    0.48061E-04   -0.10408E-04  4608   0.573E-02    0.201E-02
DAV:   6    -0.101245416056E+02   -0.19000E-06   -0.65552E-06  4896   0.126E-02
   9 F= -.10124542E+02 E0= -.10123274E+02  d E =-.253551E-02
       N       E                     dE             d eps       ncg     rms          rms(c)
DAV:   1    -0.104440897627E+02   -0.31955E+00   -0.97753E+00  3360   0.160E+01    0.349E+00
DAV:   2    -0.102149374762E+02    0.22915E+00   -0.75622E-01  5184   0.302E+00    0.171E+00
DAV:   3    -0.101561154749E+02    0.58822E-01   -0.10114E-01  4224   0.134E+00    0.620E-01
DAV:   4    -0.101465407554E+02    0.95747E-02   -0.12178E-02  5536   0.403E-01    0.329E-01
DAV:   5    -0.101456459846E+02    0.89477E-03   -0.74831E-04  3648   0.138E-01    0.145E-01
DAV:   6    -0.101454933863E+02    0.15260E-03   -0.11641E-04  5376   0.457E-02    0.284E-02
DAV:   7    -0.101454962064E+02   -0.28201E-05   -0.12315E-05  4608   0.151E-02    0.915E-03
DAV:   8    -0.101454987001E+02   -0.24937E-05   -0.19097E-06  4960   0.501E-03    0.211E-03
DAV:   9    -0.101454994340E+02   -0.73392E-06   -0.44086E-07  4640   0.175E-03
  10 F= -.10145499E+02 E0= -.10144631E+02  d E =-.173711E-02
       N       E                     dE             d eps       ncg     rms          rms(c)
DAV:   1    -0.101846731599E+02   -0.39174E-01   -0.10852E+00  3936   0.413E+00    0.965E-01
DAV:   2    -0.101627252219E+02    0.21948E-01   -0.64293E-02  5248   0.847E-01    0.529E-01
DAV:   3    -0.101562570858E+02    0.64681E-02   -0.10837E-02  4320   0.387E-01    0.200E-01
DAV:   4    -0.101552198935E+02    0.10372E-02   -0.18494E-03  5632   0.134E-01    0.116E-01
DAV:   5    -0.101551741048E+02    0.45789E-04   -0.64837E-05  3392   0.365E-02    0.659E-02
DAV:   6    -0.101551657510E+02    0.83538E-05   -0.37053E-05  4928   0.234E-02    0.544E-03
DAV:   7    -0.101551664619E+02   -0.71089E-06   -0.21959E-06  4480   0.637E-03
  11 F= -.10155166E+02 E0= -.10154145E+02  d E =-.204224E-02
       N       E                     dE             d eps       ncg     rms          rms(c)
DAV:   1    -0.102851972487E+02   -0.13003E+00   -0.44852E+00  4192   0.834E+00    0.199E+00
DAV:   2    -0.101954614756E+02    0.89736E-01   -0.26485E-01  4896   0.173E+00    0.109E+00
DAV:   3    -0.101687331256E+02    0.26728E-01   -0.45088E-02  4448   0.791E-01    0.408E-01
DAV:   4    -0.101647981849E+02    0.39349E-02   -0.68353E-03  5344   0.260E-01    0.242E-01
DAV:   5    -0.101646021842E+02    0.19600E-03   -0.24986E-04  3680   0.747E-02    0.136E-01
DAV:   6    -0.101645487328E+02    0.53451E-04   -0.10362E-04  4768   0.420E-02    0.102E-02
DAV:   7    -0.101645504411E+02   -0.17083E-05   -0.69707E-06  4672   0.115E-02    0.620E-03
DAV:   8    -0.101645525620E+02   -0.21209E-05   -0.26314E-06  4416   0.444E-03    0.438E-03
DAV:   9    -0.101645524392E+02    0.12286E-06   -0.14343E-07  4640   0.932E-04
  12 F= -.10164552E+02 E0= -.10163179E+02  d E =-.274684E-02
       N       E                     dE             d eps       ncg     rms          rms(c)
DAV:   1    -0.101946761841E+02   -0.30124E-01   -0.11740E+00  3904   0.433E+00    0.101E+00
DAV:   2    -0.101716107102E+02    0.23065E-01   -0.67485E-02  5216   0.889E-01    0.557E-01
DAV:   3    -0.101647728340E+02    0.68379E-02   -0.11293E-02  4256   0.399E-01    0.205E-01
DAV:   4    -0.101637861268E+02    0.98671E-03   -0.16071E-03  5632   0.126E-01    0.120E-01
DAV:   5    -0.101637334419E+02    0.52685E-04   -0.51577E-05  3392   0.338E-02    0.709E-02
DAV:   6    -0.101637166920E+02    0.16750E-04   -0.30513E-05  4992   0.226E-02    0.541E-03
DAV:   7    -0.101637169865E+02   -0.29452E-06   -0.16036E-06  4352   0.559E-03
  13 F= -.10163717E+02 E0= -.10162811E+02  d E =-.181103E-02
       N       E                     dE             d eps       ncg     rms          rms(c)
DAV:   1    -0.103221042720E+02   -0.15839E+00   -0.65504E+00  4480   0.102E+01    0.230E+00
DAV:   2    -0.101997951815E+02    0.12231E+00   -0.31038E-01  4512   0.188E+00    0.123E+00
DAV:   3    -0.101601776051E+02    0.39618E-01   -0.73690E-02  4640   0.931E-01    0.447E-01
DAV:   4    -0.101557574747E+02    0.44201E-02   -0.71682E-03  5120   0.259E-01    0.278E-01
DAV:   5    -0.101553880831E+02    0.36939E-03   -0.53086E-04  3872   0.904E-02    0.122E-01
DAV:   6    -0.101553635283E+02    0.24555E-04   -0.12022E-04  4960   0.413E-02    0.148E-02
DAV:   7    -0.101553746625E+02   -0.11134E-04   -0.11866E-05  4352   0.114E-02    0.580E-03
DAV:   8    -0.101553787629E+02   -0.41004E-05   -0.43570E-06  4448   0.546E-03    0.335E-03
DAV:   9    -0.101553792167E+02   -0.45379E-06   -0.33876E-07  4928   0.142E-03
  14 F= -.10155379E+02 E0= -.10154010E+02  d E =-.273916E-02
       N       E                     dE             d eps       ncg     rms          rms(c)
DAV:   1    -0.101673101621E+02   -0.11931E-01   -0.40080E-01  4736   0.217E+00    0.552E-01
DAV:   2    -0.101627185260E+02    0.45916E-02   -0.76436E-03  4192   0.272E-01    0.299E-01
DAV:   3    -0.101606877954E+02    0.20307E-02   -0.36960E-03  5504   0.147E-01    0.784E-02
DAV:   4    -0.101606170052E+02    0.70790E-04   -0.19290E-04  3808   0.462E-02    0.325E-02
DAV:   5    -0.101606173530E+02   -0.34781E-06   -0.23901E-05  5280   0.146E-02    0.985E-03
DAV:   6    -0.101606195117E+02   -0.21588E-05   -0.26067E-06  4000   0.481E-03    0.322E-03
DAV:   7    -0.101606204189E+02   -0.90719E-06   -0.78618E-07  4672   0.232E-03
  15 F= -.10160620E+02 E0= -.10159175E+02  d E =-.289017E-02
       N       E                     dE             d eps       ncg     rms          rms(c)
DAV:   1    -0.101847225376E+02   -0.24103E-01   -0.16034E+00  4960   0.434E+00    0.109E+00
DAV:   2    -0.101665032960E+02    0.18219E-01   -0.29319E-02  4128   0.531E-01    0.598E-01
DAV:   3    -0.101583587651E+02    0.81445E-02   -0.14729E-02  5440   0.293E-01    0.153E-01
DAV:   4    -0.101580829028E+02    0.27586E-03   -0.79191E-04  3872   0.892E-02    0.622E-02
DAV:   5    -0.101580846066E+02   -0.17038E-05   -0.88776E-05  5280   0.275E-02    0.204E-02
DAV:   6    -0.101580928796E+02   -0.82730E-05   -0.10915E-05  4064   0.968E-03    0.626E-03
DAV:   7    -0.101580964519E+02   -0.35723E-05   -0.32058E-06  4640   0.469E-03    0.274E-03
DAV:   8    -0.101580969809E+02   -0.52899E-06   -0.88283E-07  3872   0.220E-03
  16 F= -.10158097E+02 E0= -.10156968E+02  d E =-.225751E-02
       N       E                     dE             d eps       ncg     rms          rms(c)
DAV:   1    -0.101569697986E+02    0.11267E-02   -0.40095E-01  4928   0.217E+00    0.544E-01
DAV:   2    -0.101524482228E+02    0.45216E-02   -0.72117E-03  4096   0.265E-01    0.299E-01
DAV:   3    -0.101503912265E+02    0.20570E-02   -0.37327E-03  5472   0.152E-01    0.753E-02
DAV:   4    -0.101503216788E+02    0.69548E-04   -0.20000E-04  3904   0.470E-02    0.303E-02
DAV:   5    -0.101503222858E+02   -0.60702E-06   -0.23162E-05  5152   0.141E-02    0.103E-02
DAV:   6    -0.101503244360E+02   -0.21501E-05   -0.28029E-06  3904   0.488E-03    0.318E-03
DAV:   7    -0.101503253727E+02   -0.93674E-06   -0.83797E-07  4768   0.240E-03
  17 F= -.10150325E+02 E0= -.10149465E+02  d E =-.172166E-02
       N       E                     dE             d eps       ncg     rms          rms(c)
DAV:   1    -0.102007741128E+02   -0.50450E-01   -0.29303E+00  7776   0.592E+00    0.144E+00
DAV:   2    -0.101742583218E+02    0.26516E-01   -0.38766E-02  5760   0.672E-01    0.820E-01
DAV:   3    -0.101617181238E+02    0.12540E-01   -0.22428E-02  8768   0.468E-01    0.169E-01
DAV:   4    -0.101615134115E+02    0.20471E-03   -0.92453E-04  5056   0.136E-01    0.761E-02
DAV:   5    -0.101615163290E+02   -0.29175E-05   -0.15055E-04  8320   0.424E-02    0.228E-02
DAV:   6    -0.101615253922E+02   -0.90632E-05   -0.14497E-05  5728   0.119E-02    0.826E-03
DAV:   7    -0.101615293855E+02   -0.39933E-05   -0.36710E-06  7264   0.523E-03    0.332E-03
DAV:   8    -0.101615300545E+02   -0.66896E-06   -0.82955E-07  5856   0.232E-03
  18 F= -.10161530E+02 E0= -.10160180E+02  d E =-.270071E-02
       N       E                     dE             d eps       ncg     rms          rms(c)
DAV:   1    -0.101643592370E+02   -0.28299E-02   -0.10884E+00  7360   0.333E+00    0.471E-01
DAV:   2    -0.101626164653E+02    0.17428E-02   -0.61959E-03  5664   0.302E-01    0.281E-01
DAV:   3    -0.101615544999E+02    0.10620E-02   -0.16087E-03  8992   0.185E-01    0.320E-02
DAV:   4    -0.101615567249E+02   -0.22250E-05   -0.57451E-05  5152   0.316E-02    0.151E-02
DAV:   5    -0.101615582086E+02   -0.14837E-05   -0.66603E-06  8608   0.880E-03    0.237E-03
DAV:   6    -0.101615584549E+02   -0.24626E-06   -0.24005E-07  4736   0.175E-03
  19 F= -.10161558E+02 E0= -.10160197E+02  d E =-.272322E-02
       N       E                     dE             d eps       ncg     rms          rms(c)
DAV:   1    -0.101744717529E+02   -0.12914E-01   -0.89205E-01  7488   0.285E+00    0.938E-01
DAV:   2    -0.101658445082E+02    0.86272E-02   -0.70005E-03  5984   0.317E-01    0.563E-01
DAV:   3    -0.101615482108E+02    0.42963E-02   -0.62809E-03  8480   0.325E-01    0.618E-02
DAV:   4    -0.101615514380E+02   -0.32272E-05   -0.25368E-04  5088   0.604E-02    0.228E-02
DAV:   5    -0.101615572648E+02   -0.58268E-05   -0.13006E-05  8768   0.151E-02    0.556E-03
DAV:   6    -0.101615582544E+02   -0.98955E-06   -0.64083E-07  5312   0.287E-03
  20 F= -.10161558E+02 E0= -.10160197E+02  d E =-.272318E-02
       N       E                     dE             d eps       ncg     rms          rms(c)
DAV:   1    -0.101643577120E+02   -0.28004E-02   -0.11482E+00  7584   0.329E+00    0.469E-01
DAV:   2    -0.101626055029E+02    0.17522E-02   -0.56367E-03  5472   0.287E-01    0.282E-01
DAV:   3    -0.101615276116E+02    0.10779E-02   -0.16995E-03  8992   0.187E-01    0.319E-02
DAV:   4    -0.101615283345E+02   -0.72297E-06   -0.59077E-05  5056   0.311E-02    0.177E-02
DAV:   5    -0.101615298123E+02   -0.14778E-05   -0.88784E-06  8544   0.107E-02    0.239E-03
DAV:   6    -0.101615300567E+02   -0.24442E-06   -0.28448E-07  4768   0.199E-03
  21 F= -.10161530E+02 E0= -.10160180E+02  d E =-.270070E-02
       N       E                     dE             d eps       ncg     rms          rms(c)
DAV:   1    -0.101898666309E+02   -0.28337E-01   -0.27490E+00  7456   0.572E+00    0.134E+00
DAV:   2    -0.101712538779E+02    0.18613E-01   -0.21176E-02  5600   0.546E-01    0.805E-01
DAV:   3    -0.101619571045E+02    0.92968E-02   -0.15707E-02  8832   0.429E-01    0.100E-01
DAV:   4    -0.101619681847E+02   -0.11080E-04   -0.50521E-04  5120   0.809E-02    0.431E-02
DAV:   5    -0.101619882265E+02   -0.20042E-04   -0.32253E-05  8928   0.252E-02    0.104E-02
DAV:   6    -0.101619919082E+02   -0.36817E-05   -0.41986E-06  5600   0.592E-03    0.268E-03
DAV:   7    -0.101619926294E+02   -0.72119E-06   -0.52161E-07  8544   0.219E-03
  22 F= -.10161993E+02 E0= -.10160783E+02  d E =-.241960E-02
       N       E                     dE             d eps       ncg     rms          rms(c)
DAV:   1    -0.101646977547E+02   -0.27058E-02   -0.11599E+00  7520   0.341E+00    0.475E-01
DAV:   2    -0.101627756928E+02    0.19221E-02   -0.66932E-03  5600   0.317E-01    0.283E-01
DAV:   3    -0.101616455284E+02    0.11302E-02   -0.18749E-03  8896   0.187E-01    0.353E-02
DAV:   4    -0.101616498436E+02   -0.43152E-05   -0.62400E-05  5152   0.324E-02    0.151E-02
DAV:   5    -0.101616522571E+02   -0.24136E-05   -0.59162E-06  8672   0.849E-03    0.264E-03
DAV:   6    -0.101616525810E+02   -0.32387E-06   -0.22851E-07  4992   0.165E-03
  23 F= -.10161653E+02 E0= -.10160332E+02  d E =-.264200E-02
       N       E                     dE             d eps       ncg     rms          rms(c)
DAV:   1    -0.101756141212E+02   -0.13962E-01   -0.96360E-01  7200   0.293E+00    0.945E-01
DAV:   2    -0.101662212447E+02    0.93929E-02   -0.80899E-03  5696   0.331E-01    0.567E-01
DAV:   3    -0.101616301014E+02    0.45911E-02   -0.74400E-03  8000   0.345E-01    0.684E-02
DAV:   4    -0.101616442285E+02   -0.14127E-04   -0.33332E-04  5344   0.669E-02    0.214E-02
DAV:   5    -0.101616507641E+02   -0.65356E-05   -0.92341E-06  8768   0.148E-02    0.726E-03
DAV:   6    -0.101616524016E+02   -0.16375E-05   -0.14747E-06  5888   0.379E-03    0.175E-03
DAV:   7    -0.101616526757E+02   -0.27408E-06   -0.20361E-07  6976   0.136E-03
  24 F= -.10161653E+02 E0= -.10160332E+02  d E =-.264203E-02
       N       E                     dE             d eps       ncg     rms          rms(c)
DAV:   1    -0.101649952989E+02   -0.33429E-02   -0.12320E+00  7552   0.338E+00    0.471E-01
DAV:   2    -0.101631438051E+02    0.18515E-02   -0.66735E-03  5600   0.311E-01    0.284E-01
DAV:   3    -0.101619900532E+02    0.11538E-02   -0.20592E-03  8896   0.196E-01    0.355E-02
DAV:   4    -0.101619895916E+02    0.46168E-06   -0.67539E-05  5120   0.321E-02    0.198E-02
DAV:   5    -0.101619921948E+02   -0.26033E-05   -0.84879E-06  8608   0.117E-02    0.290E-03
DAV:   6    -0.101619926140E+02   -0.41920E-06   -0.31047E-07  5248   0.195E-03
  25 F= -.10161993E+02 E0= -.10160783E+02  d E =-.241971E-02
       N       E                     dE             d eps       ncg     rms          rms(c)
DAV:   1    -0.101689140551E+02   -0.69219E-02   -0.49491E+00  3264   0.678E+00    0.905E-01
DAV:   2    -0.101658651401E+02    0.30489E-02   -0.61635E-02  5248   0.896E-01    0.558E-01
DAV:   3    -0.101597885578E+02    0.60766E-02   -0.69587E-03  4640   0.353E-01    0.261E-02
DAV:   4    -0.101597730798E+02    0.15478E-04   -0.34884E-04  4960   0.732E-02    0.160E-02
DAV:   5    -0.101597490735E+02    0.24006E-04   -0.16002E-05  4768   0.111E-02    0.605E-03
DAV:   6    -0.101597349967E+02    0.14077E-04   -0.42427E-06  5120   0.559E-03    0.183E-03
DAV:   7    -0.101597326240E+02    0.23727E-05   -0.30021E-07  3552   0.158E-03    0.888E-04
DAV:   8    -0.101597320695E+02    0.55444E-06   -0.28922E-08  3104   0.527E-04
  26 F= -.10159732E+02 E0= -.10158364E+02  d E =-.273556E-02
       N       E                     dE             d eps       ncg     rms          rms(c)
DAV:   1    -0.101606814036E+02   -0.94878E-03   -0.88186E-01  3200   0.245E+00    0.225E-02
DAV:   2    -0.101610787773E+02   -0.39737E-03   -0.40144E-03  3456   0.176E-01    0.101E-02
DAV:   3    -0.101610833634E+02   -0.45861E-05   -0.48032E-05  5856   0.228E-02    0.543E-03
DAV:   4    -0.101610839177E+02   -0.55427E-06   -0.95200E-07  3648   0.282E-03
  27 F= -.10161084E+02 E0= -.10159719E+02  d E =-.273043E-02
       N       E                     dE             d eps       ncg     rms          rms(c)
DAV:   1    -0.101595095949E+02    0.15738E-02   -0.35477E+00  3200   0.499E+00    0.461E-02
DAV:   2    -0.101610797803E+02   -0.15702E-02   -0.15914E-02  3520   0.352E-01    0.209E-02
DAV:   3    -0.101610978279E+02   -0.18048E-04   -0.18616E-04  5792   0.451E-02    0.114E-02
DAV:   4    -0.101611005395E+02   -0.27116E-05   -0.41296E-06  3712   0.589E-03    0.439E-03
DAV:   5    -0.101611014424E+02   -0.90286E-06   -0.10126E-06  5312   0.276E-03
  28 F= -.10161101E+02 E0= -.10159743E+02  d E =-.271767E-02
       N       E                     dE             d eps       ncg     rms          rms(c)
DAV:   1    -0.101593894044E+02    0.17111E-02   -0.88192E-01  3200   0.247E+00    0.238E-02
DAV:   2    -0.101597820088E+02   -0.39260E-03   -0.39859E-03  3520   0.176E-01    0.104E-02
DAV:   3    -0.101597865762E+02   -0.45674E-05   -0.47163E-05  5792   0.228E-02    0.572E-03
DAV:   4    -0.101597872691E+02   -0.69288E-06   -0.10471E-06  3808   0.296E-03
  29 F= -.10159787E+02 E0= -.10158432E+02  d E =-.270988E-02
       N       E                     dE             d eps       ncg     rms          rms(c)
DAV:   1    -0.101575100063E+02    0.22766E-02   -0.71460E+00  3200   0.721E+00    0.656E-02
DAV:   2    -0.101607497201E+02   -0.32397E-02   -0.32382E-02  3424   0.502E-01    0.286E-02
DAV:   3    -0.101607861707E+02   -0.36451E-04   -0.39686E-04  5824   0.654E-02    0.131E-02
DAV:   4    -0.101607901650E+02   -0.39943E-05   -0.63718E-06  3648   0.777E-03    0.644E-03
DAV:   5    -0.101607916953E+02   -0.15303E-05   -0.16452E-06  5440   0.351E-03    0.181E-03
DAV:   6    -0.101607918408E+02   -0.14541E-06   -0.18204E-07  3584   0.115E-03
  30 F= -.10160792E+02 E0= -.10159442E+02  d E =-.269894E-02
       N       E                     dE             d eps       ncg     rms          rms(c)
DAV:   1    -0.101610621040E+02   -0.27041E-03   -0.88261E-01  3200   0.243E+00    0.240E-02
DAV:   2    -0.101614748185E+02   -0.41271E-03   -0.42796E-03  3456   0.185E-01    0.122E-02
DAV:   3    -0.101614802972E+02   -0.54786E-05   -0.48366E-05  5792   0.238E-02    0.902E-03
DAV:   4    -0.101614816382E+02   -0.13410E-05   -0.16648E-06  3904   0.351E-03    0.169E-03
DAV:   5    -0.101614818795E+02   -0.24135E-06   -0.17515E-07  4992   0.117E-03
  31 F= -.10161482E+02 E0= -.10160126E+02  d E =-.271164E-02
       N       E                     dE             d eps       ncg     rms          rms(c)
DAV:   1    -0.101592914285E+02    0.21902E-02   -0.35506E+00  3200   0.494E+00    0.476E-02
DAV:   2    -0.101609709648E+02   -0.16795E-02   -0.17405E-02  3456   0.373E-01    0.245E-02
DAV:   3    -0.101609935942E+02   -0.22629E-04   -0.19548E-04  5792   0.479E-02    0.181E-02
DAV:   4    -0.101609995145E+02   -0.59203E-05   -0.72140E-06  3744   0.721E-03    0.313E-03
DAV:   5    -0.101610004563E+02   -0.94180E-06   -0.72634E-07  5440   0.236E-03
  32 F= -.10161000E+02 E0= -.10159632E+02  d E =-.273670E-02
       N       E                     dE             d eps       ncg     rms          rms(c)
DAV:   1    -0.101594539793E+02    0.15455E-02   -0.88279E-01  3200   0.242E+00    0.237E-02
DAV:   2    -0.101598667788E+02   -0.41280E-03   -0.42641E-03  3520   0.184E-01    0.119E-02
DAV:   3    -0.101598726004E+02   -0.58215E-05   -0.47320E-05  5792   0.233E-02    0.874E-03
DAV:   4    -0.101598744403E+02   -0.18399E-05   -0.19803E-06  3680   0.379E-03    0.145E-03
DAV:   5    -0.101598747211E+02   -0.28081E-06   -0.19564E-07  5312   0.122E-03
  33 F= -.10159875E+02 E0= -.10158500E+02  d E =-.274911E-02
       N       E                     dE             d eps       ncg     rms          rms(c)
DAV:   1    -0.101583930684E+02    0.14814E-02   -0.71490E+00  4736   0.689E+00    0.567E-02
DAV:   2    -0.101617039395E+02   -0.33109E-02   -0.33457E-02  5344   0.512E-01    0.247E-02
DAV:   3    -0.101617440056E+02   -0.40066E-04   -0.35318E-04  8800   0.607E-02    0.168E-02
DAV:   4    -0.101617493674E+02   -0.53618E-05   -0.80855E-06  5344   0.850E-03    0.359E-03
DAV:   5    -0.101617503121E+02   -0.94472E-06   -0.89516E-07  8320   0.286E-03
  34 F= -.10161750E+02 E0= -.10160388E+02  d E =-.272397E-02
       N       E                     dE             d eps       ncg     rms          rms(c)
DAV:   1    -0.101604406245E+02    0.13087E-02   -0.32744E+00  4736   0.380E+00    0.121E-02
DAV:   2    -0.101615830056E+02   -0.11424E-02   -0.11343E-02  5312   0.239E-01    0.585E-03
DAV:   3    -0.101615932882E+02   -0.10283E-04   -0.10094E-04  8736   0.236E-02    0.154E-03
DAV:   4    -0.101615934227E+02   -0.13452E-06   -0.18040E-07  5344   0.146E-03
  35 F= -.10161593E+02 E0= -.10160231E+02  d E =-.272428E-02
       N       E                     dE             d eps       ncg     rms          rms(c)
DAV:   1    -0.101606958267E+02    0.89746E-03   -0.23669E+00  5088   0.302E+00    0.256E-02
DAV:   2    -0.101615828002E+02   -0.88697E-03   -0.85134E-03  5248   0.194E-01    0.114E-02
DAV:   3    -0.101615926023E+02   -0.98021E-05   -0.80209E-05  7648   0.216E-02    0.355E-03
DAV:   4    -0.101615932875E+02   -0.68521E-06   -0.78914E-07  6144   0.293E-03
  36 F= -.10161593E+02 E0= -.10160231E+02  d E =-.272428E-02
       N       E                     dE             d eps       ncg     rms          rms(c)
DAV:   1    -0.101605972076E+02    0.99539E-03   -0.32756E+00  4736   0.380E+00    0.157E-02
DAV:   2    -0.101617399223E+02   -0.11427E-02   -0.11358E-02  5568   0.239E-01    0.612E-03
DAV:   3    -0.101617502799E+02   -0.10358E-04   -0.96086E-05  8448   0.223E-02    0.317E-03
DAV:   4    -0.101617505833E+02   -0.30336E-06   -0.39453E-07  5664   0.198E-03
  37 F= -.10161751E+02 E0= -.10160389E+02  d E =-.272375E-02
       N       E                     dE             d eps       ncg     rms          rms(c)
DAV:   1    -0.101575245100E+02    0.42258E-02   -0.38393E+00  3200   0.518E+00    0.168E-01
DAV:   2    -0.101603236145E+02   -0.27991E-02   -0.28880E-02  4416   0.579E-01    0.667E-02
DAV:   3    -0.101603300683E+02   -0.64537E-05   -0.31723E-04  5280   0.546E-02    0.397E-02
DAV:   4    -0.101603310035E+02   -0.93525E-06   -0.27168E-05  4544   0.130E-02    0.159E-02
DAV:   5    -0.101603309328E+02    0.70763E-07   -0.25165E-06  4672   0.409E-03
  38 F= -.10160331E+02 E0= -.10158977E+02  d E =-.270740E-02
       N       E                     dE             d eps       ncg     rms          rms(c)
DAV:   1    -0.101614101469E+02   -0.10791E-02   -0.76161E-02  3200   0.536E-01    0.811E-02
DAV:   2    -0.101614200955E+02   -0.99487E-05   -0.45824E-04  5696   0.715E-02    0.328E-02
DAV:   3    -0.101614133351E+02    0.67604E-05   -0.20812E-05  3968   0.100E-02    0.185E-02
DAV:   4    -0.101614123770E+02    0.95817E-06   -0.48673E-06  5472   0.473E-03
  39 F= -.10161412E+02 E0= -.10160055E+02  d E =-.271548E-02
       N       E                     dE             d eps       ncg     rms          rms(c)
DAV:   1    -0.101606615694E+02    0.75177E-03   -0.30313E-01  3200   0.107E+00    0.163E-01
DAV:   2    -0.101607102301E+02   -0.48661E-04   -0.18411E-03  5664   0.143E-01    0.653E-02
DAV:   3    -0.101606904092E+02    0.19821E-04   -0.81228E-05  4032   0.199E-02    0.371E-02
DAV:   4    -0.101606895112E+02    0.89805E-06   -0.20144E-05  5376   0.961E-03    0.172E-02
DAV:   5    -0.101606899533E+02   -0.44216E-06   -0.18246E-06  3680   0.334E-03
  40 F= -.10160690E+02 E0= -.10159324E+02  d E =-.273268E-02
       N       E                     dE             d eps       ncg     rms          rms(c)
DAV:   1    -0.101587726433E+02    0.19169E-02   -0.75452E-02  3200   0.531E-01    0.810E-02
DAV:   2    -0.101587833032E+02   -0.10660E-04   -0.46001E-04  5664   0.714E-02    0.323E-02
DAV:   3    -0.101587773600E+02    0.59432E-05   -0.20850E-05  4032   0.100E-02    0.184E-02
DAV:   4    -0.101587766446E+02    0.71540E-06   -0.52074E-06  5376   0.486E-03
  41 F= -.10158777E+02 E0= -.10157407E+02  d E =-.274011E-02
       N       E                     dE             d eps       ncg     rms          rms(c)
DAV:   1    -0.101542418465E+02    0.45355E-02   -0.61159E-01  3200   0.151E+00    0.175E-01
DAV:   2    -0.101544400530E+02   -0.19821E-03   -0.31154E-03  5536   0.194E-01    0.670E-02
DAV:   3    -0.101544313892E+02    0.86638E-05   -0.84160E-05  4096   0.210E-02    0.372E-02
DAV:   4    -0.101544343115E+02   -0.29223E-05   -0.24498E-05  5440   0.110E-02    0.159E-02
DAV:   5    -0.101544351995E+02   -0.88799E-06   -0.17750E-06  3744   0.347E-03
  42 F= -.10154435E+02 E0= -.10153052E+02  d E =-.276565E-02
       N       E                     dE             d eps       ncg     rms          rms(c)
DAV:   1    -0.101594694856E+02   -0.50352E-02   -0.69270E-02  3200   0.494E-01    0.133E-01
DAV:   2    -0.101594263784E+02    0.43107E-04   -0.82144E-04  5600   0.845E-02    0.605E-02
DAV:   3    -0.101594084567E+02    0.17922E-04   -0.71930E-05  4128   0.178E-02    0.357E-02
DAV:   4    -0.101594091226E+02   -0.66594E-06   -0.16330E-05  5344   0.811E-03    0.161E-02
DAV:   5    -0.101594094841E+02   -0.36151E-06   -0.17516E-06  3840   0.311E-03
  43 F= -.10159409E+02 E0= -.10158038E+02  d E =-.274380E-02
       N       E                     dE             d eps       ncg     rms          rms(c)
DAV:   1    -0.101610145779E+02   -0.16055E-02   -0.27714E-01  3200   0.992E-01    0.277E-01
DAV:   2    -0.101608185152E+02    0.19606E-03   -0.33391E-03  5600   0.171E-01    0.125E-01
DAV:   3    -0.101607336614E+02    0.84854E-04   -0.30195E-04  4096   0.367E-02    0.727E-02
DAV:   4    -0.101607330603E+02    0.60114E-06   -0.64753E-05  5504   0.164E-02    0.331E-02
DAV:   5    -0.101607344163E+02   -0.13560E-05   -0.78989E-06  3872   0.649E-03    0.445E-03
DAV:   6    -0.101607335404E+02    0.87588E-06   -0.16688E-06  4928   0.276E-03
  44 F= -.10160734E+02 E0= -.10159380E+02  d E =-.270808E-02
       N       E                     dE             d eps       ncg     rms          rms(c)
DAV:   1    -0.101567741373E+02    0.39603E-02   -0.69493E-02  3200   0.500E-01    0.141E-01
DAV:   2    -0.101567226198E+02    0.51517E-04   -0.85698E-04  5696   0.864E-02    0.648E-02
DAV:   3    -0.101567017783E+02    0.20842E-04   -0.79245E-05  3904   0.187E-02    0.370E-02
DAV:   4    -0.101567027821E+02   -0.10039E-05   -0.16663E-05  5600   0.838E-03    0.170E-02
DAV:   5    -0.101567032396E+02   -0.45749E-06   -0.21422E-06  3744   0.334E-03
  45 F= -.10156703E+02 E0= -.10155356E+02  d E =-.269435E-02
       N       E                     dE             d eps       ncg     rms          rms(c)
DAV:   1    -0.101616524757E+02   -0.49497E-02   -0.55569E-01  4736   0.147E+00    0.302E-01
DAV:   2    -0.101615674514E+02    0.85024E-04   -0.48721E-03  8736   0.221E-01    0.131E-01
DAV:   3    -0.101614723780E+02    0.95073E-04   -0.32028E-04  5504   0.382E-02    0.746E-02
DAV:   4    -0.101614658474E+02    0.65306E-05   -0.72557E-05  8352   0.178E-02    0.346E-02
DAV:   5    -0.101614667826E+02   -0.93519E-06   -0.76100E-06  5248   0.651E-03
  46 F= -.10161467E+02 E0= -.10160105E+02  d E =-.272261E-02
       N       E                     dE             d eps       ncg     rms          rms(c)
DAV:   1    -0.101614275661E+02    0.38281E-04   -0.25402E-01  4736   0.876E-01    0.297E-02
DAV:   2    -0.101615311597E+02   -0.10359E-03   -0.10072E-03  8384   0.101E-01    0.202E-02
DAV:   3    -0.101615335974E+02   -0.24377E-05   -0.34208E-06  6176   0.494E-03    0.712E-03
DAV:   4    -0.101615343759E+02   -0.77851E-06   -0.96607E-07  7968   0.267E-03
  47 F= -.10161534E+02 E0= -.10160172E+02  d E =-.272399E-02
       N       E                     dE             d eps       ncg     rms          rms(c)
DAV:   1    -0.101614358007E+02    0.97797E-04   -0.18389E-01  5024   0.709E-01    0.693E-02
DAV:   2    -0.101615200304E+02   -0.84230E-04   -0.71839E-04  7104   0.814E-02    0.346E-02
DAV:   3    -0.101615318989E+02   -0.11868E-04   -0.16651E-05  6400   0.107E-02    0.924E-03
DAV:   4    -0.101615342583E+02   -0.23594E-05   -0.25501E-06  7392   0.444E-03    0.204E-03
DAV:   5    -0.101615344143E+02   -0.15597E-06   -0.29770E-07  5024   0.136E-03
  48 F= -.10161534E+02 E0= -.10160172E+02  d E =-.272400E-02
       N       E                     dE             d eps       ncg     rms          rms(c)
DAV:   1    -0.101613630110E+02    0.17125E-03   -0.25423E-01  4928   0.875E-01    0.420E-02
DAV:   2    -0.101614635106E+02   -0.10050E-03   -0.97280E-04  8096   0.983E-02    0.158E-02
DAV:   3    -0.101614659511E+02   -0.24405E-05   -0.25857E-06  6752   0.437E-03    0.751E-03
DAV:   4    -0.101614671566E+02   -0.12055E-05   -0.16418E-06  7520   0.344E-03    0.102E-03
DAV:   5    -0.101614671962E+02   -0.39581E-07   -0.99484E-08  5152   0.846E-04
  49 F= -.10161467E+02 E0= -.10160106E+02  d E =-.272286E-02
       N       E                     dE             d eps       ncg     rms          rms(c)
DAV:   1    -0.101546622327E+02    0.68049E-02   -0.13559E+00  3200   0.226E+00    0.189E-01
DAV:   2    -0.101582401120E+02   -0.35779E-02   -0.41839E-02  5760   0.646E-01    0.864E-02
DAV:   3    -0.101581325407E+02    0.10757E-03   -0.45739E-04  3712   0.502E-02    0.551E-02
DAV:   4    -0.101581253120E+02    0.72287E-05   -0.12330E-04  5696   0.267E-02    0.240E-02
DAV:   5    -0.101581240993E+02    0.12128E-05   -0.15669E-05  3744   0.103E-02    0.664E-03
DAV:   6    -0.101581240641E+02    0.35146E-07   -0.10874E-06  5696   0.333E-03
  50 F= -.10158124E+02 E0= -.10156760E+02  d E =-.272840E-02
       N       E                     dE             d eps       ncg     rms          rms(c)
DAV:   1    -0.101603896924E+02   -0.22656E-02   -0.27652E-01  3200   0.979E-01    0.897E-02
DAV:   2    -0.101606229883E+02   -0.23330E-03   -0.39419E-03  5216   0.195E-01    0.350E-02
DAV:   3    -0.101606063580E+02    0.16630E-04   -0.80170E-05  3808   0.217E-02    0.220E-02
DAV:   4    -0.101606059135E+02    0.44447E-06   -0.13795E-05  5504   0.948E-03    0.107E-02
DAV:   5    -0.101606061721E+02   -0.25856E-06   -0.25579E-06  3840   0.413E-03
  51 F= -.10160606E+02 E0= -.10159243E+02  d E =-.272668E-02
       N       E                     dE             d eps       ncg     rms          rms(c)
DAV:   1    -0.101602166792E+02    0.38923E-03   -0.11055E+00  3200   0.196E+00    0.187E-01
DAV:   2    -0.101611476003E+02   -0.93092E-03   -0.15545E-02  5184   0.388E-01    0.705E-02
DAV:   3    -0.101610785882E+02    0.69012E-04   -0.32100E-04  3872   0.433E-02    0.441E-02
DAV:   4    -0.101610758005E+02    0.27877E-05   -0.55126E-05  5504   0.190E-02    0.213E-02
DAV:   5    -0.101610767419E+02   -0.94139E-06   -0.10581E-05  3936   0.837E-03    0.284E-03
DAV:   6    -0.101610768588E+02   -0.11685E-06   -0.61476E-07  4864   0.247E-03
  52 F= -.10161077E+02 E0= -.10159716E+02  d E =-.272231E-02
       N       E                     dE             d eps       ncg     rms          rms(c)
DAV:   1    -0.101589610613E+02    0.21157E-02   -0.27647E-01  3200   0.977E-01    0.915E-02
DAV:   2    -0.101591954059E+02   -0.23434E-03   -0.38512E-03  5184   0.194E-01    0.359E-02
DAV:   3    -0.101591795389E+02    0.15867E-04   -0.79441E-05  3936   0.216E-02    0.221E-02
DAV:   4    -0.101591795830E+02   -0.44128E-07   -0.12751E-05  5440   0.928E-03    0.106E-02
DAV:   5    -0.101591799669E+02   -0.38384E-06   -0.26328E-06  3936   0.417E-03
  53 F= -.10159180E+02 E0= -.10157820E+02  d E =-.272074E-02
       N       E                     dE             d eps       ncg     rms          rms(c)
DAV:   1    -0.101545426071E+02    0.46370E-02   -0.22066E+00  3200   0.275E+00    0.218E-01
DAV:   2    -0.101565144282E+02   -0.19718E-02   -0.28013E-02  5184   0.528E-01    0.846E-02
DAV:   3    -0.101563871535E+02    0.12727E-03   -0.55882E-04  3936   0.561E-02    0.492E-02
DAV:   4    -0.101563831359E+02    0.40176E-05   -0.79175E-05  5408   0.238E-02    0.242E-02
DAV:   5    -0.101563846330E+02   -0.14971E-05   -0.16684E-05  4000   0.107E-02    0.341E-03
DAV:   6    -0.101563849243E+02   -0.29137E-06   -0.10176E-06  5280   0.316E-03
  54 F= -.10156385E+02 E0= -.10155025E+02  d E =-.271969E-02
       N       E                     dE             d eps       ncg     rms          rms(c)
DAV:   1    -0.101604581085E+02   -0.40735E-02   -0.28141E-01  3200   0.993E-01    0.166E-01
DAV:   2    -0.101605829298E+02   -0.12482E-03   -0.58696E-03  4800   0.222E-01    0.595E-02
DAV:   3    -0.101605478185E+02    0.35111E-04   -0.15861E-04  3968   0.309E-02    0.364E-02
DAV:   4    -0.101605427311E+02    0.50874E-05   -0.24424E-05  5280   0.121E-02    0.198E-02
DAV:   5    -0.101605418709E+02    0.86021E-06   -0.45753E-06  4128   0.500E-03
  55 F= -.10160542E+02 E0= -.10159182E+02  d E =-.272064E-02
       N       E                     dE             d eps       ncg     rms          rms(c)
DAV:   1    -0.101592553153E+02    0.12874E-02   -0.11242E+00  3200   0.198E+00    0.314E-01
DAV:   2    -0.101597258120E+02   -0.47050E-03   -0.23263E-02  4864   0.441E-01    0.116E-01
DAV:   3    -0.101596002105E+02    0.12560E-03   -0.61788E-04  4064   0.610E-02    0.721E-02
DAV:   4    -0.101595851076E+02    0.15103E-04   -0.98343E-05  5312   0.241E-02    0.383E-02
DAV:   5    -0.101595835913E+02    0.15163E-05   -0.17900E-05  3968   0.100E-02    0.467E-03
DAV:   6    -0.101595840391E+02   -0.44774E-06   -0.94786E-07  4992   0.286E-03
  56 F= -.10159584E+02 E0= -.10158219E+02  d E =-.273103E-02
       N       E                     dE             d eps       ncg     rms          rms(c)
DAV:   1    -0.101547379769E+02    0.48456E-02   -0.28051E-01  3200   0.986E-01    0.151E-01
DAV:   2    -0.101548570108E+02   -0.11903E-03   -0.58546E-03  4928   0.220E-01    0.533E-02
DAV:   3    -0.101548238704E+02    0.33140E-04   -0.15650E-04  3936   0.303E-02    0.343E-02
DAV:   4    -0.101548189737E+02    0.48968E-05   -0.26152E-05  5408   0.123E-02    0.189E-02
DAV:   5    -0.101548183717E+02    0.60193E-06   -0.42419E-06  3968   0.494E-03
  57 F= -.10154818E+02 E0= -.10153448E+02  d E =-.274056E-02
       N       E                     dE             d eps       ncg     rms          rms(c)
DAV:   1    -0.101599917832E+02   -0.51728E-02   -0.21890E+00  4736   0.278E+00    0.328E-01
DAV:   2    -0.101618151076E+02   -0.18233E-02   -0.36794E-02  7552   0.571E-01    0.115E-01
DAV:   3    -0.101616745575E+02    0.14055E-03   -0.75382E-04  5760   0.666E-02    0.775E-02
DAV:   4    -0.101616632744E+02    0.11283E-04   -0.14820E-04  8256   0.290E-02    0.376E-02
DAV:   5    -0.101616632447E+02    0.29641E-07   -0.21964E-05  5760   0.111E-02    0.956E-03
DAV:   6    -0.101616637693E+02   -0.52454E-06   -0.13127E-06  7968   0.375E-03
  58 F= -.10161664E+02 E0= -.10160303E+02  d E =-.272247E-02
       N       E                     dE             d eps       ncg     rms          rms(c)
DAV:   1    -0.101605339200E+02    0.11293E-02   -0.94891E-01  4736   0.153E+00    0.389E-02
DAV:   2    -0.101615887992E+02   -0.10549E-02   -0.10678E-02  7744   0.277E-01    0.287E-02
DAV:   3    -0.101615867247E+02    0.20745E-05   -0.20029E-05  6528   0.103E-02    0.126E-02
DAV:   4    -0.101615864470E+02    0.27769E-06   -0.30106E-06  7680   0.476E-03
  59 F= -.10161586E+02 E0= -.10160224E+02  d E =-.272397E-02
       N       E                     dE             d eps       ncg     rms          rms(c)
DAV:   1    -0.101608621552E+02    0.72457E-03   -0.71887E-01  5184   0.125E+00    0.852E-02
DAV:   2    -0.101616012693E+02   -0.73911E-03   -0.78240E-03  6944   0.221E-01    0.525E-02
DAV:   3    -0.101615846247E+02    0.16645E-04   -0.79072E-05  6528   0.200E-02    0.228E-02
DAV:   4    -0.101615862648E+02   -0.16401E-05   -0.10858E-05  7552   0.940E-03    0.650E-03
DAV:   5    -0.101615864142E+02   -0.14943E-06   -0.27503E-06  6304   0.369E-03
  60 F= -.10161586E+02 E0= -.10160224E+02  d E =-.272397E-02
       N       E                     dE             d eps       ncg     rms          rms(c)
DAV:   1    -0.101606357341E+02    0.95053E-03   -0.95895E-01  4736   0.153E+00    0.526E-02
DAV:   2    -0.101616690217E+02   -0.10333E-02   -0.10475E-02  7616   0.274E-01    0.267E-02
DAV:   3    -0.101616636775E+02    0.53442E-05   -0.29683E-05  6528   0.121E-02    0.168E-02
DAV:   4    -0.101616635576E+02    0.11985E-06   -0.12877E-05  7744   0.818E-03    0.460E-03
DAV:   5    -0.101616635871E+02   -0.29437E-07   -0.99285E-07  6112   0.283E-03
  61 F= -.10161664E+02 E0= -.10160302E+02  d E =-.272246E-02
