  55  55   0   0
  0.2301251E+02  0.1218282E-08  0.7661564E-09  0.1373046E-08  0.0000000E+00
   1.0000000000000000E-004
  CAR 
 NEB_refined                             
      9.30539173    -23.66042449  301      1.29446119      1.00000000
    -23.660  0.0000E+00  0.0000E+00
    -23.551  0.0000E+00  0.0000E+00
    -23.441  0.0000E+00  0.0000E+00
    -23.331 -0.4373E-31 -0.4805E-32
    -23.221 -0.2931E-27 -0.3221E-28
    -23.111 -0.1067E-23 -0.1173E-24
    -23.001 -0.2116E-20 -0.2326E-21
    -22.891 -0.2282E-17 -0.2510E-18
    -22.781 -0.1298E-14 -0.1429E-15
    -22.671 -0.4112E-12 -0.4533E-13
    -22.562 -0.7088E-10 -0.7834E-11
    -22.452 -0.6648E-08 -0.7384E-09
    -22.342 -0.3403E-06 -0.3813E-07
    -22.232 -0.9541E-05 -0.1087E-05
    -22.122 -0.1468E-03 -0.1722E-04
    -22.012 -0.1229E-02 -0.1523E-03
    -21.902 -0.5306E-02 -0.7353E-03
    -21.792 -0.8797E-02 -0.1702E-02
    -21.682  0.1596E-01  0.5135E-04
    -21.573  0.1180E+00  0.1302E-01
    -21.463  0.3220E+00  0.4840E-01
    -21.353  0.5496E+00  0.1088E+00
    -21.243  0.6376E+00  0.1788E+00
    -21.133  0.5304E+00  0.2371E+00
    -21.023  0.2975E+00  0.2698E+00
    -20.913  0.8120E-01  0.2787E+00
    -20.803 -0.8736E-02  0.2778E+00
    -20.694 -0.1242E-01  0.2764E+00
    -20.584 -0.3367E-02  0.2760E+00
    -20.474 -0.4253E-03  0.2760E+00
    -20.364 -0.2798E-04  0.2760E+00
    -20.254 -0.9893E-06  0.2760E+00
    -20.144 -0.1902E-07  0.2760E+00
    -20.034 -0.1997E-09  0.2760E+00
    -19.924 -0.1146E-11  0.2760E+00
    -19.814 -0.3597E-14  0.2760E+00
    -19.705  0.0000E+00  0.2760E+00
    -19.595  0.0000E+00  0.2760E+00
    -19.485  0.0000E+00  0.2760E+00
    -19.375  0.0000E+00  0.2760E+00
    -19.265  0.0000E+00  0.2760E+00
    -19.155  0.0000E+00  0.2760E+00
    -19.045  0.0000E+00  0.2760E+00
    -18.935  0.0000E+00  0.2760E+00
    -18.825  0.0000E+00  0.2760E+00
    -18.716  0.0000E+00  0.2760E+00
    -18.606  0.0000E+00  0.2760E+00
    -18.496  0.0000E+00  0.2760E+00
    -18.386  0.0000E+00  0.2760E+00
    -18.276  0.0000E+00  0.2760E+00
    -18.166  0.0000E+00  0.2760E+00
    -18.056  0.0000E+00  0.2760E+00
    -17.946  0.0000E+00  0.2760E+00
    -17.836  0.0000E+00  0.2760E+00
    -17.727  0.0000E+00  0.2760E+00
    -17.617  0.0000E+00  0.2760E+00
    -17.507  0.0000E+00  0.2760E+00
    -17.397  0.0000E+00  0.2760E+00
    -17.287  0.0000E+00  0.2760E+00
    -17.177  0.0000E+00  0.2760E+00
    -17.067  0.0000E+00  0.2760E+00
    -16.957  0.0000E+00  0.2760E+00
    -16.847  0.0000E+00  0.2760E+00
    -16.738  0.0000E+00  0.2760E+00
    -16.628  0.0000E+00  0.2760E+00
    -16.518  0.0000E+00  0.2760E+00
    -16.408  0.0000E+00  0.2760E+00
    -16.298  0.0000E+00  0.2760E+00
    -16.188  0.0000E+00  0.2760E+00
    -16.078  0.0000E+00  0.2760E+00
    -15.968  0.0000E+00  0.2760E+00
    -15.859  0.0000E+00  0.2760E+00
    -15.749  0.0000E+00  0.2760E+00
    -15.639  0.0000E+00  0.2760E+00
    -15.529  0.0000E+00  0.2760E+00
    -15.419  0.0000E+00  0.2760E+00
    -15.309  0.0000E+00  0.2760E+00
    -15.199  0.0000E+00  0.2760E+00
    -15.089  0.0000E+00  0.2760E+00
    -14.979  0.0000E+00  0.2760E+00
    -14.870  0.0000E+00  0.2760E+00
    -14.760  0.0000E+00  0.2760E+00
    -14.650  0.0000E+00  0.2760E+00
    -14.540  0.0000E+00  0.2760E+00
    -14.430  0.0000E+00  0.2760E+00
    -14.320  0.0000E+00  0.2760E+00
    -14.210  0.0000E+00  0.2760E+00
    -14.100  0.0000E+00  0.2760E+00
    -13.990  0.0000E+00  0.2760E+00
    -13.881  0.0000E+00  0.2760E+00
    -13.771  0.0000E+00  0.2760E+00
    -13.661  0.0000E+00  0.2760E+00
    -13.551  0.0000E+00  0.2760E+00
    -13.441  0.0000E+00  0.2760E+00
    -13.331  0.0000E+00  0.2760E+00
    -13.221  0.0000E+00  0.2760E+00
    -13.111  0.0000E+00  0.2760E+00
    -13.001  0.0000E+00  0.2760E+00
    -12.892  0.0000E+00  0.2760E+00
    -12.782  0.0000E+00  0.2760E+00
    -12.672  0.0000E+00  0.2760E+00
    -12.562 -0.4657E-31  0.2760E+00
    -12.452 -0.3109E-27  0.2760E+00
    -12.342 -0.1128E-23  0.2760E+00
    -12.232 -0.2225E-20  0.2760E+00
    -12.122 -0.2388E-17  0.2760E+00
    -12.013 -0.1350E-14  0.2760E+00
    -11.903 -0.4241E-12  0.2760E+00
    -11.793 -0.7218E-10  0.2760E+00
    -11.683 -0.6633E-08  0.2760E+00
    -11.573 -0.3278E-06  0.2760E+00
    -11.463 -0.8640E-05  0.2760E+00
    -11.353 -0.1192E-03  0.2760E+00
    -11.243 -0.8166E-03  0.2759E+00
    -11.133 -0.2237E-02  0.2757E+00
    -11.024  0.1860E-02  0.2759E+00
    -10.914  0.2432E-01  0.2785E+00
    -10.804  0.5368E-01  0.2844E+00
    -10.694  0.5129E-01  0.2901E+00
    -10.584  0.2034E-01  0.2923E+00
    -10.474  0.9960E-04  0.2923E+00
    -10.364 -0.2943E-02  0.2920E+00
    -10.254 -0.2794E-02  0.2917E+00
    -10.144  0.5432E-03  0.2917E+00
    -10.035  0.1879E-01  0.2938E+00
     -9.925  0.5028E-01  0.2993E+00
     -9.815  0.7531E-01  0.3076E+00
     -9.705  0.8371E-01  0.3168E+00
     -9.595  0.8559E-01  0.3262E+00
     -9.485  0.1042E+00  0.3377E+00
     -9.375  0.1305E+00  0.3520E+00
     -9.265  0.1186E+00  0.3650E+00
     -9.155  0.6096E-01  0.3717E+00
     -9.046  0.9919E-02  0.3728E+00
     -8.936 -0.4587E-02  0.3723E+00
     -8.826 -0.2386E-02  0.3721E+00
     -8.716 -0.4239E-03  0.3720E+00
     -8.606 -0.3597E-04  0.3720E+00
     -8.496 -0.1569E-05  0.3720E+00
     -8.386 -0.3618E-07  0.3720E+00
     -8.276 -0.4464E-09  0.3720E+00
     -8.166 -0.2969E-11  0.3720E+00
     -8.057 -0.1069E-13  0.3720E+00
     -7.947 -0.2425E-16  0.3720E+00
     -7.837  0.0000E+00  0.3720E+00
     -7.727  0.0000E+00  0.3720E+00
     -7.617  0.0000E+00  0.3720E+00
     -7.507  0.0000E+00  0.3720E+00
     -7.397  0.0000E+00  0.3720E+00
     -7.287  0.0000E+00  0.3720E+00
     -7.178  0.0000E+00  0.3720E+00
     -7.068  0.0000E+00  0.3720E+00
     -6.958  0.0000E+00  0.3720E+00
     -6.848  0.0000E+00  0.3720E+00
     -6.738  0.0000E+00  0.3720E+00
     -6.628  0.0000E+00  0.3720E+00
     -6.518  0.0000E+00  0.3720E+00
     -6.408  0.0000E+00  0.3720E+00
     -6.298  0.0000E+00  0.3720E+00
     -6.189  0.0000E+00  0.3720E+00
     -6.079  0.0000E+00  0.3720E+00
     -5.969  0.0000E+00  0.3720E+00
     -5.859  0.0000E+00  0.3720E+00
     -5.749  0.0000E+00  0.3720E+00
     -5.639  0.0000E+00  0.3720E+00
     -5.529  0.0000E+00  0.3720E+00
     -5.419  0.0000E+00  0.3720E+00
     -5.309  0.0000E+00  0.3720E+00
     -5.200  0.0000E+00  0.3720E+00
     -5.090  0.0000E+00  0.3720E+00
     -4.980  0.0000E+00  0.3720E+00
     -4.870 -0.1034E-31  0.3720E+00
     -4.760 -0.7821E-28  0.3720E+00
     -4.650 -0.3155E-24  0.3720E+00
     -4.540 -0.6933E-21  0.3720E+00
     -4.430 -0.8298E-18  0.3720E+00
     -4.320 -0.5225E-15  0.3720E+00
     -4.211 -0.1845E-12  0.3720E+00
     -4.101 -0.3520E-10  0.3720E+00
     -3.991 -0.3627E-08  0.3720E+00
     -3.881 -0.2008E-06  0.3720E+00
     -3.771 -0.5912E-05  0.3720E+00
     -3.661 -0.9079E-04  0.3720E+00
     -3.551 -0.6942E-03  0.3719E+00
     -3.441 -0.2271E-02  0.3717E+00
     -3.332 -0.2867E-03  0.3716E+00
     -3.222  0.1768E-01  0.3736E+00
     -3.112  0.5375E-01  0.3795E+00
     -3.002  0.8682E-01  0.3890E+00
     -2.892  0.8591E-01  0.3985E+00
     -2.782  0.4653E-01  0.4036E+00
     -2.672  0.8887E-02  0.4046E+00
     -2.562 -0.2826E-02  0.4042E+00
     -2.452 -0.1790E-02  0.4040E+00
     -2.343 -0.3896E-03  0.4040E+00
     -2.233 -0.2988E-03  0.4040E+00
     -2.123 -0.1335E-02  0.4038E+00
     -2.013 -0.2155E-02  0.4036E+00
     -1.903  0.6348E-02  0.4043E+00
     -1.793  0.3289E-01  0.4079E+00
     -1.683  0.6073E-01  0.4146E+00
     -1.573  0.6914E-01  0.4222E+00
     -1.463  0.6967E-01  0.4298E+00
     -1.354  0.7151E-01  0.4377E+00
     -1.244  0.6216E-01  0.4445E+00
     -1.134  0.4473E-01  0.4494E+00
     -1.024  0.4037E-01  0.4539E+00
     -0.914  0.5155E-01  0.4595E+00
     -0.804  0.5610E-01  0.4657E+00
     -0.694  0.4268E-01  0.4704E+00
     -0.584  0.3966E-01  0.4747E+00
     -0.474  0.7498E-01  0.4830E+00
     -0.365  0.1232E+00  0.4965E+00
     -0.255  0.1367E+00  0.5115E+00
     -0.145  0.1087E+00  0.5235E+00
     -0.035  0.7511E-01  0.5317E+00
      0.075  0.6916E-01  0.5393E+00
      0.185  0.8517E-01  0.5487E+00
      0.295  0.8598E-01  0.5581E+00
      0.405  0.6869E-01  0.5657E+00
      0.515  0.7139E-01  0.5735E+00
      0.624  0.1087E+00  0.5855E+00
      0.734  0.1464E+00  0.6016E+00
      0.844  0.1493E+00  0.6180E+00
      0.954  0.1262E+00  0.6318E+00
      1.064  0.9730E-01  0.6425E+00
      1.174  0.7761E-01  0.6511E+00
      1.284  0.5904E-01  0.6576E+00
      1.394  0.2530E-01  0.6603E+00
      1.503  0.9084E-03  0.6604E+00
      1.613 -0.2875E-02  0.6601E+00
      1.723 -0.9167E-03  0.6600E+00
      1.833 -0.1190E-03  0.6600E+00
      1.943 -0.7616E-05  0.6600E+00
      2.053 -0.2539E-06  0.6600E+00
      2.163 -0.4509E-08  0.6600E+00
      2.273 -0.4311E-10  0.6600E+00
      2.383 -0.2231E-12  0.6600E+00
      2.492 -0.6224E-15  0.6600E+00
      2.602 -0.1707E-29  0.6600E+00
      2.712 -0.8901E-26  0.6600E+00
      2.822 -0.2524E-22  0.6600E+00
      2.932 -0.3890E-19  0.6600E+00
      3.042 -0.3253E-16  0.6600E+00
      3.152 -0.1424E-13  0.6600E+00
      3.262 -0.3458E-11  0.6600E+00
      3.372 -0.4511E-09  0.6600E+00
      3.481 -0.3136E-07  0.6600E+00
      3.591 -0.1148E-05  0.6600E+00
      3.701 -0.2158E-04  0.6600E+00
      3.811 -0.1970E-03  0.6600E+00
      3.921 -0.7299E-03  0.6599E+00
      4.031  0.9384E-04  0.6599E+00
      4.141  0.6944E-02  0.6607E+00
      4.251  0.1559E-01  0.6624E+00
      4.361  0.1277E-01  0.6638E+00
      4.470  0.3242E-02  0.6641E+00
      4.580 -0.7100E-03  0.6641E+00
      4.690 -0.4868E-03  0.6640E+00
      4.800 -0.1034E-03  0.6640E+00
      4.910 -0.2077E-03  0.6640E+00
      5.020 -0.1135E-02  0.6639E+00
      5.130 -0.2157E-02  0.6636E+00
      5.240  0.4855E-02  0.6641E+00
      5.349  0.2914E-01  0.6674E+00
      5.459  0.5565E-01  0.6735E+00
      5.569  0.5733E-01  0.6798E+00
      5.679  0.4241E-01  0.6844E+00
      5.789  0.4284E-01  0.6891E+00
      5.899  0.4911E-01  0.6945E+00
      6.009  0.4273E-01  0.6992E+00
      6.119  0.4852E-01  0.7046E+00
      6.229  0.6765E-01  0.7120E+00
      6.338  0.6843E-01  0.7195E+00
      6.448  0.5668E-01  0.7257E+00
      6.558  0.5820E-01  0.7321E+00
      6.668  0.6879E-01  0.7397E+00
      6.778  0.6905E-01  0.7473E+00
      6.888  0.7108E-01  0.7551E+00
      6.998  0.9320E-01  0.7653E+00
      7.108  0.1054E+00  0.7769E+00
      7.218  0.8058E-01  0.7858E+00
      7.327  0.4341E-01  0.7905E+00
      7.437  0.1526E-01  0.7922E+00
      7.547  0.7245E-03  0.7923E+00
      7.657 -0.1853E-02  0.7921E+00
      7.767 -0.6973E-03  0.7920E+00
      7.877 -0.1064E-03  0.7920E+00
      7.987 -0.7955E-05  0.7920E+00
      8.097 -0.3076E-06  0.7920E+00
      8.207 -0.6291E-08  0.7920E+00
      8.316 -0.6879E-10  0.7920E+00
      8.426 -0.4048E-12  0.7920E+00
      8.536 -0.1285E-14  0.7920E+00
      8.646  0.0000E+00  0.7920E+00
      8.756  0.0000E+00  0.7920E+00
      8.866  0.0000E+00  0.7920E+00
      8.976  0.0000E+00  0.7920E+00
      9.086  0.0000E+00  0.7920E+00
      9.196  0.0000E+00  0.7920E+00
      9.305  0.0000E+00  0.7920E+00
