  19  19   0   0
  0.2504161E+02  0.6834254E-09  0.8835925E-09  0.7880486E-09  0.0000000E+00
   1.0000000000000000E-004
  CAR 
 NEB_bottleneck                          
      9.47555622    -32.08252963  301      1.37478028      1.00000000
    -32.083  0.0000E+00  0.0000E+00
    -31.944  0.0000E+00  0.0000E+00
    -31.805 -0.2063E-33 -0.2858E-34
    -31.667 -0.1789E-28 -0.2478E-29
    -31.528 -0.5896E-24 -0.8167E-25
    -31.390 -0.7375E-20 -0.1022E-20
    -31.251 -0.3414E-16 -0.4731E-17
    -31.113 -0.6021E-13 -0.8345E-14
    -30.974 -0.3999E-10 -0.5548E-11
    -30.836 -0.9838E-08 -0.1368E-08
    -30.697 -0.8781E-06 -0.1230E-06
    -30.559 -0.2709E-04 -0.3876E-05
    -30.420 -0.2472E-03 -0.3811E-04
    -30.282 -0.8120E-04 -0.4936E-04
    -30.143  0.4054E-02  0.5122E-03
    -30.005  0.7904E-02  0.1607E-02
    -29.866  0.3294E-02  0.2063E-02
    -29.728 -0.2349E-03  0.2031E-02
    -29.589 -0.2033E-03  0.2003E-02
    -29.451 -0.1878E-04  0.2000E-02
    -29.312 -0.5306E-06  0.2000E-02
    -29.173 -0.5229E-08  0.2000E-02
    -29.035 -0.1876E-10  0.2000E-02
    -28.896 -0.2498E-13  0.2000E-02
    -28.758 -0.1282E-16  0.2000E-02
    -28.619 -0.5748E-27  0.2000E-02
    -28.481 -0.1385E-22  0.2000E-02
    -28.342 -0.1266E-18  0.2000E-02
    -28.204 -0.4245E-15  0.2000E-02
    -28.065 -0.5485E-12  0.2000E-02
    -27.927 -0.2646E-09  0.2000E-02
    -27.788 -0.4705E-07  0.2000E-02
    -27.650 -0.3002E-05  0.2000E-02
    -27.511 -0.6433E-04  0.1991E-02
    -27.373 -0.3599E-03  0.1941E-02
    -27.234  0.5789E-03  0.2021E-02
    -27.096  0.5620E-02  0.2799E-02
    -26.957  0.8425E-02  0.3967E-02
    -26.819  0.8433E-02  0.5135E-02
    -26.680  0.5933E-02  0.5957E-02
    -26.541  0.7193E-03  0.6056E-02
    -26.403 -0.6870E-03  0.5961E-02
    -26.264  0.2068E-03  0.5990E-02
    -26.126  0.5188E-02  0.6708E-02
    -25.987  0.7584E-02  0.7759E-02
    -25.849  0.2251E-02  0.8071E-02
    -25.710 -0.3554E-03  0.8022E-02
    -25.572 -0.1453E-03  0.8001E-02
    -25.433 -0.1056E-04  0.8000E-02
    -25.295 -0.2448E-06  0.8000E-02
    -25.156 -0.7445E-07  0.8000E-02
    -25.018 -0.4787E-05  0.7999E-02
    -24.879 -0.1079E-03  0.7984E-02
    -24.741 -0.6577E-03  0.7893E-02
    -24.602  0.8687E-03  0.8014E-02
    -24.464  0.1068E-01  0.9493E-02
    -24.325  0.1524E-01  0.1160E-01
    -24.186  0.9713E-02  0.1295E-01
    -24.048  0.6497E-02  0.1385E-01
    -23.909  0.7508E-03  0.1395E-01
    -23.771 -0.9937E-03  0.1382E-01
    -23.632  0.1220E-01  0.1551E-01
    -23.494  0.2952E-01  0.1960E-01
    -23.355  0.1752E-01  0.2202E-01
    -23.217  0.3735E-03  0.2207E-01
    -23.078 -0.7326E-03  0.2197E-01
    -22.940  0.9287E-02  0.2326E-01
    -22.801  0.1670E-01  0.2557E-01
    -22.663  0.1155E-01  0.2717E-01
    -22.524  0.5301E-02  0.2791E-01
    -22.386  0.7697E-02  0.2897E-01
    -22.247  0.2186E-01  0.3200E-01
    -22.109  0.2348E-01  0.3525E-01
    -21.970  0.6847E-02  0.3620E-01
    -21.832 -0.9647E-03  0.3607E-01
    -21.693 -0.9211E-03  0.3594E-01
    -21.554 -0.2683E-02  0.3557E-01
    -21.416  0.3419E-02  0.3604E-01
    -21.277  0.4492E-01  0.4226E-01
    -21.139  0.6615E-01  0.5143E-01
    -21.000  0.2249E-01  0.5454E-01
    -20.862 -0.2348E-02  0.5422E-01
    -20.723 -0.1448E-02  0.5402E-01
    -20.585 -0.1312E-03  0.5400E-01
    -20.446 -0.3853E-05  0.5400E-01
    -20.308 -0.4110E-07  0.5400E-01
    -20.169 -0.1648E-09  0.5400E-01
    -20.031 -0.2515E-12  0.5400E-01
    -19.892 -0.1475E-15  0.5400E-01
    -19.754  0.0000E+00  0.5400E-01
    -19.615  0.0000E+00  0.5400E-01
    -19.477  0.0000E+00  0.5400E-01
    -19.338  0.0000E+00  0.5400E-01
    -19.200  0.0000E+00  0.5400E-01
    -19.061  0.0000E+00  0.5400E-01
    -18.922  0.0000E+00  0.5400E-01
    -18.784  0.0000E+00  0.5400E-01
    -18.645  0.0000E+00  0.5400E-01
    -18.507  0.0000E+00  0.5400E-01
    -18.368  0.0000E+00  0.5400E-01
    -18.230  0.0000E+00  0.5400E-01
    -18.091  0.0000E+00  0.5400E-01
    -17.953  0.0000E+00  0.5400E-01
    -17.814  0.0000E+00  0.5400E-01
    -17.676  0.0000E+00  0.5400E-01
    -17.537  0.0000E+00  0.5400E-01
    -17.399  0.0000E+00  0.5400E-01
    -17.260  0.0000E+00  0.5400E-01
    -17.122  0.0000E+00  0.5400E-01
    -16.983  0.0000E+00  0.5400E-01
    -16.845  0.0000E+00  0.5400E-01
    -16.706  0.0000E+00  0.5400E-01
    -16.568  0.0000E+00  0.5400E-01
    -16.429  0.0000E+00  0.5400E-01
    -16.290  0.0000E+00  0.5400E-01
    -16.152  0.0000E+00  0.5400E-01
    -16.013  0.0000E+00  0.5400E-01
    -15.875  0.0000E+00  0.5400E-01
    -15.736  0.0000E+00  0.5400E-01
    -15.598  0.0000E+00  0.5400E-01
    -15.459  0.0000E+00  0.5400E-01
    -15.321  0.0000E+00  0.5400E-01
    -15.182  0.0000E+00  0.5400E-01
    -15.044  0.0000E+00  0.5400E-01
    -14.905  0.0000E+00  0.5400E-01
    -14.767  0.0000E+00  0.5400E-01
    -14.628 -0.5802E-34  0.5400E-01
    -14.490 -0.5577E-29  0.5400E-01
    -14.351 -0.2039E-24  0.5400E-01
    -14.213 -0.2830E-20  0.5400E-01
    -14.074 -0.1409E-16  0.5400E-01
    -13.935 -0.2858E-13  0.5400E-01
    -13.797 -0.2121E-10  0.5400E-01
    -13.658 -0.5879E-08  0.5400E-01
    -13.520 -0.6016E-06  0.5400E-01
    -13.381 -0.2219E-04  0.5400E-01
    -13.243 -0.2747E-03  0.5396E-01
    -13.104 -0.7571E-03  0.5385E-01
    -12.966  0.3176E-02  0.5429E-01
    -12.827  0.1547E-01  0.5644E-01
    -12.689  0.2241E-01  0.5954E-01
    -12.550  0.2478E-01  0.6297E-01
    -12.412  0.2986E-01  0.6711E-01
    -12.273  0.2482E-01  0.7055E-01
    -12.135  0.1787E-01  0.7303E-01
    -11.996  0.7832E-02  0.7411E-01
    -11.858 -0.1678E-03  0.7409E-01
    -11.719 -0.5584E-03  0.7401E-01
    -11.581 -0.6648E-04  0.7400E-01
    -11.442 -0.2329E-05  0.7400E-01
    -11.303 -0.2856E-07  0.7400E-01
    -11.165 -0.6773E-07  0.7400E-01
    -11.026 -0.3973E-05  0.7400E-01
    -10.888 -0.7761E-04  0.7399E-01
    -10.749 -0.3726E-03  0.7394E-01
    -10.611  0.9175E-03  0.7406E-01
    -10.472  0.6167E-02  0.7492E-01
    -10.334  0.6723E-02  0.7585E-01
    -10.195  0.5379E-02  0.7659E-01
    -10.057  0.7252E-02  0.7760E-01
     -9.918  0.2818E-02  0.7799E-01
     -9.780  0.3217E-02  0.7844E-01
     -9.641  0.9727E-02  0.7978E-01
     -9.503  0.1309E-01  0.8160E-01
     -9.364  0.1298E-01  0.8339E-01
     -9.226  0.1041E-01  0.8484E-01
     -9.087  0.7280E-02  0.8584E-01
     -8.949  0.8411E-02  0.8701E-01
     -8.810  0.1365E-01  0.8890E-01
     -8.671  0.7993E-02  0.9001E-01
     -8.533  0.5254E-03  0.9008E-01
     -8.394 -0.4879E-03  0.9001E-01
     -8.256 -0.8348E-04  0.9000E-01
     -8.117 -0.4002E-05  0.9000E-01
     -7.979 -0.6598E-07  0.9000E-01
     -7.840 -0.3941E-09  0.9000E-01
     -7.702 -0.8710E-12  0.9000E-01
     -7.563 -0.7213E-15  0.9000E-01
     -7.425  0.0000E+00  0.9000E-01
     -7.286  0.0000E+00  0.9000E-01
     -7.148  0.0000E+00  0.9000E-01
     -7.009  0.0000E+00  0.9000E-01
     -6.871  0.0000E+00  0.9000E-01
     -6.732  0.0000E+00  0.9000E-01
     -6.594  0.0000E+00  0.9000E-01
     -6.455  0.0000E+00  0.9000E-01
     -6.317  0.0000E+00  0.9000E-01
     -6.178  0.0000E+00  0.9000E-01
     -6.039  0.0000E+00  0.9000E-01
     -5.901  0.0000E+00  0.9000E-01
     -5.762 -0.8028E-31  0.9000E-01
     -5.624 -0.4235E-26  0.9000E-01
     -5.485 -0.8486E-22  0.9000E-01
     -5.347 -0.6447E-18  0.9000E-01
     -5.208 -0.1792E-14  0.9000E-01
     -5.070 -0.1921E-11  0.9000E-01
     -4.931 -0.7673E-09  0.9000E-01
     -4.793 -0.1125E-06  0.9000E-01
     -4.654 -0.5872E-05  0.9000E-01
     -4.516 -0.1004E-03  0.8999E-01
     -4.377 -0.3834E-03  0.8993E-01
     -4.239  0.1398E-02  0.9013E-01
     -4.100  0.6955E-02  0.9109E-01
     -3.962  0.6210E-02  0.9195E-01
     -3.823  0.8009E-03  0.9206E-01
     -3.685 -0.3945E-03  0.9201E-01
     -3.546 -0.3346E-03  0.9196E-01
     -3.407 -0.8579E-05  0.9196E-01
     -3.269  0.4345E-02  0.9256E-01
     -3.130  0.7858E-02  0.9365E-01
     -2.992  0.3016E-02  0.9407E-01
     -2.853 -0.2770E-03  0.9403E-01
     -2.715 -0.2035E-03  0.9400E-01
     -2.576 -0.2016E-03  0.9397E-01
     -2.438 -0.2833E-03  0.9393E-01
     -2.299  0.2947E-02  0.9434E-01
     -2.161  0.7590E-02  0.9539E-01
     -2.022  0.4347E-02  0.9599E-01
     -1.884  0.4114E-02  0.9656E-01
     -1.745  0.7264E-02  0.9757E-01
     -1.607  0.5453E-02  0.9833E-01
     -1.468  0.7059E-02  0.9930E-01
     -1.330  0.4260E-02  0.9989E-01
     -1.191  0.4940E-02  0.1006E+00
     -1.052  0.1583E-01  0.1028E+00
     -0.914  0.1683E-01  0.1051E+00
     -0.775  0.6228E-02  0.1060E+00
     -0.637  0.6734E-02  0.1069E+00
     -0.498  0.1490E-01  0.1090E+00
     -0.360  0.7699E-02  0.1100E+00
     -0.221  0.5339E-02  0.1108E+00
     -0.083  0.1307E-01  0.1126E+00
      0.056  0.1640E-01  0.1149E+00
      0.194  0.1844E-01  0.1174E+00
      0.333  0.1941E-01  0.1201E+00
      0.471  0.1822E-01  0.1226E+00
      0.610  0.1598E-01  0.1248E+00
      0.748  0.1260E-01  0.1266E+00
      0.887  0.1369E-01  0.1285E+00
      1.025  0.1095E-01  0.1300E+00
      1.164  0.1608E-01  0.1322E+00
      1.302  0.2475E-01  0.1356E+00
      1.441  0.1509E-01  0.1377E+00
      1.580  0.2851E-02  0.1381E+00
      1.718 -0.6511E-03  0.1380E+00
      1.857 -0.2648E-03  0.1380E+00
      1.995 -0.2325E-04  0.1380E+00
      2.134 -0.6781E-06  0.1380E+00
      2.272 -0.6474E-06  0.1380E+00
      2.411 -0.2155E-04  0.1380E+00
      2.549 -0.2192E-03  0.1380E+00
      2.688 -0.1857E-03  0.1379E+00
      2.826  0.3572E-02  0.1384E+00
      2.965  0.7925E-02  0.1395E+00
      3.103  0.3769E-02  0.1401E+00
      3.242 -0.1458E-03  0.1400E+00
      3.380 -0.2307E-03  0.1400E+00
      3.519 -0.2389E-04  0.1400E+00
      3.657 -0.9210E-05  0.1400E+00
      3.796 -0.1268E-03  0.1400E+00
      3.934 -0.3743E-03  0.1399E+00
      4.073  0.1907E-02  0.1402E+00
      4.212  0.7379E-02  0.1412E+00
      4.350  0.5594E-02  0.1420E+00
      4.489  0.4560E-03  0.1421E+00
      4.627 -0.3891E-03  0.1420E+00
      4.766 -0.4438E-03  0.1419E+00
      4.904  0.5314E-04  0.1419E+00
      5.043  0.5823E-02  0.1428E+00
      5.181  0.1317E-01  0.1446E+00
      5.320  0.1349E-01  0.1464E+00
      5.458  0.9102E-02  0.1477E+00
      5.597  0.2024E-02  0.1480E+00
      5.735  0.1362E-02  0.1482E+00
      5.874  0.9965E-02  0.1496E+00
      6.012  0.1310E-01  0.1514E+00
      6.151  0.8494E-02  0.1525E+00
      6.289  0.8027E-02  0.1537E+00
      6.428  0.1119E-01  0.1552E+00
      6.566  0.1353E-01  0.1571E+00
      6.705  0.9289E-02  0.1584E+00
      6.844  0.1354E-01  0.1602E+00
      6.982  0.1278E-01  0.1620E+00
      7.121  0.7981E-02  0.1631E+00
      7.259  0.8909E-02  0.1644E+00
      7.398  0.1188E-01  0.1660E+00
      7.536  0.1122E-01  0.1676E+00
      7.675  0.3820E-02  0.1681E+00
      7.813 -0.3103E-03  0.1680E+00
      7.952 -0.2700E-03  0.1680E+00
      8.090 -0.2778E-04  0.1680E+00
      8.229 -0.8854E-06  0.1680E+00
      8.367 -0.9866E-08  0.1680E+00
      8.506 -0.4003E-10  0.1680E+00
      8.644 -0.6023E-13  0.1680E+00
      8.783 -0.3526E-16  0.1680E+00
      8.921  0.0000E+00  0.1680E+00
      9.060  0.0000E+00  0.1680E+00
      9.199  0.0000E+00  0.1680E+00
      9.337  0.0000E+00  0.1680E+00
      9.476  0.0000E+00  0.1680E+00
