  19  19   0   0
  0.2504161E+02  0.6834254E-09  0.8835925E-09  0.7880486E-09  0.0000000E+00
   1.0000000000000000E-004
  CAR 
 NEB_bottleneck                          
      9.72020435    -24.46042711  301      1.05402166      1.00000000
    -24.460  0.0000E+00  0.0000E+00
    -24.346  0.0000E+00  0.0000E+00
    -24.233  0.0000E+00  0.0000E+00
    -24.119 -0.5922E-31 -0.6747E-32
    -24.005 -0.5087E-27 -0.5797E-28
    -23.891 -0.2276E-23 -0.2594E-24
    -23.777 -0.5301E-20 -0.6043E-21
    -23.663 -0.6425E-17 -0.7326E-18
    -23.549 -0.3915E-14 -0.4468E-15
    -23.435 -0.1271E-11 -0.1453E-12
    -23.321 -0.2133E-09 -0.2445E-10
    -23.207 -0.1841E-07 -0.2123E-08
    -23.093 -0.8100E-06 -0.9441E-07
    -22.979 -0.1782E-04 -0.2125E-05
    -22.865 -0.1873E-03 -0.2346E-04
    -22.751 -0.8106E-03 -0.1158E-03
    -22.637 -0.2519E-03 -0.1445E-03
    -22.524  0.7601E-02  0.7215E-03
    -22.410  0.2028E-01  0.3033E-02
    -22.296  0.1996E-01  0.5307E-02
    -22.182  0.7021E-02  0.6107E-02
    -22.068 -0.1394E-02  0.5948E-02
    -21.954 -0.1326E-02  0.5797E-02
    -21.840  0.6965E-02  0.6591E-02
    -21.726  0.1971E-01  0.8837E-02
    -21.612  0.4824E-01  0.1433E-01
    -21.498  0.1170E+00  0.2766E-01
    -21.384  0.1500E+00  0.4475E-01
    -21.270  0.8135E-01  0.5402E-01
    -21.156  0.9113E-02  0.5505E-01
    -21.042 -0.6565E-02  0.5431E-01
    -20.928 -0.2364E-02  0.5404E-01
    -20.814 -0.3069E-03  0.5400E-01
    -20.701 -0.1870E-04  0.5400E-01
    -20.587 -0.5720E-06  0.5400E-01
    -20.473 -0.8997E-08  0.5400E-01
    -20.359 -0.7350E-10  0.5400E-01
    -20.245 -0.3133E-12  0.5400E-01
    -20.131 -0.7016E-15  0.5400E-01
    -20.017  0.0000E+00  0.5400E-01
    -19.903  0.0000E+00  0.5400E-01
    -19.789  0.0000E+00  0.5400E-01
    -19.675  0.0000E+00  0.5400E-01
    -19.561  0.0000E+00  0.5400E-01
    -19.447  0.0000E+00  0.5400E-01
    -19.333  0.0000E+00  0.5400E-01
    -19.219  0.0000E+00  0.5400E-01
    -19.105  0.0000E+00  0.5400E-01
    -18.992  0.0000E+00  0.5400E-01
    -18.878  0.0000E+00  0.5400E-01
    -18.764  0.0000E+00  0.5400E-01
    -18.650  0.0000E+00  0.5400E-01
    -18.536  0.0000E+00  0.5400E-01
    -18.422  0.0000E+00  0.5400E-01
    -18.308  0.0000E+00  0.5400E-01
    -18.194  0.0000E+00  0.5400E-01
    -18.080  0.0000E+00  0.5400E-01
    -17.966  0.0000E+00  0.5400E-01
    -17.852  0.0000E+00  0.5400E-01
    -17.738  0.0000E+00  0.5400E-01
    -17.624  0.0000E+00  0.5400E-01
    -17.510  0.0000E+00  0.5400E-01
    -17.396  0.0000E+00  0.5400E-01
    -17.282  0.0000E+00  0.5400E-01
    -17.169  0.0000E+00  0.5400E-01
    -17.055  0.0000E+00  0.5400E-01
    -16.941  0.0000E+00  0.5400E-01
    -16.827  0.0000E+00  0.5400E-01
    -16.713  0.0000E+00  0.5400E-01
    -16.599  0.0000E+00  0.5400E-01
    -16.485  0.0000E+00  0.5400E-01
    -16.371  0.0000E+00  0.5400E-01
    -16.257  0.0000E+00  0.5400E-01
    -16.143  0.0000E+00  0.5400E-01
    -16.029  0.0000E+00  0.5400E-01
    -15.915  0.0000E+00  0.5400E-01
    -15.801  0.0000E+00  0.5400E-01
    -15.687  0.0000E+00  0.5400E-01
    -15.573  0.0000E+00  0.5400E-01
    -15.460  0.0000E+00  0.5400E-01
    -15.346  0.0000E+00  0.5400E-01
    -15.232  0.0000E+00  0.5400E-01
    -15.118  0.0000E+00  0.5400E-01
    -15.004  0.0000E+00  0.5400E-01
    -14.890  0.0000E+00  0.5400E-01
    -14.776  0.0000E+00  0.5400E-01
    -14.662  0.0000E+00  0.5400E-01
    -14.548  0.0000E+00  0.5400E-01
    -14.434  0.0000E+00  0.5400E-01
    -14.320  0.0000E+00  0.5400E-01
    -14.206 -0.2464E-29  0.5400E-01
    -14.092 -0.1643E-25  0.5400E-01
    -13.978 -0.5717E-22  0.5400E-01
    -13.864 -0.1037E-18  0.5400E-01
    -13.750 -0.9522E-16  0.5400E-01
    -13.637 -0.4670E-13  0.5400E-01
    -13.523 -0.1190E-10  0.5400E-01
    -13.409 -0.1572E-08  0.5400E-01
    -13.295 -0.1072E-06  0.5400E-01
    -13.181 -0.3728E-05  0.5400E-01
    -13.067 -0.6459E-04  0.5399E-01
    -12.953 -0.5243E-03  0.5393E-01
    -12.839 -0.1591E-02  0.5375E-01
    -12.725  0.1332E-02  0.5390E-01
    -12.611  0.1693E-01  0.5583E-01
    -12.497  0.3650E-01  0.5999E-01
    -12.383  0.4355E-01  0.6495E-01
    -12.269  0.4051E-01  0.6957E-01
    -12.155  0.2869E-01  0.7284E-01
    -12.041  0.1130E-01  0.7412E-01
    -11.928  0.5007E-03  0.7418E-01
    -11.814 -0.1176E-02  0.7405E-01
    -11.700 -0.3724E-03  0.7401E-01
    -11.586 -0.4573E-04  0.7400E-01
    -11.472 -0.2628E-05  0.7400E-01
    -11.358 -0.7453E-07  0.7400E-01
    -11.244 -0.1085E-08  0.7400E-01
    -11.130 -0.1923E-08  0.7400E-01
    -11.016 -0.1111E-06  0.7400E-01
    -10.902 -0.3197E-05  0.7400E-01
    -10.788 -0.4383E-04  0.7399E-01
    -10.674 -0.2552E-03  0.7397E-01
    -10.560 -0.3221E-03  0.7393E-01
    -10.446  0.1957E-02  0.7415E-01
    -10.332  0.6583E-02  0.7490E-01
    -10.218  0.7656E-02  0.7577E-01
    -10.105  0.6968E-02  0.7657E-01
     -9.991  0.7724E-02  0.7745E-01
     -9.877  0.4257E-02  0.7793E-01
     -9.763  0.2617E-03  0.7796E-01
     -9.649  0.2814E-02  0.7828E-01
     -9.535  0.1103E-01  0.7954E-01
     -9.421  0.2120E-01  0.8196E-01
     -9.307  0.2784E-01  0.8513E-01
     -9.193  0.2471E-01  0.8794E-01
     -9.079  0.1448E-01  0.8959E-01
     -8.965  0.4527E-02  0.9011E-01
     -8.851 -0.1894E-03  0.9009E-01
     -8.737 -0.5830E-03  0.9002E-01
     -8.623 -0.1542E-03  0.9000E-01
     -8.509 -0.1679E-04  0.9000E-01
     -8.396 -0.8644E-06  0.9000E-01
     -8.282 -0.2200E-07  0.9000E-01
     -8.168 -0.2824E-09  0.9000E-01
     -8.054 -0.1849E-11  0.9000E-01
     -7.940 -0.6209E-14  0.9000E-01
     -7.826 -0.1169E-16  0.9000E-01
     -7.712  0.0000E+00  0.9000E-01
     -7.598  0.0000E+00  0.9000E-01
     -7.484  0.0000E+00  0.9000E-01
     -7.370  0.0000E+00  0.9000E-01
     -7.256  0.0000E+00  0.9000E-01
     -7.142  0.0000E+00  0.9000E-01
     -7.028  0.0000E+00  0.9000E-01
     -6.914  0.0000E+00  0.9000E-01
     -6.800  0.0000E+00  0.9000E-01
     -6.686  0.0000E+00  0.9000E-01
     -6.573  0.0000E+00  0.9000E-01
     -6.459  0.0000E+00  0.9000E-01
     -6.345  0.0000E+00  0.9000E-01
     -6.231  0.0000E+00  0.9000E-01
     -6.117  0.0000E+00  0.9000E-01
     -6.003  0.0000E+00  0.9000E-01
     -5.889  0.0000E+00  0.9000E-01
     -5.775  0.0000E+00  0.9000E-01
     -5.661  0.0000E+00  0.9000E-01
     -5.547  0.0000E+00  0.9000E-01
     -5.433  0.0000E+00  0.9000E-01
     -5.319  0.0000E+00  0.9000E-01
     -5.205  0.0000E+00  0.9000E-01
     -5.091 -0.7876E-33  0.9000E-01
     -4.977 -0.9013E-29  0.9000E-01
     -4.864 -0.5362E-25  0.9000E-01
     -4.750 -0.1657E-21  0.9000E-01
     -4.636 -0.2656E-18  0.9000E-01
     -4.522 -0.2138E-15  0.9000E-01
     -4.408 -0.9121E-13  0.9000E-01
     -4.294 -0.1999E-10  0.9000E-01
     -4.180 -0.2238E-08  0.9000E-01
     -4.066 -0.1267E-06  0.9000E-01
     -3.952 -0.3555E-05  0.9000E-01
     -3.838 -0.4740E-04  0.8999E-01
     -3.724 -0.2666E-03  0.8996E-01
     -3.610 -0.2999E-03  0.8993E-01
     -3.496  0.2100E-02  0.9017E-01
     -3.382  0.6709E-02  0.9093E-01
     -3.268  0.7679E-02  0.9181E-01
     -3.155  0.7138E-02  0.9262E-01
     -3.041  0.7814E-02  0.9351E-01
     -2.927  0.4419E-02  0.9402E-01
     -2.813  0.4041E-03  0.9406E-01
     -2.699 -0.3998E-03  0.9402E-01
     -2.585 -0.1243E-03  0.9400E-01
     -2.471 -0.1384E-04  0.9400E-01
     -2.357 -0.7099E-06  0.9400E-01
     -2.243 -0.3273E-06  0.9400E-01
     -2.129 -0.7268E-05  0.9400E-01
     -2.015 -0.7955E-04  0.9399E-01
     -1.901 -0.3439E-03  0.9395E-01
     -1.787 -0.4557E-04  0.9395E-01
     -1.673  0.3148E-02  0.9430E-01
     -1.559  0.6929E-02  0.9509E-01
     -1.445  0.6871E-02  0.9588E-01
     -1.332  0.1138E-01  0.9717E-01
     -1.218  0.1989E-01  0.9944E-01
     -1.104  0.1671E-01  0.1013E+00
     -0.990  0.7580E-02  0.1022E+00
     -0.876  0.7778E-02  0.1031E+00
     -0.762  0.1218E-01  0.1045E+00
     -0.648  0.9703E-02  0.1056E+00
     -0.534  0.4148E-02  0.1061E+00
     -0.420  0.5587E-02  0.1067E+00
     -0.306  0.1342E-01  0.1082E+00
     -0.192  0.2248E-01  0.1108E+00
     -0.078  0.2665E-01  0.1138E+00
      0.036  0.2253E-01  0.1164E+00
      0.150  0.1877E-01  0.1185E+00
      0.264  0.1980E-01  0.1208E+00
      0.377  0.2139E-01  0.1232E+00
      0.491  0.2253E-01  0.1258E+00
      0.605  0.2127E-01  0.1282E+00
      0.719  0.1788E-01  0.1302E+00
      0.833  0.2015E-01  0.1325E+00
      0.947  0.2291E-01  0.1352E+00
      1.061  0.1698E-01  0.1371E+00
      1.175  0.7664E-02  0.1380E+00
      1.289  0.1255E-02  0.1381E+00
      1.403 -0.5744E-03  0.1380E+00
      1.517 -0.2946E-03  0.1380E+00
      1.631 -0.4793E-04  0.1380E+00
      1.745 -0.3478E-05  0.1380E+00
      1.859 -0.1219E-06  0.1380E+00
      1.973 -0.2129E-08  0.1380E+00
      2.087 -0.1884E-10  0.1380E+00
      2.200 -0.1559E-11  0.1380E+00
      2.314 -0.2310E-09  0.1380E+00
      2.428 -0.1841E-07  0.1380E+00
      2.542 -0.7358E-06  0.1380E+00
      2.656 -0.1434E-04  0.1380E+00
      2.770 -0.1271E-03  0.1380E+00
      2.884 -0.3980E-03  0.1379E+00
      2.998  0.4853E-03  0.1380E+00
      3.112  0.4759E-02  0.1385E+00
      3.226  0.8094E-02  0.1395E+00
      3.340  0.4796E-02  0.1400E+00
      3.454  0.5029E-03  0.1401E+00
      3.568 -0.3989E-03  0.1400E+00
      3.682 -0.1287E-03  0.1400E+00
      3.796 -0.1464E-04  0.1400E+00
      3.909 -0.2097E-05  0.1400E+00
      4.023 -0.2283E-04  0.1400E+00
      4.137 -0.1722E-03  0.1400E+00
      4.251 -0.4040E-03  0.1399E+00
      4.365  0.1011E-02  0.1400E+00
      4.479  0.5713E-02  0.1407E+00
      4.593  0.7961E-02  0.1416E+00
      4.707  0.3814E-02  0.1420E+00
      4.821  0.2336E-04  0.1420E+00
      4.935 -0.7835E-03  0.1420E+00
      5.049 -0.4385E-03  0.1419E+00
      5.163  0.3411E-02  0.1423E+00
      5.277  0.1120E-01  0.1436E+00
      5.391  0.1378E-01  0.1451E+00
      5.505  0.6928E-02  0.1459E+00
      5.619  0.5714E-03  0.1460E+00
      5.732  0.3143E-02  0.1464E+00
      5.846  0.1122E-01  0.1476E+00
      5.960  0.1412E-01  0.1492E+00
      6.074  0.1339E-01  0.1508E+00
      6.188  0.1537E-01  0.1525E+00
      6.302  0.1109E-01  0.1538E+00
      6.416  0.2265E-02  0.1540E+00
      6.530  0.1094E-02  0.1542E+00
      6.644  0.7640E-02  0.1550E+00
      6.758  0.1237E-01  0.1564E+00
      6.872  0.1040E-01  0.1576E+00
      6.986  0.1047E-01  0.1588E+00
      7.100  0.1542E-01  0.1606E+00
      7.214  0.1596E-01  0.1624E+00
      7.328  0.1503E-01  0.1641E+00
      7.441  0.1204E-01  0.1655E+00
      7.555  0.5436E-02  0.1661E+00
      7.669  0.4965E-02  0.1667E+00
      7.783  0.7546E-02  0.1675E+00
      7.897  0.4359E-02  0.1680E+00
      8.011  0.3529E-03  0.1681E+00
      8.125 -0.3909E-03  0.1680E+00
      8.239 -0.1163E-03  0.1680E+00
      8.353 -0.1257E-04  0.1680E+00
      8.467 -0.6217E-06  0.1680E+00
      8.581 -0.1502E-07  0.1680E+00
      8.695 -0.1821E-09  0.1680E+00
      8.809 -0.1123E-11  0.1680E+00
      8.923 -0.3555E-14  0.1680E+00
      9.037 -0.7795E-17  0.1680E+00
      9.151  0.0000E+00  0.1680E+00
      9.264  0.0000E+00  0.1680E+00
      9.378  0.0000E+00  0.1680E+00
      9.492  0.0000E+00  0.1680E+00
      9.606  0.0000E+00  0.1680E+00
      9.720  0.0000E+00  0.1680E+00
