       N       E                     dE             d eps       ncg     rms          rms(c)
DAV:   1     0.145373749786E+04    0.14537E+04   -0.63011E+04   168   0.166E+03
DAV:   2     0.150505174333E+03   -0.13032E+04   -0.12653E+04   177   0.456E+02
DAV:   3    -0.556243324170E+02   -0.20613E+03   -0.20323E+03   198   0.192E+02
DAV:   4    -0.693966180110E+02   -0.13772E+02   -0.13667E+02   210   0.474E+01
DAV:   5    -0.698904924750E+02   -0.49387E+00   -0.49283E+00   237   0.943E+00    0.141E+01
RMM:   6    -0.652997916267E+02    0.45907E+01   -0.85189E+00   190   0.729E+00    0.895E+00
RMM:   7    -0.650773122675E+02    0.22248E+00   -0.59396E+00   212   0.515E+00    0.677E+00
RMM:   8    -0.649096034861E+02    0.16771E+00   -0.57896E-01   213   0.242E+00    0.446E+00
RMM:   9    -0.651288357087E+02   -0.21923E+00   -0.76535E-01   201   0.227E+00    0.281E+00
RMM:  10    -0.649321214894E+02    0.19671E+00   -0.82485E-02   202   0.121E+00    0.153E+00
RMM:  11    -0.648954818664E+02    0.36640E-01   -0.66827E-02   198   0.682E-01    0.753E-01
RMM:  12    -0.648967018328E+02   -0.12200E-02   -0.35064E-02   229   0.470E-01    0.494E-01
RMM:  13    -0.648962013926E+02    0.50044E-03   -0.46075E-03   220   0.230E-01    0.299E-01
RMM:  14    -0.648979307766E+02   -0.17294E-02   -0.23601E-03   183   0.159E-01    0.143E-01
RMM:  15    -0.648979845729E+02   -0.53796E-04   -0.11910E-03   192   0.114E-01    0.561E-02
RMM:  16    -0.648980628444E+02   -0.78271E-04   -0.50383E-04   225   0.707E-02    0.397E-02
RMM:  17    -0.648980629612E+02   -0.11685E-06   -0.82826E-05   228   0.320E-02    0.336E-02
RMM:  18    -0.648980632136E+02   -0.25238E-06   -0.17214E-05   184   0.135E-02    0.343E-02
RMM:  19    -0.648980642096E+02   -0.99602E-06   -0.30638E-06   130   0.701E-03
   1 F= -.64898064E+02 E0= -.64895604E+02  d E =-.648981E+02
       N       E                     dE             d eps       ncg     rms          rms(c)
DAV:   1    -0.648980583369E+02    0.48767E-05   -0.23999E-05   150   0.167E-02    0.617E-03
RMM:   2    -0.648980589482E+02   -0.61132E-06   -0.38981E-06   144   0.716E-03
   2 F= -.64898059E+02 E0= -.64895579E+02  d E =0.526145E-05
       N       E                     dE             d eps       ncg     rms          rms(c)
DAV:   1    -0.648980588130E+02   -0.47618E-06   -0.44692E-06   129   0.479E-03    0.370E-03
RMM:   2    -0.648980590828E+02   -0.26976E-06   -0.51506E-07    98   0.298E-03
   3 F= -.64898059E+02 E0= -.64895566E+02  d E =-.134622E-06
       N       E                     dE             d eps       ncg     rms          rms(c)
DAV:   1    -0.648980588987E+02   -0.85683E-07   -0.23634E-06   129   0.329E-03    0.185E-03
RMM:   2    -0.648980589440E+02   -0.45320E-07   -0.12619E-07    90   0.170E-03
   4 F= -.64898059E+02 E0= -.64895567E+02  d E =0.138756E-06
       N       E                     dE             d eps       ncg     rms          rms(c)
DAV:   1    -0.648980589101E+02   -0.11416E-07   -0.51090E-07   120   0.176E-03    0.892E-04
RMM:   2    -0.648980589111E+02   -0.94951E-09   -0.25837E-08    66   0.108E-03
   5 F= -.64898059E+02 E0= -.64895566E+02  d E =0.329546E-07
       N       E                     dE             d eps       ncg     rms          rms(c)
DAV:   1    -0.648980588953E+02    0.14870E-07   -0.17576E-07   120   0.111E-03    0.526E-04
RMM:   2    -0.648980588875E+02    0.77725E-08   -0.72788E-09    34   0.748E-04
   6 F= -.64898059E+02 E0= -.64895566E+02  d E =0.235923E-07
       N       E                     dE             d eps       ncg     rms          rms(c)
DAV:   1    -0.648980588856E+02    0.96279E-08   -0.36607E-08   111   0.711E-04    0.343E-04
RMM:   2    -0.648980588826E+02    0.30414E-08   -0.20144E-10    10   0.449E-04
   7 F= -.64898059E+02 E0= -.64895566E+02  d E =0.489672E-08
       N       E                     dE             d eps       ncg     rms          rms(c)
DAV:   1    -0.648980588800E+02    0.55861E-08   -0.17877E-08   111   0.472E-04    0.197E-04
RMM:   2    -0.648980588790E+02    0.10168E-08    0.48829-139     9   0.240E-04
   8 F= -.64898059E+02 E0= -.64895566E+02  d E =0.356158E-08
       N       E                     dE             d eps       ncg     rms          rms(c)
DAV:   1    -0.648980588789E+02    0.11005E-08   -0.43935E-09    93   0.246E-04    0.150E-04
RMM:   2    -0.648980588780E+02    0.93496E-09    0.00000E+00     7   0.194E-04
   9 F= -.64898059E+02 E0= -.64895566E+02  d E =0.101863E-08
       N       E                     dE             d eps       ncg     rms          rms(c)
DAV:   1    -0.648980588772E+02    0.17244E-08   -0.36937E-09    93   0.208E-04    0.849E-05
RMM:   2    -0.648980588772E+02    0.36380E-10    0.00000E+00     7   0.122E-04
  10 F= -.64898059E+02 E0= -.64895565E+02  d E =0.825821E-09
       N       E                     dE             d eps       ncg     rms          rms(c)
DAV:   1    -0.648980588773E+02   -0.41837E-10   -0.86603E-10    93   0.126E-04    0.733E-05
RMM:   2    -0.648980588764E+02    0.82400E-09    0.00000E+00     7   0.108E-04
  11 F= -.64898059E+02 E0= -.64895566E+02  d E =0.745786E-09
       N       E                     dE             d eps       ncg     rms          rms(c)
DAV:   1    -0.648980588764E+02    0.83492E-09   -0.95460E-10    93   0.114E-04    0.404E-05
RMM:   2    -0.648980588762E+02    0.21828E-09    0.00000E+00     7   0.705E-05
  12 F= -.64898059E+02 E0= -.64895565E+02  d E =0.229193E-09
       N       E                     dE             d eps       ncg     rms          rms(c)
DAV:   1    -0.648980588765E+02   -0.41837E-10   -0.22386E-10    93   0.727E-05    0.333E-05
RMM:   2    -0.648980588758E+02    0.66393E-09    0.00000E+00     5   0.622E-05
  13 F= -.64898059E+02 E0= -.64895565E+02  d E =0.403816E-09
       N       E                     dE             d eps       ncg     rms          rms(c)
DAV:   1    -0.648980588755E+02    0.10186E-08   -0.25118E-10    93   0.653E-05    0.205E-05
RMM:   2    -0.648980588758E+02   -0.35470E-09    0.00000E+00     5   0.422E-05
  14 F= -.64898059E+02 E0= -.64895565E+02  d E =0.000000E+00
       N       E                     dE             d eps       ncg     rms          rms(c)
DAV:   1    -0.648980588762E+02   -0.73487E-09   -0.14008E-10    90   0.436E-05    0.189E-05
RMM:   2    -0.648980588757E+02    0.47476E-09    0.00000E+00     4   0.380E-05
  15 F= -.64898059E+02 E0= -.64895565E+02  d E =0.945874E-10
       N       E                     dE             d eps       ncg     rms          rms(c)
DAV:   1    -0.648980588753E+02    0.91313E-09   -0.67638E-11    93   0.395E-05    0.120E-05
RMM:   2    -0.648980588757E+02   -0.42382E-09    0.00000E+00     2   0.259E-05
  16 F= -.64898059E+02 E0= -.64895565E+02  d E =0.145519E-10
       N       E                     dE             d eps       ncg     rms          rms(c)
DAV:   1    -0.648980588758E+02   -0.55843E-09   -0.13908E-10    90   0.268E-05    0.107E-05
RMM:   2    -0.648980588755E+02    0.30195E-09    0.00000E+00     2   0.232E-05
  17 F= -.64898059E+02 E0= -.64895565E+02  d E =0.167347E-09
       N       E                     dE             d eps       ncg     rms          rms(c)
DAV:   1    -0.648980588755E+02    0.32014E-09   -0.13197E-11    93   0.240E-05    0.719E-06
RMM:   2    -0.648980588755E+02   -0.54570E-11    0.00000E+00     2   0.162E-05
  18 F= -.64898059E+02 E0= -.64895565E+02  d E =0.127329E-10
       N       E                     dE             d eps       ncg     rms          rms(c)
DAV:   1    -0.648980588755E+02   -0.10914E-10    0.96219E-12    90   0.169E-05    0.607E-06
RMM:   2    -0.648980588754E+02    0.16189E-09    0.00000E+00     2   0.145E-05
  19 F= -.64898059E+02 E0= -.64895565E+02  d E =0.156433E-09
       N       E                     dE             d eps       ncg     rms          rms(c)
DAV:   1    -0.648980588751E+02    0.38017E-09   -0.60930E-11    93   0.150E-05    0.433E-06
RMM:   2    -0.648980588754E+02   -0.25102E-09    0.00000E+00     2   0.105E-05
  20 F= -.64898059E+02 E0= -.64895565E+02  d E =-.327418E-10
       N       E                     dE             d eps       ncg     rms          rms(c)
DAV:   1    -0.648980588750E+02    0.18008E-09   -0.18205E-11    90   0.109E-05    0.325E-06
RMM:   2    -0.648980588755E+02   -0.49295E-09    0.00000E+00     2   0.905E-06
  21 F= -.64898059E+02 E0= -.64895565E+02  d E =-.618456E-10
       N       E                     dE             d eps       ncg     rms          rms(c)
DAV:   1    -0.648980588756E+02   -0.58753E-09   -0.10031E-10    93   0.933E-06    0.279E-06
RMM:   2    -0.648980588755E+02    0.94587E-10    0.00000E+00     2   0.667E-06
  22 F= -.64898059E+02 E0= -.64895565E+02  d E =0.000000E+00
       N       E                     dE             d eps       ncg     rms          rms(c)
DAV:   1    -0.648980588755E+02    0.83674E-10    0.53509E-11    93   0.695E-06    0.188E-06
RMM:   2    -0.648980588753E+02    0.20918E-09    0.00000E+00     2   0.565E-06
  23 F= -.64898059E+02 E0= -.64895565E+02  d E =0.198270E-09
       N       E                     dE             d eps       ncg     rms          rms(c)
DAV:   1    -0.648980588752E+02    0.30923E-09    0.47147E-11    93   0.582E-06    0.146E-06
RMM:   2    -0.648980588754E+02   -0.21282E-09    0.00000E+00     2   0.411E-06
  24 F= -.64898059E+02 E0= -.64895565E+02  d E =-.112777E-09
       N       E                     dE             d eps       ncg     rms          rms(c)
DAV:   1    -0.648980588750E+02    0.16917E-09   -0.43899E-11    93   0.429E-06    0.106E-06
RMM:   2    -0.648980588752E+02   -0.25284E-09    0.00000E+00     2   0.357E-06
  25 F= -.64898059E+02 E0= -.64895565E+02  d E =0.129148E-09
       N       E                     dE             d eps       ncg     rms          rms(c)
DAV:   1    -0.648980588757E+02   -0.69849E-09   -0.99557E-11    93   0.367E-06    0.868E-07
RMM:   2    -0.648980588754E+02    0.32378E-09    0.00000E+00     2   0.263E-06
  26 F= -.64898059E+02 E0= -.64895565E+02  d E =-.121872E-09
       N       E                     dE             d eps       ncg     rms          rms(c)
DAV:   1    -0.648980588752E+02    0.51477E-09   -0.10151E-10    93   0.274E-06    0.634E-07
RMM:   2    -0.648980588753E+02   -0.11278E-09    0.00000E+00     2   0.227E-06
  27 F= -.64898059E+02 E0= -.64895565E+02  d E =0.782165E-10
       N       E                     dE             d eps       ncg     rms          rms(c)
DAV:   1    -0.648980588743E+02    0.82582E-09   -0.21888E-11    84   0.233E-06    0.550E-07
RMM:   2    -0.648980588754E+02   -0.10677E-08    0.00000E+00     2   0.169E-06
  28 F= -.64898059E+02 E0= -.64895565E+02  d E =-.129148E-09
       N       E                     dE             d eps       ncg     rms          rms(c)
DAV:   1    -0.648980588747E+02   -0.35288E-09   -0.14288E-10    84   0.176E-06    0.394E-07
RMM:   2    -0.648980588754E+02   -0.65666E-09    0.00000E+00     1   0.145E-06
  29 F= -.64898059E+02 E0= -.64895565E+02  d E =0.582077E-10
       N       E                     dE             d eps       ncg     rms          rms(c)
DAV:   1    -0.648980588753E+02   -0.57480E-09   -0.28893E-11    84   0.149E-06    0.378E-07
RMM:   2    -0.648980588753E+02    0.18190E-10    0.00000E+00     2   0.108E-06
  30 F= -.64898059E+02 E0= -.64895565E+02  d E =0.100044E-09
       N       E                     dE             d eps       ncg     rms          rms(c)
DAV:   1    -0.648980588753E+02   -0.41837E-10   -0.10065E-10    84   0.112E-06    0.257E-07
RMM:   2    -0.648980588753E+02    0.18190E-10    0.00000E+00     1   0.923E-07
  31 F= -.64898059E+02 E0= -.64895565E+02  d E =-.418368E-10
       N       E                     dE             d eps       ncg     rms          rms(c)
DAV:   1    -0.648980588748E+02    0.54388E-09   -0.10097E-10    84   0.946E-07    0.242E-07
RMM:   2    -0.648980588752E+02   -0.47476E-09    0.00000E+00     2   0.684E-07
  32 F= -.64898059E+02 E0= -.64895565E+02  d E =0.509317E-10
       N       E                     dE             d eps       ncg     rms          rms(c)
DAV:   1    -0.648980588753E+02   -0.50204E-09   -0.72357E-11    84   0.710E-07    0.166E-07
RMM:   2    -0.648980588753E+02    0.23647E-10    0.00000E+00     1   0.590E-07
  33 F= -.64898059E+02 E0= -.64895565E+02  d E =-.363798E-11
       N       E                     dE             d eps       ncg     rms          rms(c)
DAV:   1    -0.648980588749E+02    0.38199E-09    0.34229E-11    84   0.607E-07    0.136E-07
RMM:   2    -0.648980588753E+02   -0.35652E-09    0.00000E+00     2   0.440E-07
  34 F= -.64898059E+02 E0= -.64895565E+02  d E =0.181899E-11
       N       E                     dE             d eps       ncg     rms          rms(c)
DAV:   1    -0.648980588753E+02   -0.40745E-09   -0.72416E-11    84   0.455E-07    0.101E-07
RMM:   2    -0.648980588753E+02   -0.29104E-10    0.00000E+00     1   0.380E-07
  35 F= -.64898059E+02 E0= -.64895565E+02  d E =-.800355E-10
       N       E                     dE             d eps       ncg     rms          rms(c)
DAV:   1    -0.648980588754E+02   -0.72760E-10   -0.23147E-11    84   0.392E-07    0.808E-08
RMM:   2    -0.648980588752E+02    0.16371E-09    0.00000E+00     1   0.280E-07
  36 F= -.64898059E+02 E0= -.64895565E+02  d E =0.120053E-09
       N       E                     dE             d eps       ncg     rms          rms(c)
DAV:   1    -0.648980588760E+02   -0.66029E-09    0.90028E-12    93   0.290E-07    0.655E-08
RMM:   2    -0.648980588752E+02    0.79672E-09    0.00000E+00     1   0.247E-07
  37 F= -.64898059E+02 E0= -.64895565E+02  d E =-.272848E-10
       N       E                     dE             d eps       ncg     rms          rms(c)
DAV:   1    -0.648980588748E+02    0.12678E-08   -0.20438E-11    84   0.254E-07    0.507E-08
RMM:   2    -0.648980588752E+02   -0.46930E-09    0.00000E+00     1   0.179E-07
  38 F= -.64898059E+02 E0= -.64895565E+02  d E =0.181899E-11
       N       E                     dE             d eps       ncg     rms          rms(c)
DAV:   1    -0.648980588759E+02   -0.11787E-08    0.82628E-11    84   0.186E-07    0.427E-08
RMM:   2    -0.648980588753E+02    0.66211E-09    0.00000E+00     1   0.157E-07
  39 F= -.64898059E+02 E0= -.64895565E+02  d E =-.472937E-10
       N       E                     dE             d eps       ncg     rms          rms(c)
DAV:   1    -0.648980588758E+02    0.18008E-09    0.10997E-11    84   0.162E-07    0.318E-08
RMM:   2    -0.648980588752E+02    0.56025E-09    0.00000E+00     0   0.115E-07
  40 F= -.64898059E+02 E0= -.64895565E+02  d E =0.782165E-10
       N       E                     dE             d eps       ncg     rms          rms(c)
DAV:   1    -0.648980588752E+02    0.56571E-09   -0.96221E-11    84   0.119E-07    0.278E-08
RMM:   2    -0.648980588751E+02    0.61846E-10    0.00000E+00     1   0.101E-07
  41 F= -.64898059E+02 E0= -.64895565E+02  d E =0.673026E-10
       N       E                     dE             d eps       ncg     rms          rms(c)
DAV:   1    -0.648980588753E+02   -0.14006E-09   -0.25273E-13    84   0.104E-07    0.208E-08
RMM:   2    -0.648980588752E+02    0.10186E-09    0.00000E+00     0   0.742E-08
  42 F= -.64898059E+02 E0= -.64895565E+02  d E =-.100044E-09
       N       E                     dE             d eps       ncg     rms          rms(c)
DAV:   1    -0.648980588753E+02    0.74579E-10   -0.64679E-11    84   0.768E-08    0.168E-08
RMM:   2    -0.648980588753E+02   -0.36380E-10    0.00000E+00     1   0.649E-08
  43 F= -.64898059E+02 E0= -.64895565E+02  d E =-.636646E-10
       N       E                     dE             d eps       ncg     rms          rms(c)
DAV:   1    -0.648980588753E+02    0.72760E-11   -0.12870E-11    84   0.669E-08    0.132E-08
RMM:   2    -0.648980588753E+02   -0.38199E-10    0.00000E+00     0   0.478E-08
  44 F= -.64898059E+02 E0= -.64895565E+02  d E =0.545697E-11
       N       E                     dE             d eps       ncg     rms          rms(c)
DAV:   1    -0.648980588753E+02   -0.87311E-10   -0.12526E-11    84   0.495E-08    0.113E-08
RMM:   2    -0.648980588753E+02    0.21828E-10    0.00000E+00     1   0.421E-08
  45 F= -.64898059E+02 E0= -.64895565E+02  d E =-.272848E-10
       N       E                     dE             d eps       ncg     rms          rms(c)
DAV:   1    -0.648980588749E+02    0.48567E-09   -0.32730E-11    84   0.434E-08    0.871E-09
RMM:   2    -0.648980588752E+02   -0.33833E-09    0.00000E+00     0   0.309E-08
  46 F= -.64898059E+02 E0= -.64895565E+02  d E =0.125510E-09
       N       E                     dE             d eps       ncg     rms          rms(c)
DAV:   1    -0.648980588751E+02   -0.24738E-09    0.59322E-11    84   0.321E-08    0.708E-09
RMM:   2    -0.648980588752E+02   -0.78217E-10    0.00000E+00     1   0.271E-08
  47 F= -.64898059E+02 E0= -.64895565E+02  d E =0.127329E-10
       N       E                     dE             d eps       ncg     rms          rms(c)
DAV:   1    -0.648980588748E+02    0.29286E-09   -0.34016E-11    84   0.279E-08    0.562E-09
RMM:   2    -0.648980588753E+02   -0.50022E-09    0.00000E+00     0   0.200E-08
  48 F= -.64898059E+02 E0= -.64895565E+02  d E =-.129148E-09
       N       E                     dE             d eps       ncg     rms          rms(c)
DAV:   1    -0.648980588761E+02   -0.13115E-08   -0.85229E-11    84   0.207E-08    0.490E-09
RMM:   2    -0.648980588753E+02    0.85129E-09    0.00000E+00     1   0.176E-08
  49 F= -.64898059E+02 E0= -.64895565E+02  d E =0.400178E-10
       N       E                     dE             d eps       ncg     rms          rms(c)
DAV:   1    -0.648980588747E+02    0.13806E-08   -0.23426E-11    84   0.182E-08    0.376E-09
RMM:   2    -0.648980588753E+02   -0.52569E-09    0.00000E+00     0   0.130E-08
  50 F= -.64898059E+02 E0= -.64895565E+02  d E =0.363798E-11
       N       E                     dE             d eps       ncg     rms          rms(c)
DAV:   1    -0.648980588759E+02   -0.11496E-08   -0.68596E-12    84   0.135E-08    0.303E-09
RMM:   2    -0.648980588753E+02    0.60936E-09    0.00000E+00     1   0.113E-08
  51 F= -.64898059E+02 E0= -.64895565E+02  d E =-.145519E-10
       N       E                     dE             d eps       ncg     rms          rms(c)
DAV:   1    -0.648980588754E+02    0.44565E-09    0.73811E-11    84   0.117E-08    0.244E-09
RMM:   2    -0.648980588752E+02    0.24920E-09    0.00000E+00     0   0.847E-09
  52 F= -.64898059E+02 E0= -.64895565E+02  d E =0.854925E-10
       N       E                     dE             d eps       ncg     rms          rms(c)
DAV:   1    -0.648980588751E+02    0.37653E-09   -0.65409E-12    84   0.879E-09    0.196E-09
RMM:   2    -0.648980588753E+02   -0.24374E-09    0.00000E+00     1   0.733E-09
  53 F= -.64898059E+02 E0= -.64895565E+02  d E =-.116415E-09
       N       E                     dE             d eps       ncg     rms          rms(c)
DAV:   1    -0.648980588748E+02    0.29468E-09    0.19006E-11    84   0.756E-09    0.159E-09
RMM:   2    -0.648980588753E+02   -0.55661E-09    0.00000E+00     0   0.551E-09
  54 F= -.64898059E+02 E0= -.64895565E+02  d E =-.181899E-10
       N       E                     dE             d eps       ncg     rms          rms(c)
DAV:   1    -0.648980588755E+02   -0.68940E-09    0.44391E-12    84   0.572E-09    0.132E-09
RMM:   2    -0.648980588752E+02    0.21828E-09    0.00000E+00     0   0.478E-09
  55 F= -.64898059E+02 E0= -.64895565E+02  d E =0.854925E-10
       N       E                     dE             d eps       ncg     rms          rms(c)
DAV:   1    -0.648980588749E+02    0.60754E-09   -0.27119E-11    84   0.496E-09    0.102E-09
RMM:   2    -0.648980588753E+02   -0.41473E-09    0.00000E+00     0   0.357E-09
  56 F= -.64898059E+02 E0= -.64895565E+02  d E =-.254659E-10
       N       E                     dE             d eps       ncg     rms          rms(c)
DAV:   1    -0.648980588751E+02   -0.21282E-09    0.72834E-12    84   0.375E-09    0.917E-10
RMM:   2    -0.648980588752E+02   -0.10732E-09    0.00000E+00     0   0.317E-09
  57 F= -.64898059E+02 E0= -.64895565E+02  d E =0.945874E-10
       N       E                     dE             d eps       ncg     rms          rms(c)
DAV:   1    -0.648980588755E+02   -0.47658E-09    0.15026E-11    84   0.331E-09    0.815E-10
RMM:   2    -0.648980588754E+02    0.19463E-09    0.00000E+00     0   0.241E-09
  58 F= -.64898059E+02 E0= -.64895565E+02  d E =-.174623E-09
       N       E                     dE             d eps       ncg     rms          rms(c)
DAV:   1    -0.648980588761E+02   -0.58026E-09    0.17740E-11    84   0.250E-09    0.612E-10
RMM:   2    -0.648980588754E+02    0.74760E-09    0.00000E+00     0   0.204E-09
  59 F= -.64898059E+02 E0= -.64895565E+02  d E =-.272848E-10
       N       E                     dE             d eps       ncg     rms          rms(c)
DAV:   1    -0.648980588758E+02    0.32196E-09    0.51653E-11    84   0.212E-09    0.521E-10
RMM:   2    -0.648980588753E+02    0.51114E-09    0.00000E+00     0   0.157E-09
  60 F= -.64898059E+02 E0= -.64895565E+02  d E =0.854925E-10
       N       E                     dE             d eps       ncg     rms          rms(c)
DAV:   1    -0.648980588751E+02    0.67848E-09    0.70329E-11    84   0.165E-09    0.348E-10
RMM:   2    -0.648980588753E+02   -0.18554E-09    0.00000E+00     0   0.131E-09
  61 F= -.64898059E+02 E0= -.64895565E+02  d E =-.181899E-10
       N       E                     dE             d eps       ncg     rms          rms(c)
DAV:   1    -0.648980588747E+02    0.38017E-09   -0.31944E-11    84   0.137E-09    0.322E-10
RMM:   2    -0.648980588753E+02   -0.56389E-09    0.00000E+00     0   0.102E-09
  62 F= -.64898059E+02 E0= -.64895565E+02  d E =0.181899E-11
       N       E                     dE             d eps       ncg     rms          rms(c)
DAV:   1    -0.648980588751E+02   -0.37835E-09    0.29049E-11    84   0.106E-09    0.494E-10
RMM:   2    -0.648980588753E+02   -0.15098E-09    0.00000E+00     0   0.980E-10
  63 F= -.64898059E+02 E0= -.64895565E+02  d E =0.345608E-10
       N       E                     dE             d eps       ncg     rms          rms(c)
DAV:   1    -0.648980588757E+02   -0.54570E-09    0.28978E-11    84   0.106E-09    0.257E-10
RMM:   2    -0.648980588752E+02    0.46930E-09    0.00000E+00     0   0.730E-10
  64 F= -.64898059E+02 E0= -.64895565E+02  d E =0.745786E-10
       N       E                     dE             d eps       ncg     rms          rms(c)
DAV:   1    -0.648980588757E+02   -0.54570E-10    0.66291E-11    84   0.743E-10    0.322E-10
RMM:   2    -0.648980588753E+02    0.39836E-09    0.00000E+00     0   0.672E-10
  65 F= -.64898059E+02 E0= -.64895565E+02  d E =-.125510E-09
       N       E                     dE             d eps       ncg     rms          rms(c)
DAV:   1    -0.648980588754E+02    0.30195E-09    0.38016E-11    84   0.699E-10    0.280E-10
RMM:   2    -0.648980588753E+02    0.85493E-10    0.00000E+00     0   0.485E-10
  66 F= -.64898059E+02 E0= -.64895565E+02  d E =-.109139E-10
       N       E                     dE             d eps       ncg     rms          rms(c)
DAV:   1    -0.648980588757E+02   -0.30195E-09    0.36354E-11    84   0.511E-10    0.193E-10
RMM:   2    -0.648980588753E+02    0.45839E-09    0.00000E+00     0   0.418E-10
  67 F= -.64898059E+02 E0= -.64895565E+02  d E =0.709406E-10
       N       E                     dE             d eps       ncg     rms          rms(c)
DAV:   1    -0.648980588754E+02    0.32196E-09   -0.19673E-11    84   0.441E-10    0.141E-10
RMM:   2    -0.648980588753E+02    0.10004E-09    0.00000E+00     0   0.326E-10
  68 F= -.64898059E+02 E0= -.64895565E+02  d E =-.363798E-10
       N       E                     dE             d eps       ncg     rms          rms(c)
DAV:   1    -0.648980588748E+02    0.58208E-09    0.47772E-12    84   0.335E-10    0.111E-10
RMM:   2    -0.648980588753E+02   -0.44020E-09    0.00000E+00     0   0.284E-10
  69 F= -.64898059E+02 E0= -.64895565E+02  d E =0.418368E-10
       N       E                     dE             d eps       ncg     rms          rms(c)
DAV:   1    -0.648980588745E+02    0.33469E-09    0.16118E-11    84   0.280E-10    0.163E-10
RMM:   2    -0.648980588753E+02   -0.76398E-09    0.00000E+00     0   0.224E-10
  70 F= -.64898059E+02 E0= -.64895565E+02  d E =0.109139E-10
       N       E                     dE             d eps       ncg     rms          rms(c)
DAV:   1    -0.648980588751E+02   -0.63847E-09    0.26274E-11    84   0.247E-10    0.197E-10
RMM:   2    -0.648980588752E+02   -0.10186E-09    0.00000E+00     0   0.234E-10
  71 F= -.64898059E+02 E0= -.64895565E+02  d E =0.236469E-10
       N       E                     dE             d eps       ncg     rms          rms(c)
DAV:   1    -0.648980588749E+02    0.25830E-09   -0.89415E-12    84   0.238E-10    0.185E-10
RMM:   2    -0.648980588753E+02   -0.46566E-09    0.00000E+00     0   0.217E-10
  72 F= -.64898059E+02 E0= -.64895565E+02  d E =-.105501E-09
       N       E                     dE             d eps       ncg     rms          rms(c)
DAV:   1    -0.648980588756E+02   -0.72032E-09   -0.14007E-11    84   0.241E-10    0.150E-10
RMM:   2    -0.648980588753E+02    0.27103E-09    0.00000E+00     0   0.200E-10
  73 F= -.64898059E+02 E0= -.64895565E+02  d E =0.163709E-10
       N       E                     dE             d eps       ncg     rms          rms(c)
DAV:   1    -0.648980588752E+02    0.34379E-09    0.18191E-11    84   0.218E-10    0.315E-10
RMM:   2    -0.648980588752E+02    0.29104E-10    0.00000E+00     0   0.193E-10
  74 F= -.64898059E+02 E0= -.64895565E+02  d E =0.101863E-09
       N       E                     dE             d eps       ncg     rms          rms(c)
DAV:   1    -0.648980588752E+02    0.50932E-10    0.22350E-11    84   0.225E-10    0.344E-10
RMM:   2    -0.648980588753E+02   -0.61846E-10    0.00000E+00     0   0.219E-10
  75 F= -.64898059E+02 E0= -.64895565E+02  d E =-.400178E-10
       N       E                     dE             d eps       ncg     rms          rms(c)
DAV:   1    -0.648980588758E+02   -0.58571E-09    0.64012E-11    84   0.314E-10    0.306E-10
RMM:   2    -0.648980588753E+02    0.51659E-09    0.00000E+00     0   0.195E-10
  76 F= -.64898059E+02 E0= -.64895565E+02  d E =-.727596E-11
       N       E                     dE             d eps       ncg     rms          rms(c)
DAV:   1    -0.648980588754E+02    0.35470E-09   -0.47737E-12    84   0.255E-10    0.195E-10
RMM:   2    -0.648980588754E+02    0.63665E-10    0.00000E+00     0   0.153E-10
  77 F= -.64898059E+02 E0= -.64895565E+02  d E =-.982254E-10
       N       E                     dE             d eps       ncg     rms          rms(c)
DAV:   1    -0.648980588749E+02    0.56025E-09    0.41618E-11    84   0.187E-10    0.294E-10
RMM:   2    -0.648980588753E+02   -0.39290E-09    0.00000E+00     0   0.190E-10
  78 F= -.64898059E+02 E0= -.64895565E+02  d E =0.103682E-09
       N       E                     dE             d eps       ncg     rms          rms(c)
DAV:   1    -0.648980588750E+02   -0.14916E-09    0.60504E-11    84   0.238E-10    0.222E-10
RMM:   2    -0.648980588753E+02   -0.27103E-09    0.00000E+00     0   0.154E-10
  79 F= -.64898059E+02 E0= -.64895565E+02  d E =-.272848E-10
       N       E                     dE             d eps       ncg     rms          rms(c)
DAV:   1    -0.648980588753E+02   -0.28558E-09    0.18958E-11    84   0.209E-10    0.223E-10
RMM:   2    -0.648980588753E+02    0.27285E-10    0.00000E+00     0   0.160E-10
  80 F= -.64898059E+02 E0= -.64895565E+02  d E =0.127329E-10
       N       E                     dE             d eps       ncg     rms          rms(c)
DAV:   1    -0.648980588750E+02    0.29468E-09    0.67205E-12    84   0.188E-10    0.262E-10
RMM:   2    -0.648980588753E+02   -0.24556E-09    0.00000E+00     0   0.172E-10
  81 F= -.64898059E+02 E0= -.64895565E+02  d E =0.218279E-10
       N       E                     dE             d eps       ncg     rms          rms(c)
DAV:   1    -0.648980588752E+02   -0.24374E-09    0.50834E-12    84   0.236E-10    0.146E-10
RMM:   2    -0.648980588752E+02    0.14552E-10    0.00000E+00     0   0.123E-10
  82 F= -.64898059E+02 E0= -.64895565E+02  d E =0.163709E-10
       N       E                     dE             d eps       ncg     rms          rms(c)
DAV:   1    -0.648980588758E+02   -0.53478E-09    0.72967E-11    84   0.174E-10    0.165E-10
RMM:   2    -0.648980588753E+02    0.49658E-09    0.00000E+00     0   0.134E-10
  83 F= -.64898059E+02 E0= -.64895565E+02  d E =-.527507E-10
       N       E                     dE             d eps       ncg     rms          rms(c)
DAV:   1    -0.648980588750E+02    0.79854E-09    0.30574E-11    84   0.170E-10    0.202E-10
RMM:   2    -0.648980588753E+02   -0.28922E-09    0.00000E+00     0   0.156E-10
  84 F= -.64898059E+02 E0= -.64895565E+02  d E =0.127329E-10
       N       E                     dE             d eps       ncg     rms          rms(c)
DAV:   1    -0.648980588754E+02   -0.42382E-09    0.39401E-11    84   0.195E-10    0.259E-10
RMM:   2    -0.648980588752E+02    0.20191E-09    0.00000E+00     0   0.142E-10
  85 F= -.64898059E+02 E0= -.64895565E+02  d E =0.673026E-10
       N       E                     dE             d eps       ncg     rms          rms(c)
DAV:   1    -0.648980588755E+02   -0.78217E-10    0.14046E-11    84   0.225E-10    0.189E-10
RMM:   2    -0.648980588754E+02    0.67303E-10    0.00000E+00     0   0.144E-10
  86 F= -.64898059E+02 E0= -.64895565E+02  d E =-.212822E-09
       N       E                     dE             d eps       ncg     rms          rms(c)
DAV:   1    -0.648980588759E+02   -0.37653E-09    0.91041E-11    84   0.185E-10    0.365E-10
RMM:   2    -0.648980588753E+02    0.58935E-09    0.00000E+00     0   0.196E-10
  87 F= -.64898059E+02 E0= -.64895565E+02  d E =0.145519E-09
       N       E                     dE             d eps       ncg     rms          rms(c)
DAV:   1    -0.648980588755E+02    0.33469E-09    0.11709E-10    84   0.257E-10    0.395E-10
RMM:   2    -0.648980588754E+02    0.17826E-09    0.00000E+00     0   0.206E-10
  88 F= -.64898059E+02 E0= -.64895565E+02  d E =-.763976E-10
       N       E                     dE             d eps       ncg     rms          rms(c)
DAV:   1    -0.648980588757E+02   -0.17826E-09    0.90493E-12    84   0.290E-10    0.174E-10
RMM:   2    -0.648980588753E+02    0.36925E-09    0.00000E+00     0   0.129E-10
  89 F= -.64898059E+02 E0= -.64895565E+02  d E =0.127329E-10
       N       E                     dE             d eps       ncg     rms          rms(c)
DAV:   1    -0.648980588757E+02    0.18190E-10    0.10474E-10    84   0.147E-10    0.137E-10
RMM:   2    -0.648980588753E+02    0.38017E-09    0.00000E+00     0   0.114E-10
  90 F= -.64898059E+02 E0= -.64895565E+02  d E =0.291038E-10
       N       E                     dE             d eps       ncg     rms          rms(c)
DAV:   1    -0.648980588753E+02    0.41837E-09    0.47070E-11    84   0.151E-10    0.372E-10
RMM:   2    -0.648980588752E+02    0.23647E-10    0.00000E+00     0   0.200E-10
  91 F= -.64898059E+02 E0= -.64895565E+02  d E =0.618456E-10
       N       E                     dE             d eps       ncg     rms          rms(c)
DAV:   1    -0.648980588750E+02    0.30923E-09    0.67626E-11    84   0.288E-10    0.210E-10
RMM:   2    -0.648980588752E+02   -0.23647E-09    0.00000E+00     0   0.148E-10
  92 F= -.64898059E+02 E0= -.64895565E+02  d E =0.491127E-10
       N       E                     dE             d eps       ncg     rms          rms(c)
DAV:   1    -0.648980588754E+02   -0.46930E-09    0.17661E-11    84   0.203E-10    0.242E-10
RMM:   2    -0.648980588753E+02    0.10914E-09    0.00000E+00     0   0.170E-10
  93 F= -.64898059E+02 E0= -.64895565E+02  d E =-.123691E-09
       N       E                     dE             d eps       ncg     rms          rms(c)
DAV:   1    -0.648980588755E+02   -0.11642E-09    0.12227E-11    84   0.222E-10    0.217E-10
RMM:   2    -0.648980588752E+02    0.34743E-09    0.00000E+00     0   0.177E-10
  94 F= -.64898059E+02 E0= -.64895565E+02  d E =0.121872E-09
       N       E                     dE             d eps       ncg     rms          rms(c)
DAV:   1    -0.648980588750E+02    0.56571E-09    0.66680E-11    84   0.222E-10    0.188E-10
RMM:   2    -0.648980588752E+02   -0.26193E-09    0.00000E+00     0   0.149E-10
  95 F= -.64898059E+02 E0= -.64895565E+02  d E =-.436557E-10
       N       E                     dE             d eps       ncg     rms          rms(c)
DAV:   1    -0.648980588755E+02   -0.56389E-09    0.73052E-11    84   0.129E-10    0.241E-10
RMM:   2    -0.648980588753E+02    0.21282E-09    0.00000E+00     0   0.149E-10
  96 F= -.64898059E+02 E0= -.64895565E+02  d E =-.891305E-10
       N       E                     dE             d eps       ncg     rms          rms(c)
DAV:   1    -0.648980588751E+02    0.47294E-09    0.57383E-11    84   0.193E-10    0.192E-10
RMM:   2    -0.648980588754E+02   -0.29286E-09    0.00000E+00     0   0.155E-10
  97 F= -.64898059E+02 E0= -.64895565E+02  d E =-.327418E-10
       N       E                     dE             d eps       ncg     rms          rms(c)
DAV:   1    -0.648980588754E+02   -0.37107E-09    0.22860E-11    84   0.138E-10    0.277E-10
RMM:   2    -0.648980588752E+02    0.24011E-09    0.00000E+00     0   0.149E-10
  98 F= -.64898059E+02 E0= -.64895565E+02  d E =0.161890E-09
       N       E                     dE             d eps       ncg     rms          rms(c)
DAV:   1    -0.648980588756E+02   -0.12005E-09    0.61937E-11    84   0.226E-10    0.261E-10
RMM:   2    -0.648980588753E+02    0.29468E-09    0.00000E+00     0   0.175E-10
  99 F= -.64898059E+02 E0= -.64895565E+02  d E =-.654836E-10
       N       E                     dE             d eps       ncg     rms          rms(c)
DAV:   1    -0.648980588754E+02    0.11460E-09    0.39149E-11    84   0.184E-10    0.149E-10
RMM:   2    -0.648980588753E+02    0.14916E-09    0.00000E+00     0   0.152E-10
 100 F= -.64898059E+02 E0= -.64895565E+02  d E =-.309228E-10
       N       E                     dE             d eps       ncg     rms          rms(c)
DAV:   1    -0.648980588753E+02    0.13279E-09    0.34968E-11    84   0.170E-10    0.168E-10
RMM:   2    -0.648980588754E+02   -0.67303E-10    0.00000E+00     0   0.112E-10
 101 F= -.64898059E+02 E0= -.64895565E+02  d E =-.836735E-10
       N       E                     dE             d eps       ncg     rms          rms(c)
DAV:   1    -0.648980588756E+02   -0.23647E-09    0.61325E-11    84   0.191E-10    0.426E-10
RMM:   2    -0.648980588753E+02    0.22010E-09    0.00000E+00     0   0.243E-10
 102 F= -.64898059E+02 E0= -.64895565E+02  d E =0.509317E-10
       N       E                     dE             d eps       ncg     rms          rms(c)
DAV:   1    -0.648980588753E+02    0.20555E-09    0.46459E-11    84   0.316E-10    0.363E-10
RMM:   2    -0.648980588754E+02   -0.49113E-10    0.00000E+00     0   0.243E-10
 103 F= -.64898059E+02 E0= -.64895565E+02  d E =-.636646E-10
       N       E                     dE             d eps       ncg     rms          rms(c)
DAV:   1    -0.648980588750E+02    0.30013E-09    0.68039E-11    84   0.235E-10    0.177E-10
RMM:   2    -0.648980588753E+02   -0.24011E-09    0.00000E+00     0   0.184E-10
 104 F= -.64898059E+02 E0= -.64895565E+02  d E =0.109139E-09
       N       E                     dE             d eps       ncg     rms          rms(c)
DAV:   1    -0.648980588751E+02   -0.96406E-10    0.55541E-11    84   0.171E-10    0.155E-10
RMM:   2    -0.648980588752E+02   -0.76398E-10    0.00000E+00     0   0.129E-10
 105 F= -.64898059E+02 E0= -.64895565E+02  d E =0.673026E-10
       N       E                     dE             d eps       ncg     rms          rms(c)
DAV:   1    -0.648980588754E+02   -0.23465E-09    0.23678E-11    84   0.161E-10    0.270E-10
RMM:   2    -0.648980588753E+02    0.60027E-10    0.00000E+00     0   0.145E-10
 106 F= -.64898059E+02 E0= -.64895565E+02  d E =-.982254E-10
       N       E                     dE             d eps       ncg     rms          rms(c)
DAV:   1    -0.648980588750E+02    0.33651E-09    0.45438E-11    84   0.173E-10    0.309E-10
RMM:   2    -0.648980588753E+02   -0.28740E-09    0.00000E+00     0   0.184E-10
 107 F= -.64898059E+02 E0= -.64895565E+02  d E =-.109139E-10
       N       E                     dE             d eps       ncg     rms          rms(c)
DAV:   1    -0.648980588752E+02   -0.12733E-09    0.31329E-11    84   0.273E-10    0.369E-10
RMM:   2    -0.648980588753E+02   -0.13097E-09    0.00000E+00     0   0.199E-10
 108 F= -.64898059E+02 E0= -.64895565E+02  d E =0.291038E-10
       N       E                     dE             d eps       ncg     rms          rms(c)
DAV:   1    -0.648980588758E+02   -0.61482E-09    0.40345E-12    84   0.270E-10    0.136E-10
RMM:   2    -0.648980588753E+02    0.46930E-09    0.00000E+00     0   0.146E-10
 109 F= -.64898059E+02 E0= -.64895565E+02  d E =-.145519E-10
       N       E                     dE             d eps       ncg     rms          rms(c)
DAV:   1    -0.648980588750E+02    0.80217E-09    0.76538E-13    84   0.117E-10    0.234E-10
RMM:   2    -0.648980588753E+02   -0.35470E-09    0.00000E+00     0   0.138E-10
 110 F= -.64898059E+02 E0= -.64895565E+02  d E =-.218279E-10
       N       E                     dE             d eps       ncg     rms          rms(c)
DAV:   1    -0.648980588749E+02    0.60027E-10    0.36986E-11    84   0.169E-10    0.210E-10
RMM:   2    -0.648980588753E+02   -0.35106E-09    0.00000E+00     0   0.144E-10
 111 F= -.64898059E+02 E0= -.64895565E+02  d E =0.636646E-10
       N       E                     dE             d eps       ncg     rms          rms(c)
DAV:   1    -0.648980588749E+02    0.58208E-10   -0.19119E-11    84   0.174E-10    0.181E-10
RMM:   2    -0.648980588753E+02   -0.42201E-09    0.00000E+00     0   0.120E-10
 112 F= -.64898059E+02 E0= -.64895565E+02  d E =-.127329E-10
       N       E                     dE             d eps       ncg     rms          rms(c)
DAV:   1    -0.648980588749E+02   -0.34561E-10    0.12144E-11    84   0.143E-10    0.186E-10
RMM:   2    -0.648980588754E+02   -0.49840E-09    0.00000E+00     0   0.136E-10
 113 F= -.64898059E+02 E0= -.64895565E+02  d E =-.110958E-09
       N       E                     dE             d eps       ncg     rms          rms(c)
DAV:   1    -0.648980588751E+02   -0.15825E-09    0.95125E-11    84   0.166E-10    0.246E-10
RMM:   2    -0.648980588753E+02   -0.20555E-09    0.00000E+00     0   0.167E-10
 114 F= -.64898059E+02 E0= -.64895565E+02  d E =0.134605E-09
       N       E                     dE             d eps       ncg     rms          rms(c)
DAV:   1    -0.648980588754E+02   -0.34015E-09    0.12621E-11    84   0.194E-10    0.366E-10
RMM:   2    -0.648980588754E+02    0.45475E-10    0.00000E+00     0   0.210E-10
 115 F= -.64898059E+02 E0= -.64895565E+02  d E =-.891305E-10
       N       E                     dE             d eps       ncg     rms          rms(c)
DAV:   1    -0.648980588755E+02   -0.12915E-09    0.50253E-11    84   0.293E-10    0.136E-10
RMM:   2    -0.648980588752E+02    0.28194E-09    0.00000E+00     0   0.140E-10
 116 F= -.64898059E+02 E0= -.64895565E+02  d E =0.107320E-09
       N       E                     dE             d eps       ncg     rms          rms(c)
DAV:   1    -0.648980588752E+02    0.35106E-09    0.69414E-11    84   0.174E-10    0.250E-10
RMM:   2    -0.648980588754E+02   -0.18736E-09    0.00000E+00     0   0.180E-10
 117 F= -.64898059E+02 E0= -.64895565E+02  d E =-.118234E-09
       N       E                     dE             d eps       ncg     rms          rms(c)
DAV:   1    -0.648980588759E+02   -0.75670E-09    0.73584E-11    84   0.228E-10    0.150E-10
RMM:   2    -0.648980588754E+02    0.56752E-09    0.00000E+00     0   0.141E-10
 118 F= -.64898059E+02 E0= -.64895565E+02  d E =-.181899E-11
       N       E                     dE             d eps       ncg     rms          rms(c)
DAV:   1    -0.648980588748E+02    0.11751E-08    0.44396E-11    84   0.148E-10    0.320E-10
RMM:   2    -0.648980588752E+02   -0.45657E-09    0.00000E+00     0   0.172E-10
 119 F= -.64898059E+02 E0= -.64895565E+02  d E =0.150976E-09
       N       E                     dE             d eps       ncg     rms          rms(c)
DAV:   1    -0.648980588745E+02    0.23101E-09    0.16586E-11    84   0.240E-10    0.178E-10
RMM:   2    -0.648980588752E+02   -0.68940E-09    0.00000E+00     0   0.161E-10
 120 F= -.64898059E+02 E0= -.64895565E+02  d E =-.181899E-11
       N       E                     dE             d eps       ncg     rms          rms(c)
DAV:   1    -0.648980588752E+02   -0.66029E-09    0.37277E-11    84   0.175E-10    0.202E-10
RMM:   2    -0.648980588753E+02   -0.14734E-09    0.00000E+00     0   0.159E-10
 121 F= -.64898059E+02 E0= -.64895565E+02  d E =-.118234E-09
       N       E                     dE             d eps       ncg     rms          rms(c)
DAV:   1    -0.648980588750E+02    0.16371E-09    0.50120E-11    84   0.222E-10    0.199E-10
RMM:   2    -0.648980588753E+02   -0.24920E-09    0.00000E+00     0   0.156E-10
 122 F= -.64898059E+02 E0= -.64895565E+02  d E =0.618456E-10
       N       E                     dE             d eps       ncg     rms          rms(c)
DAV:   1    -0.648980588756E+02   -0.61300E-09    0.46599E-11    84   0.170E-10    0.345E-10
RMM:   2    -0.648980588752E+02    0.39836E-09    0.00000E+00     0   0.211E-10
 123 F= -.64898059E+02 E0= -.64895565E+02  d E =0.345608E-10
       N       E                     dE             d eps       ncg     rms          rms(c)
DAV:   1    -0.648980588753E+02    0.33469E-09   -0.72567E-12    84   0.287E-10    0.261E-10
RMM:   2    -0.648980588753E+02    0.90949E-11    0.00000E+00     0   0.191E-10
 124 F= -.64898059E+02 E0= -.64895565E+02  d E =-.545697E-10
       N       E                     dE             d eps       ncg     rms          rms(c)
DAV:   1    -0.648980588750E+02    0.32560E-09    0.24263E-11    84   0.239E-10    0.337E-10
RMM:   2    -0.648980588753E+02   -0.30377E-09    0.00000E+00     0   0.179E-10
 125 F= -.64898059E+02 E0= -.64895565E+02  d E =0.127329E-10
       N       E                     dE             d eps       ncg     rms          rms(c)
DAV:   1    -0.648980588751E+02   -0.14734E-09    0.71740E-11    84   0.266E-10    0.215E-10
RMM:   2    -0.648980588753E+02   -0.16007E-09    0.00000E+00     0   0.145E-10
 126 F= -.64898059E+02 E0= -.64895565E+02  d E =-.363798E-11
       N       E                     dE             d eps       ncg     rms          rms(c)
DAV:   1    -0.648980588748E+02    0.29104E-09    0.77173E-11    84   0.183E-10    0.180E-10
RMM:   2    -0.648980588752E+02   -0.38199E-09    0.00000E+00     0   0.136E-10
 127 F= -.64898059E+02 E0= -.64895565E+02  d E =0.691216E-10
       N       E                     dE             d eps       ncg     rms          rms(c)
DAV:   1    -0.648980588761E+02   -0.12369E-08    0.17525E-11    84   0.197E-10    0.273E-10
RMM:   2    -0.648980588752E+02    0.82036E-09    0.00000E+00     0   0.166E-10
 128 F= -.64898059E+02 E0= -.64895565E+02  d E =-.345608E-10
       N       E                     dE             d eps       ncg     rms          rms(c)
DAV:   1    -0.648980588752E+02    0.86220E-09    0.17431E-11    84   0.206E-10    0.237E-10
RMM:   2    -0.648980588753E+02   -0.83674E-10    0.00000E+00     0   0.167E-10
 129 F= -.64898059E+02 E0= -.64895565E+02  d E =-.418368E-10
       N       E                     dE             d eps       ncg     rms          rms(c)
DAV:   1    -0.648980588756E+02   -0.39836E-09    0.96275E-12    84   0.209E-10    0.261E-10
RMM:   2    -0.648980588753E+02    0.26375E-09    0.00000E+00     0   0.140E-10
 130 F= -.64898059E+02 E0= -.64895565E+02  d E =-.509317E-10
       N       E                     dE             d eps       ncg     rms          rms(c)
DAV:   1    -0.648980588757E+02   -0.11278E-09    0.26368E-12    84   0.180E-10    0.230E-10
RMM:   2    -0.648980588753E+02    0.39654E-09    0.00000E+00     0   0.153E-10
 131 F= -.64898059E+02 E0= -.64895565E+02  d E =0.200089E-10
       N       E                     dE             d eps       ncg     rms          rms(c)
DAV:   1    -0.648980588751E+02    0.64028E-09    0.48284E-11    84   0.207E-10    0.327E-10
RMM:   2    -0.648980588753E+02   -0.22192E-09    0.00000E+00     0   0.205E-10
 132 F= -.64898059E+02 E0= -.64895565E+02  d E =0.218279E-10
       N       E                     dE             d eps       ncg     rms          rms(c)
DAV:   1    -0.648980588752E+02   -0.12915E-09    0.98089E-12    84   0.276E-10    0.216E-10
RMM:   2    -0.648980588753E+02   -0.54570E-10    0.00000E+00     0   0.181E-10
 133 F= -.64898059E+02 E0= -.64895565E+02  d E =0.381988E-10
       N       E                     dE             d eps       ncg     rms          rms(c)
DAV:   1    -0.648980588760E+02   -0.76761E-09    0.39038E-11    84   0.219E-10    0.174E-10
RMM:   2    -0.648980588753E+02    0.66029E-09    0.00000E+00     0   0.150E-10
 134 F= -.64898059E+02 E0= -.64895565E+02  d E =-.527507E-10
       N       E                     dE             d eps       ncg     rms          rms(c)
DAV:   1    -0.648980588751E+02    0.83310E-09    0.37859E-12    84   0.150E-10    0.173E-10
RMM:   2    -0.648980588753E+02   -0.16917E-09    0.00000E+00     0   0.133E-10
 135 F= -.64898059E+02 E0= -.64895565E+02  d E =0.363798E-11
       N       E                     dE             d eps       ncg     rms          rms(c)
DAV:   1    -0.648980588753E+02   -0.18917E-09   -0.17803E-11    84   0.166E-10    0.138E-10
RMM:   2    -0.648980588752E+02    0.10004E-09    0.00000E+00     0   0.131E-10
 136 F= -.64898059E+02 E0= -.64895565E+02  d E =0.800355E-10
       N       E                     dE             d eps       ncg     rms          rms(c)
DAV:   1    -0.648980588752E+02    0.11096E-09    0.20424E-11    84   0.133E-10    0.241E-10
RMM:   2    -0.648980588752E+02   -0.29104E-10    0.00000E+00     0   0.153E-10
 137 F= -.64898059E+02 E0= -.64895565E+02  d E =-.181899E-10
       N       E                     dE             d eps       ncg     rms          rms(c)
DAV:   1    -0.648980588751E+02    0.15280E-09    0.26452E-11    84   0.188E-10    0.198E-10
RMM:   2    -0.648980588754E+02   -0.30559E-09    0.00000E+00     0   0.126E-10
 138 F= -.64898059E+02 E0= -.64895565E+02  d E =-.123691E-09
       N       E                     dE             d eps       ncg     rms          rms(c)
DAV:   1    -0.648980588759E+02   -0.84037E-09   -0.26895E-11    84   0.179E-10    0.297E-10
RMM:   2    -0.648980588753E+02    0.63483E-09    0.00000E+00     0   0.170E-10
 139 F= -.64898059E+02 E0= -.64895565E+02  d E =0.100044E-09
       N       E                     dE             d eps       ncg     rms          rms(c)
DAV:   1    -0.648980588756E+02    0.32924E-09    0.36603E-11    84   0.230E-10    0.239E-10
RMM:   2    -0.648980588754E+02    0.16553E-09    0.00000E+00     0   0.151E-10
 140 F= -.64898059E+02 E0= -.64895565E+02  d E =-.140062E-09
       N       E                     dE             d eps       ncg     rms          rms(c)
DAV:   1    -0.648980588758E+02   -0.21100E-09    0.27348E-11    84   0.211E-10    0.593E-10
RMM:   2    -0.648980588753E+02    0.45839E-09    0.00000E+00     0   0.295E-10
 141 F= -.64898059E+02 E0= -.64895565E+02  d E =0.818545E-10
       N       E                     dE             d eps       ncg     rms          rms(c)
DAV:   1    -0.648980588758E+02    0.21828E-10    0.99505E-12    84   0.444E-10    0.475E-10
RMM:   2    -0.648980588753E+02    0.46748E-09    0.00000E+00     0   0.258E-10
 142 F= -.64898059E+02 E0= -.64895565E+02  d E =0.309228E-10
       N       E                     dE             d eps       ncg     rms          rms(c)
DAV:   1    -0.648980588753E+02    0.46202E-09    0.61704E-11    84   0.388E-10    0.137E-10
RMM:   2    -0.648980588753E+02    0.40018E-10    0.00000E+00     0   0.148E-10
 143 F= -.64898059E+02 E0= -.64895565E+02  d E =0.345608E-10
       N       E                     dE             d eps       ncg     rms          rms(c)
DAV:   1    -0.648980588760E+02   -0.67666E-09   -0.22396E-11    84   0.149E-10    0.153E-10
RMM:   2    -0.648980588753E+02    0.70577E-09    0.00000E+00     0   0.115E-10
 144 F= -.64898059E+02 E0= -.64895565E+02  d E =-.109139E-10
       N       E                     dE             d eps       ncg     rms          rms(c)
DAV:   1    -0.648980588750E+02    0.10277E-08    0.36604E-11    84   0.146E-10    0.223E-10
RMM:   2    -0.648980588753E+02   -0.33651E-09    0.00000E+00     0   0.173E-10
 145 F= -.64898059E+02 E0= -.64895565E+02  d E =-.145519E-10
       N       E                     dE             d eps       ncg     rms          rms(c)
DAV:   1    -0.648980588748E+02    0.11460E-09    0.63513E-11    84   0.202E-10    0.435E-10
RMM:   2    -0.648980588753E+02   -0.46930E-09    0.00000E+00     0   0.250E-10
 146 F= -.64898059E+02 E0= -.64895565E+02  d E =-.181899E-10
       N       E                     dE             d eps       ncg     rms          rms(c)
DAV:   1    -0.648980588748E+02    0.47294E-10    0.61186E-11    84   0.344E-10    0.213E-10
RMM:   2    -0.648980588752E+02   -0.43838E-09    0.00000E+00     0   0.148E-10
 147 F= -.64898059E+02 E0= -.64895565E+02  d E =0.782165E-10
       N       E                     dE             d eps       ncg     rms          rms(c)
DAV:   1    -0.648980588753E+02   -0.53478E-09    0.59681E-12    84   0.215E-10    0.208E-10
RMM:   2    -0.648980588753E+02    0.30923E-10    0.00000E+00     0   0.133E-10
 148 F= -.64898059E+02 E0= -.64895565E+02  d E =-.654836E-10
       N       E                     dE             d eps       ncg     rms          rms(c)
DAV:   1    -0.648980588749E+02    0.39472E-09    0.16246E-11    84   0.188E-10    0.299E-10
RMM:   2    -0.648980588753E+02   -0.33106E-09    0.00000E+00     0   0.172E-10
 149 F= -.64898059E+02 E0= -.64895565E+02  d E =0.327418E-10
       N       E                     dE             d eps       ncg     rms          rms(c)
DAV:   1    -0.648980588757E+02   -0.72032E-09    0.25723E-11    84   0.240E-10    0.164E-10
RMM:   2    -0.648980588753E+02    0.33651E-09    0.00000E+00     0   0.191E-10
 150 F= -.64898059E+02 E0= -.64895565E+02  d E =-.527507E-10
       N       E                     dE             d eps       ncg     rms          rms(c)
DAV:   1    -0.648980588755E+02    0.17280E-09    0.30608E-11    84   0.173E-10    0.217E-10
RMM:   2    -0.648980588753E+02    0.21100E-09    0.00000E+00     0   0.155E-10
 151 F= -.64898059E+02 E0= -.64895565E+02  d E =0.472937E-10
       N       E                     dE             d eps       ncg     rms          rms(c)
DAV:   1    -0.648980588750E+02    0.45111E-09    0.19421E-11    84   0.161E-10    0.183E-10
RMM:   2    -0.648980588752E+02   -0.20555E-09    0.00000E+00     0   0.138E-10
 152 F= -.64898059E+02 E0= -.64895565E+02  d E =0.345608E-10
       N       E                     dE             d eps       ncg     rms          rms(c)
DAV:   1    -0.648980588755E+02   -0.48931E-09    0.13327E-11    84   0.160E-10    0.209E-10
RMM:   2    -0.648980588752E+02    0.27831E-09    0.00000E+00     0   0.146E-10
 153 F= -.64898059E+02 E0= -.64895565E+02  d E =-.545697E-11
       N       E                     dE             d eps       ncg     rms          rms(c)
DAV:   1    -0.648980588753E+02    0.17280E-09    0.73378E-11    84   0.173E-10    0.166E-10
RMM:   2    -0.648980588753E+02    0.50932E-10    0.00000E+00     0   0.143E-10
 154 F= -.64898059E+02 E0= -.64895565E+02  d E =-.545697E-10
       N       E                     dE             d eps       ncg     rms          rms(c)
DAV:   1    -0.648980588747E+02    0.63301E-09    0.32215E-11    84   0.164E-10    0.120E-10
RMM:   2    -0.648980588753E+02   -0.57298E-09    0.00000E+00     0   0.109E-10
 155 F= -.64898059E+02 E0= -.64895565E+02  d E =0.909495E-11
       N       E                     dE             d eps       ncg     rms          rms(c)
DAV:   1    -0.648980588746E+02    0.11278E-09    0.54962E-11    84   0.135E-10    0.115E-10
RMM:   2    -0.648980588752E+02   -0.59845E-09    0.00000E+00     0   0.106E-10
 156 F= -.64898059E+02 E0= -.64895565E+02  d E =0.873115E-10
       N       E                     dE             d eps       ncg     rms          rms(c)
DAV:   1    -0.648980588750E+02   -0.41473E-09    0.63141E-11    84   0.124E-10    0.176E-10
RMM:   2    -0.648980588752E+02   -0.23465E-09    0.00000E+00     0   0.155E-10
 157 F= -.64898059E+02 E0= -.64895565E+02  d E =-.509317E-10
       N       E                     dE             d eps       ncg     rms          rms(c)
DAV:   1    -0.648980588765E+02   -0.14716E-08    0.13403E-11    84   0.161E-10    0.240E-10
RMM:   2    -0.648980588753E+02    0.12151E-08    0.00000E+00     0   0.155E-10
 158 F= -.64898059E+02 E0= -.64895565E+02  d E =-.218279E-10
       N       E                     dE             d eps       ncg     rms          rms(c)
DAV:   1    -0.648980588753E+02    0.11551E-08    0.74357E-11    84   0.191E-10    0.148E-10
RMM:   2    -0.648980588753E+02    0.41837E-10    0.00000E+00     0   0.140E-10
 159 F= -.64898059E+02 E0= -.64895565E+02  d E =-.181899E-10
       N       E                     dE             d eps       ncg     rms          rms(c)
DAV:   1    -0.648980588754E+02   -0.67303E-10    0.49762E-11    84   0.181E-10    0.306E-10
RMM:   2    -0.648980588754E+02   -0.14552E-10    0.00000E+00     0   0.223E-10
 160 F= -.64898059E+02 E0= -.64895565E+02  d E =-.123691E-09
       N       E                     dE             d eps       ncg     rms          rms(c)
DAV:   1    -0.648980588756E+02   -0.24556E-09    0.60751E-11    84   0.237E-10    0.178E-10
RMM:   2    -0.648980588752E+02    0.41837E-09    0.00000E+00     0   0.157E-10
 161 F= -.64898059E+02 E0= -.64895565E+02  d E =0.187356E-09
       N       E                     dE             d eps       ncg     rms          rms(c)
DAV:   1    -0.648980588748E+02    0.81309E-09   -0.47341E-12    84   0.162E-10    0.279E-10
RMM:   2    -0.648980588753E+02   -0.49113E-09    0.00000E+00     0   0.181E-10
 162 F= -.64898059E+02 E0= -.64895565E+02  d E =-.964064E-10
       N       E                     dE             d eps       ncg     rms          rms(c)
DAV:   1    -0.648980588750E+02   -0.19281E-09    0.48787E-11    84   0.268E-10    0.151E-10
RMM:   2    -0.648980588753E+02   -0.29468E-09    0.00000E+00     0   0.157E-10
 163 F= -.64898059E+02 E0= -.64895565E+02  d E =0.363798E-11
       N       E                     dE             d eps       ncg     rms          rms(c)
DAV:   1    -0.648980588751E+02   -0.67303E-10    0.13317E-11    84   0.152E-10    0.276E-10
RMM:   2    -0.648980588753E+02   -0.18190E-09    0.00000E+00     0   0.204E-10
 164 F= -.64898059E+02 E0= -.64895565E+02  d E =0.454747E-10
       N       E                     dE             d eps       ncg     rms          rms(c)
DAV:   1    -0.648980588755E+02   -0.43292E-09    0.64314E-11    84   0.260E-10    0.337E-10
RMM:   2    -0.648980588752E+02    0.31832E-09    0.00000E+00     0   0.215E-10
 165 F= -.64898059E+02 E0= -.64895565E+02  d E =0.673026E-10
       N       E                     dE             d eps       ncg     rms          rms(c)
DAV:   1    -0.648980588759E+02   -0.42746E-09    0.79588E-11    84   0.261E-10    0.159E-10
RMM:   2    -0.648980588753E+02    0.66029E-09    0.00000E+00     0   0.134E-10
 166 F= -.64898059E+02 E0= -.64895565E+02  d E =-.854925E-10
       N       E                     dE             d eps       ncg     rms          rms(c)
DAV:   1    -0.648980588755E+02    0.42019E-09    0.29793E-11    84   0.160E-10    0.263E-10
RMM:   2    -0.648980588754E+02    0.14370E-09    0.00000E+00     0   0.128E-10
 167 F= -.64898059E+02 E0= -.64895565E+02  d E =-.964064E-10
       N       E                     dE             d eps       ncg     rms          rms(c)
DAV:   1    -0.648980588753E+02    0.26921E-09    0.63577E-11    84   0.216E-10    0.255E-10
RMM:   2    -0.648980588753E+02   -0.63665E-10    0.00000E+00     0   0.186E-10
 168 F= -.64898059E+02 E0= -.64895565E+02  d E =0.618456E-10
       N       E                     dE             d eps       ncg     rms          rms(c)
DAV:   1    -0.648980588752E+02    0.10550E-09    0.70428E-12    84   0.219E-10    0.320E-10
RMM:   2    -0.648980588753E+02   -0.13279E-09    0.00000E+00     0   0.215E-10
 169 F= -.64898059E+02 E0= -.64895565E+02  d E =0.363798E-10
       N       E                     dE             d eps       ncg     rms          rms(c)
DAV:   1    -0.648980588751E+02    0.47294E-10   -0.47170E-11    84   0.262E-10    0.217E-10
RMM:   2    -0.648980588754E+02   -0.25102E-09    0.00000E+00     0   0.153E-10
 170 F= -.64898059E+02 E0= -.64895565E+02  d E =-.709406E-10
       N       E                     dE             d eps       ncg     rms          rms(c)
DAV:   1    -0.648980588747E+02    0.40563E-09    0.82109E-11    84   0.196E-10    0.270E-10
RMM:   2    -0.648980588753E+02   -0.60027E-09    0.00000E+00     0   0.200E-10
 171 F= -.64898059E+02 E0= -.64895565E+02  d E =0.563887E-10
       N       E                     dE             d eps       ncg     rms          rms(c)
DAV:   1    -0.648980588754E+02   -0.68394E-09    0.33383E-11    84   0.209E-10    0.313E-10
RMM:   2    -0.648980588754E+02    0.18190E-10    0.00000E+00     0   0.201E-10
 172 F= -.64898059E+02 E0= -.64895565E+02  d E =-.654836E-10
       N       E                     dE             d eps       ncg     rms          rms(c)
DAV:   1    -0.648980588749E+02    0.49658E-09    0.22995E-11    84   0.265E-10    0.182E-10
RMM:   2    -0.648980588752E+02   -0.34197E-09    0.00000E+00     0   0.150E-10
 173 F= -.64898059E+02 E0= -.64895565E+02  d E =0.136424E-09
       N       E                     dE             d eps       ncg     rms          rms(c)
DAV:   1    -0.648980588746E+02    0.32924E-09   -0.63686E-12    84   0.194E-10    0.187E-10
RMM:   2    -0.648980588753E+02   -0.70941E-09    0.00000E+00     0   0.164E-10
 174 F= -.64898059E+02 E0= -.64895565E+02  d E =-.381988E-10
       N       E                     dE             d eps       ncg     rms          rms(c)
DAV:   1    -0.648980588758E+02   -0.12478E-08    0.40691E-11    84   0.190E-10    0.204E-10
RMM:   2    -0.648980588753E+02    0.48021E-09    0.00000E+00     0   0.143E-10
 175 F= -.64898059E+02 E0= -.64895565E+02  d E =-.582077E-10
       N       E                     dE             d eps       ncg     rms          rms(c)
DAV:   1    -0.648980588754E+02    0.40563E-09    0.45912E-11    84   0.156E-10    0.170E-10
RMM:   2    -0.648980588752E+02    0.18190E-09    0.00000E+00     0   0.153E-10
 176 F= -.64898059E+02 E0= -.64895565E+02  d E =0.107320E-09
       N       E                     dE             d eps       ncg     rms          rms(c)
DAV:   1    -0.648980588754E+02    0.36380E-10    0.88400E-12    84   0.171E-10    0.183E-10
RMM:   2    -0.648980588752E+02    0.16917E-09    0.00000E+00     0   0.131E-10
 177 F= -.64898059E+02 E0= -.64895565E+02  d E =0.236469E-10
       N       E                     dE             d eps       ncg     rms          rms(c)
DAV:   1    -0.648980588752E+02    0.12005E-09    0.62055E-11    84   0.155E-10    0.316E-10
RMM:   2    -0.648980588753E+02   -0.52751E-10    0.00000E+00     0   0.162E-10
 178 F= -.64898059E+02 E0= -.64895565E+02  d E =-.101863E-09
       N       E                     dE             d eps       ncg     rms          rms(c)
DAV:   1    -0.648980588755E+02   -0.26557E-09    0.18336E-11    84   0.244E-10    0.167E-10
RMM:   2    -0.648980588753E+02    0.19827E-09    0.00000E+00     0   0.127E-10
 179 F= -.64898059E+02 E0= -.64895565E+02  d E =-.145519E-10
       N       E                     dE             d eps       ncg     rms          rms(c)
DAV:   1    -0.648980588758E+02   -0.31650E-09    0.55688E-11    84   0.151E-10    0.193E-10
RMM:   2    -0.648980588753E+02    0.50386E-09    0.00000E+00     0   0.133E-10
 180 F= -.64898059E+02 E0= -.64895565E+02  d E =-.109139E-10
       N       E                     dE             d eps       ncg     rms          rms(c)
DAV:   1    -0.648980588753E+02    0.51477E-09    0.31681E-11    84   0.147E-10    0.210E-10
RMM:   2    -0.648980588753E+02    0.12733E-10    0.00000E+00     0   0.157E-10
 181 F= -.64898059E+02 E0= -.64895565E+02  d E =0.236469E-10
       N       E                     dE             d eps       ncg     rms          rms(c)
DAV:   1    -0.648980588759E+02   -0.60027E-09    0.91985E-11    84   0.232E-10    0.200E-10
RMM:   2    -0.648980588753E+02    0.63847E-09    0.00000E+00     0   0.139E-10
 182 F= -.64898059E+02 E0= -.64895565E+02  d E =0.254659E-10
       N       E                     dE             d eps       ncg     rms          rms(c)
DAV:   1    -0.648980588752E+02    0.72396E-09    0.29399E-11    84   0.184E-10    0.151E-10
RMM:   2    -0.648980588754E+02   -0.19827E-09    0.00000E+00     0   0.131E-10
 183 F= -.64898059E+02 E0= -.64895565E+02  d E =-.112777E-09
       N       E                     dE             d eps       ncg     rms          rms(c)
DAV:   1    -0.648980588753E+02   -0.78217E-10    0.40873E-11    84   0.136E-10    0.224E-10
RMM:   2    -0.648980588754E+02   -0.10550E-09    0.00000E+00     0   0.185E-10
 184 F= -.64898059E+02 E0= -.64895565E+02  d E =0.145519E-10
       N       E                     dE             d eps       ncg     rms          rms(c)
DAV:   1    -0.648980588756E+02   -0.36380E-09    0.34533E-11    84   0.179E-10    0.295E-10
RMM:   2    -0.648980588752E+02    0.40745E-09    0.00000E+00     0   0.173E-10
 185 F= -.64898059E+02 E0= -.64895565E+02  d E =0.149157E-09
       N       E                     dE             d eps       ncg     rms          rms(c)
DAV:   1    -0.648980588751E+02    0.50386E-09    0.58698E-11    84   0.214E-10    0.457E-10
RMM:   2    -0.648980588754E+02   -0.28012E-09    0.00000E+00     0   0.226E-10
 186 F= -.64898059E+02 E0= -.64895565E+02  d E =-.183718E-09
       N       E                     dE             d eps       ncg     rms          rms(c)
DAV:   1    -0.648980588752E+02   -0.47294E-10    0.40716E-11    84   0.342E-10    0.135E-10
RMM:   2    -0.648980588754E+02   -0.20373E-09    0.00000E+00     0   0.140E-10
 187 F= -.64898059E+02 E0= -.64895565E+02  d E =0.291038E-10
       N       E                     dE             d eps       ncg     rms          rms(c)
DAV:   1    -0.648980588756E+02   -0.38017E-09    0.84793E-11    84   0.139E-10    0.166E-10
RMM:   2    -0.648980588753E+02    0.24920E-09    0.00000E+00     0   0.138E-10
 188 F= -.64898059E+02 E0= -.64895565E+02  d E =0.727596E-10
       N       E                     dE             d eps       ncg     rms          rms(c)
DAV:   1    -0.648980588749E+02    0.62391E-09    0.22002E-11    84   0.165E-10    0.308E-10
RMM:   2    -0.648980588753E+02   -0.37835E-09    0.00000E+00     0   0.169E-10
 189 F= -.64898059E+02 E0= -.64895565E+02  d E =-.363798E-11
       N       E                     dE             d eps       ncg     rms          rms(c)
DAV:   1    -0.648980588749E+02    0.69122E-10   -0.24800E-11    84   0.244E-10    0.153E-10
RMM:   2    -0.648980588753E+02   -0.40018E-09    0.00000E+00     0   0.131E-10
 190 F= -.64898059E+02 E0= -.64895565E+02  d E =0.472937E-10
       N       E                     dE             d eps       ncg     rms          rms(c)
DAV:   1    -0.648980588753E+02   -0.46566E-09    0.12773E-11    84   0.154E-10    0.202E-10
RMM:   2    -0.648980588752E+02    0.92768E-10    0.00000E+00     0   0.171E-10
 191 F= -.64898059E+02 E0= -.64895565E+02  d E =0.272848E-10
       N       E                     dE             d eps       ncg     rms          rms(c)
DAV:   1    -0.648980588752E+02    0.12187E-09   -0.61865E-12    84   0.183E-10    0.186E-10
RMM:   2    -0.648980588753E+02   -0.70941E-10    0.00000E+00     0   0.144E-10
 192 F= -.64898059E+02 E0= -.64895565E+02  d E =-.418368E-10
       N       E                     dE             d eps       ncg     rms          rms(c)
DAV:   1    -0.648980588751E+02    0.14916E-09    0.59076E-11    84   0.169E-10    0.300E-10
RMM:   2    -0.648980588753E+02   -0.25102E-09    0.00000E+00     0   0.171E-10
 193 F= -.64898059E+02 E0= -.64895565E+02  d E =-.309228E-10
       N       E                     dE             d eps       ncg     rms          rms(c)
DAV:   1    -0.648980588753E+02   -0.22192E-09   -0.11973E-11    84   0.200E-10    0.137E-10
RMM:   2    -0.648980588753E+02    0.20009E-10    0.00000E+00     0   0.167E-10
 194 F= -.64898059E+02 E0= -.64895565E+02  d E =0.491127E-10
       N       E                     dE             d eps       ncg     rms          rms(c)
DAV:   1    -0.648980588750E+02    0.26012E-09    0.16710E-11    84   0.133E-10    0.251E-10
RMM:   2    -0.648980588754E+02   -0.38926E-09    0.00000E+00     0   0.169E-10
 195 F= -.64898059E+02 E0= -.64895565E+02  d E =-.149157E-09
       N       E                     dE             d eps       ncg     rms          rms(c)
DAV:   1    -0.648980588761E+02   -0.11114E-08    0.29276E-11    84   0.231E-10    0.304E-10
RMM:   2    -0.648980588753E+02    0.84219E-09    0.00000E+00     0   0.198E-10
 196 F= -.64898059E+02 E0= -.64895565E+02  d E =0.120053E-09
       N       E                     dE             d eps       ncg     rms          rms(c)
DAV:   1    -0.648980588759E+02    0.22010E-09    0.36828E-11    84   0.236E-10    0.160E-10
RMM:   2    -0.648980588754E+02    0.55479E-09    0.00000E+00     0   0.131E-10
 197 F= -.64898059E+02 E0= -.64895565E+02  d E =-.673026E-10
       N       E                     dE             d eps       ncg     rms          rms(c)
DAV:   1    -0.648980588750E+02    0.92768E-09    0.40642E-11    84   0.132E-10    0.177E-10
RMM:   2    -0.648980588753E+02   -0.30195E-09    0.00000E+00     0   0.153E-10
 198 F= -.64898059E+02 E0= -.64895565E+02  d E =0.709406E-10
       N       E                     dE             d eps       ncg     rms          rms(c)
DAV:   1    -0.648980588751E+02   -0.74579E-10    0.69658E-12    84   0.137E-10    0.388E-10
RMM:   2    -0.648980588752E+02   -0.18736E-09    0.00000E+00     0   0.217E-10
 199 F= -.64898059E+02 E0= -.64895565E+02  d E =0.400178E-10
       N       E                     dE             d eps       ncg     rms          rms(c)
DAV:   1    -0.648980588745E+02    0.58571E-09    0.66357E-11    84   0.279E-10    0.139E-10
RMM:   2    -0.648980588753E+02   -0.78217E-09    0.00000E+00     0   0.152E-10
 200 F= -.64898059E+02 E0= -.64895565E+02  d E =-.909495E-11
       N       E                     dE             d eps       ncg     rms          rms(c)
DAV:   1    -0.648980588756E+02   -0.11169E-08    0.71856E-11    84   0.124E-10    0.183E-10
RMM:   2    -0.648980588752E+02    0.38381E-09    0.00000E+00     0   0.112E-10
 201 F= -.64898059E+02 E0= -.64895565E+02  d E =0.491127E-10
       N       E                     dE             d eps       ncg     rms          rms(c)
DAV:   1    -0.648980588749E+02    0.67666E-09   -0.16973E-11    84   0.157E-10    0.329E-10
RMM:   2    -0.648980588753E+02   -0.35652E-09    0.00000E+00     0   0.205E-10
 202 F= -.64898059E+02 E0= -.64895565E+02  d E =-.636646E-10
       N       E                     dE             d eps       ncg     rms          rms(c)
DAV:   1    -0.648980588756E+02   -0.64938E-09    0.13437E-11    84   0.271E-10    0.221E-10
RMM:   2    -0.648980588753E+02    0.28558E-09    0.00000E+00     0   0.177E-10
 203 F= -.64898059E+02 E0= -.64895565E+02  d E =-.727596E-11
       N       E                     dE             d eps       ncg     rms          rms(c)
DAV:   1    -0.648980588756E+02   -0.38199E-10   -0.22481E-11    84   0.196E-10    0.118E-10
RMM:   2    -0.648980588752E+02    0.39472E-09    0.00000E+00     0   0.130E-10
 204 F= -.64898059E+02 E0= -.64895565E+02  d E =0.709406E-10
       N       E                     dE             d eps       ncg     rms          rms(c)
DAV:   1    -0.648980588753E+02    0.27103E-09    0.45687E-11    84   0.134E-10    0.262E-10
RMM:   2    -0.648980588753E+02    0.38199E-10    0.00000E+00     0   0.202E-10
 205 F= -.64898059E+02 E0= -.64895565E+02  d E =-.854925E-10
       N       E                     dE             d eps       ncg     rms          rms(c)
DAV:   1    -0.648980588752E+02    0.10004E-09   -0.18528E-11    84   0.215E-10    0.178E-10
RMM:   2    -0.648980588754E+02   -0.12915E-09    0.00000E+00     0   0.142E-10
 206 F= -.64898059E+02 E0= -.64895565E+02  d E =-.673026E-10
       N       E                     dE             d eps       ncg     rms          rms(c)
DAV:   1    -0.648980588751E+02    0.98225E-10    0.53929E-11    84   0.172E-10    0.316E-10
RMM:   2    -0.648980588753E+02   -0.17099E-09    0.00000E+00     0   0.200E-10
 207 F= -.64898059E+02 E0= -.64895565E+02  d E =0.563887E-10
       N       E                     dE             d eps       ncg     rms          rms(c)
DAV:   1    -0.648980588750E+02    0.12005E-09    0.41371E-11    84   0.292E-10    0.277E-10
RMM:   2    -0.648980588753E+02   -0.32924E-09    0.00000E+00     0   0.186E-10
 208 F= -.64898059E+02 E0= -.64895565E+02  d E =-.381988E-10
       N       E                     dE             d eps       ncg     rms          rms(c)
DAV:   1    -0.648980588751E+02   -0.14006E-09    0.45848E-11    84   0.234E-10    0.383E-10
RMM:   2    -0.648980588752E+02   -0.85493E-10    0.00000E+00     0   0.220E-10
 209 F= -.64898059E+02 E0= -.64895565E+02  d E =0.103682E-09
       N       E                     dE             d eps       ncg     rms          rms(c)
DAV:   1    -0.648980588758E+02   -0.62391E-09   -0.65245E-13    84   0.312E-10    0.346E-10
RMM:   2    -0.648980588754E+02    0.39472E-09    0.00000E+00     0   0.194E-10
 210 F= -.64898059E+02 E0= -.64895565E+02  d E =-.143700E-09
       N       E                     dE             d eps       ncg     rms          rms(c)
DAV:   1    -0.648980588749E+02    0.83855E-09    0.71650E-12    84   0.293E-10    0.212E-10
RMM:   2    -0.648980588754E+02   -0.43292E-09    0.00000E+00     0   0.155E-10
 211 F= -.64898059E+02 E0= -.64895565E+02  d E =0.109139E-10
       N       E                     dE             d eps       ncg     rms          rms(c)
DAV:   1    -0.648980588759E+02   -0.92041E-09    0.47379E-11    84   0.209E-10    0.360E-10
RMM:   2    -0.648980588753E+02    0.51841E-09    0.00000E+00     0   0.183E-10
 212 F= -.64898059E+02 E0= -.64895565E+02  d E =0.309228E-10
       N       E                     dE             d eps       ncg     rms          rms(c)
DAV:   1    -0.648980588753E+02    0.54206E-09    0.38940E-11    84   0.286E-10    0.187E-10
RMM:   2    -0.648980588753E+02    0.50932E-10    0.00000E+00     0   0.146E-10
 213 F= -.64898059E+02 E0= -.64895565E+02  d E =0.745786E-10
       N       E                     dE             d eps       ncg     rms          rms(c)
DAV:   1    -0.648980588753E+02    0.21828E-10    0.20730E-11    84   0.206E-10    0.256E-10
RMM:   2    -0.648980588753E+02    0.90949E-11    0.00000E+00     0   0.162E-10
 214 F= -.64898059E+02 E0= -.64895565E+02  d E =-.200089E-10
       N       E                     dE             d eps       ncg     rms          rms(c)
DAV:   1    -0.648980588754E+02   -0.63665E-10    0.83075E-12    84   0.206E-10    0.210E-10
RMM:   2    -0.648980588753E+02    0.90949E-10    0.00000E+00     0   0.157E-10
 215 F= -.64898059E+02 E0= -.64895565E+02  d E =0.181899E-10
       N       E                     dE             d eps       ncg     rms          rms(c)
DAV:   1    -0.648980588753E+02    0.98225E-10   -0.10317E-11    84   0.210E-10    0.366E-10
RMM:   2    -0.648980588752E+02    0.41837E-10    0.00000E+00     0   0.193E-10
 216 F= -.64898059E+02 E0= -.64895565E+02  d E =0.491127E-10
       N       E                     dE             d eps       ncg     rms          rms(c)
DAV:   1    -0.648980588755E+02   -0.23101E-09   -0.49825E-11    84   0.295E-10    0.190E-10
RMM:   2    -0.648980588753E+02    0.16553E-09    0.00000E+00     0   0.142E-10
 217 F= -.64898059E+02 E0= -.64895565E+02  d E =-.107320E-09
       N       E                     dE             d eps       ncg     rms          rms(c)
DAV:   1    -0.648980588760E+02   -0.48385E-09    0.27148E-11    84   0.148E-10    0.363E-10
RMM:   2    -0.648980588753E+02    0.69849E-09    0.00000E+00     0   0.220E-10
 218 F= -.64898059E+02 E0= -.64895565E+02  d E =0.491127E-10
       N       E                     dE             d eps       ncg     rms          rms(c)
DAV:   1    -0.648980588757E+02    0.24193E-09    0.62019E-11    84   0.281E-10    0.450E-10
RMM:   2    -0.648980588752E+02    0.48749E-09    0.00000E+00     0   0.272E-10
 219 F= -.64898059E+02 E0= -.64895565E+02  d E =0.309228E-10
       N       E                     dE             d eps       ncg     rms          rms(c)
DAV:   1    -0.648980588751E+02    0.61664E-09   -0.94517E-12    84   0.376E-10    0.291E-10
RMM:   2    -0.648980588754E+02   -0.25466E-09    0.00000E+00     0   0.185E-10
 220 F= -.64898059E+02 E0= -.64895565E+02  d E =-.125510E-09
       N       E                     dE             d eps       ncg     rms          rms(c)
DAV:   1    -0.648980588754E+02   -0.32378E-09    0.21205E-11    84   0.281E-10    0.111E-10
RMM:   2    -0.648980588753E+02    0.16007E-09    0.00000E+00     0   0.114E-10
 221 F= -.64898059E+02 E0= -.64895565E+02  d E =0.909495E-10
       N       E                     dE             d eps       ncg     rms          rms(c)
DAV:   1    -0.648980588748E+02    0.64756E-09    0.31053E-11    84   0.109E-10    0.159E-10
RMM:   2    -0.648980588753E+02   -0.54933E-09    0.00000E+00     0   0.109E-10
 222 F= -.64898059E+02 E0= -.64895565E+02  d E =-.618456E-10
       N       E                     dE             d eps       ncg     rms          rms(c)
DAV:   1    -0.648980588755E+02   -0.68030E-09    0.49051E-11    84   0.186E-10    0.313E-10
RMM:   2    -0.648980588753E+02    0.17280E-09    0.00000E+00     0   0.204E-10
 223 F= -.64898059E+02 E0= -.64895565E+02  d E =0.418368E-10
       N       E                     dE             d eps       ncg     rms          rms(c)
DAV:   1    -0.648980588749E+02    0.53114E-09    0.43784E-11    84   0.217E-10    0.304E-10
RMM:   2    -0.648980588754E+02   -0.45111E-09    0.00000E+00     0   0.185E-10
 224 F= -.64898059E+02 E0= -.64895565E+02  d E =-.927685E-10
       N       E                     dE             d eps       ncg     rms          rms(c)
DAV:   1    -0.648980588758E+02   -0.81309E-09   -0.18014E-11    84   0.241E-10    0.242E-10
RMM:   2    -0.648980588753E+02    0.45657E-09    0.00000E+00     0   0.188E-10
 225 F= -.64898059E+02 E0= -.64895565E+02  d E =0.945874E-10
       N       E                     dE             d eps       ncg     rms          rms(c)
DAV:   1    -0.648980588752E+02    0.52205E-09    0.20371E-11    84   0.208E-10    0.237E-10
RMM:   2    -0.648980588754E+02   -0.17280E-09    0.00000E+00     0   0.199E-10
 226 F= -.64898059E+02 E0= -.64895565E+02  d E =-.107320E-09
       N       E                     dE             d eps       ncg     rms          rms(c)
DAV:   1    -0.648980588751E+02    0.80036E-10    0.66371E-11    84   0.227E-10    0.167E-10
RMM:   2    -0.648980588752E+02   -0.89130E-10    0.00000E+00     0   0.139E-10
 227 F= -.64898059E+02 E0= -.64895565E+02  d E =0.163709E-09
       N       E                     dE             d eps       ncg     rms          rms(c)
DAV:   1    -0.648980588753E+02   -0.15280E-09   -0.25057E-11    84   0.157E-10    0.362E-10
RMM:   2    -0.648980588753E+02    0.25466E-10    0.00000E+00     0   0.213E-10
 228 F= -.64898059E+02 E0= -.64895565E+02  d E =-.381988E-10
       N       E                     dE             d eps       ncg     rms          rms(c)
DAV:   1    -0.648980588756E+02   -0.32196E-09    0.31714E-11    84   0.261E-10    0.137E-10
RMM:   2    -0.648980588752E+02    0.38381E-09    0.00000E+00     0   0.121E-10
 229 F= -.64898059E+02 E0= -.64895565E+02  d E =0.363798E-10
       N       E                     dE             d eps       ncg     rms          rms(c)
DAV:   1    -0.648980588762E+02   -0.52933E-09   -0.27033E-11    84   0.145E-10    0.242E-10
RMM:   2    -0.648980588753E+02    0.86038E-09    0.00000E+00     0   0.178E-10
 230 F= -.64898059E+02 E0= -.64895565E+02  d E =-.527507E-10
       N       E                     dE             d eps       ncg     rms          rms(c)
DAV:   1    -0.648980588748E+02    0.13988E-08   -0.31365E-11    84   0.190E-10    0.193E-10
RMM:   2    -0.648980588752E+02   -0.48021E-09    0.00000E+00     0   0.156E-10
 231 F= -.64898059E+02 E0= -.64895565E+02  d E =0.582077E-10
       N       E                     dE             d eps       ncg     rms          rms(c)
DAV:   1    -0.648980588755E+02   -0.69667E-09    0.11562E-11    84   0.152E-10    0.154E-10
RMM:   2    -0.648980588753E+02    0.14916E-09    0.00000E+00     0   0.127E-10
 232 F= -.64898059E+02 E0= -.64895565E+02  d E =-.673026E-10
       N       E                     dE             d eps       ncg     rms          rms(c)
DAV:   1    -0.648980588756E+02   -0.16553E-09    0.16182E-11    84   0.119E-10    0.916E-11
RMM:   2    -0.648980588753E+02    0.33651E-09    0.00000E+00     0   0.983E-11
 233 F= -.64898059E+02 E0= -.64895565E+02  d E =0.218279E-10
       N       E                     dE             d eps       ncg     rms          rms(c)
DAV:   1    -0.648980588761E+02   -0.44565E-09    0.56192E-11    84   0.894E-11    0.106E-10
RMM:   2    -0.648980588754E+02    0.68030E-09    0.00000E+00     0   0.112E-10
 234 F= -.64898059E+02 E0= -.64895565E+02  d E =-.101863E-09
       N       E                     dE             d eps       ncg     rms          rms(c)
DAV:   1    -0.648980588748E+02    0.12842E-08    0.58503E-11    84   0.101E-10    0.342E-10
RMM:   2    -0.648980588752E+02   -0.44383E-09    0.00000E+00     0   0.191E-10
 235 F= -.64898059E+02 E0= -.64895565E+02  d E =0.160071E-09
       N       E                     dE             d eps       ncg     rms          rms(c)
DAV:   1    -0.648980588752E+02   -0.46930E-09   -0.28622E-11    84   0.285E-10    0.507E-10
RMM:   2    -0.648980588753E+02   -0.56389E-10    0.00000E+00     0   0.252E-10
 236 F= -.64898059E+02 E0= -.64895565E+02  d E =-.818545E-10
       N       E                     dE             d eps       ncg     rms          rms(c)
DAV:   1    -0.648980588753E+02   -0.16371E-10   -0.78960E-12    84   0.400E-10    0.236E-10
RMM:   2    -0.648980588754E+02   -0.12733E-09    0.00000E+00     0   0.146E-10
 237 F= -.64898059E+02 E0= -.64895565E+02  d E =-.873115E-10
       N       E                     dE             d eps       ncg     rms          rms(c)
DAV:   1    -0.648980588748E+02    0.45293E-09   -0.73831E-12    84   0.166E-10    0.170E-10
RMM:   2    -0.648980588753E+02   -0.49477E-09    0.00000E+00     0   0.141E-10
 238 F= -.64898059E+02 E0= -.64895565E+02  d E =0.854925E-10
       N       E                     dE             d eps       ncg     rms          rms(c)
DAV:   1    -0.648980588751E+02   -0.32378E-09    0.86025E-11    84   0.181E-10    0.176E-10
RMM:   2    -0.648980588753E+02   -0.15098E-09    0.00000E+00     0   0.150E-10
 239 F= -.64898059E+02 E0= -.64895565E+02  d E =0.200089E-10
       N       E                     dE             d eps       ncg     rms          rms(c)
DAV:   1    -0.648980588751E+02    0.56389E-10    0.11687E-10    84   0.134E-10    0.104E-10
RMM:   2    -0.648980588752E+02   -0.14552E-09    0.00000E+00     0   0.133E-10
 240 F= -.64898059E+02 E0= -.64895565E+02  d E =0.618456E-10
       N       E                     dE             d eps       ncg     rms          rms(c)
DAV:   1    -0.648980588750E+02    0.74579E-10    0.23239E-11    84   0.161E-10    0.141E-10
[...]
 939 F= -.64898059E+02 E0= -.64895565E+02  d E =0.509317E-10
       N       E                     dE             d eps       ncg     rms          rms(c)
DAV:   1    -0.648980588753E+02   -0.24193E-09    0.17287E-11    84   0.236E-10    0.149E-10
RMM:   2    -0.648980588753E+02    0.69122E-10    0.00000E+00     0   0.124E-10
 940 F= -.64898059E+02 E0= -.64895565E+02  d E =0.145519E-10
       N       E                     dE             d eps       ncg     rms          rms(c)
DAV:   1    -0.648980588757E+02   -0.36016E-09    0.34831E-11    84   0.146E-10    0.171E-10
RMM:   2    -0.648980588752E+02    0.44747E-09    0.00000E+00     0   0.147E-10
 941 F= -.64898059E+02 E0= -.64895565E+02  d E =0.181899E-10
       N       E                     dE             d eps       ncg     rms          rms(c)
DAV:   1    -0.648980588754E+02    0.30195E-09    0.64092E-11    84   0.145E-10    0.187E-10
RMM:   2    -0.648980588753E+02    0.74579E-10    0.00000E+00     0   0.133E-10
 942 F= -.64898059E+02 E0= -.64895565E+02  d E =-.709406E-10
       N       E                     dE             d eps       ncg     rms          rms(c)
DAV:   1    -0.648980588759E+02   -0.52569E-09    0.62781E-11    84   0.132E-10    0.115E-10
RMM:   2    -0.648980588752E+02    0.68030E-09    0.00000E+00     0   0.945E-11
 943 F= -.64898059E+02 E0= -.64895565E+02  d E =0.800355E-10
       N       E                     dE             d eps       ncg     rms          rms(c)
DAV:   1    -0.648980588747E+02    0.12369E-08    0.60685E-11    84   0.134E-10    0.233E-10
RMM:   2    -0.648980588754E+02   -0.70577E-09    0.00000E+00     0   0.142E-10
 944 F= -.64898059E+02 E0= -.64895565E+02  d E =-.149157E-09
       N       E                     dE             d eps       ncg     rms          rms(c)
DAV:   1    -0.648980588751E+02   -0.42201E-09    0.42342E-11    84   0.140E-10    0.155E-10
RMM:   2    -0.648980588754E+02   -0.26375E-09    0.00000E+00     0   0.123E-10
 945 F= -.64898059E+02 E0= -.64895565E+02  d E =0.200089E-10
       N       E                     dE             d eps       ncg     rms          rms(c)
DAV:   1    -0.648980588754E+02   -0.33288E-09    0.24737E-11    84   0.169E-10    0.225E-10
RMM:   2    -0.648980588753E+02    0.13461E-09    0.00000E+00     0   0.192E-10
 946 F= -.64898059E+02 E0= -.64895565E+02  d E =0.654836E-10
       N       E                     dE             d eps       ncg     rms          rms(c)
DAV:   1    -0.648980588750E+02    0.45475E-09    0.15272E-11    84   0.223E-10    0.182E-10
RMM:   2    -0.648980588753E+02   -0.27285E-09    0.00000E+00     0   0.127E-10
 947 F= -.64898059E+02 E0= -.64895565E+02  d E =0.472937E-10
       N       E                     dE             d eps       ncg     rms          rms(c)
DAV:   1    -0.648980588757E+02   -0.74397E-09    0.62401E-11    84   0.141E-10    0.210E-10
RMM:   2    -0.648980588753E+02    0.37835E-09    0.00000E+00     0   0.144E-10
 948 F= -.64898059E+02 E0= -.64895565E+02  d E =-.927685E-10
       N       E                     dE             d eps       ncg     rms          rms(c)
DAV:   1    -0.648980588754E+02    0.34197E-09    0.60232E-11    84   0.170E-10    0.171E-10
RMM:   2    -0.648980588753E+02    0.45475E-10    0.00000E+00     0   0.120E-10
 949 F= -.64898059E+02 E0= -.64895565E+02  d E =0.909495E-11
       N       E                     dE             d eps       ncg     rms          rms(c)
DAV:   1    -0.648980588759E+02   -0.53842E-09    0.16220E-11    84   0.160E-10    0.320E-10
RMM:   2    -0.648980588754E+02    0.52569E-09    0.00000E+00     0   0.160E-10
 950 F= -.64898059E+02 E0= -.64895565E+02  d E =-.582077E-10
       N       E                     dE             d eps       ncg     rms          rms(c)
DAV:   1    -0.648980588754E+02    0.47476E-09    0.34249E-11    84   0.232E-10    0.247E-10
RMM:   2    -0.648980588753E+02    0.16007E-09    0.00000E+00     0   0.155E-10
 951 F= -.64898059E+02 E0= -.64895565E+02  d E =0.109139E-09
       N       E                     dE             d eps       ncg     rms          rms(c)
DAV:   1    -0.648980588760E+02   -0.59663E-09    0.85397E-11    84   0.192E-10    0.187E-10
RMM:   2    -0.648980588752E+02    0.84401E-09    0.00000E+00     0   0.133E-10
 952 F= -.64898059E+02 E0= -.64895565E+02  d E =0.873115E-10
       N       E                     dE             d eps       ncg     rms          rms(c)
DAV:   1    -0.648980588757E+02    0.31650E-09    0.60109E-11    84   0.163E-10    0.258E-10
RMM:   2    -0.648980588753E+02    0.40745E-09    0.00000E+00     0   0.202E-10
 953 F= -.64898059E+02 E0= -.64895565E+02  d E =-.120053E-09
       N       E                     dE             d eps       ncg     rms          rms(c)
DAV:   1    -0.648980588761E+02   -0.38563E-09    0.48365E-11    84   0.217E-10    0.216E-10
RMM:   2    -0.648980588753E+02    0.82582E-09    0.00000E+00     0   0.189E-10
 954 F= -.64898059E+02 E0= -.64895565E+02  d E =0.327418E-10
       N       E                     dE             d eps       ncg     rms          rms(c)
DAV:   1    -0.648980588746E+02    0.14879E-08    0.79446E-12    84   0.217E-10    0.228E-10
RMM:   2    -0.648980588754E+02   -0.74397E-09    0.00000E+00     0   0.153E-10
 955 F= -.64898059E+02 E0= -.64895565E+02  d E =-.818545E-10
       N       E                     dE             d eps       ncg     rms          rms(c)
DAV:   1    -0.648980588751E+02   -0.43656E-09    0.98009E-12    84   0.166E-10    0.250E-10
RMM:   2    -0.648980588754E+02   -0.29650E-09    0.00000E+00     0   0.181E-10
 956 F= -.64898059E+02 E0= -.64895565E+02  d E =0.109139E-10
       N       E                     dE             d eps       ncg     rms          rms(c)
DAV:   1    -0.648980588747E+02    0.41109E-09    0.26099E-11    84   0.218E-10    0.237E-10
RMM:   2    -0.648980588754E+02   -0.72032E-09    0.00000E+00     0   0.176E-10
 957 F= -.64898059E+02 E0= -.64895565E+02  d E =-.127329E-10
       N       E                     dE             d eps       ncg     rms          rms(c)
DAV:   1    -0.648980588753E+02   -0.67848E-09   -0.70435E-12    84   0.191E-10    0.226E-10
RMM:   2    -0.648980588753E+02    0.72760E-11    0.00000E+00     0   0.177E-10
 958 F= -.64898059E+02 E0= -.64895565E+02  d E =0.491127E-10
       N       E                     dE             d eps       ncg     rms          rms(c)
DAV:   1    -0.648980588753E+02    0.34561E-10    0.33224E-11    84   0.210E-10    0.243E-10
RMM:   2    -0.648980588752E+02    0.85493E-10    0.00000E+00     0   0.179E-10
 959 F= -.64898059E+02 E0= -.64895565E+02  d E =0.112777E-09
       N       E                     dE             d eps       ncg     rms          rms(c)
DAV:   1    -0.648980588757E+02   -0.36198E-09   -0.15971E-11    84   0.219E-10    0.253E-10
RMM:   2    -0.648980588752E+02    0.45293E-09    0.00000E+00     0   0.201E-10
 960 F= -.64898059E+02 E0= -.64895565E+02  d E =0.545697E-11
       N       E                     dE             d eps       ncg     rms          rms(c)
DAV:   1    -0.648980588747E+02    0.92041E-09   -0.26393E-11    84   0.245E-10    0.173E-10
RMM:   2    -0.648980588753E+02   -0.58571E-09    0.00000E+00     0   0.176E-10
 961 F= -.64898059E+02 E0= -.64895565E+02  d E =-.118234E-09
       N       E                     dE             d eps       ncg     rms          rms(c)
DAV:   1    -0.648980588748E+02   -0.45475E-10    0.61274E-11    84   0.203E-10    0.416E-10
RMM:   2    -0.648980588753E+02   -0.54388E-09    0.00000E+00     0   0.234E-10
 962 F= -.64898059E+02 E0= -.64895565E+02  d E =-.363798E-11
       N       E                     dE             d eps       ncg     rms          rms(c)
DAV:   1    -0.648980588755E+02   -0.75670E-09   -0.40150E-12    84   0.320E-10    0.292E-10
RMM:   2    -0.648980588753E+02    0.28012E-09    0.00000E+00     0   0.187E-10
 963 F= -.64898059E+02 E0= -.64895565E+02  d E =0.673026E-10
       N       E                     dE             d eps       ncg     rms          rms(c)
DAV:   1    -0.648980588754E+02    0.18190E-09    0.39237E-11    84   0.224E-10    0.234E-10
RMM:   2    -0.648980588753E+02    0.52751E-10    0.00000E+00     0   0.175E-10
 964 F= -.64898059E+02 E0= -.64895565E+02  d E =-.454747E-10
       N       E                     dE             d eps       ncg     rms          rms(c)
DAV:   1    -0.648980588752E+02    0.13461E-09    0.49163E-12    84   0.221E-10    0.291E-10
RMM:   2    -0.648980588752E+02    0.72760E-11    0.00000E+00     0   0.187E-10
 965 F= -.64898059E+02 E0= -.64895565E+02  d E =0.891305E-10
       N       E                     dE             d eps       ncg     rms          rms(c)
DAV:   1    -0.648980588753E+02   -0.85493E-10    0.25182E-11    84   0.215E-10    0.196E-10
RMM:   2    -0.648980588753E+02    0.38199E-10    0.00000E+00     0   0.157E-10
 966 F= -.64898059E+02 E0= -.64895565E+02  d E =-.545697E-10
       N       E                     dE             d eps       ncg     rms          rms(c)
DAV:   1    -0.648980588751E+02    0.24193E-09    0.64660E-11    84   0.183E-10    0.191E-10
RMM:   2    -0.648980588753E+02   -0.22374E-09    0.00000E+00     0   0.182E-10
 967 F= -.64898059E+02 E0= -.64895565E+02  d E =-.200089E-10
       N       E                     dE             d eps       ncg     rms          rms(c)
DAV:   1    -0.648980588758E+02   -0.76579E-09   -0.24661E-11    84   0.165E-10    0.173E-10
RMM:   2    -0.648980588753E+02    0.57298E-09    0.00000E+00     0   0.147E-10
 968 F= -.64898059E+02 E0= -.64895565E+02  d E =0.309228E-10
       N       E                     dE             d eps       ncg     rms          rms(c)
DAV:   1    -0.648980588757E+02    0.17644E-09    0.45005E-11    84   0.146E-10    0.211E-10
RMM:   2    -0.648980588754E+02    0.28922E-09    0.00000E+00     0   0.149E-10
 969 F= -.64898059E+02 E0= -.64895565E+02  d E =-.107320E-09
       N       E                     dE             d eps       ncg     rms          rms(c)
DAV:   1    -0.648980588750E+02    0.64938E-09    0.38412E-11    84   0.193E-10    0.289E-10
RMM:   2    -0.648980588753E+02   -0.31832E-09    0.00000E+00     0   0.173E-10
 970 F= -.64898059E+02 E0= -.64895565E+02  d E =0.418368E-10
       N       E                     dE             d eps       ncg     rms          rms(c)
DAV:   1    -0.648980588751E+02   -0.85493E-10    0.32230E-11    84   0.248E-10    0.176E-10
RMM:   2    -0.648980588753E+02   -0.21464E-09    0.00000E+00     0   0.177E-10
 971 F= -.64898059E+02 E0= -.64895565E+02  d E =0.181899E-10
       N       E                     dE             d eps       ncg     rms          rms(c)
DAV:   1    -0.648980588753E+02   -0.21100E-09    0.58239E-11    84   0.164E-10    0.278E-10
RMM:   2    -0.648980588752E+02    0.98225E-10    0.00000E+00     0   0.175E-10
 972 F= -.64898059E+02 E0= -.64895565E+02  d E =0.101863E-09
       N       E                     dE             d eps       ncg     rms          rms(c)
DAV:   1    -0.648980588751E+02    0.23101E-09    0.10314E-12    84   0.180E-10    0.182E-10
RMM:   2    -0.648980588753E+02   -0.18008E-09    0.00000E+00     0   0.145E-10
 973 F= -.64898059E+02 E0= -.64895565E+02  d E =-.472937E-10
       N       E                     dE             d eps       ncg     rms          rms(c)
DAV:   1    -0.648980588757E+02   -0.60209E-09    0.27138E-11    84   0.183E-10    0.231E-10
RMM:   2    -0.648980588752E+02    0.46202E-09    0.00000E+00     0   0.164E-10
 974 F= -.64898059E+02 E0= -.64895565E+02  d E =0.400178E-10
       N       E                     dE             d eps       ncg     rms          rms(c)
DAV:   1    -0.648980588757E+02   -0.61846E-10    0.41233E-11    84   0.137E-10    0.138E-10
RMM:   2    -0.648980588754E+02    0.35652E-09    0.00000E+00     0   0.123E-10
 975 F= -.64898059E+02 E0= -.64895565E+02  d E =-.167347E-09
       N       E                     dE             d eps       ncg     rms          rms(c)
DAV:   1    -0.648980588754E+02    0.38563E-09   -0.17028E-11    84   0.174E-10    0.317E-10
RMM:   2    -0.648980588753E+02    0.10914E-10    0.00000E+00     0   0.233E-10
 976 F= -.64898059E+02 E0= -.64895565E+02  d E =0.400178E-10
       N       E                     dE             d eps       ncg     rms          rms(c)
DAV:   1    -0.648980588749E+02    0.45657E-09    0.56229E-11    84   0.266E-10    0.320E-10
RMM:   2    -0.648980588754E+02   -0.49295E-09    0.00000E+00     0   0.238E-10
 977 F= -.64898059E+02 E0= -.64895565E+02  d E =-.472937E-10
       N       E                     dE             d eps       ncg     rms          rms(c)
DAV:   1    -0.648980588745E+02    0.34561E-09    0.10275E-11    84   0.291E-10    0.208E-10
RMM:   2    -0.648980588754E+02   -0.81673E-09    0.00000E+00     0   0.174E-10
 978 F= -.64898059E+02 E0= -.64895565E+02  d E =0.218279E-10
       N       E                     dE             d eps       ncg     rms          rms(c)
DAV:   1    -0.648980588747E+02   -0.11278E-09   -0.65349E-12    84   0.226E-10    0.261E-10
RMM:   2    -0.648980588752E+02   -0.56752E-09    0.00000E+00     0   0.155E-10
 979 F= -.64898059E+02 E0= -.64895565E+02  d E =0.136424E-09
       N       E                     dE             d eps       ncg     rms          rms(c)
DAV:   1    -0.648980588751E+02   -0.44020E-09    0.34098E-11    84   0.254E-10    0.142E-10
RMM:   2    -0.648980588753E+02   -0.20191E-09    0.00000E+00     0   0.139E-10
 980 F= -.64898059E+02 E0= -.64895565E+02  d E =-.745786E-10
       N       E                     dE             d eps       ncg     rms          rms(c)
DAV:   1    -0.648980588747E+02    0.38017E-09    0.51857E-11    84   0.151E-10    0.146E-10
RMM:   2    -0.648980588752E+02   -0.50022E-09    0.00000E+00     0   0.115E-10
 981 F= -.64898059E+02 E0= -.64895565E+02  d E =0.818545E-10
       N       E                     dE             d eps       ncg     rms          rms(c)
DAV:   1    -0.648980588752E+02   -0.45475E-09    0.66767E-12    84   0.149E-10    0.246E-10
RMM:   2    -0.648980588754E+02   -0.21100E-09    0.00000E+00     0   0.178E-10
 982 F= -.64898059E+02 E0= -.64895565E+02  d E =-.165528E-09
       N       E                     dE             d eps       ncg     rms          rms(c)
DAV:   1    -0.648980588751E+02    0.76398E-10    0.61043E-11    84   0.209E-10    0.314E-10
RMM:   2    -0.648980588753E+02   -0.15825E-09    0.00000E+00     0   0.213E-10
 983 F= -.64898059E+02 E0= -.64895565E+02  d E =0.129148E-09
       N       E                     dE             d eps       ncg     rms          rms(c)
DAV:   1    -0.648980588749E+02    0.21464E-09   -0.31141E-12    84   0.258E-10    0.208E-10
RMM:   2    -0.648980588752E+02   -0.32560E-09    0.00000E+00     0   0.180E-10
 984 F= -.64898059E+02 E0= -.64895565E+02  d E =0.472937E-10
       N       E                     dE             d eps       ncg     rms          rms(c)
DAV:   1    -0.648980588751E+02   -0.22919E-09    0.36172E-12    84   0.233E-10    0.328E-10
RMM:   2    -0.648980588752E+02   -0.89130E-10    0.00000E+00     0   0.186E-10
 985 F= -.64898059E+02 E0= -.64895565E+02  d E =0.727596E-11
       N       E                     dE             d eps       ncg     rms          rms(c)
DAV:   1    -0.648980588756E+02   -0.53478E-09    0.83700E-11    84   0.268E-10    0.247E-10
RMM:   2    -0.648980588752E+02    0.40018E-09    0.00000E+00     0   0.202E-10
 986 F= -.64898059E+02 E0= -.64895565E+02  d E =-.454747E-10
       N       E                     dE             d eps       ncg     rms          rms(c)
DAV:   1    -0.648980588753E+02    0.31287E-09   -0.19963E-11    84   0.218E-10    0.211E-10
RMM:   2    -0.648980588754E+02   -0.23647E-10    0.00000E+00     0   0.158E-10
 987 F= -.64898059E+02 E0= -.64895565E+02  d E =-.110958E-09
       N       E                     dE             d eps       ncg     rms          rms(c)
DAV:   1    -0.648980588746E+02    0.73851E-09    0.36557E-11    84   0.193E-10    0.172E-10
RMM:   2    -0.648980588753E+02   -0.71850E-09    0.00000E+00     0   0.169E-10
 988 F= -.64898059E+02 E0= -.64895565E+02  d E =0.436557E-10
       N       E                     dE             d eps       ncg     rms          rms(c)
DAV:   1    -0.648980588755E+02   -0.90586E-09    0.49418E-11    84   0.174E-10    0.189E-10
RMM:   2    -0.648980588754E+02    0.14916E-09    0.00000E+00     0   0.140E-10
 989 F= -.64898059E+02 E0= -.64895565E+02  d E =-.381988E-10
       N       E                     dE             d eps       ncg     rms          rms(c)
DAV:   1    -0.648980588755E+02   -0.41837E-10    0.28295E-11    84   0.132E-10    0.163E-10
RMM:   2    -0.648980588754E+02    0.16007E-09    0.00000E+00     0   0.998E-11
 990 F= -.64898059E+02 E0= -.64895565E+02  d E =-.309228E-10
       N       E                     dE             d eps       ncg     rms          rms(c)
DAV:   1    -0.648980588758E+02   -0.26193E-09    0.43055E-11    84   0.116E-10    0.203E-10
RMM:   2    -0.648980588753E+02    0.46020E-09    0.00000E+00     0   0.116E-10
 991 F= -.64898059E+02 E0= -.64895565E+02  d E =0.381988E-10
       N       E                     dE             d eps       ncg     rms          rms(c)
DAV:   1    -0.648980588758E+02    0.32742E-10    0.69131E-11    84   0.171E-10    0.205E-10
RMM:   2    -0.648980588753E+02    0.45657E-09    0.00000E+00     0   0.122E-10
 992 F= -.64898059E+02 E0= -.64895565E+02  d E =0.291038E-10
       N       E                     dE             d eps       ncg     rms          rms(c)
DAV:   1    -0.648980588760E+02   -0.20373E-09    0.83971E-11    84   0.168E-10    0.139E-10
RMM:   2    -0.648980588753E+02    0.68940E-09    0.00000E+00     0   0.128E-10
 993 F= -.64898059E+02 E0= -.64895565E+02  d E =0.291038E-10
       N       E                     dE             d eps       ncg     rms          rms(c)
DAV:   1    -0.648980588750E+02    0.96952E-09    0.93377E-11    84   0.138E-10    0.271E-10
RMM:   2    -0.648980588752E+02   -0.22192E-09    0.00000E+00     0   0.139E-10
 994 F= -.64898059E+02 E0= -.64895565E+02  d E =0.582077E-10
       N       E                     dE             d eps       ncg     rms          rms(c)
DAV:   1    -0.648980588754E+02   -0.37107E-09    0.35388E-11    84   0.165E-10    0.239E-10
RMM:   2    -0.648980588753E+02    0.36380E-10    0.00000E+00     0   0.188E-10
 995 F= -.64898059E+02 E0= -.64895565E+02  d E =-.112777E-09
       N       E                     dE             d eps       ncg     rms          rms(c)
DAV:   1    -0.648980588758E+02   -0.45657E-09    0.59667E-12    84   0.211E-10    0.258E-10
RMM:   2    -0.648980588754E+02    0.48021E-09    0.00000E+00     0   0.199E-10
 996 F= -.64898059E+02 E0= -.64895565E+02  d E =-.127329E-10
       N       E                     dE             d eps       ncg     rms          rms(c)
DAV:   1    -0.648980588749E+02    0.94224E-09   -0.12446E-11    84   0.260E-10    0.414E-10
RMM:   2    -0.648980588753E+02   -0.39836E-09    0.00000E+00     0   0.198E-10
 997 F= -.64898059E+02 E0= -.64895565E+02  d E =0.636646E-10
       N       E                     dE             d eps       ncg     rms          rms(c)
DAV:   1    -0.648980588748E+02    0.60027E-10   -0.13115E-12    84   0.278E-10    0.132E-10
RMM:   2    -0.648980588753E+02   -0.43292E-09    0.00000E+00     0   0.131E-10
 998 F= -.64898059E+02 E0= -.64895565E+02  d E =0.254659E-10
       N       E                     dE             d eps       ncg     rms          rms(c)
DAV:   1    -0.648980588756E+02   -0.78944E-09    0.33004E-11    84   0.191E-10    0.277E-10
RMM:   2    -0.648980588753E+02    0.33651E-09    0.00000E+00     0   0.172E-10
 999 F= -.64898059E+02 E0= -.64895565E+02  d E =-.200089E-10
       N       E                     dE             d eps       ncg     rms          rms(c)
DAV:   1    -0.648980588758E+02   -0.17099E-09    0.37031E-11    84   0.201E-10    0.287E-10
RMM:   2    -0.648980588753E+02    0.52569E-09    0.00000E+00     0   0.171E-10
1000 F= -.64898059E+02 E0= -.64895565E+02  d E =0.181899E-10
