 vasp.6.3.2 27Jun22 (build Mar 25 2024 10:42:18) complex                         
 executed on             LinuxGNU date 2024.03.31  17:22:19
 running on   32 total cores
 distrk:  each k-point on   32 cores,    1 groups
 distr:  one band on NCORE=   1 cores,   32 groups


--------------------------------------------------------------------------------------------------------


 INCAR:
   ISTART = 0
   ICHARG = 2
   PREC = Accurate
   IBRION = -1
   EDIFF = 0.000000001
   EDIFFG = -0.0005
   NSW = 0
   NELM = 100
   ENCUT = 520
   ISMEAR = -5
   SIGMA = 0.05
   ISPIN = 2
   ISYM = 0
   LWAVE = False
   LCHARG = False
   LASPH = True
   LORBIT = 11
   ADDGRID = TRUE

 POTCAR:    PAW_PBE S 06Sep2000                   
 -----------------------------------------------------------------------------
|                                                                             |
|           W    W    AA    RRRRR   N    N  II  N    N   GGGG   !!!           |
|           W    W   A  A   R    R  NN   N  II  NN   N  G    G  !!!           |
|           W    W  A    A  R    R  N N  N  II  N N  N  G       !!!           |
|           W WW W  AAAAAA  RRRRR   N  N N  II  N  N N  G  GGG   !            |
|           WW  WW  A    A  R   R   N   NN  II  N   NN  G    G                |
|           W    W  A    A  R    R  N    N  II  N    N   GGGG   !!!           |
|                                                                             |
|     You use a magnetic or noncollinear calculation, but did not specify     |
|     the initial magnetic moment with the MAGMOM tag. Note that a            |
|     default of 1 will be used for all atoms. This ferromagnetic setup       |
|     may break the symmetry of the crystal, in particular it may rule        |
|     out finding an antiferromagnetic solution. Thence, we recommend         |
|     setting the initial magnetic moment manually or verifying carefully     |
|     that this magnetic setup is desired.                                    |
|                                                                             |
 -----------------------------------------------------------------------------

 -----------------------------------------------------------------------------
|                                                                             |
|           W    W    AA    RRRRR   N    N  II  N    N   GGGG   !!!           |
|           W    W   A  A   R    R  NN   N  II  NN   N  G    G  !!!           |
|           W    W  A    A  R    R  N N  N  II  N N  N  G       !!!           |
|           W WW W  AAAAAA  RRRRR   N  N N  II  N  N N  G  GGG   !            |
|           WW  WW  A    A  R   R   N   NN  II  N   NN  G    G                |
|           W    W  A    A  R    R  N    N  II  N    N   GGGG   !!!           |
|                                                                             |
|     For optimal performance we recommend to set                             |
|       NCORE = 2 up to number-of-cores-per-socket                            |
|     NCORE specifies how many cores store one orbital (NPAR=cpu/NCORE).      |
|     This setting can greatly improve the performance of VASP for DFT.       |
|     The default, NCORE=1 might be grossly inefficient on modern             |
|     multi-core architectures or massively parallel machines. Do your        |
|     own testing! More info at https://www.vasp.at/wiki/index.php/NCORE      |
|     Unfortunately you need to use the default for GW and RPA                |
|     calculations (for HF NCORE is supported but not extensively tested      |
|     yet).                                                                   |
|                                                                             |
 -----------------------------------------------------------------------------

 POTCAR:    PAW_PBE S 06Sep2000                   
   SHA256 =  0fc7481fb0695f01bdc6462160264c5c84044ae9ec85a907d398b887a2bc3132 S/POTCAR              
   COPYR  = (c) Copyright 06Sep2000 Georg Kresse                                                    
   COPYR  = This file is part of the software VASP. Any use, copying, and all other rights are regul
   COPYR  = If you do not have a valid VASP license, you may not use, copy or distribute this file. 
   VRHFIN =S : s2p4                                                                                 
   LEXCH  = PE                                                                                      
   EATOM  =   276.8230 eV,   20.3459 Ry                                                             
                                                                                                    
   TITEL  = PAW_PBE S 06Sep2000                                                                     
   LULTRA =        F    use ultrasoft PP ?                                                          
   IUNSCR =        1    unscreen: 0-lin 1-nonlin 2-no                                               
   RPACOR =    1.500    partial core radius                                                         
   POMASS =   32.066; ZVAL   =    6.000    mass and valenz                                          
   RCORE  =    1.900    outmost cutoff radius                                                       
   RWIGS  =    2.200; RWIGS  =    1.164    wigner-seitz radius (au A)                               
   ENMAX  =  258.689; ENMIN  =  194.016 eV                                                          
   ICORE  =        2    local potential                                                             
   LCOR   =        T    correct aug charges                                                         
   LPAW   =        T    paw PP                                                                      
   EAUG   =  335.092                                                                                
   DEXC   =    0.000                                                                                
   RMAX   =    1.942    core radius for proj-oper                                                   
   RAUG   =    1.300    factor for augmentation sphere                                              
   RDEP   =    1.954    radius for radial grids                                                     
   RDEPT  =    1.744    core radius for aug-charge                                                  
                                                                                                    
   Atomic configuration                                                                             
    6 entries                                                                                       
     n  l   j            E        occ.                                                              
     1  0  0.50     -2405.8406   2.0000                                                             
     2  0  0.50      -211.7007   2.0000                                                             
     2  1  1.50      -156.4958   6.0000                                                             
     3  0  0.50       -17.2562   2.0000                                                             
     3  1  0.50        -7.0085   4.0000                                                             
     3  2  1.50        -6.8029   0.0000                                                             
   Description                                                                                      
     l       E           TYP  RCUT    TYP  RCUT                                                     
     0    -17.2561641     23  1.900                                                                 
     0    -15.8743224     23  1.900                                                                 
     1     -7.0085400     23  1.900                                                                 
     1     -2.7779785     23  1.900                                                                 
     2     -6.8029130     23  1.900                                                                 
  local pseudopotential read in
  partial core-charges read in
  partial kinetic energy density read in
  atomic valenz-charges read in
  non local Contribution for L=           0  read in
    real space projection operators read in
  non local Contribution for L=           0  read in
    real space projection operators read in
  non local Contribution for L=           1  read in
    real space projection operators read in
  non local Contribution for L=           1  read in
    real space projection operators read in
    PAW grid and wavefunctions read in

   number of l-projection  operators is LMAX  =           4
   number of lm-projection operators is LMMAX =           8

 -----------------------------------------------------------------------------
|                                                                             |
|               ----> ADVICE to this user running VASP <----                  |
|                                                                             |
|     You have a (more or less) 'large supercell' and for larger cells it     |
|     might be more efficient to use real-space projection operators.         |
|     Therefore, try LREAL= Auto in the INCAR file.                           |
|     Mind: For very accurate calculation, you might also keep the            |
|     reciprocal projection scheme (i.e. LREAL=.FALSE.).                      |
|                                                                             |
 -----------------------------------------------------------------------------

  PAW_PBE S 06Sep2000                   :
 energy of atom  1       EATOM= -276.8230
 kinetic energy error for atom=    0.0016 (will be added to EATOM!!)


 POSCAR: generated by phonopy
  positions in direct lattice
  No initial velocities read in
 exchange correlation table for  LEXCH =        8
   RHO(1)=    0.500       N(1)  =     2000
   RHO(2)=  100.500       N(2)  =     4000



--------------------------------------------------------------------------------------------------------


 ion  position               nearest neighbor table
   1  0.886  0.467  0.678-  45 1.98  24 2.13
   2  0.886  0.967  0.678-  46 1.98  23 2.13
   3  0.330  0.189  0.551-  41 2.05  19 2.13
   4  0.330  0.689  0.551-  42 2.05  20 2.13
   5  0.913  0.105  0.912-  51 1.98  11 2.13
   6  0.913  0.605  0.912-  52 1.98  12 2.13
   7  0.240  0.301  0.777-  19 1.98  37 2.23
   8  0.240  0.801  0.777-  20 1.98  38 2.23
   9  0.144  0.306  0.224-  31 2.05  39 2.13
  10  0.144  0.806  0.224-  32 2.05  40 2.13
  11  0.856  0.194  0.776-  47 2.05   5 2.13
  12  0.856  0.694  0.776-  48 2.05   6 2.13
  13  0.760  0.199  0.223-  27 1.98  33 2.23
  14  0.760  0.699  0.223-  28 1.98  34 2.23
  15  0.170  0.439  0.449-  31 2.05  30 2.13
  16  0.170  0.939  0.449-  32 2.05  29 2.13
  17  0.413  0.145  0.912-  37 1.98  43 2.13
  18  0.413  0.645  0.912-  38 1.98  44 2.13
  19  0.386  0.283  0.678-   7 1.98   3 2.13
  20  0.386  0.783  0.678-   8 1.98   4 2.13
  21  0.644  0.444  0.224-  53 2.05  35 2.13
  22  0.644  0.944  0.224-  54 2.05  36 2.13
  23  0.830  0.061  0.551-  47 2.05   2 2.13
  24  0.830  0.561  0.551-  48 2.05   1 2.13
  25  0.260  0.051  0.223-  29 1.98  50 2.23
  26  0.260  0.551  0.223-  30 1.98  49 2.23
  27  0.614  0.217  0.322-  13 1.98  55 2.13
  28  0.614  0.717  0.322-  14 1.98  56 2.13
  29  0.114  0.033  0.322-  25 1.98  16 2.13
  30  0.114  0.533  0.322-  26 1.98  15 2.13
  31  0.060  0.345  0.374-   9 2.05  15 2.05
  32  0.060  0.845  0.374-  10 2.05  16 2.05
  33  0.742  0.289  0.071-  35 1.97  13 2.23
  34  0.743  0.789  0.071-  36 1.98  14 2.23
  35  0.587  0.355  0.088-  33 1.97  21 2.13
  36  0.587  0.855  0.088-  34 1.98  22 2.13
  37  0.257  0.211  0.929-  17 1.98   7 2.23
  38  0.257  0.711  0.929-  18 1.98   8 2.23
  39  0.087  0.395  0.088-  49 1.98   9 2.13
  40  0.087  0.895  0.088-  50 1.98  10 2.13
  41  0.440  0.095  0.626-  43 2.05   3 2.05
  42  0.440  0.595  0.626-  44 2.05   4 2.05
  43  0.356  0.056  0.776-  41 2.05  17 2.13
  44  0.356  0.556  0.776-  42 2.05  18 2.13
  45  0.740  0.449  0.777-   1 1.98  52 2.23
  46  0.740  0.949  0.777-   2 1.98  51 2.23
  47  0.940  0.155  0.626-  11 2.05  23 2.05
  48  0.940  0.655  0.626-  12 2.05  24 2.05
  49  0.243  0.461  0.071-  39 1.98  26 2.23
  50  0.243  0.961  0.071-  40 1.98  25 2.23
  51  0.757  0.039  0.929-   5 1.98  46 2.23
  52  0.757  0.539  0.929-   6 1.98  45 2.23
  53  0.560  0.405  0.374-  21 2.05  55 2.05
  54  0.560  0.905  0.374-  22 2.05  56 2.05
  55  0.670  0.311  0.449-  53 2.05  27 2.13
  56  0.670  0.811  0.449-  54 2.05  28 2.13


IMPORTANT INFORMATION: All symmetrisations will be switched off!
NOSYMM: (Re-)initialisation of all symmetry stuff for point group C_1.


----------------------------------------------------------------------------------------

                                     Primitive cell                                     

  volume of cell :    1863.6770

  direct lattice vectors                    reciprocal lattice vectors
     0.000000000 10.307367086 -0.372855731     0.000000000  0.096453423 -0.015606996
    16.788494411  0.000000000  0.000000000     0.059564603  0.000000000  0.000000000
     0.000000000 -1.732519801-10.707215182     0.000000000 -0.003358783 -0.092851486

  length of vectors
    10.314108670 16.788494411 10.846477853     0.097707938  0.059564603  0.092912216

  position of ions in fractional coordinates (direct lattice)
     0.886423141  0.467004751  0.678126386
     0.886423141  0.967004751  0.678126386
     0.329563264  0.188743823  0.550707721
     0.329563264  0.688743823  0.550707721
     0.912671285  0.105241885  0.911960471
     0.912671285  0.605241885  0.911960471
     0.239736405  0.300831047  0.776574189
     0.239736405  0.800831047  0.776574189
     0.144417516  0.305688762  0.224396680
     0.144417516  0.805688762  0.224396680
     0.855582484  0.194311238  0.775603320
     0.855582484  0.694311238  0.775603320
     0.760263595  0.199168953  0.223425811
     0.760263595  0.699168953  0.223425811
     0.170436736  0.438743823  0.449292279
     0.170436736  0.938743823  0.449292279
     0.412671285  0.144758115  0.911960471
     0.412671285  0.644758115  0.911960471
     0.386423141  0.282995249  0.678126386
     0.386423141  0.782995249  0.678126386
     0.644417516  0.444311238  0.224396680
     0.644417516  0.944311238  0.224396680
     0.829563264  0.061256177  0.550707721
     0.829563264  0.561256177  0.550707721
     0.260263595  0.050831047  0.223425811
     0.260263595  0.550831047  0.223425811
     0.613576859  0.217004751  0.321873614
     0.613576859  0.717004751  0.321873614
     0.113576859  0.032995249  0.321873614
     0.113576859  0.532995249  0.321873614
     0.059895700  0.345087734  0.374484367
     0.059895700  0.845087734  0.374484367
     0.742455664  0.289344343  0.071165234
     0.743425210  0.789344343  0.071165234
     0.587328715  0.355241885  0.088039529
     0.587328715  0.855241885  0.088039529
     0.256574790  0.210655657  0.928834766
     0.256574790  0.710655657  0.928834766
     0.087328715  0.394758115  0.088039529
     0.087328715  0.894758115  0.088039529
     0.440104300  0.095087734  0.625515633
     0.440104300  0.595087734  0.625515633
     0.355582484  0.055688762  0.775603320
     0.355582484  0.555688762  0.775603320
     0.739736405  0.449168953  0.776574189
     0.739736405  0.949168953  0.776574189
     0.940104300  0.154912266  0.625515633
     0.940104300  0.654912266  0.625515633
     0.243425210  0.460655657  0.071165234
     0.243425210  0.960655657  0.071165234
     0.756574790  0.039344343  0.928834766
     0.756574790  0.539344343  0.928834766
     0.559895700  0.404912266  0.374484367
     0.559895700  0.904912266  0.374484367
     0.670436736  0.311256177  0.449292279
     0.670436736  0.811256177  0.449292279

  ion indices of the primitive-cell ions
   primitive index   ion index
                 1           1
                 2           2
                 3           3
                 4           4
                 5           5
                 6           6
                 7           7
                 8           8
                 9           9
                10          10
                11          11
                12          12
                13          13
                14          14
                15          15
                16          16
                17          17
                18          18
                19          19
                20          20
                21          21
                22          22
                23          23
                24          24
                25          25
                26          26
                27          27
                28          28
                29          29
                30          30
                31          31
                32          32
                33          33
                34          34
                35          35
                36          36
                37          37
                38          38
                39          39
                40          40
                41          41
                42          42
                43          43
                44          44
                45          45
                46          46
                47          47
                48          48
                49          49
                50          50
                51          51
                52          52
                53          53
                54          54
                55          55
                56          56

----------------------------------------------------------------------------------------



 KPOINTS: pymatgen with grid density = 595 / numbe

Automatic generation of k-mesh.
 Grid dimensions read from file:
 generate k-points for:    2    2    2

 Generating k-lattice:

  Cartesian coordinates                     Fractional coordinates (reciprocal lattice)
     0.000000000  0.048226712 -0.007803498     0.500000000  0.000000000 -0.000000000
     0.029782301  0.000000000  0.000000000     0.000000000  0.500000000  0.000000000
     0.000000000 -0.001679391 -0.046425743    -0.000000000  0.000000000  0.500000000

  Length of vectors
     0.048853969  0.029782301  0.046456108

  Shift w.r.t. Gamma in fractional coordinates (k-lattice)
     0.000000000  0.000000000  0.000000000

 TETIRR: Found     24 inequivalent tetrahedra from       48
 
 Subroutine IBZKPT returns following result:
 ===========================================
 
 Found      8 irreducible k-points:
 
 Following reciprocal coordinates:
            Coordinates               Weight
  0.000000  0.000000  0.000000      1.000000
  0.500000  0.000000  0.000000      1.000000
  0.000000  0.500000  0.000000      1.000000
  0.500000  0.500000  0.000000      1.000000
  0.000000  0.000000  0.500000      1.000000
  0.500000  0.000000  0.500000      1.000000
  0.000000  0.500000  0.500000      1.000000
  0.500000  0.500000  0.500000      1.000000
 
 Following cartesian coordinates:
            Coordinates               Weight
  0.000000  0.000000 -0.000000      1.000000
  0.000000  0.048227 -0.007803      1.000000
  0.029782  0.000000 -0.000000      1.000000
  0.029782  0.048227 -0.007803      1.000000
  0.000000 -0.001679 -0.046426      1.000000
  0.000000  0.046547 -0.054229      1.000000
  0.029782 -0.001679 -0.046426      1.000000
  0.029782  0.046547 -0.054229      1.000000
 


--------------------------------------------------------------------------------------------------------




 Dimension of arrays:
   k-points           NKPTS =      8   k-points in BZ     NKDIM =      8   number of bands    NBANDS=    256
   number of dos      NEDOS =    301   number of ions     NIONS =     56
   non local maximal  LDIM  =      4   non local SUM 2l+1 LMDIM =      8
   total plane-waves  NPLWV = 846720
   max r-space proj   IRMAX =      1   max aug-charges    IRDMAX= 114695
   dimension x,y,z NGX =    80 NGY =  126 NGZ =   84
   dimension x,y,z NGXF=   160 NGYF=  252 NGZF=  168
   support grid    NGXF=   320 NGYF=  504 NGZF=  336
   ions per type =              56
   NGX,Y,Z   is equivalent  to a cutoff of  12.89, 12.48, 12.87 a.u.
   NGXF,Y,Z  is equivalent  to a cutoff of  25.79, 24.95, 25.75 a.u.

 SYSTEM =  unknown system                          
 POSCAR =  generated by phonopy                    

 Startparameter for this run:
   NWRITE =      2    write-flag & timer
   PREC   = accura    normal or accurate (medium, high low for compatibility)
   ISTART =      0    job   : 0-new  1-cont  2-samecut
   ICHARG =      2    charge: 1-file 2-atom 10-const
   ISPIN  =      2    spin polarized calculation?
   LNONCOLLINEAR =      F non collinear calculations
   LSORBIT =      F    spin-orbit coupling
   INIWAV =      1    electr: 0-lowe 1-rand  2-diag
   LASPH  =      T    aspherical Exc in radial PAW
 Electronic Relaxation 1
   ENCUT  =  520.0 eV  38.22 Ry    6.18 a.u.  19.18 31.22 20.17*2*pi/ulx,y,z
   ENINI  =  520.0     initial cutoff
   ENAUG  =  335.1 eV  augmentation charge cutoff
   NELM   =    100;   NELMIN=  2; NELMDL= -5     # of ELM steps 
   EDIFF  = 0.1E-08   stopping-criterion for ELM
   LREAL  =      F    real-space projection
   NLSPLINE    = F    spline interpolate recip. space projectors
   LCOMPAT=      F    compatible to vasp.4.4
   GGA_COMPAT  = T    GGA compatible to vasp.4.4-vasp.4.6
   LMAXPAW     = -100 max onsite density
   LMAXMIX     =    2 max onsite mixed and CHGCAR
   VOSKOWN=      0    Vosko Wilk Nusair interpolation
   ROPT   =    0.00000
 Ionic relaxation
   EDIFFG = -.5E-03   stopping-criterion for IOM
   NSW    =      0    number of steps for IOM
   NBLOCK =      1;   KBLOCK =      1    inner block; outer block 
   IBRION =     -1    ionic relax: 0-MD 1-quasi-New 2-CG
   NFREE  =      0    steps in history (QN), initial steepest desc. (CG)
   ISIF   =      2    stress and relaxation
   IWAVPR =     10    prediction:  0-non 1-charg 2-wave 3-comb
   ISYM   =      0    0-nonsym 1-usesym 2-fastsym
   LCORR  =      T    Harris-Foulkes like correction to forces

   POTIM  = 0.5000    time-step for ionic-motion
   TEIN   =    0.0    initial temperature
   TEBEG  =    0.0;   TEEND  =   0.0 temperature during run
   SMASS  =  -3.00    Nose mass-parameter (am)
   estimated Nose-frequenzy (Omega)   =  0.10E-29 period in steps = 0.13E+47 mass=  -0.243E-26a.u.
   SCALEE = 1.0000    scale energy and forces
   NPACO  =    256;   APACO  = 10.0  distance and # of slots for P.C.
   PSTRESS=    0.0 pullay stress

  Mass of Ions in am
   POMASS =  32.07
  Ionic Valenz
   ZVAL   =   6.00
  Atomic Wigner-Seitz radii
   RWIGS  =  -1.00
  virtual crystal weights 
   VCA    =   1.00
   NELECT =     336.0000    total number of electrons
   NUPDOWN=      -1.0000    fix difference up-down

 DOS related values:
   EMIN   =  10.00;   EMAX   =-10.00  energy-range for DOS
   EFERMI =   0.00
   ISMEAR =    -5;   SIGMA  =   0.05  broadening in eV -4-tet -1-fermi 0-gaus

 Electronic relaxation 2 (details)
   IALGO  =     38    algorithm
   LDIAG  =      T    sub-space diagonalisation (order eigenvalues)
   LSUBROT=      F    optimize rotation matrix (better conditioning)
   TURBO    =      0    0=normal 1=particle mesh
   IRESTART =      0    0=no restart 2=restart with 2 vectors
   NREBOOT  =      0    no. of reboots
   NMIN     =      0    reboot dimension
   EREF     =   0.00    reference energy to select bands
   IMIX   =      4    mixing-type and parameters
     AMIX     =   0.40;   BMIX     =  1.00
     AMIX_MAG =   1.60;   BMIX_MAG =  1.00
     AMIN     =   0.10
     WC   =   100.;   INIMIX=   1;  MIXPRE=   1;  MAXMIX= -45

 Intra band minimization:
   WEIMIN = 0.0000     energy-eigenvalue tresh-hold
   EBREAK =  0.98E-12  absolut break condition
   DEPER  =   0.30     relativ break condition  

   TIME   =   0.40     timestep for ELM

  volume/ion in A,a.u.               =      33.28       224.58
  Fermi-wavevector in a.u.,A,eV,Ry     =   0.924835  1.747685 11.637339  0.855320
  Thomas-Fermi vector in A             =   2.050624

 Write flags
   LWAVE        =      F    write WAVECAR
   LDOWNSAMPLE  =      F    k-point downsampling of WAVECAR
   LCHARG       =      F    write CHGCAR
   LVTOT        =      F    write LOCPOT, total local potential
   LVHAR        =      F    write LOCPOT, Hartree potential only
   LELF         =      F    write electronic localiz. function (ELF)
   LORBIT       =     11    0 simple, 1 ext, 2 COOP (PROOUT), +10 PAW based schemes


 Dipole corrections
   LMONO  =      F    monopole corrections only (constant potential shift)
   LDIPOL =      F    correct potential (dipole corrections)
   IDIPOL =      0    1-x, 2-y, 3-z, 4-all directions 
   EPSILON=  1.0000000 bulk dielectric constant

 Exchange correlation treatment:
   GGA     =    --    GGA type
   LEXCH   =     8    internal setting for exchange type
   LIBXC   =     F    Libxc                    
   VOSKOWN =     0    Vosko Wilk Nusair interpolation
   LHFCALC =     F    Hartree Fock is set to
   LHFONE  =     F    Hartree Fock one center treatment
   AEXX    =    0.0000 exact exchange contribution

 Linear response parameters
   LEPSILON=     F    determine dielectric tensor
   LRPA    =     F    only Hartree local field effects (RPA)
   LNABLA  =     F    use nabla operator in PAW spheres
   LVEL    =     F    velocity operator in full k-point grid
   CSHIFT  =0.1000    complex shift for real part using Kramers Kronig
   OMEGAMAX=  -1.0    maximum frequency
   DEG_THRESHOLD= 0.2000000E-02 threshold for treating states as degnerate
   RTIME   =   -0.100 relaxation time in fs
  (WPLASMAI=    0.000 imaginary part of plasma frequency in eV, 0.658/RTIME)
   DFIELD  = 0.0000000 0.0000000 0.0000000 field for delta impulse in time

  Optional k-point grid parameters
   LKPOINTS_OPT  =     F    use optional k-point grid
   KPOINTS_OPT_MODE=     1    mode for optional k-point grid

 Orbital magnetization related:
   ORBITALMAG=     F  switch on orbital magnetization
   LCHIMAG   =     F  perturbation theory with respect to B field
   DQ        =  0.001000  dq finite difference perturbation B field
   LLRAUG    =     F  two centre corrections for induced B field



--------------------------------------------------------------------------------------------------------


 Static calculation
 charge density and potential will be updated during run
 spin polarized calculation
 Variant of blocked Davidson
 Davidson routine will perform the subspace rotation
 perform sub-space diagonalisation
    after iterative eigenvector-optimisation
 modified Broyden-mixing scheme, WC =      100.0
 initial mixing is a Kerker type mixing with AMIX =  0.4000 and BMIX =      1.0000
 Hartree-type preconditioning will be used
 using additional bands           88
 reciprocal scheme for non local part
 use partial core corrections
 calculate Harris-corrections to forces   (improved forces if not selfconsistent)
 use gradient corrections 
 use of overlap-Matrix (Vanderbilt PP)
 Fermi weights with tetrahedron method with Bloechl corrections


--------------------------------------------------------------------------------------------------------


  energy-cutoff  :      520.00
  volume of cell :     1863.68
      direct lattice vectors                 reciprocal lattice vectors
     0.000000000 10.307367086 -0.372855731     0.000000000  0.096453423 -0.015606996
    16.788494411  0.000000000  0.000000000     0.059564603  0.000000000  0.000000000
     0.000000000 -1.732519801-10.707215182     0.000000000 -0.003358783 -0.092851486

  length of vectors
    10.314108670 16.788494411 10.846477853     0.097707938  0.059564603  0.092912216



 k-points in units of 2pi/SCALE and weight: pymatgen with grid density = 595 / numbe
   0.00000000  0.00000000 -0.00000000       0.125
   0.00000000  0.04822671 -0.00780350       0.125
   0.02978230  0.00000000 -0.00000000       0.125
   0.02978230  0.04822671 -0.00780350       0.125
   0.00000000 -0.00167939 -0.04642574       0.125
   0.00000000  0.04654732 -0.05422924       0.125
   0.02978230 -0.00167939 -0.04642574       0.125
   0.02978230  0.04654732 -0.05422924       0.125

 k-points in reciprocal lattice and weights: pymatgen with grid density = 595 / numbe
   0.00000000  0.00000000  0.00000000       0.125
   0.50000000  0.00000000  0.00000000       0.125
   0.00000000  0.50000000  0.00000000       0.125
   0.50000000  0.50000000  0.00000000       0.125
   0.00000000  0.00000000  0.50000000       0.125
   0.50000000  0.00000000  0.50000000       0.125
   0.00000000  0.50000000  0.50000000       0.125
   0.50000000  0.50000000  0.50000000       0.125

 position of ions in fractional coordinates (direct lattice) 
   0.88642314  0.46700475  0.67812639
   0.88642314  0.96700475  0.67812639
   0.32956326  0.18874382  0.55070772
   0.32956326  0.68874382  0.55070772
   0.91267129  0.10524188  0.91196047
   0.91267129  0.60524188  0.91196047
   0.23973640  0.30083105  0.77657419
   0.23973640  0.80083105  0.77657419
   0.14441752  0.30568876  0.22439668
   0.14441752  0.80568876  0.22439668
   0.85558248  0.19431124  0.77560332
   0.85558248  0.69431124  0.77560332
   0.76026360  0.19916895  0.22342581
   0.76026360  0.69916895  0.22342581
   0.17043674  0.43874382  0.44929228
   0.17043674  0.93874382  0.44929228
   0.41267129  0.14475812  0.91196047
   0.41267129  0.64475812  0.91196047
   0.38642314  0.28299525  0.67812639
   0.38642314  0.78299525  0.67812639
   0.64441752  0.44431124  0.22439668
   0.64441752  0.94431124  0.22439668
   0.82956326  0.06125618  0.55070772
   0.82956326  0.56125618  0.55070772
   0.26026360  0.05083105  0.22342581
   0.26026360  0.55083105  0.22342581
   0.61357686  0.21700475  0.32187361
   0.61357686  0.71700475  0.32187361
   0.11357686  0.03299525  0.32187361
   0.11357686  0.53299525  0.32187361
   0.05989570  0.34508773  0.37448437
   0.05989570  0.84508773  0.37448437
   0.74245566  0.28934434  0.07116523
   0.74342521  0.78934434  0.07116523
   0.58732871  0.35524188  0.08803953
   0.58732871  0.85524188  0.08803953
   0.25657479  0.21065566  0.92883477
   0.25657479  0.71065566  0.92883477
   0.08732871  0.39475812  0.08803953
   0.08732871  0.89475812  0.08803953
   0.44010430  0.09508773  0.62551563
   0.44010430  0.59508773  0.62551563
   0.35558248  0.05568876  0.77560332
   0.35558248  0.55568876  0.77560332
   0.73973640  0.44916895  0.77657419
   0.73973640  0.94916895  0.77657419
   0.94010430  0.15491227  0.62551563
   0.94010430  0.65491227  0.62551563
   0.24342521  0.46065566  0.07116523
   0.24342521  0.96065566  0.07116523
   0.75657479  0.03934434  0.92883477
   0.75657479  0.53934434  0.92883477
   0.55989570  0.40491227  0.37448437
   0.55989570  0.90491227  0.37448437
   0.67043674  0.31125618  0.44929228
   0.67043674  0.81125618  0.44929228

 position of ions in cartesian coordinates  (Angst):
   7.84030666  7.96182132 -7.59135308
  16.23455387  7.96182132 -7.59135308
   3.16872461  2.44281751 -6.01942562
  11.56297182  2.44281751 -6.01942562
   1.76685280  7.82724839-10.10485172
  10.16110000  7.82724839-10.10485172
   5.05050035  1.12562097 -8.40433404
  13.44474755  1.12562097 -8.40433404
   5.13205407  1.09979266 -2.45651044
  13.52630128  1.09979266 -2.45651044
   3.26219313  7.47505463 -8.62356047
  11.65644034  7.47505463 -8.62356047
   3.34374686  7.44922632 -2.67573688
  11.73799406  7.44922632 -2.67573688
   7.36584822  0.97834624 -4.87421742
  15.76009542  0.97834624 -4.87421742
   2.43027081  2.67356485 -9.91842386
  10.82451801  2.67356485 -9.91842386
   4.75106415  2.80813777 -7.40492521
  13.14531135  2.80813777 -7.40492521
   7.45931673  6.25347620 -2.64293831
  15.85356394  6.25347620 -2.64293831
   1.02839899  7.59650105 -6.20585349
   9.42264619  7.59650105 -6.20585349
   0.85337674  2.29554277 -2.48930901
   9.24762395  2.29554277 -2.48930901
   3.64318306  5.76670951 -3.67514570
  12.03743026  5.76670951 -3.67514570
   0.55394055  0.61302597 -3.48871783
   8.94818775  0.61302597 -3.48871783
   5.79350349 -0.03143461 -4.03201715
  14.18775070 -0.03143461 -4.03201715
   4.85765589  7.52946790 -1.03881032
  13.25190310  7.53946136 -1.03917182
   5.96397640  5.90128244 -1.16164705
  14.35822361  5.90128244 -1.16164705
   3.53659131  1.03538593-10.04089909
  11.93083852  1.03538593-10.04089909
   6.62739441  0.74759889 -0.97521919
  15.02164161  0.74759889 -0.97521919
   1.59637989  3.45259836 -6.86162589
   9.99062710  3.45259836 -6.86162589
   0.93493047  2.32137108 -8.43713261
   9.32917768  2.32137108 -8.43713261
   7.54087046  6.27930451 -8.59076190
  15.93511767  6.27930451 -8.59076190
   2.60074371  8.60628190 -7.04805376
  10.99499092  8.60628190 -7.04805376
   7.73371492  2.38577782 -0.85274396
  16.12796212  2.38577782 -0.85274396
   0.66053229  6.18906947-10.22732695
   9.05477950  6.18906947-10.22732695
   6.79786731  5.12224893 -4.21844502
  15.19211452  5.12224893 -4.21844502
   5.22552259  6.13202978 -5.06064529
  13.61976980  6.13202978 -5.06064529



--------------------------------------------------------------------------------------------------------


 k-point   1 :   0.0000 0.0000 0.0000  plane waves:   50179
 k-point   2 :   0.5000 0.0000 0.0000  plane waves:   50160
 k-point   3 :   0.0000 0.5000 0.0000  plane waves:   50162
 k-point   4 :   0.5000 0.5000 0.0000  plane waves:   50192
 k-point   5 :   0.0000 0.0000 0.5000  plane waves:   50190
 k-point   6 :   0.5000 0.0000 0.5000  plane waves:   50190
 k-point   7 :   0.0000 0.5000 0.5000  plane waves:   50172
 k-point   8 :   0.5000 0.5000 0.5000  plane waves:   50200

 maximum and minimum number of plane-waves per node :     50200    50160

 maximum number of plane-waves:     50200
 maximum index in each direction: 
   IXMAX=   19   IYMAX=   31   IZMAX=   20
   IXMIN=  -19   IYMIN=  -31   IZMIN=  -20


 serial   3D FFT for wavefunctions
 parallel 3D FFT for charge:
    minimum data exchange during FFTs selected (reduces bandwidth)


 total amount of memory used by VASP MPI-rank0   322725. kBytes
=======================================================================

   base      :      30000. kBytes
   nonl-proj :      70692. kBytes
   fftplans  :      34504. kBytes
   grid      :      83442. kBytes
   one-center:        344. kBytes
   wavefun   :     103743. kBytes

     INWAV:  cpu time      0.0000: real time      0.0002
 Broyden mixing: mesh for mixing (old mesh)
   NGX = 39   NGY = 63   NGZ = 41
  (NGX  =160   NGY  =252   NGZ  =168)
  gives a total of 100737 points

 initial charge density was supplied:
 charge density of overlapping atoms calculated
 number of electron     336.0000000 magnetization      56.0000000
 keeping initial charge density in first step


--------------------------------------------------------------------------------------------------------


 Maximum index for augmentation-charges         3947 (set IRDMAX)


--------------------------------------------------------------------------------------------------------


 First call to EWALD:  gamma=   0.144
 Maximum number of real-space cells 3x 2x 3
 Maximum number of reciprocal cells 2x 4x 2

    FEWALD:  cpu time      0.0029: real time      0.0029


--------------------------------------- Iteration      1(   1)  ---------------------------------------


    POTLOK:  cpu time      0.5914: real time      0.6018
    SETDIJ:  cpu time     16.2475: real time     16.2551
     EDDAV:  cpu time     65.3660: real time     65.4134
 BZINTS: Fermi energy:   10.166870;  336.000000 electrons
         Band energy: 0.225052E+03;  BLOECHL correction:   -0.008611
       DOS:  cpu time      0.0485: real time      0.0486
    --------------------------------------------
      LOOP:  cpu time     82.2534: real time     82.3190

 eigenvalue-minimisations  :  8192
 total energy-change (2. order) : 0.2106325E+04  (-0.1333805E+05)
 number of electron     336.0000000 magnetization      56.0000000
 augmentation part      336.0000000 magnetization      56.0000000

 Free energy of the ion-electron system (eV)
  ---------------------------------------------------
  alpha Z        PSCENC =       253.99581917
  Ewald energy   TEWEN  =     -9969.96610042
  -Hartree energ DENC   =     -4766.53318996
  -exchange      EXHF   =         0.00000000
  -V(xc)+E(xc)   XCENC  =       682.52998591
  PAW double counting   =     12174.71095765   -11995.46358648
  entropy T*S    EENTRO =         0.00000000
  eigenvalues    EBANDS =       225.05211459
  atomic energy  EATOM  =     15501.99929693
  Solvation  Ediel_sol  =         0.00000000
  ---------------------------------------------------
  free energy    TOTEN  =      2106.32529738 eV

  energy without entropy =     2106.32529738  energy(sigma->0) =     2106.32529738


--------------------------------------------------------------------------------------------------------




--------------------------------------- Iteration      1(   2)  ---------------------------------------


     EDDAV:  cpu time     72.2484: real time     72.3054
 BZINTS: Fermi energy:    1.451926;  336.000000 electrons
         Band energy:-0.187499E+04;  BLOECHL correction:   -0.000000
       DOS:  cpu time      0.0265: real time      0.0265
    --------------------------------------------
      LOOP:  cpu time     72.2748: real time     72.3319

 eigenvalue-minimisations  : 10272
 total energy-change (2. order) :-0.2100044E+04  (-0.2021858E+04)
 number of electron     336.0000000 magnetization      56.0000000
 augmentation part      336.0000000 magnetization      56.0000000

 Free energy of the ion-electron system (eV)
  ---------------------------------------------------
  alpha Z        PSCENC =       253.99581917
  Ewald energy   TEWEN  =     -9969.96610042
  -Hartree energ DENC   =     -4766.53318996
  -exchange      EXHF   =         0.00000000
  -V(xc)+E(xc)   XCENC  =       682.52998591
  PAW double counting   =     12174.71095765   -11995.46358648
  entropy T*S    EENTRO =         0.00000000
  eigenvalues    EBANDS =     -1874.99219256
  atomic energy  EATOM  =     15501.99929693
  Solvation  Ediel_sol  =         0.00000000
  ---------------------------------------------------
  free energy    TOTEN  =         6.28099024 eV

  energy without entropy =        6.28099024  energy(sigma->0) =        6.28099024


--------------------------------------------------------------------------------------------------------




--------------------------------------- Iteration      1(   3)  ---------------------------------------


     EDDAV:  cpu time     75.4411: real time     75.4899
 BZINTS: Fermi energy:    0.219908;  336.000000 electrons
         Band energy:-0.209485E+04;  BLOECHL correction:    0.000000
       DOS:  cpu time      0.0266: real time      0.0266
    --------------------------------------------
      LOOP:  cpu time     75.4676: real time     75.5165

 eigenvalue-minimisations  : 10240
 total energy-change (2. order) :-0.2198601E+03  (-0.2171744E+03)
 number of electron     336.0000000 magnetization      56.0000000
 augmentation part      336.0000000 magnetization      56.0000000

 Free energy of the ion-electron system (eV)
  ---------------------------------------------------
  alpha Z        PSCENC =       253.99581917
  Ewald energy   TEWEN  =     -9969.96610042
  -Hartree energ DENC   =     -4766.53318996
  -exchange      EXHF   =         0.00000000
  -V(xc)+E(xc)   XCENC  =       682.52998591
  PAW double counting   =     12174.71095765   -11995.46358648
  entropy T*S    EENTRO =         0.00000000
  eigenvalues    EBANDS =     -2094.85227447
  atomic energy  EATOM  =     15501.99929693
  Solvation  Ediel_sol  =         0.00000000
  ---------------------------------------------------
  free energy    TOTEN  =      -213.57909167 eV

  energy without entropy =     -213.57909167  energy(sigma->0) =     -213.57909167


--------------------------------------------------------------------------------------------------------




--------------------------------------- Iteration      1(   4)  ---------------------------------------


     EDDAV:  cpu time     69.2364: real time     69.2938
 BZINTS: Fermi energy:    0.191865;  336.000000 electrons
         Band energy:-0.209975E+04;  BLOECHL correction:    0.000000
       DOS:  cpu time      0.0269: real time      0.0269
    --------------------------------------------
      LOOP:  cpu time     69.2633: real time     69.3208

 eigenvalue-minimisations  : 10336
 total energy-change (2. order) :-0.4896364E+01  (-0.4877993E+01)
 number of electron     336.0000000 magnetization      56.0000000
 augmentation part      336.0000000 magnetization      56.0000000

 Free energy of the ion-electron system (eV)
  ---------------------------------------------------
  alpha Z        PSCENC =       253.99581917
  Ewald energy   TEWEN  =     -9969.96610042
  -Hartree energ DENC   =     -4766.53318996
  -exchange      EXHF   =         0.00000000
  -V(xc)+E(xc)   XCENC  =       682.52998591
  PAW double counting   =     12174.71095765   -11995.46358648
  entropy T*S    EENTRO =         0.00000000
  eigenvalues    EBANDS =     -2099.74863807
  atomic energy  EATOM  =     15501.99929693
  Solvation  Ediel_sol  =         0.00000000
  ---------------------------------------------------
  free energy    TOTEN  =      -218.47545527 eV

  energy without entropy =     -218.47545527  energy(sigma->0) =     -218.47545527


--------------------------------------------------------------------------------------------------------




--------------------------------------- Iteration      1(   5)  ---------------------------------------


     EDDAV:  cpu time     78.1650: real time     78.2112
 BZINTS: Fermi energy:    0.191519;  336.000000 electrons
         Band energy:-0.209989E+04;  BLOECHL correction:    0.000000
       DOS:  cpu time      0.0271: real time      0.0271
    CHARGE:  cpu time      6.3753: real time      6.3778
    MIXING:  cpu time      0.0175: real time      0.0175
    --------------------------------------------
      LOOP:  cpu time     84.5849: real time     84.6337

 eigenvalue-minimisations  : 10048
 total energy-change (2. order) :-0.1371576E+00  (-0.1370915E+00)
 number of electron     335.9999997 magnetization      44.9918631
 augmentation part      -47.3225472 magnetization      44.8836921

 Broyden mixing:
  rms(total) = 0.82975E+01    rms(broyden)= 0.82975E+01
  rms(prec ) = 0.83174E+01
  weight for this iteration     100.00

 Free energy of the ion-electron system (eV)
  ---------------------------------------------------
  alpha Z        PSCENC =       253.99581917
  Ewald energy   TEWEN  =     -9969.96610042
  -Hartree energ DENC   =     -4766.53318996
  -exchange      EXHF   =         0.00000000
  -V(xc)+E(xc)   XCENC  =       682.52998591
  PAW double counting   =     12174.71095765   -11995.46358648
  entropy T*S    EENTRO =         0.00000000
  eigenvalues    EBANDS =     -2099.88579565
  atomic energy  EATOM  =     15501.99929693
  Solvation  Ediel_sol  =         0.00000000
  ---------------------------------------------------
  free energy    TOTEN  =      -218.61261286 eV

  energy without entropy =     -218.61261286  energy(sigma->0) =     -218.61261286


--------------------------------------------------------------------------------------------------------




--------------------------------------- Iteration      1(   6)  ---------------------------------------


    POTLOK:  cpu time      0.4702: real time      0.4726
    SETDIJ:  cpu time     14.4822: real time     14.4857
     EDDAV:  cpu time     64.3827: real time     64.4353
 BZINTS: Fermi energy:    0.408748;  336.000000 electrons
         Band energy:-0.201433E+04;  BLOECHL correction:    0.000000
       DOS:  cpu time      0.0282: real time      0.0282
    CHARGE:  cpu time     15.0286: real time     15.0500
    MIXING:  cpu time      0.0179: real time      0.0179
    --------------------------------------------
      LOOP:  cpu time     94.4099: real time     94.4898

 eigenvalue-minimisations  :  9632
 total energy-change (2. order) : 0.1022929E+03  (-0.2667903E+02)
 number of electron     335.9999997 magnetization      26.4962549
 augmentation part      -47.6486130 magnetization      27.5548129

 Broyden mixing:
  rms(total) = 0.49386E+01    rms(broyden)= 0.49386E+01
  rms(prec ) = 0.49609E+01
  weight for this iteration     100.00

 eigenvalues of (default mixing * dielectric matrix)
  average eigenvalue GAMMA=   1.6664
  1.6664

 Free energy of the ion-electron system (eV)
  ---------------------------------------------------
  alpha Z        PSCENC =       253.99581917
  Ewald energy   TEWEN  =     -9969.96610042
  -Hartree energ DENC   =     -4810.91540084
  -exchange      EXHF   =         0.00000000
  -V(xc)+E(xc)   XCENC  =       746.12496216
  PAW double counting   =     20740.59910989   -20563.82321264
  entropy T*S    EENTRO =         0.00000000
  eigenvalues    EBANDS =     -2014.33416070
  atomic energy  EATOM  =     15501.99929693
  Solvation  Ediel_sol  =         0.00000000
  ---------------------------------------------------
  free energy    TOTEN  =      -116.31968645 eV

  energy without entropy =     -116.31968645  energy(sigma->0) =     -116.31968645


--------------------------------------------------------------------------------------------------------




--------------------------------------- Iteration      1(   7)  ---------------------------------------


    POTLOK:  cpu time      0.5954: real time      0.5996
    SETDIJ:  cpu time     15.3046: real time     15.3237
     EDDAV:  cpu time     65.8467: real time     65.9062
 BZINTS: Fermi energy:    0.737568;  336.000000 electrons
         Band energy:-0.186793E+04;  BLOECHL correction:   -0.000000
       DOS:  cpu time      0.0267: real time      0.0267
    CHARGE:  cpu time     10.4635: real time     10.4677
    MIXING:  cpu time      0.0203: real time      0.0203
    --------------------------------------------
      LOOP:  cpu time     92.2571: real time     92.3442

 eigenvalue-minimisations  : 10080
 total energy-change (2. order) :-0.1114189E+02  (-0.2695161E+01)
 number of electron     335.9999997 magnetization      19.7222822
 augmentation part      -47.3163324 magnetization      20.9279213

 Broyden mixing:
  rms(total) = 0.13992E+01    rms(broyden)= 0.13992E+01
  rms(prec ) = 0.14028E+01
  weight for this iteration     100.00

 eigenvalues of (default mixing * dielectric matrix)
  average eigenvalue GAMMA=   1.4855
  0.7901  2.1808

 Free energy of the ion-electron system (eV)
  ---------------------------------------------------
  alpha Z        PSCENC =       253.99581917
  Ewald energy   TEWEN  =     -9969.96610042
  -Hartree energ DENC   =     -4970.38195805
  -exchange      EXHF   =         0.00000000
  -V(xc)+E(xc)   XCENC  =       751.46162572
  PAW double counting   =     37050.92678130   -36877.56549300
  entropy T*S    EENTRO =         0.00000000
  eigenvalues    EBANDS =     -1867.93154959
  atomic energy  EATOM  =     15501.99929693
  Solvation  Ediel_sol  =         0.00000000
  ---------------------------------------------------
  free energy    TOTEN  =      -127.46157794 eV

  energy without entropy =     -127.46157794  energy(sigma->0) =     -127.46157794


--------------------------------------------------------------------------------------------------------




--------------------------------------- Iteration      1(   8)  ---------------------------------------


    POTLOK:  cpu time      0.5209: real time      0.5222
    SETDIJ:  cpu time      8.1413: real time      8.1486
     EDDAV:  cpu time     69.0722: real time     69.1506
 BZINTS: Fermi energy:    0.705788;  336.000000 electrons
         Band energy:-0.185540E+04;  BLOECHL correction:    0.000000
       DOS:  cpu time      0.0258: real time      0.0258
    CHARGE:  cpu time     12.3176: real time     12.3258
    MIXING:  cpu time      0.0198: real time      0.0198
    --------------------------------------------
      LOOP:  cpu time     90.0977: real time     90.1929

 eigenvalue-minimisations  :  9312
 total energy-change (2. order) :-0.4274409E+02  (-0.1976501E+01)
 number of electron     335.9999997 magnetization      16.0633128
 augmentation part      -47.0118706 magnetization      17.1079370

 Broyden mixing:
  rms(total) = 0.78239E+00    rms(broyden)= 0.78238E+00
  rms(prec ) = 0.78753E+00
  weight for this iteration     100.00

 eigenvalues of (default mixing * dielectric matrix)
  average eigenvalue GAMMA=   1.3384
  2.4899  0.9419  0.5835

 Free energy of the ion-electron system (eV)
  ---------------------------------------------------
  alpha Z        PSCENC =       253.99581917
  Ewald energy   TEWEN  =     -9969.96610042
  -Hartree energ DENC   =     -4999.99631824
  -exchange      EXHF   =         0.00000000
  -V(xc)+E(xc)   XCENC  =       726.56894695
  PAW double counting   =     40201.14744273   -40028.55306838
  entropy T*S    EENTRO =         0.00000000
  eigenvalues    EBANDS =     -1855.40168713
  atomic energy  EATOM  =     15501.99929693
  Solvation  Ediel_sol  =         0.00000000
  ---------------------------------------------------
  free energy    TOTEN  =      -170.20566839 eV

  energy without entropy =     -170.20566839  energy(sigma->0) =     -170.20566839


--------------------------------------------------------------------------------------------------------




--------------------------------------- Iteration      1(   9)  ---------------------------------------


    POTLOK:  cpu time      0.4834: real time      0.4840
    SETDIJ:  cpu time      9.0615: real time      9.0708
     EDDAV:  cpu time     75.0217: real time     75.0732
 BZINTS: Fermi energy:    0.627937;  336.000000 electrons
         Band energy:-0.186665E+04;  BLOECHL correction:    0.000000
       DOS:  cpu time      0.0267: real time      0.0268
    CHARGE:  cpu time     15.1779: real time     15.1850
    MIXING:  cpu time      0.0190: real time      0.0190
    --------------------------------------------
      LOOP:  cpu time     99.7903: real time     99.8588

 eigenvalue-minimisations  : 10240
 total energy-change (2. order) :-0.1674020E+02  (-0.6404967E+00)
 number of electron     335.9999997 magnetization      11.5344590
 augmentation part      -46.9155584 magnetization      12.3723156

 Broyden mixing:
  rms(total) = 0.43631E+00    rms(broyden)= 0.43631E+00
  rms(prec ) = 0.44835E+00
  weight for this iteration     100.00

 eigenvalues of (default mixing * dielectric matrix)
  average eigenvalue GAMMA=   1.3244
  2.5742  1.3009  0.7113  0.7113

 Free energy of the ion-electron system (eV)
  ---------------------------------------------------
  alpha Z        PSCENC =       253.99581917
  Ewald energy   TEWEN  =     -9969.96610042
  -Hartree energ DENC   =     -4996.19433276
  -exchange      EXHF   =         0.00000000
  -V(xc)+E(xc)   XCENC  =       717.25248697
  PAW double counting   =     40980.96131550   -40808.34850902
  entropy T*S    EENTRO =         0.00000000
  eigenvalues    EBANDS =     -1866.64584787
  atomic energy  EATOM  =     15501.99929693
  Solvation  Ediel_sol  =         0.00000000
  ---------------------------------------------------
  free energy    TOTEN  =      -186.94587149 eV

  energy without entropy =     -186.94587149  energy(sigma->0) =     -186.94587149


--------------------------------------------------------------------------------------------------------




--------------------------------------- Iteration      1(  10)  ---------------------------------------


    POTLOK:  cpu time      0.5109: real time      0.5117
    SETDIJ:  cpu time     12.8498: real time     12.8562
     EDDAV:  cpu time     71.4025: real time     71.4498
 BZINTS: Fermi energy:    0.474878;  336.000000 electrons
         Band energy:-0.190114E+04;  BLOECHL correction:    0.000000
       DOS:  cpu time      0.0267: real time      0.0267
    CHARGE:  cpu time     11.5935: real time     11.6000
    MIXING:  cpu time      0.0190: real time      0.0190
    --------------------------------------------
      LOOP:  cpu time     96.4024: real time     96.4636

 eigenvalue-minimisations  :  9984
 total energy-change (2. order) :-0.2007095E+02  (-0.1302998E+01)
 number of electron     335.9999997 magnetization       5.3071255
 augmentation part      -46.8735672 magnetization       5.8419265

 Broyden mixing:
  rms(total) = 0.32431E+00    rms(broyden)= 0.32431E+00
  rms(prec ) = 0.33727E+00
  weight for this iteration     100.00

 eigenvalues of (default mixing * dielectric matrix)
  average eigenvalue GAMMA=   1.4492
  2.4869  2.4869  0.9417  0.7283  0.6022

 Free energy of the ion-electron system (eV)
  ---------------------------------------------------
  alpha Z        PSCENC =       253.99581917
  Ewald energy   TEWEN  =     -9969.96610042
  -Hartree energ DENC   =     -4970.84675101
  -exchange      EXHF   =         0.00000000
  -V(xc)+E(xc)   XCENC  =       705.67318055
  PAW double counting   =     40990.43823901   -40817.17122970
  entropy T*S    EENTRO =         0.00000000
  eigenvalues    EBANDS =     -1901.13927999
  atomic energy  EATOM  =     15501.99929693
  Solvation  Ediel_sol  =         0.00000000
  ---------------------------------------------------
  free energy    TOTEN  =      -207.01682547 eV

  energy without entropy =     -207.01682547  energy(sigma->0) =     -207.01682547


--------------------------------------------------------------------------------------------------------




--------------------------------------- Iteration      1(  11)  ---------------------------------------


    POTLOK:  cpu time      0.5091: real time      0.5098
    SETDIJ:  cpu time      8.1820: real time      8.1869
     EDDAV:  cpu time     68.0764: real time     68.1202
 BZINTS: Fermi energy:    0.256903;  336.000000 electrons
         Band energy:-0.195854E+04;  BLOECHL correction:   -0.000000
       DOS:  cpu time      0.0276: real time      0.0276
    CHARGE:  cpu time     11.5167: real time     11.5429
    MIXING:  cpu time      0.0153: real time      0.0153
    --------------------------------------------
      LOOP:  cpu time     88.3270: real time     88.4027

 eigenvalue-minimisations  :  9952
 total energy-change (2. order) :-0.1785657E+02  (-0.2166054E+01)
 number of electron     335.9999997 magnetization       3.5771817
 augmentation part      -46.9052502 magnetization       3.7604916

 Broyden mixing:
  rms(total) = 0.18666E+00    rms(broyden)= 0.18665E+00
  rms(prec ) = 0.20034E+00
  weight for this iteration     100.00

 eigenvalues of (default mixing * dielectric matrix)
  average eigenvalue GAMMA=   1.4663
  2.7962  2.7962  1.0266  0.8896  0.6991  0.5900

 Free energy of the ion-electron system (eV)
  ---------------------------------------------------
  alpha Z        PSCENC =       253.99581917
  Ewald energy   TEWEN  =     -9969.96610042
  -Hartree energ DENC   =     -4921.24778194
  -exchange      EXHF   =         0.00000000
  -V(xc)+E(xc)   XCENC  =       694.55824924
  PAW double counting   =     40417.18968349   -40242.86264545
  entropy T*S    EENTRO =         0.00000000
  eigenvalues    EBANDS =     -1958.53991435
  atomic energy  EATOM  =     15501.99929693
  Solvation  Ediel_sol  =         0.00000000
  ---------------------------------------------------
  free energy    TOTEN  =      -224.87339333 eV

  energy without entropy =     -224.87339333  energy(sigma->0) =     -224.87339333


--------------------------------------------------------------------------------------------------------




--------------------------------------- Iteration      1(  12)  ---------------------------------------


    POTLOK:  cpu time      0.4874: real time      0.4880
    SETDIJ:  cpu time      8.8449: real time      8.8471
     EDDAV:  cpu time     68.7709: real time     68.8141
 BZINTS: Fermi energy:    0.183860;  336.000000 electrons
         Band energy:-0.197914E+04;  BLOECHL correction:    0.000000
       DOS:  cpu time      0.0259: real time      0.0259
    CHARGE:  cpu time      5.0969: real time      5.1011
    MIXING:  cpu time      0.0174: real time      0.0174
    --------------------------------------------
      LOOP:  cpu time     83.2434: real time     83.2937

 eigenvalue-minimisations  : 10048
 total energy-change (2. order) :-0.3385127E+01  (-0.3872828E+00)
 number of electron     335.9999997 magnetization       2.3931517
 augmentation part      -46.9151236 magnetization       2.4764423

 Broyden mixing:
  rms(total) = 0.15991E+00    rms(broyden)= 0.15991E+00
  rms(prec ) = 0.17246E+00
  weight for this iteration     100.00

 eigenvalues of (default mixing * dielectric matrix)
  average eigenvalue GAMMA=   1.4913
  3.1002  3.1002  1.0546  1.0546  0.7810  0.7810  0.5678

 Free energy of the ion-electron system (eV)
  ---------------------------------------------------
  alpha Z        PSCENC =       253.99581917
  Ewald energy   TEWEN  =     -9969.96610042
  -Hartree energ DENC   =     -4901.82501802
  -exchange      EXHF   =         0.00000000
  -V(xc)+E(xc)   XCENC  =       692.10984275
  PAW double counting   =     39986.45490809   -39811.89215124
  entropy T*S    EENTRO =         0.00000000
  eigenvalues    EBANDS =     -1979.13511749
  atomic energy  EATOM  =     15501.99929693
  Solvation  Ediel_sol  =         0.00000000
  ---------------------------------------------------
  free energy    TOTEN  =      -228.25852022 eV

  energy without entropy =     -228.25852022  energy(sigma->0) =     -228.25852022


--------------------------------------------------------------------------------------------------------




--------------------------------------- Iteration      1(  13)  ---------------------------------------


    POTLOK:  cpu time      0.5469: real time      0.5479
    SETDIJ:  cpu time      9.1250: real time      9.1333
     EDDAV:  cpu time     65.6601: real time     65.7580
 BZINTS: Fermi energy:    0.115969;  336.000000 electrons
         Band energy:-0.200162E+04;  BLOECHL correction:    0.000000
       DOS:  cpu time      0.0259: real time      0.0260
    CHARGE:  cpu time      7.2882: real time      7.2993
    MIXING:  cpu time      0.0216: real time      0.0216
    --------------------------------------------
      LOOP:  cpu time     82.6677: real time     82.7861

 eigenvalue-minimisations  :  9504
 total energy-change (2. order) :-0.1055825E+01  (-0.1339984E+00)
 number of electron     335.9999997 magnetization       0.8922500
 augmentation part      -46.9735965 magnetization       0.9183663

 Broyden mixing:
  rms(total) = 0.93184E-01    rms(broyden)= 0.93183E-01
  rms(prec ) = 0.99990E-01
  weight for this iteration     100.00

 eigenvalues of (default mixing * dielectric matrix)
  average eigenvalue GAMMA=   1.5510
  3.3209  3.3209  1.5847  1.2834  0.9271  0.6995  0.6995  0.5720

 Free energy of the ion-electron system (eV)
  ---------------------------------------------------
  alpha Z        PSCENC =       253.99581917
  Ewald energy   TEWEN  =     -9969.96610042
  -Hartree energ DENC   =     -4878.65152237
  -exchange      EXHF   =         0.00000000
  -V(xc)+E(xc)   XCENC  =       690.12360766
  PAW double counting   =     39165.03283149   -38990.22967996
  entropy T*S    EENTRO =         0.00000000
  eigenvalues    EBANDS =     -2001.61859780
  atomic energy  EATOM  =     15501.99929693
  Solvation  Ediel_sol  =         0.00000000
  ---------------------------------------------------
  free energy    TOTEN  =      -229.31434530 eV

  energy without entropy =     -229.31434530  energy(sigma->0) =     -229.31434530


--------------------------------------------------------------------------------------------------------




--------------------------------------- Iteration      1(  14)  ---------------------------------------


    POTLOK:  cpu time      0.5607: real time      0.5645
    SETDIJ:  cpu time      8.2667: real time      8.2813
     EDDAV:  cpu time     63.1438: real time     63.2235
 BZINTS: Fermi energy:    0.080117;  336.000000 electrons
         Band energy:-0.201207E+04;  BLOECHL correction:   -0.000000
       DOS:  cpu time      0.0301: real time      0.0301
    CHARGE:  cpu time     14.1188: real time     14.1337
    MIXING:  cpu time      0.0145: real time      0.0145
    --------------------------------------------
      LOOP:  cpu time     86.1346: real time     86.2476

 eigenvalue-minimisations  :  9088
 total energy-change (2. order) :-0.6525079E-01  (-0.1626182E-01)
 number of electron     335.9999997 magnetization       0.4168026
 augmentation part      -47.0005178 magnetization       0.4238936

 Broyden mixing:
  rms(total) = 0.43765E-01    rms(broyden)= 0.43765E-01
  rms(prec ) = 0.46465E-01
  weight for this iteration     100.00

 eigenvalues of (default mixing * dielectric matrix)
  average eigenvalue GAMMA=   1.5781
  4.1304  2.5554  2.5554  1.0966  1.0966  0.7710  0.7710  0.5746  0.6521

 Free energy of the ion-electron system (eV)
  ---------------------------------------------------
  alpha Z        PSCENC =       253.99581917
  Ewald energy   TEWEN  =     -9969.96610042
  -Hartree energ DENC   =     -4867.30523892
  -exchange      EXHF   =         0.00000000
  -V(xc)+E(xc)   XCENC  =       689.21163454
  PAW double counting   =     39103.36711928   -38928.60952777
  entropy T*S    EENTRO =         0.00000000
  eigenvalues    EBANDS =     -2012.07259890
  atomic energy  EATOM  =     15501.99929693
  Solvation  Ediel_sol  =         0.00000000
  ---------------------------------------------------
  free energy    TOTEN  =      -229.37959609 eV

  energy without entropy =     -229.37959609  energy(sigma->0) =     -229.37959609


--------------------------------------------------------------------------------------------------------




--------------------------------------- Iteration      1(  15)  ---------------------------------------


    POTLOK:  cpu time      0.4319: real time      0.4328
    SETDIJ:  cpu time      9.0565: real time      9.0602
     EDDAV:  cpu time     65.7281: real time     65.7741
 BZINTS: Fermi energy:    0.078455;  336.000000 electrons
         Band energy:-0.201181E+04;  BLOECHL correction:    0.000000
       DOS:  cpu time      0.0258: real time      0.0258
    CHARGE:  cpu time     10.5865: real time     10.5916
    MIXING:  cpu time      0.0196: real time      0.0196
    --------------------------------------------
      LOOP:  cpu time     85.8483: real time     85.9040

 eigenvalue-minimisations  :  9600
 total energy-change (2. order) : 0.1194267E-02  (-0.2075279E-02)
 number of electron     335.9999997 magnetization       0.1723624
 augmentation part      -46.9945351 magnetization       0.1766359

 Broyden mixing:
  rms(total) = 0.20220E-01    rms(broyden)= 0.20220E-01
  rms(prec ) = 0.21801E-01
  weight for this iteration     100.00

 eigenvalues of (default mixing * dielectric matrix)
  average eigenvalue GAMMA=   1.5644
  4.5533  2.5276  2.5276  1.3315  0.9975  0.9975  0.7581  0.7581  0.6239  0.5690

 Free energy of the ion-electron system (eV)
  ---------------------------------------------------
  alpha Z        PSCENC =       253.99581917
  Ewald energy   TEWEN  =     -9969.96610042
  -Hartree energ DENC   =     -4867.43526772
  -exchange      EXHF   =         0.00000000
  -V(xc)+E(xc)   XCENC  =       689.17065494
  PAW double counting   =     39188.48369671   -39013.81278786
  entropy T*S    EENTRO =         0.00000000
  eigenvalues    EBANDS =     -2011.81371358
  atomic energy  EATOM  =     15501.99929693
  Solvation  Ediel_sol  =         0.00000000
  ---------------------------------------------------
  free energy    TOTEN  =      -229.37840183 eV

  energy without entropy =     -229.37840183  energy(sigma->0) =     -229.37840183


--------------------------------------------------------------------------------------------------------




--------------------------------------- Iteration      1(  16)  ---------------------------------------


    POTLOK:  cpu time      0.4843: real time      0.4852
    SETDIJ:  cpu time     12.5115: real time     12.5253
     EDDAV:  cpu time     62.2826: real time     62.3338
 BZINTS: Fermi energy:    0.076451;  336.000000 electrons
         Band energy:-0.201226E+04;  BLOECHL correction:    0.000000
       DOS:  cpu time      0.0261: real time      0.0262
    CHARGE:  cpu time     11.2252: real time     11.2334
    MIXING:  cpu time      0.0208: real time      0.0208
    --------------------------------------------
      LOOP:  cpu time     86.5505: real time     86.6248

 eigenvalue-minimisations  :  9184
 total energy-change (2. order) : 0.3140993E-02  (-0.5505440E-03)
 number of electron     335.9999997 magnetization       0.0693942
 augmentation part      -46.9933333 magnetization       0.0702074

 Broyden mixing:
  rms(total) = 0.12293E-01    rms(broyden)= 0.12293E-01
  rms(prec ) = 0.13309E-01
  weight for this iteration     100.00

 eigenvalues of (default mixing * dielectric matrix)
  average eigenvalue GAMMA=   1.5466
  4.7590  2.4268  2.4268  1.8424  0.9954  0.9954  0.9234  0.7277  0.7277  0.5802
  0.6074

 Free energy of the ion-electron system (eV)
  ---------------------------------------------------
  alpha Z        PSCENC =       253.99581917
  Ewald energy   TEWEN  =     -9969.96610042
  -Hartree energ DENC   =     -4866.89188077
  -exchange      EXHF   =         0.00000000
  -V(xc)+E(xc)   XCENC  =       689.10367592
  PAW double counting   =     39159.41118688   -38984.76435491
  entropy T*S    EENTRO =         0.00000000
  eigenvalues    EBANDS =     -2012.26290363
  atomic energy  EATOM  =     15501.99929693
  Solvation  Ediel_sol  =         0.00000000
  ---------------------------------------------------
  free energy    TOTEN  =      -229.37526083 eV

  energy without entropy =     -229.37526083  energy(sigma->0) =     -229.37526083


--------------------------------------------------------------------------------------------------------




--------------------------------------- Iteration      1(  17)  ---------------------------------------


    POTLOK:  cpu time      0.5145: real time      0.5173
    SETDIJ:  cpu time     10.4521: real time     10.4622
     EDDAV:  cpu time     63.8357: real time     63.8685
 BZINTS: Fermi energy:    0.078232;  336.000000 electrons
         Band energy:-0.201134E+04;  BLOECHL correction:    0.000000
       DOS:  cpu time      0.0276: real time      0.0276
    CHARGE:  cpu time     10.9981: real time     11.0023
    MIXING:  cpu time      0.0165: real time      0.0165
    --------------------------------------------
      LOOP:  cpu time     85.8444: real time     85.8945

 eigenvalue-minimisations  :  9504
 total energy-change (2. order) :-0.5100307E-03  (-0.1189765E-03)
 number of electron     335.9999997 magnetization       0.0176853
 augmentation part      -46.9882884 magnetization       0.0180766

 Broyden mixing:
  rms(total) = 0.49280E-02    rms(broyden)= 0.49279E-02
  rms(prec ) = 0.55313E-02
  weight for this iteration     100.00

 eigenvalues of (default mixing * dielectric matrix)
  average eigenvalue GAMMA=   1.5760
  4.9485  2.6013  2.6013  2.2014  1.1771  0.9966  0.9966  0.7619  0.7619  0.6804
  0.5863  0.5985

 Free energy of the ion-electron system (eV)
  ---------------------------------------------------
  alpha Z        PSCENC =       253.99581917
  Ewald energy   TEWEN  =     -9969.96610042
  -Hartree energ DENC   =     -4867.84548001
  -exchange      EXHF   =         0.00000000
  -V(xc)+E(xc)   XCENC  =       689.16297342
  PAW double counting   =     39200.04777335   -39025.42510938
  entropy T*S    EENTRO =         0.00000000
  eigenvalues    EBANDS =     -2011.34494392
  atomic energy  EATOM  =     15501.99929693
  Solvation  Ediel_sol  =         0.00000000
  ---------------------------------------------------
  free energy    TOTEN  =      -229.37577086 eV

  energy without entropy =     -229.37577086  energy(sigma->0) =     -229.37577086


--------------------------------------------------------------------------------------------------------




--------------------------------------- Iteration      1(  18)  ---------------------------------------


    POTLOK:  cpu time      0.4193: real time      0.4241
    SETDIJ:  cpu time      8.4162: real time      8.4184
     EDDAV:  cpu time     60.5120: real time     60.5375
 BZINTS: Fermi energy:    0.079490;  336.000000 electrons
         Band energy:-0.201082E+04;  BLOECHL correction:    0.000000
       DOS:  cpu time      0.0268: real time      0.0269
    CHARGE:  cpu time      9.1318: real time      9.1341
    MIXING:  cpu time      0.0234: real time      0.0234
    --------------------------------------------
      LOOP:  cpu time     78.5295: real time     78.5644

 eigenvalue-minimisations  :  9472
 total energy-change (2. order) :-0.1143524E-03  (-0.3965082E-04)
 number of electron     335.9999997 magnetization       0.0050487
 augmentation part      -46.9849503 magnetization       0.0055868

 Broyden mixing:
  rms(total) = 0.44586E-02    rms(broyden)= 0.44585E-02
  rms(prec ) = 0.47120E-02
  weight for this iteration     100.00

 eigenvalues of (default mixing * dielectric matrix)
  average eigenvalue GAMMA=   1.5445
  5.0026  2.6449  2.6449  2.2641  1.1310  1.1310  0.9904  0.9904  0.7252  0.7252
  0.5780  0.6443  0.6065

 Free energy of the ion-electron system (eV)
  ---------------------------------------------------
  alpha Z        PSCENC =       253.99581917
  Ewald energy   TEWEN  =     -9969.96610042
  -Hartree energ DENC   =     -4868.39032649
  -exchange      EXHF   =         0.00000000
  -V(xc)+E(xc)   XCENC  =       689.19832191
  PAW double counting   =     39228.88074721   -39054.27294347
  entropy T*S    EENTRO =         0.00000000
  eigenvalues    EBANDS =     -2010.82070005
  atomic energy  EATOM  =     15501.99929693
  Solvation  Ediel_sol  =         0.00000000
  ---------------------------------------------------
  free energy    TOTEN  =      -229.37588522 eV

  energy without entropy =     -229.37588522  energy(sigma->0) =     -229.37588522


--------------------------------------------------------------------------------------------------------




--------------------------------------- Iteration      1(  19)  ---------------------------------------


    POTLOK:  cpu time      0.4797: real time      0.4805
    SETDIJ:  cpu time      8.0418: real time      8.0444
     EDDAV:  cpu time     62.5581: real time     62.5845
 BZINTS: Fermi energy:    0.078617;  336.000000 electrons
         Band energy:-0.201108E+04;  BLOECHL correction:    0.000000
       DOS:  cpu time      0.0283: real time      0.0283
    CHARGE:  cpu time     14.7367: real time     14.7406
    MIXING:  cpu time      0.0227: real time      0.0227
    --------------------------------------------
      LOOP:  cpu time     85.8673: real time     85.9011

 eigenvalue-minimisations  :  9728
 total energy-change (2. order) :-0.6333099E-05  (-0.6210085E-05)
 number of electron     335.9999997 magnetization      -0.0005563
 augmentation part      -46.9857846 magnetization      -0.0003155

 Broyden mixing:
  rms(total) = 0.20196E-02    rms(broyden)= 0.20196E-02
  rms(prec ) = 0.21952E-02
  weight for this iteration     100.00

 eigenvalues of (default mixing * dielectric matrix)
  average eigenvalue GAMMA=   1.5455
  5.0455  2.7067  2.7067  2.1074  1.4099  1.4099  1.0327  1.0327  0.8583  0.7537
  0.7537  0.5794  0.6092  0.6308

 Free energy of the ion-electron system (eV)
  ---------------------------------------------------
  alpha Z        PSCENC =       253.99581917
  Ewald energy   TEWEN  =     -9969.96610042
  -Hartree energ DENC   =     -4868.11530588
  -exchange      EXHF   =         0.00000000
  -V(xc)+E(xc)   XCENC  =       689.18134923
  PAW double counting   =     39227.46741702   -39052.85647205
  entropy T*S    EENTRO =         0.00000000
  eigenvalues    EBANDS =     -2011.08189555
  atomic energy  EATOM  =     15501.99929693
  Solvation  Ediel_sol  =         0.00000000
  ---------------------------------------------------
  free energy    TOTEN  =      -229.37589155 eV

  energy without entropy =     -229.37589155  energy(sigma->0) =     -229.37589155


--------------------------------------------------------------------------------------------------------




--------------------------------------- Iteration      1(  20)  ---------------------------------------


    POTLOK:  cpu time      0.4495: real time      0.4562
    SETDIJ:  cpu time     13.2636: real time     13.2712
     EDDAV:  cpu time     65.7930: real time     65.8534
 BZINTS: Fermi energy:    0.078247;  336.000000 electrons
         Band energy:-0.201122E+04;  BLOECHL correction:    0.000000
       DOS:  cpu time      0.0275: real time      0.0276
    CHARGE:  cpu time     13.5913: real time     13.6112
    MIXING:  cpu time      0.0258: real time      0.0259
    --------------------------------------------
      LOOP:  cpu time     93.1507: real time     93.2455

 eigenvalue-minimisations  :  9184
 total energy-change (2. order) :-0.1048002E-04  (-0.3446917E-05)
 number of electron     335.9999997 magnetization      -0.0016431
 augmentation part      -46.9863138 magnetization      -0.0015646

 Broyden mixing:
  rms(total) = 0.95229E-03    rms(broyden)= 0.95216E-03
  rms(prec ) = 0.10117E-02
  weight for this iteration     100.00

 eigenvalues of (default mixing * dielectric matrix)
  average eigenvalue GAMMA=   1.5471
  5.0953  2.7076  2.7076  2.0993  2.0993  1.2307  1.2307  0.9906  0.9906  0.7798
  0.7329  0.7329  0.5774  0.6158  0.6158

 Free energy of the ion-electron system (eV)
  ---------------------------------------------------
  alpha Z        PSCENC =       253.99581917
  Ewald energy   TEWEN  =     -9969.96610042
  -Hartree energ DENC   =     -4867.97227842
  -exchange      EXHF   =         0.00000000
  -V(xc)+E(xc)   XCENC  =       689.17431532
  PAW double counting   =     39232.62830414   -39058.01545014
  entropy T*S    EENTRO =         0.00000000
  eigenvalues    EBANDS =     -2011.21980861
  atomic energy  EATOM  =     15501.99929693
  Solvation  Ediel_sol  =         0.00000000
  ---------------------------------------------------
  free energy    TOTEN  =      -229.37590203 eV

  energy without entropy =     -229.37590203  energy(sigma->0) =     -229.37590203


--------------------------------------------------------------------------------------------------------




--------------------------------------- Iteration      1(  21)  ---------------------------------------


    POTLOK:  cpu time      0.4763: real time      0.4770
    SETDIJ:  cpu time     11.1496: real time     11.1621
     EDDAV:  cpu time     59.2202: real time     59.2653
 BZINTS: Fermi energy:    0.078133;  336.000000 electrons
         Band energy:-0.201128E+04;  BLOECHL correction:    0.000000
       DOS:  cpu time      0.0259: real time      0.0260
    CHARGE:  cpu time     10.9999: real time     11.0029
    MIXING:  cpu time      0.0232: real time      0.0232
    --------------------------------------------
      LOOP:  cpu time     81.8951: real time     81.9565

 eigenvalue-minimisations  :  9280
 total energy-change (2. order) : 0.1080502E-05  (-0.8818711E-06)
 number of electron     335.9999997 magnetization      -0.0013535
 augmentation part      -46.9865118 magnetization      -0.0013576

 Broyden mixing:
  rms(total) = 0.42435E-03    rms(broyden)= 0.42408E-03
  rms(prec ) = 0.44652E-03
  weight for this iteration     100.00

 eigenvalues of (default mixing * dielectric matrix)
  average eigenvalue GAMMA=   1.5117
  5.0970  2.6671  2.6671  2.5682  1.6235  1.3944  1.1543  1.1543  0.9281  0.9281
  0.7393  0.7393  0.7248  0.5772  0.6126  0.6126

 Free energy of the ion-electron system (eV)
  ---------------------------------------------------
  alpha Z        PSCENC =       253.99581917
  Ewald energy   TEWEN  =     -9969.96610042
  -Hartree energ DENC   =     -4867.91240809
  -exchange      EXHF   =         0.00000000
  -V(xc)+E(xc)   XCENC  =       689.17064405
  PAW double counting   =     39232.05031052   -39057.43662912
  entropy T*S    EENTRO =         0.00000000
  eigenvalues    EBANDS =     -2011.27683398
  atomic energy  EATOM  =     15501.99929693
  Solvation  Ediel_sol  =         0.00000000
  ---------------------------------------------------
  free energy    TOTEN  =      -229.37590095 eV

  energy without entropy =     -229.37590095  energy(sigma->0) =     -229.37590095


--------------------------------------------------------------------------------------------------------




--------------------------------------- Iteration      1(  22)  ---------------------------------------


    POTLOK:  cpu time      0.4962: real time      0.5074
    SETDIJ:  cpu time      6.5528: real time      6.5589
     EDDAV:  cpu time     61.0800: real time     61.1335
 BZINTS: Fermi energy:    0.078171;  336.000000 electrons
         Band energy:-0.201130E+04;  BLOECHL correction:    0.000000
       DOS:  cpu time      0.0266: real time      0.0267
    CHARGE:  cpu time     13.3402: real time     13.3544
    MIXING:  cpu time      0.0205: real time      0.0205
    --------------------------------------------
      LOOP:  cpu time     81.5164: real time     81.6015

 eigenvalue-minimisations  :  9920
 total energy-change (2. order) : 0.4524227E-06  (-0.1409633E-06)
 number of electron     335.9999997 magnetization      -0.0004732
 augmentation part      -46.9865819 magnetization      -0.0004950

 Broyden mixing:
  rms(total) = 0.23150E-03    rms(broyden)= 0.23101E-03
  rms(prec ) = 0.24575E-03
  weight for this iteration     100.00

 eigenvalues of (default mixing * dielectric matrix)
  average eigenvalue GAMMA=   1.5001
  5.0913  2.6558  2.6558  2.6214  1.6735  1.4375  1.4375  1.0837  1.0837  0.9002
  0.9002  0.7423  0.7423  0.6729  0.5782  0.6126  0.6126

 Free energy of the ion-electron system (eV)
  ---------------------------------------------------
  alpha Z        PSCENC =       253.99581917
  Ewald energy   TEWEN  =     -9969.96610042
  -Hartree energ DENC   =     -4867.89053010
  -exchange      EXHF   =         0.00000000
  -V(xc)+E(xc)   XCENC  =       689.16904781
  PAW double counting   =     39230.63352063   -39056.01952881
  entropy T*S    EENTRO =         0.00000000
  eigenvalues    EBANDS =     -2011.29742570
  atomic energy  EATOM  =     15501.99929693
  Solvation  Ediel_sol  =         0.00000000
  ---------------------------------------------------
  free energy    TOTEN  =      -229.37590050 eV

  energy without entropy =     -229.37590050  energy(sigma->0) =     -229.37590050


--------------------------------------------------------------------------------------------------------




--------------------------------------- Iteration      1(  23)  ---------------------------------------


    POTLOK:  cpu time      0.4636: real time      0.4644
    SETDIJ:  cpu time      9.1436: real time      9.1538
     EDDAV:  cpu time     60.6454: real time     60.7271
 BZINTS: Fermi energy:    0.078064;  336.000000 electrons
         Band energy:-0.201129E+04;  BLOECHL correction:    0.000000
       DOS:  cpu time      0.0258: real time      0.0259
    CHARGE:  cpu time     17.6449: real time     17.6567
    MIXING:  cpu time      0.0172: real time      0.0172
    --------------------------------------------
      LOOP:  cpu time     87.9404: real time     88.0450

 eigenvalue-minimisations  :  9216
 total energy-change (2. order) :-0.2305205E-06  (-0.5746069E-07)
 number of electron     335.9999997 magnetization      -0.0002564
 augmentation part      -46.9865544 magnetization      -0.0002528

 Broyden mixing:
[...]

  length of vectors
    10.314108670 16.788494411 10.846477853     0.097707938  0.059564603  0.092912216


 FORCES acting on ions
    electron-ion (+dipol)            ewald-force                    non-local-force                 convergence-correction
 -----------------------------------------------------------------------------------------------
   0.987E+02 -.105E+03 -.125E+02   -.104E+03 0.113E+03 0.112E+02   0.495E+01 -.888E+01 0.132E+01   0.170E-05 -.385E-06 0.722E-06
   0.986E+02 -.105E+03 -.125E+02   -.104E+03 0.113E+03 0.112E+02   0.495E+01 -.888E+01 0.132E+01   0.166E-05 -.313E-06 0.787E-06
   -.124E+02 0.420E+02 -.127E+03   0.126E+02 -.472E+02 0.134E+03   -.246E+00 0.519E+01 -.705E+01   0.253E-07 0.114E-06 -.140E-05
   -.124E+02 0.420E+02 -.127E+03   0.126E+02 -.472E+02 0.134E+03   -.246E+00 0.519E+01 -.705E+01   0.184E-06 0.121E-06 -.135E-05
   -.212E+02 -.902E+02 0.981E+02   0.199E+02 0.989E+02 -.103E+03   0.134E+01 -.874E+01 0.530E+01   -.836E-07 -.933E-07 0.195E-05
   -.211E+02 -.902E+02 0.981E+02   0.198E+02 0.989E+02 -.103E+03   0.134E+01 -.874E+01 0.530E+01   0.282E-07 -.169E-06 0.198E-05
   -.108E+03 0.951E+02 0.624E+01   0.114E+03 -.101E+03 -.412E+01   -.534E+01 0.592E+01 -.212E+01   -.175E-05 0.920E-07 0.698E-06
   -.108E+03 0.950E+02 0.625E+01   0.114E+03 -.101E+03 -.414E+01   -.534E+01 0.592E+01 -.212E+01   -.167E-05 0.442E-07 0.674E-06
   0.136E+03 -.538E+02 -.188E+02   -.143E+03 0.593E+02 0.193E+02   0.680E+01 -.552E+01 -.558E+00   0.146E-05 0.788E-07 -.993E-06
   0.136E+03 -.539E+02 -.187E+02   -.143E+03 0.595E+02 0.193E+02   0.680E+01 -.552E+01 -.558E+00   0.165E-05 0.102E-07 -.101E-05
   -.136E+03 0.539E+02 0.188E+02   0.143E+03 -.594E+02 -.193E+02   -.680E+01 0.552E+01 0.559E+00   -.158E-05 -.959E-07 0.108E-05
   -.136E+03 0.539E+02 0.187E+02   0.143E+03 -.595E+02 -.193E+02   -.680E+01 0.552E+01 0.558E+00   -.157E-05 -.897E-07 0.104E-05
   0.109E+03 -.955E+02 -.619E+01   -.114E+03 0.101E+03 0.411E+01   0.527E+01 -.592E+01 0.208E+01   0.158E-05 -.121E-06 -.624E-06
   0.108E+03 -.950E+02 -.625E+01   -.114E+03 0.101E+03 0.414E+01   0.534E+01 -.592E+01 0.212E+01   0.177E-05 -.715E-07 -.643E-06
   -.123E+02 -.420E+02 0.127E+03   0.126E+02 0.472E+02 -.134E+03   -.246E+00 -.519E+01 0.705E+01   0.992E-07 0.732E-07 0.931E-06
   -.124E+02 -.420E+02 0.127E+03   0.126E+02 0.472E+02 -.134E+03   -.246E+00 -.519E+01 0.705E+01   0.101E-06 0.896E-07 0.110E-05
   0.212E+02 -.901E+02 0.980E+02   -.199E+02 0.989E+02 -.103E+03   -.134E+01 -.874E+01 0.530E+01   0.474E-07 0.267E-07 0.192E-05
   0.211E+02 -.902E+02 0.981E+02   -.198E+02 0.989E+02 -.103E+03   -.134E+01 -.874E+01 0.530E+01   0.123E-06 0.858E-07 0.191E-05
   -.986E+02 -.105E+03 -.126E+02   0.104E+03 0.113E+03 0.113E+02   -.495E+01 -.888E+01 0.132E+01   -.171E-05 -.117E-06 0.655E-06
   -.986E+02 -.105E+03 -.125E+02   0.104E+03 0.113E+03 0.112E+02   -.495E+01 -.888E+01 0.132E+01   -.163E-05 -.146E-06 0.727E-06
   -.137E+03 -.540E+02 -.186E+02   0.143E+03 0.595E+02 0.192E+02   -.676E+01 -.552E+01 -.588E+00   -.152E-05 -.663E-07 -.979E-06
   -.136E+03 -.540E+02 -.187E+02   0.143E+03 0.595E+02 0.193E+02   -.680E+01 -.552E+01 -.558E+00   -.162E-05 -.744E-07 -.100E-05
   0.124E+02 0.420E+02 -.127E+03   -.126E+02 -.472E+02 0.134E+03   0.246E+00 0.519E+01 -.705E+01   -.124E-06 -.112E-06 -.125E-05
   0.124E+02 0.420E+02 -.127E+03   -.126E+02 -.472E+02 0.134E+03   0.245E+00 0.519E+01 -.705E+01   -.275E-07 -.172E-06 -.130E-05
   -.108E+03 -.950E+02 -.626E+01   0.114E+03 0.101E+03 0.414E+01   -.534E+01 -.592E+01 0.212E+01   -.174E-05 0.216E-06 -.688E-06
   -.108E+03 -.950E+02 -.626E+01   0.114E+03 0.101E+03 0.414E+01   -.534E+01 -.592E+01 0.212E+01   -.154E-05 0.223E-06 -.667E-06
   0.987E+02 0.105E+03 0.127E+02   -.104E+03 -.113E+03 -.114E+02   0.495E+01 0.889E+01 -.132E+01   0.157E-05 0.173E-06 -.847E-06
   0.986E+02 0.105E+03 0.125E+02   -.104E+03 -.113E+03 -.112E+02   0.495E+01 0.888E+01 -.132E+01   0.173E-05 0.265E-06 -.814E-06
   -.987E+02 0.105E+03 0.125E+02   0.104E+03 -.113E+03 -.112E+02   -.495E+01 0.888E+01 -.132E+01   -.175E-05 0.299E-06 -.855E-06
   -.986E+02 0.105E+03 0.125E+02   0.104E+03 -.113E+03 -.112E+02   -.495E+01 0.888E+01 -.132E+01   -.155E-05 0.216E-06 -.888E-06
   0.728E+02 0.962E+02 0.632E+02   -.755E+02 -.106E+03 -.652E+02   0.274E+01 0.971E+01 0.207E+01   0.789E-06 0.385E-06 0.359E-06
   0.728E+02 0.961E+02 0.632E+02   -.755E+02 -.106E+03 -.653E+02   0.274E+01 0.971E+01 0.207E+01   0.861E-06 0.375E-06 0.494E-06
   0.227E+02 -.946E+02 -.892E+02   -.214E+02 0.101E+03 0.943E+02   -.140E+01 -.615E+01 -.511E+01   0.209E-06 -.734E-07 -.126E-05
   0.218E+02 -.938E+02 -.889E+02   -.205E+02 0.100E+03 0.940E+02   -.133E+01 -.628E+01 -.509E+01   0.278E-06 -.341E-08 -.142E-05
   -.221E+02 0.909E+02 -.979E+02   0.207E+02 -.997E+02 0.103E+03   0.139E+01 0.861E+01 -.531E+01   -.106E-06 0.359E-07 -.164E-05
   -.211E+02 0.902E+02 -.981E+02   0.198E+02 -.989E+02 0.103E+03   0.134E+01 0.874E+01 -.530E+01   -.839E-07 0.494E-07 -.178E-05
   -.218E+02 0.939E+02 0.889E+02   0.205E+02 -.100E+03 -.940E+02   0.133E+01 0.628E+01 0.509E+01   -.364E-06 0.639E-07 0.164E-05
   -.218E+02 0.938E+02 0.889E+02   0.205E+02 -.100E+03 -.940E+02   0.133E+01 0.628E+01 0.509E+01   -.215E-06 0.665E-08 0.157E-05
   0.212E+02 0.904E+02 -.981E+02   -.199E+02 -.991E+02 0.103E+03   -.133E+01 0.874E+01 -.530E+01   0.396E-07 0.616E-07 -.162E-05
   0.211E+02 0.902E+02 -.981E+02   -.198E+02 -.989E+02 0.103E+03   -.134E+01 0.874E+01 -.530E+01   0.439E-07 0.523E-07 -.178E-05
   0.728E+02 -.961E+02 -.633E+02   -.755E+02 0.106E+03 0.653E+02   0.274E+01 -.971E+01 -.207E+01   0.850E-06 -.392E-06 -.597E-06
   0.728E+02 -.961E+02 -.633E+02   -.755E+02 0.106E+03 0.653E+02   0.274E+01 -.971E+01 -.207E+01   0.885E-06 -.309E-06 -.665E-06
   0.136E+03 0.540E+02 0.187E+02   -.143E+03 -.595E+02 -.192E+02   0.680E+01 0.552E+01 0.558E+00   0.159E-05 0.927E-07 0.102E-05
   0.136E+03 0.540E+02 0.187E+02   -.143E+03 -.595E+02 -.192E+02   0.680E+01 0.552E+01 0.558E+00   0.159E-05 0.144E-06 0.102E-05
   0.108E+03 0.950E+02 0.627E+01   -.114E+03 -.101E+03 -.415E+01   0.534E+01 0.592E+01 -.212E+01   0.166E-05 -.209E-06 0.746E-06
   0.108E+03 0.950E+02 0.626E+01   -.114E+03 -.101E+03 -.414E+01   0.534E+01 0.592E+01 -.212E+01   0.166E-05 -.178E-06 0.717E-06
   -.728E+02 -.962E+02 -.632E+02   0.755E+02 0.106E+03 0.653E+02   -.274E+01 -.971E+01 -.207E+01   -.881E-06 -.454E-06 -.636E-06
   -.728E+02 -.961E+02 -.632E+02   0.755E+02 0.106E+03 0.653E+02   -.274E+01 -.971E+01 -.207E+01   -.804E-06 -.513E-06 -.597E-06
   -.218E+02 -.937E+02 -.889E+02   0.205E+02 0.100E+03 0.940E+02   0.133E+01 -.628E+01 -.508E+01   -.268E-06 0.265E-06 -.124E-05
   -.218E+02 -.938E+02 -.889E+02   0.205E+02 0.100E+03 0.940E+02   0.133E+01 -.628E+01 -.509E+01   -.283E-06 0.235E-06 -.139E-05
   0.218E+02 0.937E+02 0.889E+02   -.205E+02 -.100E+03 -.940E+02   -.133E+01 0.628E+01 0.509E+01   0.269E-06 -.238E-06 0.153E-05
   0.218E+02 0.937E+02 0.889E+02   -.205E+02 -.100E+03 -.940E+02   -.133E+01 0.628E+01 0.508E+01   0.345E-06 -.244E-06 0.161E-05
   -.728E+02 0.962E+02 0.633E+02   0.756E+02 -.106E+03 -.654E+02   -.274E+01 0.971E+01 0.208E+01   -.857E-06 0.493E-06 0.362E-06
   -.728E+02 0.961E+02 0.633E+02   0.755E+02 -.106E+03 -.653E+02   -.274E+01 0.971E+01 0.207E+01   -.862E-06 0.427E-06 0.490E-06
   0.124E+02 -.420E+02 0.127E+03   -.126E+02 0.472E+02 -.134E+03   0.241E+00 -.519E+01 0.705E+01   -.147E-06 -.114E-06 0.102E-05
   0.124E+02 -.420E+02 0.127E+03   -.126E+02 0.472E+02 -.134E+03   0.246E+00 -.519E+01 0.705E+01   -.116E-06 -.549E-07 0.118E-05
 -----------------------------------------------------------------------------------------------
   0.406E-01 -.183E-01 0.102E+00   0.135E-12 -.149E-12 -.853E-13   -.406E-01 0.183E-01 -.102E+00   -.357E-07 0.664E-08 -.332E-07


 POSITION                                       TOTAL-FORCE (eV/Angst)
 -----------------------------------------------------------------------------------
      7.84031      7.96182     -7.59135         0.002462     -0.001191      0.000958
     16.23455      7.96182     -7.59135         0.002512     -0.001213      0.000876
      3.16872      2.44282     -6.01943         0.002164     -0.000884     -0.002648
     11.56297      2.44282     -6.01943         0.002095     -0.000879     -0.002585
      1.76685      7.82725    -10.10485         0.000321     -0.000084     -0.000600
     10.16110      7.82725    -10.10485        -0.000025      0.000176     -0.000574
      5.05050      1.12562     -8.40433         0.001577     -0.000638     -0.000804
     13.44475      1.12562     -8.40433         0.001579     -0.000644     -0.000697
      5.13205      1.09979     -2.45651        -0.000101      0.000413     -0.000177
     13.52630      1.09979     -2.45651        -0.000089      0.000442     -0.000287
      3.26219      7.47505     -8.62356        -0.000051      0.000023      0.000454
     11.65644      7.47505     -8.62356         0.000058     -0.000575      0.000140
      3.34375      7.44923     -2.67574         0.003221     -0.014748     -0.002124
     11.73799      7.44923     -2.67574        -0.001542      0.000555      0.000664
      7.36585      0.97835     -4.87422         0.002167      0.000947      0.002368
     15.76010      0.97835     -4.87422         0.002143      0.000877      0.002497
      2.43027      2.67356     -9.91842        -0.000016     -0.000158     -0.000309
     10.82452      2.67356     -9.91842         0.000145     -0.000027     -0.000514
      4.75106      2.80814     -7.40493        -0.002560     -0.001287      0.001134
     13.14531      2.80814     -7.40493        -0.002472     -0.001254      0.000963
      7.45932      6.25348     -2.64294         0.020071      0.007722     -0.017745
     15.85356      6.25348     -2.64294         0.000107      0.000430     -0.000286
      1.02840      7.59650     -6.20585        -0.002078     -0.000926     -0.002528
      9.42265      7.59650     -6.20585        -0.002200     -0.000936     -0.002498
      0.85338      2.29554     -2.48931         0.001593      0.000638      0.000682
      9.24762      2.29554     -2.48931         0.001607      0.000552      0.000624
      3.64318      5.76671     -3.67515        -0.006470     -0.003735     -0.012545
     12.03743      5.76671     -3.67515         0.002410      0.001375     -0.000888
      0.55394      0.61303     -3.48872        -0.002490      0.001309     -0.000905
      8.94819      0.61303     -3.48872        -0.002464      0.001270     -0.000823
      5.79350     -0.03143     -4.03202        -0.001138      0.001692      0.000339
     14.18775     -0.03143     -4.03202        -0.001217      0.001777      0.000249
      4.85766      7.52947     -1.03881        -0.067862      0.141596      0.031532
     13.25190      7.53946     -1.03917        -0.003965      0.002074     -0.000303
      5.96398      5.90128     -1.16165         0.045905     -0.125776     -0.006820
     14.35822      5.90128     -1.16165        -0.000027     -0.000020      0.000494
      3.53659      1.03539    -10.04090         0.003970     -0.002051      0.000183
     11.93084      1.03539    -10.04090         0.003908     -0.002037      0.000256
      6.62739      0.74760     -0.97522        -0.000000      0.000368      0.000621
     15.02164      0.74760     -0.97522         0.000036     -0.000024      0.000462
      1.59638      3.45260     -6.86163        -0.001105     -0.001752     -0.000120
      9.99063      3.45260     -6.86163        -0.001199     -0.001722     -0.000115
      0.93493      2.32137     -8.43713        -0.000187     -0.000457      0.000302
      9.32918      2.32137     -8.43713        -0.000122     -0.000494      0.000259
      7.54087      6.27930     -8.59076        -0.001263     -0.000599     -0.000333
     15.93512      6.27930     -8.59076        -0.001598     -0.000661     -0.000641
      2.60074      8.60628     -7.04805         0.001180     -0.002035     -0.000232
     10.99499      8.60628     -7.04805         0.000990     -0.001775     -0.000289
      7.73371      2.38578     -0.85274         0.004037      0.001189     -0.000396
     16.12796      2.38578     -0.85274         0.003957      0.002035     -0.000286
      0.66053      6.18907    -10.22733        -0.004109     -0.002134      0.000362
      9.05478      6.18907    -10.22733        -0.003810     -0.002136      0.000487
      6.79787      5.12225     -4.21845         0.002731      0.002670      0.003055
     15.19211      5.12225     -4.21845         0.001255      0.001786      0.000194
      5.22552      6.13203     -5.06065        -0.001893      0.000063      0.006380
     13.61977      6.13203     -5.06065        -0.002146      0.000872      0.002538
 -----------------------------------------------------------------------------------
    total drift:                               -0.000003     -0.000000     -0.000000


--------------------------------------------------------------------------------------------------------



  FREE ENERGIE OF THE ION-ELECTRON SYSTEM (eV)
  ---------------------------------------------------
  free  energy   TOTEN  =      -229.37590053 eV

  energy  without entropy=     -229.37590053  energy(sigma->0) =     -229.37590053



--------------------------------------------------------------------------------------------------------


    POTLOK:  cpu time     10.1847: real time     10.1960


--------------------------------------------------------------------------------------------------------


     LOOP+:  cpu time   2928.7748: real time   2930.9818
    4ORBIT:  cpu time      0.0000: real time      0.0000



 total charge

# of ion       s       p       d       tot
------------------------------------------
    1        1.376   2.247   0.000   3.623
    2        1.376   2.247   0.000   3.623
    3        1.376   2.258   0.000   3.635
    4        1.376   2.258   0.000   3.635
    5        1.376   2.247   0.000   3.623
    6        1.376   2.247   0.000   3.622
    7        1.375   2.262   0.000   3.638
    8        1.375   2.262   0.000   3.638
    9        1.377   2.257   0.000   3.634
   10        1.377   2.257   0.000   3.634
   11        1.377   2.257   0.000   3.634
   12        1.377   2.257   0.000   3.634
   13        1.376   2.263   0.000   3.638
   14        1.375   2.262   0.000   3.638
   15        1.376   2.258   0.000   3.635
   16        1.376   2.258   0.000   3.635
   17        1.376   2.247   0.000   3.623
   18        1.376   2.247   0.000   3.623
   19        1.376   2.247   0.000   3.623
   20        1.376   2.247   0.000   3.623
   21        1.377   2.258   0.000   3.635
   22        1.377   2.257   0.000   3.634
   23        1.376   2.258   0.000   3.635
   24        1.376   2.258   0.000   3.635
   25        1.375   2.262   0.000   3.638
   26        1.375   2.262   0.000   3.638
   27        1.376   2.247   0.000   3.623
   28        1.376   2.247   0.000   3.623
   29        1.376   2.247   0.000   3.623
   30        1.376   2.247   0.000   3.623
   31        1.376   2.254   0.000   3.630
   32        1.376   2.254   0.000   3.630
   33        1.375   2.267   0.000   3.642
   34        1.375   2.263   0.000   3.638
   35        1.376   2.250   0.000   3.626
   36        1.376   2.247   0.000   3.623
   37        1.375   2.263   0.000   3.638
   38        1.375   2.263   0.000   3.638
   39        1.376   2.247   0.000   3.623
   40        1.376   2.247   0.000   3.623
   41        1.376   2.254   0.000   3.630
   42        1.376   2.254   0.000   3.630
   43        1.377   2.257   0.000   3.634
   44        1.377   2.257   0.000   3.634
   45        1.375   2.262   0.000   3.638
   46        1.375   2.262   0.000   3.638
   47        1.376   2.254   0.000   3.630
   48        1.376   2.254   0.000   3.630
   49        1.375   2.263   0.000   3.638
   50        1.375   2.263   0.000   3.638
   51        1.375   2.263   0.000   3.638
   52        1.375   2.263   0.000   3.638
   53        1.376   2.254   0.000   3.630
   54        1.376   2.254   0.000   3.630
   55        1.376   2.258   0.000   3.635
   56        1.376   2.258   0.000   3.635
--------------------------------------------------
tot         77.049 126.321   0.000 203.369



 magnetization (x)

# of ion       s       p       d       tot
------------------------------------------
    1        0.000   0.000   0.000   0.000
    2        0.000   0.000   0.000   0.000
    3        0.000   0.000   0.000   0.000
    4        0.000   0.000   0.000   0.000
    5        0.000   0.000   0.000   0.000
    6        0.000   0.000   0.000   0.000
    7        0.000   0.000   0.000   0.000
    8        0.000   0.000   0.000   0.000
    9        0.000   0.000   0.000   0.000
   10        0.000   0.000   0.000   0.000
   11        0.000   0.000   0.000   0.000
   12        0.000   0.000   0.000   0.000
   13        0.000   0.000   0.000   0.000
   14        0.000   0.000   0.000   0.000
   15        0.000   0.000   0.000   0.000
   16        0.000   0.000   0.000   0.000
   17        0.000   0.000   0.000   0.000
   18        0.000   0.000   0.000   0.000
   19        0.000   0.000   0.000   0.000
   20        0.000   0.000   0.000   0.000
   21        0.000   0.000   0.000   0.000
   22        0.000   0.000   0.000   0.000
   23        0.000   0.000   0.000   0.000
   24        0.000   0.000   0.000   0.000
   25        0.000   0.000   0.000   0.000
   26        0.000   0.000   0.000   0.000
   27        0.000   0.000   0.000   0.000
   28        0.000   0.000   0.000   0.000
   29        0.000   0.000   0.000   0.000
   30        0.000   0.000   0.000   0.000
   31        0.000   0.000   0.000   0.000
   32        0.000   0.000   0.000   0.000
   33        0.000   0.000   0.000   0.000
   34        0.000   0.000   0.000   0.000
   35        0.000   0.000   0.000   0.000
   36        0.000   0.000   0.000   0.000
   37        0.000   0.000   0.000   0.000
   38        0.000   0.000   0.000   0.000
   39        0.000   0.000   0.000   0.000
   40        0.000   0.000   0.000   0.000
   41        0.000   0.000   0.000   0.000
   42        0.000   0.000   0.000   0.000
   43        0.000   0.000   0.000   0.000
   44        0.000   0.000   0.000   0.000
   45        0.000   0.000   0.000   0.000
   46        0.000   0.000   0.000   0.000
   47        0.000   0.000   0.000   0.000
   48        0.000   0.000   0.000   0.000
   49        0.000   0.000   0.000   0.000
   50        0.000   0.000   0.000   0.000
   51        0.000   0.000   0.000   0.000
   52        0.000   0.000   0.000   0.000
   53        0.000   0.000   0.000   0.000
   54        0.000   0.000   0.000   0.000
   55        0.000   0.000   0.000   0.000
   56        0.000   0.000   0.000   0.000
--------------------------------------------------
tot          0.000   0.000   0.000   0.000

 BZINTS: Fermi energy:    0.078242;  336.000000 electrons
         Band energy:-0.201130E+04;  BLOECHL correction:    0.000000

 total amount of memory used by VASP MPI-rank0   322725. kBytes
=======================================================================

   base      :      30000. kBytes
   nonl-proj :      70692. kBytes
   fftplans  :      34504. kBytes
   grid      :      83442. kBytes
   one-center:        344. kBytes
   wavefun   :     103743. kBytes

  
  
 General timing and accounting informations for this job:
 ========================================================
  
                  Total CPU time used (sec):     2973.860
                            User time (sec):     2971.625
                          System time (sec):        2.235
                         Elapsed time (sec):     2976.578
  
                   Maximum memory used (kb):      601240.
                   Average memory used (kb):          N/A
  
                          Minor page faults:       808359
                          Major page faults:          100
                 Voluntary context switches:         6359
