       N       E                     dE             d eps       ncg     rms          rms(c)
DAV:   1     0.530328856755E+04    0.53033E+04   -0.32934E+05  7880   0.130E+03
DAV:   2     0.101257754963E+03   -0.52020E+04   -0.49335E+04  9376   0.298E+02
DAV:   3    -0.463321486626E+03   -0.56458E+03   -0.55175E+03 10072   0.115E+02
DAV:   4    -0.482293003861E+03   -0.18972E+02   -0.18815E+02  9656   0.216E+01
DAV:   5    -0.483662856408E+03   -0.13699E+01   -0.13688E+01 12800   0.500E+00    0.128E+02
DAV:   6    -0.409966443537E+03    0.73696E+02   -0.40714E+02  8548   0.353E+01    0.774E+01
DAV:   7    -0.500590020289E+03   -0.90624E+02   -0.15678E+02  8852   0.181E+01    0.440E+01
DAV:   8    -0.522225192988E+03   -0.21635E+02   -0.36579E+01  9024   0.950E+00    0.169E+01
DAV:   9    -0.527865720259E+03   -0.56405E+01   -0.11091E+01  9200   0.458E+00    0.699E+00
DAV:  10    -0.528755069720E+03   -0.88935E+00   -0.19170E+00  9776   0.266E+00    0.348E+00
DAV:  11    -0.529086491059E+03   -0.33142E+00   -0.62894E-01  9176   0.116E+00    0.234E+00
DAV:  12    -0.529164823452E+03   -0.78332E-01   -0.14655E-01  9376   0.520E-01    0.127E+00
DAV:  13    -0.529210123279E+03   -0.45300E-01   -0.38139E-02  9280   0.280E-01    0.541E-01
DAV:  14    -0.529217050819E+03   -0.69275E-02   -0.70977E-03  9840   0.130E-01    0.279E-01
DAV:  15    -0.529218983031E+03   -0.19322E-02   -0.20983E-03  9312   0.629E-02    0.143E-01
DAV:  16    -0.529220053932E+03   -0.10709E-02   -0.11489E-03  9080   0.454E-02    0.700E-02
DAV:  17    -0.529220104963E+03   -0.51031E-04   -0.12375E-04 10776   0.197E-02    0.311E-02
DAV:  18    -0.529220120107E+03   -0.15144E-04   -0.31321E-05  8344   0.759E-03    0.158E-02
DAV:  19    -0.529220126271E+03   -0.61646E-05   -0.55593E-06  8624   0.350E-03    0.859E-03
DAV:  20    -0.529220128277E+03   -0.20058E-05   -0.20850E-06  6416   0.231E-03    0.316E-03
DAV:  21    -0.529220128535E+03   -0.25807E-06   -0.68451E-07  4824   0.128E-03
   1 F= -.56226949E+03 E0= -.56226331E+03  d E =-.562269E+03  mag=    -0.0002
       N       E                     dE             d eps       ncg     rms          rms(c)
DAV:   1    -0.530026396530E+03   -0.80627E+00   -0.21627E+01  8130   0.778E+00    0.549E+00
DAV:   2    -0.529729908707E+03    0.29649E+00   -0.99865E-01  9288   0.191E+00    0.204E+00
DAV:   3    -0.529682032313E+03    0.47876E-01   -0.16961E-01  9352   0.815E-01    0.854E-01
DAV:   4    -0.529672025070E+03    0.10007E-01   -0.27001E-02  9784   0.385E-01    0.359E-01
DAV:   5    -0.529671173387E+03    0.85168E-03   -0.10060E-02  8768   0.150E-01    0.281E-01
DAV:   6    -0.529671000549E+03    0.17284E-03   -0.14364E-03  9688   0.647E-02    0.207E-01
DAV:   7    -0.529670887930E+03    0.11262E-03   -0.32298E-04 10048   0.358E-02    0.679E-02
DAV:   8    -0.529670811462E+03    0.76467E-04   -0.10425E-04 10832   0.201E-02    0.196E-02
DAV:   9    -0.529670808320E+03    0.31425E-05   -0.32112E-05  9176   0.854E-03    0.149E-02
DAV:  10    -0.529670804694E+03    0.36260E-05   -0.47985E-06  7496   0.323E-03    0.929E-03
DAV:  11    -0.529670803801E+03    0.89253E-06   -0.13863E-06  4536   0.214E-03
   2 F= -.56235134E+03 E0= -.56234514E+03  d E =-.818498E-01  mag=    -0.0000
       N       E                     dE             d eps       ncg     rms          rms(c)
DAV:   1    -0.529638353355E+03    0.32451E-01   -0.21968E-01  8128   0.782E-01    0.559E-01
DAV:   2    -0.529635289129E+03    0.30642E-02   -0.10255E-02  9272   0.193E-01    0.206E-01
DAV:   3    -0.529634792405E+03    0.49672E-03   -0.17459E-03  9296   0.822E-02    0.841E-02
DAV:   4    -0.529634707150E+03    0.85255E-04   -0.27744E-04  9712   0.384E-02    0.362E-02
DAV:   5    -0.529634711821E+03   -0.46711E-05   -0.99239E-05  8832   0.152E-02    0.284E-02
DAV:   6    -0.529634719851E+03   -0.80302E-05   -0.14324E-05  9232   0.651E-03    0.211E-02
DAV:   7    -0.529634732694E+03   -0.12843E-04   -0.34838E-06  6624   0.368E-03    0.699E-03
DAV:   8    -0.529634738839E+03   -0.61452E-05   -0.91499E-07  4592   0.221E-03    0.179E-03
DAV:   9    -0.529634738898E+03   -0.58280E-07   -0.56428E-07  4320   0.123E-03
   3 F= -.56235231E+03 E0= -.56234612E+03  d E =-.828151E-01  mag=    -0.0000
       N       E                     dE             d eps       ncg     rms          rms(c)
DAV:   1    -0.529817070477E+03   -0.18233E+00   -0.21300E+01  7920   0.714E+00    0.257E+00
DAV:   2    -0.529825902398E+03   -0.88319E-02   -0.68822E-01  9584   0.133E+00    0.903E-01
DAV:   3    -0.529816568796E+03    0.93336E-02   -0.39127E-02  9192   0.389E-01    0.422E-01
DAV:   4    -0.529814404232E+03    0.21646E-02   -0.86403E-03  9624   0.182E-01    0.232E-01
DAV:   5    -0.529814259068E+03    0.14516E-03   -0.23643E-03  9288   0.801E-02    0.185E-01
DAV:   6    -0.529814235502E+03    0.23566E-04   -0.52657E-04  9368   0.327E-02    0.127E-01
DAV:   7    -0.529814204656E+03    0.30846E-04   -0.10629E-04  9096   0.200E-02    0.521E-02
DAV:   8    -0.529814184601E+03    0.20056E-04   -0.27457E-05 10528   0.116E-02    0.130E-02
DAV:   9    -0.529814183234E+03    0.13665E-05   -0.11057E-05  8040   0.505E-03    0.152E-02
DAV:  10    -0.529814183401E+03   -0.16638E-06   -0.99529E-07  4544   0.177E-03
   4 F= -.56241078E+03 E0= -.56240455E+03  d E =-.584773E-01  mag=    -0.0000
       N       E                     dE             d eps       ncg     rms          rms(c)
DAV:   1    -0.529835258972E+03   -0.21076E-01   -0.56442E-01  7948   0.116E+00    0.416E-01
DAV:   2    -0.529835500709E+03   -0.24174E-03   -0.18300E-02  9584   0.216E-01    0.148E-01
DAV:   3    -0.529835258089E+03    0.24262E-03   -0.10292E-03  9192   0.636E-02    0.697E-02
DAV:   4    -0.529835200017E+03    0.58072E-04   -0.23452E-04  9656   0.297E-02    0.393E-02
DAV:   5    -0.529835191363E+03    0.86542E-05   -0.63647E-05  9032   0.129E-02    0.314E-02
DAV:   6    -0.529835186349E+03    0.50145E-05   -0.14080E-05  8920   0.539E-03    0.211E-02
DAV:   7    -0.529835180449E+03    0.58996E-05   -0.27764E-06  6304   0.342E-03    0.808E-03
DAV:   8    -0.529835177187E+03    0.32615E-05   -0.67580E-07  4392   0.199E-03    0.216E-03
DAV:   9    -0.529835177200E+03   -0.13039E-07   -0.48241E-07  4352   0.111E-03
   5 F= -.56241211E+03 E0= -.56240586E+03  d E =-.598095E-01  mag=    -0.0000
       N       E                     dE             d eps       ncg     rms          rms(c)
DAV:   1    -0.529843621050E+03   -0.84439E-02   -0.98671E+00  7856   0.428E+00    0.104E+00
DAV:   2    -0.529861443185E+03   -0.17822E-01   -0.19647E-01  9728   0.652E-01    0.443E-01
DAV:   3    -0.529861048430E+03    0.39476E-03   -0.40465E-03  9688   0.113E-01    0.310E-01
DAV:   4    -0.529860990730E+03    0.57700E-04   -0.11075E-03  9816   0.553E-02    0.100E-01
DAV:   5    -0.529861013828E+03   -0.23098E-04   -0.22163E-04  9952   0.316E-02    0.489E-02
DAV:   6    -0.529861007125E+03    0.67034E-05   -0.39403E-05  9728   0.139E-02    0.349E-02
DAV:   7    -0.529861006821E+03    0.30365E-06   -0.10775E-05  7960   0.487E-03    0.270E-02
DAV:   8    -0.529861005004E+03    0.18169E-05   -0.51842E-06  7688   0.400E-03    0.115E-02
DAV:   9    -0.529861005052E+03   -0.47890E-07   -0.20341E-06  4880   0.235E-03
   6 F= -.56244282E+03 E0= -.56243658E+03  d E =-.307088E-01  mag=     0.0000
       N       E                     dE             d eps       ncg     rms          rms(c)
DAV:   1    -0.529819725069E+03    0.41280E-01   -0.30427E+01  7856   0.752E+00    0.185E+00
DAV:   2    -0.529875395665E+03   -0.55671E-01   -0.61433E-01  9760   0.115E+00    0.772E-01
DAV:   3    -0.529874292744E+03    0.11029E-02   -0.13286E-02  9768   0.199E-01    0.543E-01
DAV:   4    -0.529874092926E+03    0.19982E-03   -0.34192E-03  9824   0.987E-02    0.175E-01
DAV:   5    -0.529874162026E+03   -0.69100E-04   -0.67043E-04 10064   0.545E-02    0.858E-02
DAV:   6    -0.529874141983E+03    0.20043E-04   -0.11716E-04  9744   0.238E-02    0.624E-02
DAV:   7    -0.529874138828E+03    0.31547E-05   -0.31703E-05  8800   0.841E-03    0.480E-02
DAV:   8    -0.529874132522E+03    0.63064E-05   -0.16110E-05  8968   0.700E-03    0.205E-02
DAV:   9    -0.529874132471E+03    0.51019E-07   -0.62738E-06  7680   0.392E-03
   7 F= -.56246451E+03 E0= -.56245826E+03  d E =-.523943E-01  mag=     0.0000
       N       E                     dE             d eps       ncg     rms          rms(c)
DAV:   1    -0.529876655363E+03   -0.25228E-02   -0.51297E+00  7856   0.325E+00    0.782E-01
DAV:   2    -0.529885266978E+03   -0.86116E-02   -0.97210E-02  9488   0.462E-01    0.267E-01
DAV:   3    -0.529884994550E+03    0.27243E-03   -0.19505E-03  9840   0.813E-02    0.143E-01
DAV:   4    -0.529884974593E+03    0.19957E-04   -0.68756E-04  9672   0.446E-02    0.539E-02
DAV:   5    -0.529884971486E+03    0.31065E-05   -0.10935E-04  9504   0.225E-02    0.339E-02
DAV:   6    -0.529884974306E+03   -0.28199E-05   -0.36722E-05  8400   0.922E-03    0.174E-02
DAV:   7    -0.529884974115E+03    0.19087E-06   -0.49267E-06  7944   0.450E-03
   8 F= -.56248393E+03 E0= -.56247767E+03  d E =-.194164E-01  mag=     0.0000
       N       E                     dE             d eps       ncg     rms          rms(c)
DAV:   1    -0.529817165707E+03    0.67809E-01   -0.46239E+01  7856   0.975E+00    0.244E+00
DAV:   2    -0.529895314418E+03   -0.78149E-01   -0.88658E-01  9488   0.140E+00    0.775E-01
DAV:   3    -0.529893332101E+03    0.19823E-02   -0.19863E-02  9984   0.245E-01    0.424E-01
DAV:   4    -0.529893103439E+03    0.22866E-03   -0.57683E-03  9504   0.135E-01    0.163E-01
DAV:   5    -0.529893091176E+03    0.12264E-04   -0.93245E-04  9712   0.652E-02    0.980E-02
DAV:   6    -0.529893115096E+03   -0.23921E-04   -0.31290E-04  8656   0.271E-02    0.515E-02
DAV:   7    -0.529893109182E+03    0.59143E-05   -0.39584E-05  9248   0.131E-02    0.365E-02
DAV:   8    -0.529893111920E+03   -0.27383E-05   -0.20203E-05  9024   0.686E-03    0.138E-02
DAV:   9    -0.529893112043E+03   -0.12259E-06   -0.73050E-06  7792   0.436E-03
   9 F= -.56251781E+03 E0= -.56251154E+03  d E =-.533033E-01  mag=     0.0000
       N       E                     dE             d eps       ncg     rms          rms(c)
DAV:   1    -0.529874390883E+03    0.18721E-01   -0.72003E+00  7856   0.385E+00    0.935E-01
DAV:   2    -0.529886446866E+03   -0.12056E-01   -0.13605E-01  9496   0.548E-01    0.312E-01
DAV:   3    -0.529886074028E+03    0.37284E-03   -0.27691E-03  9928   0.962E-02    0.167E-01
DAV:   4    -0.529886042244E+03    0.31784E-04   -0.94326E-04  9616   0.526E-02    0.635E-02
DAV:   5    -0.529886037796E+03    0.44481E-05   -0.15202E-04  9480   0.263E-02    0.405E-02
DAV:   6    -0.529886041866E+03   -0.40698E-05   -0.53191E-05  8392   0.110E-02    0.207E-02
DAV:   7    -0.529886041364E+03    0.50136E-06   -0.68500E-06  8488   0.537E-03
  10 F= -.56252092E+03 E0= -.56251462E+03  d E =-.564066E-01  mag=     0.0000
       N       E                     dE             d eps       ncg     rms          rms(c)
DAV:   1    -0.529893405856E+03   -0.73640E-02   -0.99757E+00  7856   0.456E+00    0.797E-01
DAV:   2    -0.529910694504E+03   -0.17289E-01   -0.19218E-01  9456   0.646E-01    0.354E-01
DAV:   3    -0.529910396996E+03    0.29751E-03   -0.38155E-03  9912   0.107E-01    0.241E-01
DAV:   4    -0.529910297738E+03    0.99258E-04   -0.93178E-04  9600   0.497E-02    0.917E-02
DAV:   5    -0.529910318008E+03   -0.20270E-04   -0.19097E-04  9632   0.258E-02    0.430E-02
DAV:   6    -0.529910320417E+03   -0.24089E-05   -0.33503E-05  9320   0.122E-02    0.276E-02
DAV:   7    -0.529910319935E+03    0.48160E-06   -0.81076E-06  7968   0.436E-03
  11 F= -.56254632E+03 E0= -.56254000E+03  d E =-.254007E-01  mag=    -0.0000
       N       E                     dE             d eps       ncg     rms          rms(c)
DAV:   1    -0.529787834951E+03    0.12249E+00   -0.90032E+01  7856   0.137E+01    0.238E+00
DAV:   2    -0.529949740924E+03   -0.16191E+00   -0.18005E+00  9440   0.200E+00    0.107E+00
DAV:   3    -0.529948056459E+03    0.16845E-02   -0.40772E-02  9856   0.326E-01    0.767E-01
DAV:   4    -0.529946866586E+03    0.11899E-02   -0.79525E-03  9640   0.151E-01    0.283E-01
DAV:   5    -0.529947064558E+03   -0.19797E-03   -0.16948E-03  9632   0.707E-02    0.132E-01
DAV:   6    -0.529947101801E+03   -0.37244E-04   -0.23736E-04  9320   0.303E-02    0.869E-02
DAV:   7    -0.529947085666E+03    0.16136E-04   -0.59810E-05  9000   0.124E-02    0.664E-02
DAV:   8    -0.529947063151E+03    0.22515E-04   -0.57441E-05  8944   0.141E-02    0.231E-02
DAV:   9    -0.529947062924E+03    0.22647E-06   -0.19320E-05  9008   0.683E-03    0.601E-03
DAV:  10    -0.529947063264E+03   -0.34006E-06   -0.33859E-06  6192   0.295E-03
  12 F= -.56258650E+03 E0= -.56258008E+03  d E =-.655801E-01  mag=     0.0000
       N       E                     dE             d eps       ncg     rms          rms(c)
DAV:   1    -0.529941449076E+03    0.56138E-02   -0.15770E+01  7856   0.597E+00    0.106E+00
DAV:   2    -0.529969215722E+03   -0.27767E-01   -0.30653E-01  9392   0.832E-01    0.433E-01
DAV:   3    -0.529968523545E+03    0.69218E-03   -0.61282E-03  9896   0.142E-01    0.282E-01
DAV:   4    -0.529968318499E+03    0.20505E-03   -0.15047E-03  9576   0.645E-02    0.887E-02
DAV:   5    -0.529968354135E+03   -0.35636E-04   -0.33687E-04  9656   0.309E-02    0.552E-02
DAV:   6    -0.529968357576E+03   -0.34416E-05   -0.40006E-05  9144   0.126E-02    0.345E-02
DAV:   7    -0.529968358116E+03   -0.53940E-06   -0.92512E-06  8448   0.506E-03
  13 F= -.56262291E+03 E0= -.56261649E+03  d E =-.364127E-01  mag=    -0.0000
       N       E                     dE             d eps       ncg     rms          rms(c)
DAV:   1    -0.529774125363E+03    0.19423E+00   -0.11004E+02  7856   0.158E+01    0.285E+00
DAV:   2    -0.529972341521E+03   -0.19822E+00   -0.22072E+00  9392   0.224E+00    0.116E+00
DAV:   3    -0.529968997890E+03    0.33436E-02   -0.49254E-02  9904   0.370E-01    0.782E-01
DAV:   4    -0.529967332380E+03    0.16655E-02   -0.95811E-03  9552   0.169E-01    0.239E-01
DAV:   5    -0.529967584391E+03   -0.25201E-03   -0.23113E-03  9816   0.786E-02    0.164E-01
DAV:   6    -0.529967604019E+03   -0.19628E-04   -0.25033E-04  9504   0.298E-02    0.101E-01
DAV:   7    -0.529967585423E+03    0.18596E-04   -0.71543E-05  9072   0.146E-02    0.626E-02
DAV:   8    -0.529967578038E+03    0.73844E-05   -0.44342E-05  9568   0.107E-02    0.179E-02
DAV:   9    -0.529967578558E+03   -0.51919E-06   -0.91647E-06  8816   0.519E-03
  14 F= -.56266208E+03 E0= -.56265563E+03  d E =-.755802E-01  mag=     0.0000
       N       E                     dE             d eps       ncg     rms          rms(c)
DAV:   1    -0.529978670121E+03   -0.11092E-01   -0.98900E+00  7856   0.484E+00    0.701E-01
DAV:   2    -0.529995961077E+03   -0.17291E-01   -0.18952E-01  9392   0.665E-01    0.306E-01
DAV:   3    -0.529995483650E+03    0.47743E-03   -0.32984E-03  9776   0.106E-01    0.217E-01
DAV:   4    -0.529995317768E+03    0.16588E-03   -0.12217E-03  9632   0.639E-02    0.805E-02
DAV:   5    -0.529995324089E+03   -0.63209E-05   -0.23708E-04  9480   0.297E-02    0.314E-02
DAV:   6    -0.529995327984E+03   -0.38954E-05   -0.54545E-05  8712   0.123E-02    0.234E-02
DAV:   7    -0.529995327292E+03    0.69246E-06   -0.81284E-06  8488   0.445E-03
  15 F= -.56268374E+03 E0= -.56267726E+03  d E =-.216628E-01  mag=     0.0000
       N       E                     dE             d eps       ncg     rms          rms(c)
DAV:   1    -0.529907202978E+03    0.88125E-01   -0.89242E+01  7856   0.146E+01    0.211E+00
DAV:   2    -0.530067722380E+03   -0.16052E+00   -0.17536E+00  9392   0.204E+00    0.933E-01
DAV:   3    -0.530064288587E+03    0.34338E-02   -0.34119E-02  9712   0.318E-01    0.693E-01
DAV:   4    -0.530062512713E+03    0.17759E-02   -0.10204E-02  9728   0.191E-01    0.239E-01
DAV:   5    -0.530062647597E+03   -0.13488E-03   -0.22212E-03  9776   0.837E-02    0.923E-02
DAV:   6    -0.530062693425E+03   -0.45828E-04   -0.45038E-04  9040   0.326E-02    0.748E-02
DAV:   7    -0.530062686486E+03    0.69384E-05   -0.49835E-05  9792   0.112E-02    0.639E-02
DAV:   8    -0.530062661412E+03    0.25075E-04   -0.47132E-05  9152   0.137E-02    0.172E-02
DAV:   9    -0.530062659988E+03    0.14241E-05   -0.19810E-05  9160   0.734E-03    0.864E-03
DAV:  10    -0.530062660325E+03   -0.33738E-06   -0.28256E-06  6024   0.284E-03
  16 F= -.56273288E+03 E0= -.56272630E+03  d E =-.708080E-01  mag=     0.0000
       N       E                     dE             d eps       ncg     rms          rms(c)
DAV:   1    -0.529447219983E+03    0.61544E+00   -0.35931E+02  7920   0.292E+01    0.425E+00
DAV:   2    -0.530134599953E+03   -0.68738E+00   -0.74498E+00  9392   0.417E+00    0.191E+00
DAV:   3    -0.530126791641E+03    0.78083E-02   -0.17167E-01  9872   0.631E-01    0.149E+00
DAV:   4    -0.530118656679E+03    0.81350E-02   -0.33294E-02  9584   0.345E-01    0.535E-01
DAV:   5    -0.530119315422E+03   -0.65874E-03   -0.10025E-02  9704   0.160E-01    0.189E-01
DAV:   6    -0.530119411023E+03   -0.95601E-04   -0.15842E-03  9192   0.585E-02    0.163E-01
DAV:   7    -0.530119372567E+03    0.38456E-04   -0.10705E-04 11688   0.170E-02    0.131E-01
DAV:   8    -0.530119287158E+03    0.85409E-04   -0.16081E-04  9376   0.249E-02    0.407E-02
DAV:   9    -0.530119281582E+03    0.55759E-05   -0.70845E-05  9824   0.149E-02    0.113E-02
DAV:  10    -0.530119282374E+03   -0.79138E-06   -0.13720E-05  8240   0.544E-03    0.132E-02
DAV:  11    -0.530119282511E+03   -0.13685E-06   -0.23374E-06  5920   0.226E-03
  17 F= -.56275344E+03 E0= -.56274637E+03  d E =-.913599E-01  mag=     0.0000
       N       E                     dE             d eps       ncg     rms          rms(c)
DAV:   1    -0.530056562387E+03    0.62720E-01   -0.33116E+01  7856   0.884E+00    0.131E+00
DAV:   2    -0.530115798582E+03   -0.59236E-01   -0.65197E-01  9392   0.121E+00    0.554E-01
DAV:   3    -0.530114021416E+03    0.17772E-02   -0.10999E-02  9776   0.203E-01    0.374E-01
DAV:   4    -0.530113606472E+03    0.41494E-03   -0.42316E-03  9736   0.111E-01    0.140E-01
DAV:   5    -0.530113660587E+03   -0.54115E-04   -0.76047E-04  9648   0.534E-02    0.584E-02
DAV:   6    -0.530113684993E+03   -0.24405E-04   -0.16769E-04  8872   0.220E-02    0.405E-02
DAV:   7    -0.530113691613E+03   -0.66209E-05   -0.32083E-05  9336   0.829E-03    0.343E-02
DAV:   8    -0.530113688243E+03    0.33700E-05   -0.10368E-05  8656   0.648E-03    0.138E-02
DAV:   9    -0.530113689910E+03   -0.16663E-05   -0.97505E-06  7968   0.444E-03    0.535E-03
DAV:  10    -0.530113689500E+03    0.40933E-06   -0.10817E-06  4600   0.192E-03
  18 F= -.56275879E+03 E0= -.56275193E+03  d E =-.967135E-01  mag=    -0.0000
       N       E                     dE             d eps       ncg     rms          rms(c)
DAV:   1    -0.530154752959E+03   -0.41063E-01   -0.78157E+00  7920   0.412E+00    0.117E+00
DAV:   2    -0.530169336512E+03   -0.14584E-01   -0.18516E-01  9696   0.671E-01    0.502E-01
DAV:   3    -0.530168209281E+03    0.11272E-02   -0.49883E-03  9472   0.147E-01    0.264E-01
DAV:   4    -0.530168069393E+03    0.13989E-03   -0.20986E-03  9664   0.790E-02    0.106E-01
DAV:   5    -0.530168038157E+03    0.31236E-04   -0.29537E-04  9712   0.362E-02    0.682E-02
DAV:   6    -0.530168038866E+03   -0.70909E-06   -0.92933E-05  8880   0.138E-02    0.409E-02
DAV:   7    -0.530168032266E+03    0.66001E-05   -0.13280E-05  8904   0.687E-03    0.286E-02
DAV:   8    -0.530168024897E+03    0.73688E-05   -0.71601E-06  8496   0.551E-03    0.813E-03
DAV:   9    -0.530168024224E+03    0.67354E-06   -0.38771E-06  6144   0.316E-03
  19 F= -.56279069E+03 E0= -.56278357E+03  d E =-.319005E-01  mag=     0.0000
       N       E                     dE             d eps       ncg     rms          rms(c)
DAV:   1    -0.530189501289E+03   -0.21476E-01   -0.11440E+01  7920   0.499E+00    0.142E+00
DAV:   2    -0.530210917918E+03   -0.21417E-01   -0.27101E-01  9696   0.812E-01    0.600E-01
DAV:   3    -0.530209275568E+03    0.16424E-02   -0.73041E-03  9472   0.177E-01    0.313E-01
DAV:   4    -0.530209067143E+03    0.20843E-03   -0.30556E-03  9672   0.946E-02    0.128E-01
DAV:   5    -0.530209028736E+03    0.38407E-04   -0.41977E-04  9696   0.426E-02    0.830E-02
DAV:   6    -0.530209032763E+03   -0.40274E-05   -0.13122E-04  8896   0.165E-02    0.492E-02
DAV:   7    -0.530209023859E+03    0.89038E-05   -0.19313E-05  9120   0.827E-03    0.347E-02
DAV:   8    -0.530209014347E+03    0.95124E-05   -0.10490E-05  9136   0.668E-03    0.951E-03
DAV:   9    -0.530209013584E+03    0.76291E-06   -0.56619E-06  6944   0.372E-03
  20 F= -.56280457E+03 E0= -.56279704E+03  d E =-.457769E-01  mag=     0.0000
       N       E                     dE             d eps       ncg     rms          rms(c)
DAV:   1    -0.530212264817E+03   -0.32505E-02   -0.56118E+00  7856   0.301E+00    0.884E-01
DAV:   2    -0.530220603073E+03   -0.83383E-02   -0.93440E-02  9880   0.470E-01    0.276E-01
DAV:   3    -0.530220272335E+03    0.33074E-03   -0.19768E-03  9768   0.839E-02    0.183E-01
DAV:   4    -0.530220269797E+03    0.25371E-05   -0.64350E-04  9672   0.388E-02    0.857E-02
DAV:   5    -0.530220284028E+03   -0.14230E-04   -0.11126E-04 11160   0.239E-02    0.325E-02
DAV:   6    -0.530220282165E+03    0.18626E-05   -0.28445E-05  9440   0.117E-02    0.191E-02
DAV:   7    -0.530220282884E+03   -0.71871E-06   -0.76983E-06  7840   0.431E-03
  21 F= -.56282597E+03 E0= -.56281844E+03  d E =-.214000E-01  mag=    -0.0000
       N       E                     dE             d eps       ncg     rms          rms(c)
DAV:   1    -0.530193469585E+03    0.26813E-01   -0.19257E+01  7856   0.559E+00    0.168E+00
DAV:   2    -0.530222256542E+03   -0.28787E-01   -0.32376E-01  9888   0.872E-01    0.508E-01
DAV:   3    -0.530221212908E+03    0.10436E-02   -0.74215E-03  9840   0.158E-01    0.338E-01
DAV:   4    -0.530221208894E+03    0.40136E-05   -0.21759E-03  9720   0.725E-02    0.160E-01
DAV:   5    -0.530221255673E+03   -0.46779E-04   -0.37393E-04 10928   0.440E-02    0.590E-02
DAV:   6    -0.530221247752E+03    0.79205E-05   -0.99424E-05  9744   0.216E-02    0.352E-02
DAV:   7    -0.530221248058E+03   -0.30543E-06   -0.25778E-05  8608   0.800E-03    0.291E-02
DAV:   8    -0.530221249263E+03   -0.12052E-05   -0.70784E-06  7984   0.475E-03    0.125E-02
DAV:   9    -0.530221250000E+03   -0.73719E-06   -0.21194E-06  5096   0.266E-03
  22 F= -.56284570E+03 E0= -.56283816E+03  d E =-.411341E-01  mag=     0.0000
       N       E                     dE             d eps       ncg     rms          rms(c)
DAV:   1    -0.530245800192E+03   -0.24551E-01   -0.60171E+00  7856   0.327E+00    0.602E-01
DAV:   2    -0.530255206832E+03   -0.94066E-02   -0.11168E-01  9648   0.508E-01    0.269E-01
DAV:   3    -0.530254990649E+03    0.21618E-03   -0.26584E-03  9552   0.930E-02    0.205E-01
DAV:   4    -0.530254889912E+03    0.10074E-03   -0.80874E-04  9712   0.478E-02    0.102E-01
DAV:   5    -0.530254882284E+03    0.76271E-05   -0.13013E-04 10488   0.278E-02    0.304E-02
DAV:   6    -0.530254882741E+03   -0.45646E-06   -0.37812E-05  9040   0.116E-02    0.162E-02
DAV:   7    -0.530254882851E+03   -0.10981E-06   -0.12798E-05  8080   0.505E-03    0.157E-02
DAV:   8    -0.530254881346E+03    0.15047E-05   -0.97614E-07  4600   0.236E-03    0.773E-03
DAV:   9    -0.530254880360E+03    0.98647E-06   -0.19532E-06  4480   0.229E-03
  23 F= -.56286771E+03 E0= -.56286015E+03  d E =-.220096E-01  mag=    -0.0000
       N       E                     dE             d eps       ncg     rms          rms(c)
DAV:   1    -0.530255989320E+03   -0.11080E-02   -0.37787E+01  7920   0.820E+00    0.150E+00
DAV:   2    -0.530317086281E+03   -0.61097E-01   -0.72025E-01  9664   0.129E+00    0.681E-01
DAV:   3    -0.530315869073E+03    0.12172E-02   -0.18440E-02  9496   0.236E-01    0.526E-01
DAV:   4    -0.530315128773E+03    0.74030E-03   -0.50594E-03  9624   0.122E-01    0.263E-01
DAV:   5    -0.530315103608E+03    0.25165E-04   -0.82429E-04 10520   0.688E-02    0.750E-02
DAV:   6    -0.530315116688E+03   -0.13080E-04   -0.23920E-04  9440   0.287E-02    0.423E-02
DAV:   7    -0.530315120171E+03   -0.34831E-05   -0.76477E-05  8648   0.123E-02    0.400E-02
DAV:   8    -0.530315112528E+03    0.76428E-05   -0.10365E-05  9056   0.698E-03    0.177E-02
DAV:   9    -0.530315109977E+03    0.25515E-05   -0.85824E-06  8208   0.470E-03    0.428E-03
DAV:  10    -0.530315110071E+03   -0.93925E-07   -0.95840E-07  4560   0.153E-03
  24 F= -.56289883E+03 E0= -.56289128E+03  d E =-.531264E-01  mag=    -0.0000
       N       E                     dE             d eps       ncg     rms          rms(c)
DAV:   1    -0.530320015126E+03   -0.49051E-02   -0.75324E+00  7856   0.366E+00    0.674E-01
DAV:   2    -0.530331837000E+03   -0.11822E-01   -0.14010E-01  9648   0.571E-01    0.301E-01
DAV:   3    -0.530331563699E+03    0.27330E-03   -0.33237E-03  9552   0.104E-01    0.228E-01
DAV:   4    -0.530331439118E+03    0.12458E-03   -0.10139E-03  9744   0.532E-02    0.113E-01
DAV:   5    -0.530331431914E+03    0.72039E-05   -0.16398E-04 10464   0.311E-02    0.340E-02
DAV:   6    -0.530331432568E+03   -0.65424E-06   -0.47207E-05  9120   0.130E-02    0.182E-02
DAV:   7    -0.530331432834E+03   -0.26574E-06   -0.15952E-05  8336   0.562E-03    0.174E-02
DAV:   8    -0.530331431028E+03    0.18055E-05   -0.13595E-06  4864   0.277E-03    0.819E-03
DAV:   9    -0.530331429993E+03    0.10357E-05   -0.22067E-06  4768   0.240E-03    0.186E-03
DAV:  10    -0.530331430044E+03   -0.51550E-07   -0.42858E-07  4368   0.132E-03
  25 F= -.56290213E+03 E0= -.56289463E+03  d E =-.564311E-01  mag=    -0.0000
       N       E                     dE             d eps       ncg     rms          rms(c)
DAV:   1    -0.530355673523E+03   -0.24244E-01   -0.63300E+00  7920   0.345E+00    0.935E-01
DAV:   2    -0.530365563545E+03   -0.98900E-02   -0.12961E-01  9776   0.559E-01    0.342E-01
DAV:   3    -0.530365046337E+03    0.51721E-03   -0.36752E-03  9552   0.113E-01    0.198E-01
DAV:   4    -0.530364932503E+03    0.11383E-03   -0.12224E-03  9696   0.666E-02    0.884E-02
DAV:   5    -0.530364911695E+03    0.20809E-04   -0.22509E-04  9712   0.316E-02    0.522E-02
DAV:   6    -0.530364911894E+03   -0.19954E-06   -0.74872E-05  8608   0.131E-02    0.240E-02
DAV:   7    -0.530364907842E+03    0.40523E-05   -0.92999E-06  8656   0.631E-03    0.176E-02
DAV:   8    -0.530364904098E+03    0.37437E-05   -0.26879E-06  6024   0.296E-03    0.887E-03
DAV:   9    -0.530364901699E+03    0.23989E-05   -0.31593E-06  6024   0.268E-03    0.251E-03
DAV:  10    -0.530364901890E+03   -0.19107E-06   -0.32885E-07  4352   0.123E-03
  26 F= -.56291628E+03 E0= -.56290889E+03  d E =-.141450E-01  mag=    -0.0000
       N       E                     dE             d eps       ncg     rms          rms(c)
DAV:   1    -0.530380821050E+03   -0.15919E-01   -0.13838E+01  7920   0.511E+00    0.139E+00
DAV:   2    -0.530402649796E+03   -0.21829E-01   -0.28513E-01  9824   0.831E-01    0.507E-01
DAV:   3    -0.530401520889E+03    0.11289E-02   -0.81634E-03  9552   0.167E-01    0.294E-01
DAV:   4    -0.530401269965E+03    0.25092E-03   -0.26823E-03  9712   0.990E-02    0.130E-01
DAV:   5    -0.530401232843E+03    0.37123E-04   -0.48895E-04  9840   0.467E-02    0.767E-02
DAV:   6    -0.530401239042E+03   -0.61997E-05   -0.16415E-04  8656   0.195E-02    0.356E-02
DAV:   7    -0.530401231768E+03    0.72743E-05   -0.20567E-05  9016   0.937E-03    0.259E-02
DAV:   8    -0.530401225769E+03    0.59995E-05   -0.64304E-06  7984   0.440E-03    0.133E-02
DAV:   9    -0.530401222213E+03    0.35552E-05   -0.62859E-06  7208   0.385E-03    0.384E-03
DAV:  10    -0.530401222423E+03   -0.20916E-06   -0.51054E-07  4376   0.153E-03
  27 F= -.56292404E+03 E0= -.56291695E+03  d E =-.219090E-01  mag=    -0.0000
       N       E                     dE             d eps       ncg     rms          rms(c)
DAV:   1    -0.530407533974E+03   -0.63118E-02   -0.95173E-01  7870   0.144E+00    0.454E-01
DAV:   2    -0.530409877310E+03   -0.23433E-02   -0.26479E-02  9648   0.237E-01    0.151E-01
DAV:   3    -0.530409762672E+03    0.11464E-03   -0.54521E-04  9920   0.467E-02    0.886E-02
DAV:   4    -0.530409746263E+03    0.16409E-04   -0.17306E-04  9296   0.213E-02    0.460E-02
DAV:   5    -0.530409745134E+03    0.11284E-05   -0.43978E-05  8928   0.122E-02    0.200E-02
DAV:   6    -0.530409745324E+03   -0.18957E-06   -0.10801E-05  8160   0.515E-03    0.149E-02
DAV:   7    -0.530409744572E+03    0.75197E-06   -0.15966E-06  5024   0.208E-03
  28 F= -.56293267E+03 E0= -.56292571E+03  d E =-.863102E-02  mag=    -0.0000
       N       E                     dE             d eps       ncg     rms          rms(c)
DAV:   1    -0.530405306738E+03    0.44386E-02   -0.82994E+00  7856   0.425E+00    0.136E+00
DAV:   2    -0.530425765443E+03   -0.20459E-01   -0.23099E-01  9624   0.702E-01    0.442E-01
DAV:   3    -0.530424793096E+03    0.97235E-03   -0.48442E-03  9968   0.138E-01    0.261E-01
DAV:   4    -0.530424654626E+03    0.13847E-03   -0.15067E-03  9656   0.629E-02    0.134E-01
DAV:   5    -0.530424656484E+03   -0.18586E-05   -0.37517E-04  9208   0.351E-02    0.591E-02
DAV:   6    -0.530424660956E+03   -0.44718E-05   -0.87065E-05  8536   0.148E-02    0.444E-02
DAV:   7    -0.530424655099E+03    0.58574E-05   -0.15321E-05  8504   0.607E-03    0.332E-02
DAV:   8    -0.530424651990E+03    0.31093E-05   -0.81414E-06  8816   0.530E-03    0.104E-02
DAV:   9    -0.530424651791E+03    0.19842E-06   -0.26038E-06  5624   0.313E-03
  29 F= -.56294791E+03 E0= -.56294146E+03  d E =-.238647E-01  mag=     0.0000
       N       E                     dE             d eps       ncg     rms          rms(c)
DAV:   1    -0.530328954767E+03    0.95697E-01   -0.33218E+01  7856   0.850E+00    0.276E+00
DAV:   2    -0.530411252357E+03   -0.82298E-01   -0.92754E-01  9648   0.141E+00    0.877E-01
DAV:   3    -0.530407484921E+03    0.37674E-02   -0.19728E-02 10000   0.273E-01    0.521E-01
DAV:   4    -0.530406932409E+03    0.55251E-03   -0.60739E-03  9640   0.126E-01    0.262E-01
DAV:   5    -0.530406960667E+03   -0.28258E-04   -0.14260E-03  9552   0.683E-02    0.119E-01
DAV:   6    -0.530406979860E+03   -0.19192E-04   -0.31994E-04  8784   0.287E-02    0.904E-02
DAV:   7    -0.530406957395E+03    0.22465E-04   -0.60714E-05  8896   0.123E-02    0.663E-02
DAV:   8    -0.530406946145E+03    0.11250E-04   -0.32337E-05  9200   0.108E-02    0.195E-02
DAV:   9    -0.530406945782E+03    0.36272E-06   -0.10804E-05  8720   0.607E-03    0.593E-03
DAV:  10    -0.530406945900E+03   -0.11802E-06   -0.21131E-06  5232   0.220E-03
  30 F= -.56293088E+03 E0= -.56292563E+03  d E =-.684198E-02  mag=     0.0000
       N       E                     dE             d eps       ncg     rms          rms(c)
DAV:   1    -0.530380727691E+03    0.26218E-01   -0.19225E+01  7856   0.646E+00    0.206E+00
DAV:   2    -0.530429249157E+03   -0.48521E-01   -0.54604E-01  9656   0.108E+00    0.681E-01
DAV:   3    -0.530426706325E+03    0.25428E-02   -0.11332E-02 10072   0.217E-01    0.393E-01
DAV:   4    -0.530426420743E+03    0.28558E-03   -0.36595E-03  9808   0.102E-01    0.206E-01
DAV:   5    -0.530426426787E+03   -0.60437E-05   -0.95195E-04  9472   0.570E-02    0.872E-02
DAV:   6    -0.530426447857E+03   -0.21070E-04   -0.24171E-04  8600   0.239E-02    0.667E-02
DAV:   7    -0.530426435978E+03    0.11880E-04   -0.36246E-05  8896   0.945E-03    0.524E-02
DAV:   8    -0.530426429007E+03    0.69708E-05   -0.16237E-05  9128   0.774E-03    0.190E-02
DAV:   9    -0.530426428610E+03    0.39671E-06   -0.78711E-06  8176   0.482E-03
  31 F= -.56294984E+03 E0= -.56294369E+03  d E =-.258008E-01  mag=    -0.0000
       N       E                     dE             d eps       ncg     rms          rms(c)
DAV:   1    -0.530427372383E+03   -0.94338E-03   -0.10775E+00  7984   0.160E+00    0.357E-01
DAV:   2    -0.530430067742E+03   -0.26954E-02   -0.30200E-02  9504   0.242E-01    0.164E-01
DAV:   3    -0.530429962935E+03    0.10481E-03   -0.56654E-04  9952   0.439E-02    0.112E-01
DAV:   4    -0.530429921722E+03    0.41214E-04   -0.14867E-04  9576   0.198E-02    0.404E-02
DAV:   5    -0.530429925372E+03   -0.36505E-05   -0.56457E-05  8656   0.102E-02    0.164E-02
DAV:   6    -0.530429926548E+03   -0.11760E-05   -0.64845E-06  7912   0.389E-03    0.151E-02
DAV:   7    -0.530429926405E+03    0.14275E-06   -0.76511E-07  4640   0.159E-03
  32 F= -.56295787E+03 E0= -.56295187E+03  d E =-.802785E-02  mag=    -0.0000
       N       E                     dE             d eps       ncg     rms          rms(c)
DAV:   1    -0.530408234672E+03    0.21692E-01   -0.97090E+00  7984   0.479E+00    0.107E+00
DAV:   2    -0.530432443791E+03   -0.24209E-01   -0.27169E-01  9504   0.724E-01    0.486E-01
DAV:   3    -0.530431524148E+03    0.91964E-03   -0.51341E-03 10032   0.130E-01    0.332E-01
DAV:   4    -0.530431140333E+03    0.38382E-03   -0.13308E-03  9648   0.581E-02    0.115E-01
DAV:   5    -0.530431171473E+03   -0.31140E-04   -0.48648E-04  9296   0.294E-02    0.507E-02
DAV:   6    -0.530431176139E+03   -0.46661E-05   -0.48798E-05  9440   0.102E-02    0.464E-02
DAV:   7    -0.530431173168E+03    0.29712E-05   -0.44615E-06  7464   0.422E-03    0.311E-02
DAV:   8    -0.530431171935E+03    0.12337E-05   -0.10346E-05  8704   0.530E-03    0.649E-03
DAV:   9    -0.530431172427E+03   -0.49212E-06   -0.29672E-06  5600   0.292E-03
  33 F= -.56297272E+03 E0= -.56296717E+03  d E =-.228771E-01  mag=     0.0000
       N       E                     dE             d eps       ncg     rms          rms(c)
DAV:   1    -0.530302716464E+03    0.12846E+00   -0.38879E+01  7984   0.957E+00    0.216E+00
DAV:   2    -0.530399191843E+03   -0.96475E-01   -0.10857E+00  9504   0.144E+00    0.956E-01
DAV:   3    -0.530395739242E+03    0.34526E-02   -0.21055E-02 10048   0.259E-01    0.656E-01
DAV:   4    -0.530394186723E+03    0.15525E-02   -0.52176E-03  9520   0.114E-01    0.216E-01
DAV:   5    -0.530394314259E+03   -0.12754E-03   -0.18129E-03  9344   0.595E-02    0.104E-01
DAV:   6    -0.530394320007E+03   -0.57479E-05   -0.18381E-04  9584   0.217E-02    0.892E-02
DAV:   7    -0.530394307001E+03    0.13006E-04   -0.25695E-05  8968   0.898E-03    0.627E-02
DAV:   8    -0.530394299546E+03    0.74554E-05   -0.48261E-05  8912   0.971E-03    0.112E-02
DAV:   9    -0.530394301189E+03   -0.16439E-05   -0.10975E-05  8104   0.525E-03    0.104E-02
DAV:  10    -0.530394301235E+03   -0.45336E-07   -0.95948E-07  4624   0.151E-03
  34 F= -.56296311E+03 E0= -.56295821E+03  d E =-.132715E-01  mag=     0.0000
       N       E                     dE             d eps       ncg     rms          rms(c)
DAV:   1    -0.530380771789E+03    0.13529E-01   -0.18588E+01  7984   0.661E+00    0.150E+00
DAV:   2    -0.530428326598E+03   -0.47555E-01   -0.53078E-01  9552   0.101E+00    0.688E-01
DAV:   3    -0.530426196430E+03    0.21302E-02   -0.97319E-03  9856   0.189E-01    0.470E-01
DAV:   4    -0.530425466591E+03    0.72984E-03   -0.28764E-03  9680   0.878E-02    0.180E-01
DAV:   5    -0.530425483237E+03   -0.16647E-04   -0.10629E-03  9304   0.466E-02    0.616E-02
DAV:   6    -0.530425485997E+03   -0.27594E-05   -0.13992E-04  9296   0.179E-02    0.592E-02
DAV:   7    -0.530425478082E+03    0.79146E-05   -0.21873E-05  8496   0.670E-03    0.425E-02
DAV:   8    -0.530425469983E+03    0.80994E-05   -0.15476E-05  8928   0.695E-03    0.157E-02
DAV:   9    -0.530425468364E+03    0.16183E-05   -0.57329E-06  7936   0.497E-03    0.608E-03
DAV:  10    -0.530425468146E+03    0.21836E-06   -0.18743E-06  5072   0.213E-03
  35 F= -.56297539E+03 E0= -.56297009E+03  d E =-.255511E-01  mag=     0.0000
       N       E                     dE             d eps       ncg     rms          rms(c)
DAV:   1    -0.530434010583E+03   -0.85422E-02   -0.22004E+00  7920   0.236E+00    0.612E-01
DAV:   2    -0.530439397165E+03   -0.53866E-02   -0.59924E-02  9552   0.351E-01    0.201E-01
DAV:   3    -0.530439183026E+03    0.21414E-03   -0.10753E-03 10184   0.619E-02    0.130E-01
DAV:   4    -0.530439112474E+03    0.70552E-04   -0.28724E-04  9632   0.295E-02    0.536E-02
DAV:   5    -0.530439106962E+03    0.55127E-05   -0.90913E-05  8928   0.170E-02    0.287E-02
DAV:   6    -0.530439108119E+03   -0.11574E-05   -0.26961E-05  8560   0.707E-03    0.230E-02
DAV:   7    -0.530439106045E+03    0.20743E-05   -0.51495E-06  7496   0.361E-03    0.159E-02
DAV:   8    -0.530439105181E+03    0.86402E-06   -0.11333E-06  4768   0.227E-03
  36 F= -.56298768E+03 E0= -.56298252E+03  d E =-.122860E-01  mag=     0.0000
       N       E                     dE             d eps       ncg     rms          rms(c)
DAV:   1    -0.530422191376E+03    0.16915E-01   -0.16489E+01  7920   0.645E+00    0.167E+00
DAV:   2    -0.530462505940E+03   -0.40315E-01   -0.44813E-01  9552   0.962E-01    0.548E-01
DAV:   3    -0.530460986059E+03    0.15199E-02   -0.80704E-03 10240   0.167E-01    0.358E-01
DAV:   4    -0.530460471958E+03    0.51410E-03   -0.21781E-03  9680   0.810E-02    0.140E-01
DAV:   5    -0.530460462432E+03    0.95260E-05   -0.64316E-04  9392   0.451E-02    0.813E-02
DAV:   6    -0.530460477468E+03   -0.15036E-04   -0.17599E-04  8688   0.182E-02    0.642E-02
DAV:   7    -0.530460464071E+03    0.13397E-04   -0.38067E-05  8496   0.990E-03    0.429E-02
DAV:   8    -0.530460460288E+03    0.37834E-05   -0.97274E-06  9264   0.606E-03    0.141E-02
DAV:   9    -0.530460459774E+03    0.51336E-06   -0.45598E-06  7472   0.410E-03
  37 F= -.56300530E+03 E0= -.56300051E+03  d E =-.299052E-01  mag=     0.0000
       N       E                     dE             d eps       ncg     rms          rms(c)
DAV:   1    -0.530459594827E+03    0.86546E-03   -0.10536E+00  7920   0.163E+00    0.421E-01
DAV:   2    -0.530462178013E+03   -0.25832E-02   -0.28667E-02  9552   0.242E-01    0.137E-01
DAV:   3    -0.530462075648E+03    0.10237E-03   -0.50826E-04 10144   0.425E-02    0.893E-02
DAV:   4    -0.530462040726E+03    0.34922E-04   -0.14123E-04  9408   0.205E-02    0.363E-02
DAV:   5    -0.530462037783E+03    0.29434E-05   -0.42018E-05  8992   0.118E-02    0.200E-02
DAV:   6    -0.530462037824E+03   -0.41109E-07   -0.12275E-05  8304   0.485E-03    0.159E-02
DAV:   7    -0.530462036800E+03    0.10233E-05   -0.22400E-06  5984   0.245E-03    0.108E-02
DAV:   8    -0.530462036290E+03    0.51018E-06   -0.65156E-07  4592   0.168E-03
  38 F= -.56300592E+03 E0= -.56300122E+03  d E =-.305280E-01  mag=     0.0000
       N       E                     dE             d eps       ncg     rms          rms(c)
DAV:   1    -0.530472663471E+03   -0.10627E-01   -0.42942E+00  7920   0.321E+00    0.837E-01
DAV:   2    -0.530482208567E+03   -0.95451E-02   -0.10471E-01  9520   0.470E-01    0.300E-01
DAV:   3    -0.530481804461E+03    0.40411E-03   -0.18669E-03  9888   0.832E-02    0.195E-01
DAV:   4    -0.530481693406E+03    0.11106E-03   -0.59472E-04  9616   0.406E-02    0.640E-02
DAV:   5    -0.530481697711E+03   -0.43049E-05   -0.15248E-04  9144   0.201E-02    0.328E-02
DAV:   6    -0.530481697559E+03    0.15225E-06   -0.21822E-05  8992   0.786E-03    0.256E-02
DAV:   7    -0.530481694377E+03    0.31816E-05   -0.64753E-06  7712   0.381E-03    0.159E-02
DAV:   8    -0.530481692748E+03    0.16293E-05   -0.29323E-06  6400   0.301E-03    0.504E-03
DAV:   9    -0.530481692549E+03    0.19839E-06   -0.71824E-07  4568   0.176E-03
  39 F= -.56301742E+03 E0= -.56301270E+03  d E =-.115003E-01  mag=     0.0000
       N       E                     dE             d eps       ncg     rms          rms(c)
DAV:   1    -0.530485067457E+03   -0.33747E-02   -0.40372E+00  7920   0.312E+00    0.811E-01
DAV:   2    -0.530494040838E+03   -0.89734E-02   -0.98439E-02  9520   0.456E-01    0.289E-01
DAV:   3    -0.530493661001E+03    0.37984E-03   -0.17500E-03  9856   0.806E-02    0.188E-01
DAV:   4    -0.530493556304E+03    0.10470E-03   -0.55716E-04  9632   0.391E-02    0.617E-02
DAV:   5    -0.530493560776E+03   -0.44713E-05   -0.14257E-04  9016   0.192E-02    0.318E-02
DAV:   6    -0.530493560654E+03    0.12206E-06   -0.19714E-05  8960   0.750E-03    0.247E-02
DAV:   7    -0.530493557616E+03    0.30381E-05   -0.59946E-06  7600   0.370E-03    0.151E-02
DAV:   8    -0.530493556104E+03    0.15121E-05   -0.27574E-06  6256   0.290E-03    0.471E-03
DAV:   9    -0.530493555934E+03    0.16936E-06   -0.64969E-07  4568   0.170E-03
  40 F= -.56302137E+03 E0= -.56301663E+03  d E =-.154459E-01  mag=     0.0000
       N       E                     dE             d eps       ncg     rms          rms(c)
DAV:   1    -0.530493914069E+03   -0.35797E-03   -0.47920E+00  7920   0.328E+00    0.712E-01
DAV:   2    -0.530502367977E+03   -0.84539E-02   -0.93318E-02  9600   0.450E-01    0.247E-01
DAV:   3    -0.530502043103E+03    0.32487E-03   -0.16142E-03 10080   0.770E-02    0.149E-01
DAV:   4    -0.530501980255E+03    0.62848E-04   -0.47953E-04  9760   0.347E-02    0.716E-02
DAV:   5    -0.530501983842E+03   -0.35874E-05   -0.12184E-04  8848   0.191E-02    0.302E-02
DAV:   6    -0.530501988350E+03   -0.45073E-05   -0.32110E-05  8632   0.840E-03    0.223E-02
DAV:   7    -0.530501987225E+03    0.11249E-05   -0.62325E-06  7728   0.405E-03    0.158E-02
DAV:   8    -0.530501986851E+03    0.37422E-06   -0.15908E-06  5344   0.300E-03
  41 F= -.56303320E+03 E0= -.56302829E+03  d E =-.118350E-01  mag=     0.0000
       N       E                     dE             d eps       ncg     rms          rms(c)
DAV:   1    -0.530479343289E+03    0.22644E-01   -0.17300E+01  7920   0.624E+00    0.135E+00
DAV:   2    -0.530509792715E+03   -0.30449E-01   -0.33655E-01  9632   0.855E-01    0.467E-01
DAV:   3    -0.530508667938E+03    0.11248E-02   -0.59257E-03 10112   0.146E-01    0.283E-01
DAV:   4    -0.530508438073E+03    0.22987E-03   -0.17201E-03  9712   0.652E-02    0.134E-01
DAV:   5    -0.530508459123E+03   -0.21050E-04   -0.42158E-04  9288   0.349E-02    0.574E-02
DAV:   6    -0.530508473801E+03   -0.14678E-04   -0.10074E-04  8704   0.152E-02    0.418E-02
DAV:   7    -0.530508469433E+03    0.43681E-05   -0.21222E-05  8520   0.740E-03    0.290E-02
DAV:   8    -0.530508468025E+03    0.14077E-05   -0.65619E-06  8608   0.562E-03    0.784E-03
DAV:   9    -0.530508468165E+03   -0.14020E-06   -0.32166E-06  6104   0.298E-03
  42 F= -.56304616E+03 E0= -.56304091E+03  d E =-.247922E-01  mag=     0.0000
       N       E                     dE             d eps       ncg     rms          rms(c)
DAV:   1    -0.530367236011E+03    0.14123E+00   -0.69273E+01  7984   0.125E+01    0.271E+00
DAV:   2    -0.530489366800E+03   -0.12213E+00   -0.13529E+00  9616   0.172E+00    0.923E-01
DAV:   3    -0.530485186343E+03    0.41805E-02   -0.23922E-02 10048   0.286E-01    0.565E-01
DAV:   4    -0.530484219833E+03    0.96651E-03   -0.69232E-03  9640   0.129E-01    0.255E-01
DAV:   5    -0.530484350328E+03   -0.13049E-03   -0.15174E-03  9296   0.641E-02    0.117E-01
DAV:   6    -0.530484392176E+03   -0.41848E-04   -0.27977E-04  9360   0.277E-02    0.806E-02
DAV:   7    -0.530484375500E+03    0.16676E-04   -0.77509E-05  9048   0.140E-02    0.520E-02
DAV:   8    -0.530484371030E+03    0.44696E-05   -0.28118E-05 10112   0.112E-02    0.121E-02
DAV:   9    -0.530484371234E+03   -0.20301E-06   -0.90769E-06  8256   0.533E-03
  43 F= -.56303505E+03 E0= -.56302907E+03  d E =-.136848E-01  mag=     0.0000
       N       E                     dE             d eps       ncg     rms          rms(c)
DAV:   1    -0.530442924915E+03    0.41446E-01   -0.36920E+01  7984   0.911E+00    0.198E+00
DAV:   2    -0.530510200021E+03   -0.67275E-01   -0.74220E-01  9664   0.128E+00    0.710E-01
DAV:   3    -0.530507205075E+03    0.29949E-02   -0.12748E-02  9872   0.227E-01    0.423E-01
DAV:   4    -0.530506763545E+03    0.44153E-03   -0.40623E-03  9792   0.108E-01    0.217E-01
DAV:   5    -0.530506774222E+03   -0.10678E-04   -0.11422E-03  9424   0.595E-02    0.822E-02
DAV:   6    -0.530506822784E+03   -0.48562E-04   -0.33690E-04  8776   0.254E-02    0.611E-02
DAV:   7    -0.530506810663E+03    0.12121E-04   -0.53224E-05  8920   0.121E-02    0.467E-02
DAV:   8    -0.530506804768E+03    0.58956E-05   -0.13736E-05  9648   0.806E-03    0.167E-02
DAV:   9    -0.530506804038E+03    0.72979E-06   -0.90695E-06  7824   0.478E-03
  44 F= -.56304798E+03 E0= -.56304254E+03  d E =-.266172E-01  mag=    -0.0000
       N       E                     dE             d eps       ncg     rms          rms(c)
DAV:   1    -0.530511596022E+03   -0.47913E-02   -0.29345E+00  7920   0.253E+00    0.483E-01
DAV:   2    -0.530516091147E+03   -0.44951E-02   -0.51417E-02  9632   0.348E-01    0.197E-01
DAV:   3    -0.530515936827E+03    0.15432E-03   -0.97098E-04 10032   0.603E-02    0.123E-01
DAV:   4    -0.530515912443E+03    0.24383E-04   -0.26376E-04  9568   0.285E-02    0.656E-02
DAV:   5    -0.530515909974E+03    0.24689E-05   -0.68157E-05  9016   0.162E-02    0.226E-02
DAV:   6    -0.530515912510E+03   -0.25356E-05   -0.27006E-05  8304   0.740E-03    0.140E-02
DAV:   7    -0.530515911904E+03    0.60617E-06   -0.38073E-06  7232   0.312E-03
  45 F= -.56305696E+03 E0= -.56305141E+03  d E =-.897208E-02  mag=     0.0000
       N       E                     dE             d eps       ncg     rms          rms(c)
DAV:   1    -0.530493506949E+03    0.22406E-01   -0.26427E+01  7920   0.760E+00    0.146E+00
DAV:   2    -0.530534116750E+03   -0.40610E-01   -0.46473E-01  9664   0.105E+00    0.586E-01
DAV:   3    -0.530532821095E+03    0.12957E-02   -0.89242E-03 10096   0.180E-01    0.370E-01
DAV:   4    -0.530532609361E+03    0.21173E-03   -0.24131E-03  9888   0.873E-02    0.192E-01
DAV:   5    -0.530532617908E+03   -0.85466E-05   -0.58111E-04  9296   0.476E-02    0.665E-02
DAV:   6    -0.530532647339E+03   -0.29431E-04   -0.21941E-04  8624   0.215E-02    0.417E-02
DAV:   7    -0.530532642705E+03    0.46338E-05   -0.33497E-05  9024   0.934E-03    0.340E-02
DAV:   8    -0.530532638121E+03    0.45846E-05   -0.85633E-06  9224   0.625E-03    0.147E-02
DAV:   9    -0.530532637356E+03    0.76486E-06   -0.76683E-06  7840   0.417E-03
  46 F= -.56307328E+03 E0= -.56306738E+03  d E =-.252959E-01  mag=     0.0000
       N       E                     dE             d eps       ncg     rms          rms(c)
DAV:   1    -0.530524932043E+03    0.77061E-02   -0.66007E+00  7920   0.380E+00    0.722E-01
DAV:   2    -0.530535003523E+03   -0.10071E-01   -0.11525E-01  9664   0.522E-01    0.294E-01
DAV:   3    -0.530534665721E+03    0.33780E-03   -0.21899E-03 10096   0.902E-02    0.184E-01
DAV:   4    -0.530534613158E+03    0.52563E-04   -0.60065E-04  9760   0.431E-02    0.976E-02
DAV:   5    -0.530534612132E+03    0.10261E-05   -0.15074E-04  9280   0.241E-02    0.334E-02
DAV:   6    -0.530534618773E+03   -0.66414E-05   -0.57797E-05  8336   0.109E-02    0.209E-02
DAV:   7    -0.530534617528E+03    0.12451E-05   -0.84739E-06  8384   0.464E-03    0.170E-02
DAV:   8    -0.530534616259E+03    0.12688E-05   -0.19291E-06  5888   0.310E-03    0.732E-03
DAV:   9    -0.530534616022E+03    0.23715E-06   -0.23670E-06  5248   0.227E-03
  47 F= -.56307506E+03 E0= -.56306897E+03  d E =-.270771E-01  mag=     0.0000
       N       E                     dE             d eps       ncg     rms          rms(c)
DAV:   1    -0.530544193628E+03   -0.95774E-02   -0.38492E+00  7920   0.303E+00    0.769E-01
DAV:   2    -0.530552071319E+03   -0.78777E-02   -0.89315E-02  9552   0.439E-01    0.264E-01
DAV:   3    -0.530551710504E+03    0.36082E-03   -0.15698E-03  9792   0.788E-02    0.170E-01
DAV:   4    -0.530551621988E+03    0.88515E-04   -0.73446E-04  9600   0.418E-02    0.573E-02
DAV:   5    -0.530551622959E+03   -0.97100E-06   -0.12014E-04  9344   0.209E-02    0.381E-02
DAV:   6    -0.530551624900E+03   -0.19408E-05   -0.17485E-05  8896   0.868E-03    0.245E-02
DAV:   7    -0.530551623005E+03    0.18948E-05   -0.40393E-06  7400   0.351E-03    0.147E-02
DAV:   8    -0.530551621250E+03    0.17557E-05   -0.21942E-06  5872   0.320E-03    0.468E-03
DAV:   9    -0.530551621202E+03    0.47854E-07   -0.13545E-06  4648   0.167E-03
  48 F= -.56308358E+03 E0= -.56307737E+03  d E =-.852228E-02  mag=     0.0000
       N       E                     dE             d eps       ncg     rms          rms(c)
DAV:   1    -0.530552645123E+03   -0.10239E-02   -0.59913E+00  7920   0.379E+00    0.962E-01
DAV:   2    -0.530564897128E+03   -0.12252E-01   -0.13904E-01  9568   0.548E-01    0.328E-01
DAV:   3    -0.530564334037E+03    0.56309E-03   -0.24532E-03  9728   0.985E-02    0.211E-01
DAV:   4    -0.530564194474E+03    0.13956E-03   -0.11471E-03  9648   0.522E-02    0.713E-02
DAV:   5    -0.530564198301E+03   -0.38271E-05   -0.18947E-04  9288   0.259E-02    0.479E-02
DAV:   6    -0.530564201488E+03   -0.31862E-05   -0.26469E-05  9232   0.109E-02    0.304E-02
DAV:   7    -0.530564198424E+03    0.30632E-05   -0.64161E-06  8208   0.431E-03    0.175E-02
DAV:   8    -0.530564196229E+03    0.21950E-05   -0.35036E-06  6640   0.384E-03    0.552E-03
DAV:   9    -0.530564196209E+03    0.20402E-07   -0.16763E-06  4776   0.190E-03
  49 F= -.56308583E+03 E0= -.56307945E+03  d E =-.107659E-01  mag=     0.0000
       N       E                     dE             d eps       ncg     rms          rms(c)
DAV:   1    -0.530560710135E+03    0.34861E-02   -0.48155E-01  7948   0.107E+00    0.275E-01
DAV:   2    -0.530561681562E+03   -0.97143E-03   -0.11225E-02  9568   0.155E-01    0.929E-02
DAV:   3    -0.530561633943E+03    0.47619E-04   -0.19816E-04  9888   0.281E-02    0.587E-02
DAV:   4    -0.530561624569E+03    0.93746E-05   -0.89700E-05  9584   0.144E-02    0.210E-02
DAV:   5    -0.530561627131E+03   -0.25621E-05   -0.13851E-05  8896   0.743E-03    0.127E-02
DAV:   6    -0.530561627761E+03   -0.62995E-06   -0.24169E-06  5704   0.315E-03
  50 F= -.56308619E+03 E0= -.56307986E+03  d E =-.111270E-01  mag=    -0.0000
       N       E                     dE             d eps       ncg     rms          rms(c)
DAV:   1    -0.530582114022E+03   -0.20487E-01   -0.19605E+00  7948   0.214E+00    0.517E-01
DAV:   2    -0.530584947533E+03   -0.28335E-02   -0.43903E-02  9616   0.323E-01    0.201E-01
DAV:   3    -0.530584677084E+03    0.27045E-03   -0.13305E-03  9376   0.710E-02    0.118E-01
DAV:   4    -0.530584607248E+03    0.69836E-04   -0.49684E-04  9520   0.398E-02    0.572E-02
DAV:   5    -0.530584593668E+03    0.13580E-04   -0.77269E-05  9600   0.189E-02    0.268E-02
DAV:   6    -0.530584591023E+03    0.26452E-05   -0.23891E-05  8416   0.715E-03    0.129E-02
DAV:   7    -0.530584588491E+03    0.25321E-05   -0.33381E-06  7096   0.382E-03    0.849E-03
DAV:   8    -0.530584585856E+03    0.26344E-05   -0.71203E-07  4560   0.175E-03    0.291E-03
DAV:   9    -0.530584585177E+03    0.67963E-06   -0.49133E-07  4448   0.114E-03
  51 F= -.56309297E+03 E0= -.56308659E+03  d E =-.678195E-02  mag=     0.0000
       N       E                     dE             d eps       ncg     rms          rms(c)
DAV:   1    -0.530611573135E+03   -0.26987E-01   -0.63063E+00  7920   0.384E+00    0.924E-01
DAV:   2    -0.530620677300E+03   -0.91042E-02   -0.14125E-01  9632   0.580E-01    0.358E-01
DAV:   3    -0.530619832562E+03    0.84474E-03   -0.43572E-03  9440   0.128E-01    0.213E-01
DAV:   4    -0.530619613850E+03    0.21871E-03   -0.15794E-03  9472   0.711E-02    0.104E-01
DAV:   5    -0.530619584942E+03    0.28908E-04   -0.24492E-04  9776   0.337E-02    0.477E-02
DAV:   6    -0.530619584186E+03    0.75681E-06   -0.75474E-05  8744   0.127E-02    0.229E-02
DAV:   7    -0.530619579591E+03    0.45951E-05   -0.11151E-05  8816   0.678E-03    0.154E-02
DAV:   8    -0.530619574930E+03    0.46604E-05   -0.20541E-06  5248   0.293E-03    0.563E-03
DAV:   9    -0.530619573658E+03    0.12723E-05   -0.13766E-06  4512   0.180E-03    0.181E-03
DAV:  10    -0.530619573561E+03    0.96523E-07   -0.24764E-07  4448   0.104E-03
  52 F= -.56309895E+03 E0= -.56309248E+03  d E =-.127651E-01  mag=     0.0000
       N       E                     dE             d eps       ncg     rms          rms(c)
DAV:   1    -0.530624793200E+03   -0.52195E-02   -0.24480E+00  7884   0.237E+00    0.664E-01
DAV:   2    -0.530630309310E+03   -0.55161E-02   -0.64513E-02  9888   0.383E-01    0.263E-01
DAV:   3    -0.530629988567E+03    0.32074E-03   -0.12819E-03  9776   0.734E-02    0.172E-01
DAV:   4    -0.530629964014E+03    0.24553E-04   -0.56724E-04  9376   0.348E-02    0.853E-02
DAV:   5    -0.530629964591E+03   -0.57770E-06   -0.81990E-05  9904   0.209E-02    0.300E-02
DAV:   6    -0.530629963070E+03    0.15214E-05   -0.22941E-05  9296   0.107E-02    0.174E-02
DAV:   7    -0.530629962911E+03    0.15864E-06   -0.72849E-06  7744   0.398E-03
  53 F= -.56310770E+03 E0= -.56310138E+03  d E =-.874982E-02  mag=    -0.0000
       N       E                     dE             d eps       ncg     rms          rms(c)
DAV:   1    -0.530617116971E+03    0.12846E-01   -0.10420E+01  7856   0.490E+00    0.139E+00
DAV:   2    -0.530640631124E+03   -0.23514E-01   -0.27478E-01  9888   0.792E-01    0.540E-01
DAV:   3    -0.530639279408E+03    0.13517E-02   -0.55009E-03  9856   0.152E-01    0.354E-01
DAV:   4    -0.530639178848E+03    0.10056E-03   -0.23922E-03  9600   0.721E-02    0.175E-01
DAV:   5    -0.530639192505E+03   -0.13657E-04   -0.34657E-04 10128   0.428E-02    0.614E-02
DAV:   6    -0.530639187345E+03    0.51591E-05   -0.95400E-05  9360   0.217E-02    0.361E-02
DAV:   7    -0.530639186458E+03    0.88737E-06   -0.30123E-05  8352   0.805E-03    0.326E-02
DAV:   8    -0.530639183520E+03    0.29385E-05   -0.58430E-06  7840   0.496E-03    0.164E-02
DAV:   9    -0.530639182988E+03    0.53176E-06   -0.56573E-06  7616   0.329E-03
  54 F= -.56311353E+03 E0= -.56310750E+03  d E =-.145777E-01  mag=    -0.0000
       N       E                     dE             d eps       ncg     rms          rms(c)
DAV:   1    -0.530645815224E+03   -0.66317E-02   -0.13209E+00  7884   0.176E+00    0.369E-01
DAV:   2    -0.530648597574E+03   -0.27824E-02   -0.33649E-02  9728   0.277E-01    0.182E-01
DAV:   3    -0.530648455994E+03    0.14158E-03   -0.68707E-04  9664   0.516E-02    0.125E-01
DAV:   4    -0.530648418287E+03    0.37707E-04   -0.33000E-04  9600   0.289E-02    0.597E-02
DAV:   5    -0.530648413297E+03    0.49902E-05   -0.49661E-05 10008   0.162E-02    0.219E-02
DAV:   6    -0.530648412376E+03    0.92064E-06   -0.12848E-05  9152   0.802E-03    0.931E-03
DAV:   7    -0.530648411824E+03    0.55194E-06   -0.51652E-06  7408   0.323E-03
  55 F= -.56311723E+03 E0= -.56311132E+03  d E =-.370167E-02  mag=    -0.0000
       N       E                     dE             d eps       ncg     rms          rms(c)
DAV:   1    -0.530646334126E+03    0.20783E-02   -0.11854E+01  7856   0.527E+00    0.111E+00
DAV:   2    -0.530671353121E+03   -0.25019E-01   -0.30230E-01  9712   0.832E-01    0.544E-01
DAV:   3    -0.530670101391E+03    0.12517E-02   -0.62457E-03  9680   0.155E-01    0.378E-01
DAV:   4    -0.530669763939E+03    0.33745E-03   -0.29123E-03  9552   0.865E-02    0.181E-01
DAV:   5    -0.530669755161E+03    0.87775E-05   -0.43895E-04 10640   0.477E-02    0.655E-02
DAV:   6    -0.530669752176E+03    0.29854E-05   -0.11549E-04  9632   0.242E-02    0.281E-02
DAV:   7    -0.530669751782E+03    0.39364E-06   -0.47485E-05  8752   0.970E-03    0.283E-02
DAV:   8    -0.530669747493E+03    0.42893E-05   -0.38194E-06  7168   0.408E-03    0.176E-02
DAV:   9    -0.530669744196E+03    0.32974E-05   -0.91130E-06  7792   0.498E-03    0.533E-03
DAV:  10    -0.530669744150E+03    0.46173E-07   -0.12416E-06  4576   0.174E-03
  56 F= -.56312199E+03 E0= -.56311641E+03  d E =-.845899E-02  mag=     0.0000
       N       E                     dE             d eps       ncg     rms          rms(c)
DAV:   1    -0.530671423919E+03   -0.16797E-02   -0.63420E-01  7870   0.126E+00    0.550E-01
DAV:   2    -0.530673400908E+03   -0.19770E-02   -0.22057E-02  9696   0.220E-01    0.131E-01
DAV:   3    -0.530673299024E+03    0.10188E-03   -0.43120E-04  9776   0.408E-02    0.869E-02
DAV:   4    -0.530673276690E+03    0.22334E-04   -0.19399E-04  9608   0.200E-02    0.367E-02
DAV:   5    -0.530673277628E+03   -0.93799E-06   -0.28754E-05  8920   0.890E-03    0.273E-02
DAV:   6    -0.530673277493E+03    0.13421E-06   -0.25104E-06  6320   0.336E-03
  57 F= -.56312756E+03 E0= -.56312189E+03  d E =-.556773E-02  mag=     0.0000
       N       E                     dE             d eps       ncg     rms          rms(c)
DAV:   1    -0.530666806774E+03    0.64709E-02   -0.20623E+00  7856   0.227E+00    0.997E-01
DAV:   2    -0.530673242897E+03   -0.64361E-02   -0.71930E-02  9680   0.398E-01    0.238E-01
DAV:   3    -0.530672919377E+03    0.32352E-03   -0.14175E-03  9744   0.740E-02    0.157E-01
DAV:   4    -0.530672851767E+03    0.67610E-04   -0.62831E-04  9624   0.362E-02    0.675E-02
DAV:   5    -0.530672856374E+03   -0.46069E-05   -0.93192E-05  9136   0.161E-02    0.487E-02
DAV:   6    -0.530672856354E+03    0.19492E-07   -0.90076E-06  9024   0.595E-03
  58 F= -.56313076E+03 E0= -.56312493E+03  d E =-.876806E-02  mag=     0.0000
       N       E                     dE             d eps       ncg     rms          rms(c)
DAV:   1    -0.530667166828E+03    0.56895E-02   -0.12905E+00  7856   0.151E+00    0.500E-01
DAV:   2    -0.530669617154E+03   -0.24503E-02   -0.30188E-02  9904   0.273E-01    0.220E-01
DAV:   3    -0.530669530898E+03    0.86256E-04   -0.80615E-04  9456   0.524E-02    0.137E-01
DAV:   4    -0.530669509492E+03    0.21406E-04   -0.16356E-04  9760   0.262E-02    0.499E-02
DAV:   5    -0.530669515327E+03   -0.58346E-05   -0.52969E-05  9056   0.116E-02    0.232E-02
DAV:   6    -0.530669518994E+03   -0.36669E-05   -0.15501E-05  8896   0.619E-03    0.152E-02
DAV:   7    -0.530669519148E+03   -0.15440E-06   -0.21138E-06  5248   0.279E-03
  59 F= -.56313547E+03 E0= -.56312948E+03  d E =-.470909E-02  mag=     0.0000
       N       E                     dE             d eps       ncg     rms          rms(c)
DAV:   1    -0.530658829345E+03    0.10690E-01   -0.18548E+00  7856   0.181E+00    0.600E-01
DAV:   2    -0.530662324243E+03   -0.34949E-02   -0.43243E-02  9888   0.327E-01    0.265E-01
DAV:   3    -0.530662200806E+03    0.12344E-03   -0.11743E-03  9472   0.629E-02    0.164E-01
DAV:   4    -0.530662168609E+03    0.32197E-04   -0.23509E-04  9808   0.316E-02    0.606E-02
DAV:   5    -0.530662175832E+03   -0.72226E-05   -0.77342E-05  9280   0.141E-02    0.282E-02
DAV:   6    -0.530662180460E+03   -0.46280E-05   -0.22770E-05  8864   0.737E-03    0.186E-02
DAV:   7    -0.530662180499E+03   -0.39036E-07   -0.31722E-06  7128   0.333E-03
  60 F= -.56313774E+03 E0= -.56313157E+03  d E =-.698342E-02  mag=     0.0000
       N       E                     dE             d eps       ncg     rms          rms(c)
DAV:   1    -0.530663240012E+03   -0.10596E-02   -0.21872E+00  7920   0.187E+00    0.655E-01
DAV:   2    -0.530667541746E+03   -0.43017E-02   -0.49030E-02  9856   0.320E-01    0.183E-01
DAV:   3    -0.530667383143E+03    0.15860E-03   -0.91013E-04  9792   0.570E-02    0.105E-01
DAV:   4    -0.530667366968E+03    0.16175E-04   -0.25657E-04  9360   0.237E-02    0.596E-02
DAV:   5    -0.530667368836E+03   -0.18687E-05   -0.45877E-05  9088   0.117E-02    0.273E-02
DAV:   6    -0.530667369460E+03   -0.62409E-06   -0.81041E-06  8848   0.577E-03
  61 F= -.56314334E+03 E0= -.56313717E+03  d E =-.559585E-02  mag=     0.0000
       N       E                     dE             d eps       ncg     rms          rms(c)
DAV:   1    -0.530666561999E+03    0.80684E-03   -0.88516E-01  7920   0.119E+00    0.426E-01
DAV:   2    -0.530668312394E+03   -0.17504E-02   -0.19974E-02  9856   0.204E-01    0.117E-01
DAV:   3    -0.530668248690E+03    0.63703E-04   -0.36894E-04  9728   0.366E-02    0.657E-02
DAV:   4    -0.530668243099E+03    0.55913E-05   -0.10659E-04  9280   0.151E-02    0.383E-02
DAV:   5    -0.530668243402E+03   -0.30327E-06   -0.18329E-05  9024   0.744E-03    0.178E-02
DAV:   6    -0.530668243509E+03   -0.10644E-06   -0.31796E-06  7104   0.377E-03
  62 F= -.56314447E+03 E0= -.56313831E+03  d E =-.672795E-02  mag=    -0.0000
       N       E                     dE             d eps       ncg     rms          rms(c)
DAV:   1    -0.530679232198E+03   -0.10989E-01   -0.10214E+00  7920   0.129E+00    0.411E-01
DAV:   2    -0.530680621468E+03   -0.13893E-02   -0.19406E-02  9648   0.214E-01    0.168E-01
DAV:   3    -0.530680493165E+03    0.12830E-03   -0.49591E-04  9120   0.476E-02    0.927E-02
DAV:   4    -0.530680472755E+03    0.20411E-04   -0.21935E-04  9680   0.257E-02    0.327E-02
DAV:   5    -0.530680467099E+03    0.56556E-05   -0.32253E-05  9168   0.112E-02    0.234E-02
DAV:   6    -0.530680465081E+03    0.20175E-05   -0.83531E-06  8208   0.396E-03    0.172E-02
DAV:   7    -0.530680462590E+03    0.24913E-05   -0.12920E-06  4704   0.256E-03    0.884E-03
DAV:   8    -0.530680460333E+03    0.22567E-05   -0.88796E-07  4464   0.223E-03    0.196E-03
DAV:   9    -0.530680460285E+03    0.48378E-07   -0.87080E-07  4352   0.142E-03
  63 F= -.56314652E+03 E0= -.56314030E+03  d E =-.204910E-02  mag=    -0.0000
       N       E                     dE             d eps       ncg     rms          rms(c)
DAV:   1    -0.530686724369E+03   -0.62640E-02   -0.39331E-01  7920   0.803E-01    0.256E-01
DAV:   2    -0.530687259355E+03   -0.53499E-03   -0.74279E-03  9648   0.132E-01    0.103E-01
DAV:   3    -0.530687209692E+03    0.49664E-04   -0.18766E-04  9184   0.293E-02    0.568E-02
DAV:   4    -0.530687200913E+03    0.87784E-05   -0.83193E-05  9600   0.157E-02    0.202E-02
DAV:   5    -0.530687197566E+03    0.33478E-05   -0.12322E-05  9024   0.687E-03    0.145E-02
DAV:   6    -0.530687196058E+03    0.15073E-05   -0.31439E-06  6288   0.250E-03    0.105E-02
DAV:   7    -0.530687194510E+03    0.15481E-05   -0.53999E-07  4464   0.170E-03    0.528E-03
DAV:   8    -0.530687193339E+03    0.11715E-05   -0.35802E-07  4352   0.140E-03    0.132E-03
DAV:   9    -0.530687193257E+03    0.81840E-07   -0.33171E-07  4320   0.920E-04
  64 F= -.56314694E+03 E0= -.56314069E+03  d E =-.247414E-02  mag=    -0.0000
       N       E                     dE             d eps       ncg     rms          rms(c)
DAV:   1    -0.530686386775E+03    0.80656E-03   -0.69410E-01  7872   0.982E-01    0.213E-01
DAV:   2    -0.530687152246E+03   -0.76547E-03   -0.84700E-03  9648   0.136E-01    0.723E-02
DAV:   3    -0.530687139260E+03    0.12986E-04   -0.14337E-04  9600   0.227E-02    0.460E-02
DAV:   4    -0.530687141951E+03   -0.26905E-05   -0.39163E-05  9456   0.103E-02    0.196E-02
DAV:   5    -0.530687143707E+03   -0.17566E-05   -0.73202E-06  8928   0.561E-03    0.769E-03
DAV:   6    -0.530687144040E+03   -0.33237E-06   -0.16358E-06  5072   0.260E-03
  65 F= -.56314867E+03 E0= -.56314236E+03  d E =-.172527E-02  mag=    -0.0000
       N       E                     dE             d eps       ncg     rms          rms(c)
DAV:   1    -0.530678850038E+03    0.82937E-02   -0.53995E+00  7872   0.274E+00    0.601E-01
DAV:   2    -0.530684795703E+03   -0.59457E-02   -0.66358E-02  9648   0.381E-01    0.201E-01
DAV:   3    -0.530684698872E+03    0.96831E-04   -0.11719E-03  9760   0.642E-02    0.128E-01
DAV:   4    -0.530684718957E+03   -0.20085E-04   -0.30581E-04  9520   0.291E-02    0.554E-02
DAV:   5    -0.530684733099E+03   -0.14142E-04   -0.57140E-05  9480   0.155E-02    0.213E-02
DAV:   6    -0.530684734856E+03   -0.17574E-05   -0.13449E-05  8864   0.714E-03    0.164E-02
DAV:   7    -0.530684735048E+03   -0.19209E-06   -0.31191E-06  6552   0.265E-03
  66 F= -.56315121E+03 E0= -.56314473E+03  d E =-.426450E-02  mag=    -0.0000
       N       E                     dE             d eps       ncg     rms          rms(c)
DAV:   1    -0.530691651174E+03   -0.69163E-02   -0.74772E-01  7856   0.102E+00    0.272E-01
DAV:   2    -0.530692604576E+03   -0.95340E-03   -0.11687E-02  9840   0.164E-01    0.944E-02
DAV:   3    -0.530692563553E+03    0.41022E-04   -0.22261E-04  9376   0.295E-02    0.633E-02
DAV:   4    -0.530692560479E+03    0.30747E-05   -0.89684E-05  9664   0.154E-02    0.291E-02
DAV:   5    -0.530692557984E+03    0.24943E-05   -0.92707E-06  9280   0.790E-03    0.124E-02
DAV:   6    -0.530692557081E+03    0.90378E-06   -0.30899E-06  6992   0.356E-03
  67 F= -.56315332E+03 E0= -.56314689E+03  d E =-.211304E-02  mag=    -0.0000
       N       E                     dE             d eps       ncg     rms          rms(c)
DAV:   1    -0.530702776665E+03   -0.10219E-01   -0.33051E+00  7856   0.214E+00    0.579E-01
DAV:   2    -0.530706999704E+03   -0.42230E-02   -0.51865E-02  9840   0.346E-01    0.198E-01
DAV:   3    -0.530706819279E+03    0.18042E-03   -0.10166E-03  9392   0.625E-02    0.133E-01
DAV:   4    -0.530706808264E+03    0.11015E-04   -0.38765E-04  9752   0.320E-02    0.620E-02
DAV:   5    -0.530706805098E+03    0.31653E-05   -0.41502E-05  9712   0.169E-02    0.259E-02
DAV:   6    -0.530706803599E+03    0.14992E-05   -0.14177E-05  8800   0.734E-03    0.176E-02
DAV:   7    -0.530706802569E+03    0.10298E-05   -0.41151E-06  7472   0.372E-03    0.122E-02
DAV:   8    -0.530706801181E+03    0.13883E-05   -0.95844E-07  4544   0.225E-03    0.495E-03
DAV:   9    -0.530706800641E+03    0.54035E-06   -0.10687E-06  4496   0.157E-03
  68 F= -.56315556E+03 E0= -.56314924E+03  d E =-.435640E-02  mag=    -0.0000
       N       E                     dE             d eps       ncg     rms          rms(c)
DAV:   1    -0.530709264301E+03   -0.24631E-02   -0.15368E-01  7912   0.461E-01    0.124E-01
DAV:   2    -0.530709459212E+03   -0.19491E-03   -0.23791E-03  9840   0.741E-02    0.426E-02
DAV:   3    -0.530709451275E+03    0.79369E-05   -0.46026E-05  9360   0.133E-02    0.285E-02
DAV:   4    -0.530709450235E+03    0.10402E-05   -0.18207E-05  9536   0.694E-03    0.132E-02
DAV:   5    -0.530709448832E+03    0.14028E-05   -0.17479E-06  5984   0.364E-03    0.526E-03
DAV:   6    -0.530709448363E+03    0.46906E-06   -0.69043E-07  4544   0.171E-03
  69 F= -.56315562E+03 E0= -.56314933E+03  d E =-.441578E-02  mag=    -0.0000
       N       E                     dE             d eps       ncg     rms          rms(c)
DAV:   1    -0.530708475803E+03    0.97303E-03   -0.10406E+00  7932   0.132E+00    0.255E-01
DAV:   2    -0.530709926869E+03   -0.14511E-02   -0.16347E-02  9648   0.189E-01    0.996E-02
DAV:   3    -0.530709894963E+03    0.31905E-04   -0.27620E-04  9632   0.314E-02    0.624E-02
DAV:   4    -0.530709893758E+03    0.12057E-05   -0.92986E-05  9424   0.149E-02    0.294E-02
DAV:   5    -0.530709895297E+03   -0.15391E-05   -0.14972E-05  9552   0.823E-03    0.133E-02
DAV:   6    -0.530709895862E+03   -0.56547E-06   -0.38186E-06  7408   0.414E-03
  70 F= -.56315718E+03 E0= -.56315096E+03  d E =-.155764E-02  mag=     0.0000
       N       E                     dE             d eps       ncg     rms          rms(c)
DAV:   1    -0.530695599917E+03    0.14295E-01   -0.93699E+00  7932   0.396E+00    0.771E-01
DAV:   2    -0.530708724461E+03   -0.13125E-01   -0.14814E-01  9648   0.571E-01    0.299E-01
DAV:   3    -0.530708440491E+03    0.28397E-03   -0.25370E-03  9760   0.942E-02    0.189E-01
DAV:   4    -0.530708423796E+03    0.16695E-04   -0.84552E-04  9728   0.454E-02    0.887E-02
DAV:   5    -0.530708442791E+03   -0.18995E-04   -0.13484E-04 10016   0.243E-02    0.399E-02
DAV:   6    -0.530708447316E+03   -0.45248E-05   -0.33506E-05  8928   0.121E-02    0.187E-02
DAV:   7    -0.530708447162E+03    0.15389E-06   -0.11411E-05  8240   0.483E-03    0.158E-02
DAV:   8    -0.530708446104E+03    0.10583E-05   -0.20477E-06  5536   0.311E-03    0.642E-03
DAV:   9    -0.530708446187E+03   -0.82771E-07   -0.22286E-06  5296   0.224E-03
  71 F= -.56315906E+03 E0= -.56315306E+03  d E =-.343896E-02  mag=    -0.0000
       N       E                     dE             d eps       ncg     rms          rms(c)
DAV:   1    -0.530707199050E+03    0.12471E-02   -0.89655E-01  7884   0.126E+00    0.275E-01
DAV:   2    -0.530708379464E+03   -0.11804E-02   -0.13351E-02  9808   0.179E-01    0.105E-01
DAV:   3    -0.530708341069E+03    0.38395E-04   -0.21207E-04  9568   0.287E-02    0.670E-02
DAV:   4    -0.530708341304E+03   -0.23489E-06   -0.83048E-05  9504   0.143E-02    0.278E-02
DAV:   5    -0.530708343166E+03   -0.18624E-05   -0.13978E-05  9232   0.787E-03    0.120E-02
DAV:   6    -0.530708343334E+03   -0.16774E-06   -0.30508E-06  6800   0.364E-03
  72 F= -.56316098E+03 E0= -.56315499E+03  d E =-.191680E-02  mag=    -0.0000
       N       E                     dE             d eps       ncg     rms          rms(c)
DAV:   1    -0.530696131928E+03    0.12211E-01   -0.80714E+00  7884   0.378E+00    0.832E-01
DAV:   2    -0.530706791329E+03   -0.10659E-01   -0.12090E-01  9792   0.539E-01    0.315E-01
DAV:   3    -0.530706459863E+03    0.33147E-03   -0.19877E-03  9712   0.875E-02    0.201E-01
DAV:   4    -0.530706464270E+03   -0.44076E-05   -0.74291E-04  9472   0.433E-02    0.847E-02
DAV:   5    -0.530706484245E+03   -0.19975E-04   -0.12506E-04  9792   0.235E-02    0.360E-02
DAV:   6    -0.530706485449E+03   -0.12039E-05   -0.27732E-05  8992   0.108E-02    0.233E-02
DAV:   7    -0.530706484708E+03    0.74141E-06   -0.70623E-06  8080   0.413E-03
  73 F= -.56316518E+03 E0= -.56315923E+03  d E =-.612165E-02  mag=     0.0000
       N       E                     dE             d eps       ncg     rms          rms(c)
DAV:   1    -0.530653037385E+03    0.53448E-01   -0.32319E+01  7888   0.757E+00    0.167E+00
DAV:   2    -0.530696301830E+03   -0.43264E-01   -0.49023E-01  9760   0.109E+00    0.628E-01
DAV:   3    -0.530694952390E+03    0.13494E-02   -0.76283E-03  9712   0.172E-01    0.407E-01
DAV:   4    -0.530694946469E+03    0.59208E-05   -0.29575E-03  9520   0.862E-02    0.169E-01
DAV:   5    -0.530695031966E+03   -0.85496E-04   -0.50669E-04 10048   0.466E-02    0.720E-02
DAV:   6    -0.530695034731E+03   -0.27655E-05   -0.10567E-04  9280   0.211E-02    0.471E-02
DAV:   7    -0.530695030820E+03    0.39113E-05   -0.29112E-05  9104   0.834E-03    0.352E-02
DAV:   8    -0.530695028387E+03    0.24334E-05   -0.13541E-05  9072   0.709E-03    0.120E-02
DAV:   9    -0.530695028787E+03   -0.40082E-06   -0.40803E-06  6576   0.343E-03
  74 F= -.56316588E+03 E0= -.56315996E+03  d E =-.681362E-02  mag=    -0.0000
       N       E                     dE             d eps       ncg     rms          rms(c)
DAV:   1    -0.530694153969E+03    0.87442E-03   -0.51016E+00  7856   0.301E+00    0.652E-01
DAV:   2    -0.530700965383E+03   -0.68114E-02   -0.76869E-02  9792   0.431E-01    0.250E-01
DAV:   3    -0.530700745988E+03    0.21939E-03   -0.13046E-03  9666   0.705E-02    0.158E-01
DAV:   4    -0.530700746859E+03   -0.87039E-06   -0.49591E-04  9440   0.365E-02    0.661E-02
DAV:   5    -0.530700760576E+03   -0.13718E-04   -0.79733E-05  9762   0.187E-02    0.288E-02
DAV:   6    -0.530700761750E+03   -0.11738E-05   -0.17849E-05  8896   0.849E-03    0.186E-02
DAV:   7    -0.530700760758E+03    0.99166E-06   -0.42766E-06  7456   0.331E-03
  75 F= -.56316678E+03 E0= -.56316085E+03  d E =-.771345E-02  mag=     0.0000
       N       E                     dE             d eps       ncg     rms          rms(c)
DAV:   1    -0.530696507083E+03    0.42547E-02   -0.31024E+00  7856   0.239E+00    0.424E-01
DAV:   2    -0.530700143043E+03   -0.36360E-02   -0.41109E-02  9904   0.326E-01    0.200E-01
DAV:   3    -0.530700030402E+03    0.11264E-03   -0.68642E-04  9768   0.513E-02    0.139E-01
DAV:   4    -0.530700034681E+03   -0.42789E-05   -0.25335E-04  9552   0.243E-02    0.503E-02
DAV:   5    -0.530700043560E+03   -0.88794E-05   -0.42493E-05 10048   0.128E-02    0.172E-02
DAV:   6    -0.530700044058E+03   -0.49718E-06   -0.79105E-06  9120   0.634E-03
  76 F= -.56317017E+03 E0= -.56316420E+03  d E =-.339361E-02  mag=    -0.0000
       N       E                     dE             d eps       ncg     rms          rms(c)
DAV:   1    -0.530660467222E+03    0.39576E-01   -0.27950E+01  7856   0.719E+00    0.129E+00
DAV:   2    -0.530693737036E+03   -0.33270E-01   -0.37712E-01  9872   0.987E-01    0.596E-01
DAV:   3    -0.530692752829E+03    0.98421E-03   -0.63410E-03  9824   0.155E-01    0.415E-01
DAV:   4    -0.530692782095E+03   -0.29266E-04   -0.22259E-03  9568   0.719E-02    0.153E-01
DAV:   5    -0.530692867708E+03   -0.85613E-04   -0.39461E-04 10432   0.374E-02    0.507E-02
DAV:   6    -0.530692867243E+03    0.46505E-06   -0.64722E-05  9664   0.181E-02    0.335E-02
DAV:   7    -0.530692867449E+03   -0.20608E-06   -0.20629E-05  8736   0.671E-03    0.247E-02
DAV:   8    -0.530692866983E+03    0.46593E-06   -0.82665E-06  8304   0.537E-03
  77 F= -.56317531E+03 E0= -.56316919E+03  d E =-.853490E-02  mag=     0.0000
       N       E                     dE             d eps       ncg     rms          rms(c)
DAV:   1    -0.530705558611E+03   -0.12691E-01   -0.40183E+00  7856   0.283E+00    0.449E-01
DAV:   2    -0.530709991663E+03   -0.44331E-02   -0.56128E-02  9792   0.398E-01    0.207E-01
DAV:   3    -0.530709766076E+03    0.22559E-03   -0.11240E-03  9376   0.681E-02    0.135E-01
DAV:   4    -0.530709733731E+03    0.32344E-04   -0.53445E-04  9632   0.395E-02    0.598E-02
DAV:   5    -0.530709729388E+03    0.43427E-05   -0.64282E-05 10112   0.186E-02    0.242E-02
DAV:   6    -0.530709728819E+03    0.56979E-06   -0.15505E-05  8800   0.765E-03    0.104E-02
DAV:   7    -0.530709727147E+03    0.16721E-05   -0.41079E-06  7416   0.352E-03    0.758E-03
DAV:   8    -0.530709726061E+03    0.10859E-05   -0.52790E-07  4544   0.168E-03    0.379E-03
DAV:   9    -0.530709725258E+03    0.80271E-06   -0.79503E-07  4464   0.151E-03
  78 F= -.56317985E+03 E0= -.56317369E+03  d E =-.454007E-02  mag=    -0.0000
       N       E                     dE             d eps       ncg     rms          rms(c)
DAV:   1    -0.530717816029E+03   -0.80900E-02   -0.36235E+01  7920   0.849E+00    0.134E+00
DAV:   2    -0.530758563860E+03   -0.40748E-01   -0.51328E-01  9744   0.120E+00    0.623E-01
DAV:   3    -0.530756501871E+03    0.20620E-02   -0.10114E-02  9536   0.204E-01    0.407E-01
DAV:   4    -0.530756213338E+03    0.28853E-03   -0.48644E-03  9648   0.119E-01    0.180E-01
DAV:   5    -0.530756233874E+03   -0.20536E-04   -0.57594E-04 10304   0.551E-02    0.717E-02
DAV:   6    -0.530756245773E+03   -0.11899E-04   -0.13979E-04  9472   0.234E-02    0.307E-02
DAV:   7    -0.530756242780E+03    0.29930E-05   -0.39945E-05  9760   0.102E-02    0.230E-02
DAV:   8    -0.530756238630E+03    0.41500E-05   -0.44391E-06  7984   0.443E-03    0.109E-02
DAV:   9    -0.530756236298E+03    0.23317E-05   -0.57204E-06  7344   0.386E-03    0.327E-03
DAV:  10    -0.530756236072E+03    0.22630E-06   -0.57239E-07  4496   0.139E-03
  79 F= -.56318941E+03 E0= -.56318313E+03  d E =-.140965E-01  mag=    -0.0000
       N       E                     dE             d eps       ncg     rms          rms(c)
DAV:   1    -0.530671239974E+03    0.84996E-01   -0.14566E+02  7920   0.170E+01    0.267E+00
DAV:   2    -0.530841032079E+03   -0.16979E+00   -0.21080E+00  9728   0.243E+00    0.124E+00
DAV:   3    -0.530833146036E+03    0.78860E-02   -0.40990E-02  9488   0.402E-01    0.825E-01
DAV:   4    -0.530831911803E+03    0.12342E-02   -0.18735E-02  9584   0.234E-01    0.365E-01
DAV:   5    -0.530832067562E+03   -0.15576E-03   -0.22391E-03 10288   0.108E-01    0.140E-01
DAV:   6    -0.530832127086E+03   -0.59523E-04   -0.54447E-04  9504   0.467E-02    0.611E-02
DAV:   7    -0.530832126792E+03    0.29354E-06   -0.16577E-04  9744   0.206E-02    0.456E-02
DAV:   8    -0.530832115793E+03    0.10999E-04   -0.20461E-05 11200   0.885E-03    0.208E-02
DAV:   9    -0.530832111501E+03    0.42913E-05   -0.17168E-05  8880   0.649E-03    0.589E-03
DAV:  10    -0.530832110867E+03    0.63452E-06   -0.11855E-06  4736   0.180E-03
  80 F= -.56319140E+03 E0= -.56318484E+03  d E =-.160889E-01  mag=     0.0000
       N       E                     dE             d eps       ncg     rms          rms(c)
DAV:   1    -0.530779862142E+03    0.52249E-01   -0.23763E+01  7856   0.686E+00    0.111E+00
DAV:   2    -0.530805045551E+03   -0.25183E-01   -0.32870E-01  9744   0.947E-01    0.497E-01
DAV:   3    -0.530803838167E+03    0.12074E-02   -0.71708E-03  9552   0.167E-01    0.311E-01
DAV:   4    -0.530803789566E+03    0.48600E-04   -0.29135E-03  9664   0.862E-02    0.147E-01
DAV:   5    -0.530803848132E+03   -0.58566E-04   -0.34511E-04 10256   0.438E-02    0.593E-02
DAV:   6    -0.530803867404E+03   -0.19272E-04   -0.91606E-05  9312   0.182E-02    0.242E-02
DAV:   7    -0.530803876126E+03   -0.87217E-05   -0.24639E-05  9568   0.762E-03    0.189E-02
DAV:   8    -0.530803877049E+03   -0.92346E-06   -0.25019E-06  6352   0.341E-03
  81 F= -.56319310E+03 E0= -.56318665E+03  d E =-.177866E-01  mag=     0.0000
       N       E                     dE             d eps       ncg     rms          rms(c)
DAV:   1    -0.530815801307E+03   -0.11925E-01   -0.70845E+00  7856   0.378E+00    0.572E-01
DAV:   2    -0.530823049700E+03   -0.72484E-02   -0.91845E-02  9808   0.513E-01    0.286E-01
DAV:   3    -0.530822688238E+03    0.36146E-03   -0.18183E-03  9520   0.872E-02    0.184E-01
DAV:   4    -0.530822648829E+03    0.39409E-04   -0.85706E-04  9568   0.500E-02    0.773E-02
DAV:   5    -0.530822648261E+03    0.56777E-06   -0.10105E-04 10176   0.236E-02    0.298E-02
DAV:   6    -0.530822648801E+03   -0.53951E-06   -0.24837E-05  8880   0.983E-03    0.129E-02
DAV:   7    -0.530822646792E+03    0.20087E-05   -0.63881E-06  8160   0.454E-03    0.100E-02
DAV:   8    -0.530822645137E+03    0.16553E-05   -0.90721E-07  4608   0.214E-03    0.584E-03
DAV:   9    -0.530822643713E+03    0.14236E-05   -0.19864E-06  4992   0.236E-03    0.154E-03
DAV:  10    -0.530822643720E+03   -0.66211E-08   -0.33476E-07  4400   0.125E-03
  82 F= -.56319795E+03 E0= -.56319126E+03  d E =-.485014E-02  mag=    -0.0000
       N       E                     dE             d eps       ncg     rms          rms(c)
DAV:   1    -0.530812227227E+03    0.10416E-01   -0.63934E+01  7920   0.113E+01    0.170E+00
DAV:   2    -0.530879992513E+03   -0.67765E-01   -0.84484E-01  9824   0.156E+00    0.860E-01
DAV:   3    -0.530876696596E+03    0.32959E-02   -0.15733E-02  9520   0.256E-01    0.559E-01
DAV:   4    -0.530876361349E+03    0.33525E-03   -0.77615E-03  9536   0.151E-01    0.231E-01
DAV:   5    -0.530876430465E+03   -0.69116E-04   -0.90364E-04 10208   0.698E-02    0.875E-02
DAV:   6    -0.530876456466E+03   -0.26001E-04   -0.21975E-04  9472   0.294E-02    0.385E-02
DAV:   7    -0.530876451996E+03    0.44698E-05   -0.60017E-05 10080   0.132E-02    0.300E-02
DAV:   8    -0.530876444710E+03    0.72867E-05   -0.84530E-06  9184   0.600E-03    0.169E-02
DAV:   9    -0.530876440482E+03    0.42276E-05   -0.14040E-05  8624   0.604E-03    0.457E-03
DAV:  10    -0.530876440629E+03   -0.14671E-06   -0.12656E-06  4640   0.211E-03
  83 F= -.56321005E+03 E0= -.56320286E+03  d E =-.169567E-01  mag=     0.0000
       N       E                     dE             d eps       ncg     rms          rms(c)
DAV:   1    -0.530694264620E+03    0.18218E+00   -0.25751E+02  7920   0.228E+01    0.338E+00
DAV:   2    -0.530985279950E+03   -0.29102E+00   -0.35174E+00  9744   0.315E+00    0.170E+00
DAV:   3    -0.530973387738E+03    0.11892E-01   -0.64420E-02  9408   0.498E-01    0.115E+00
DAV:   4    -0.530971826617E+03    0.15611E-02   -0.31084E-02  9424   0.308E-01    0.449E-01
DAV:   5    -0.530972135065E+03   -0.30845E-03   -0.35791E-03  9888   0.138E-01    0.172E-01
DAV:   6    -0.530972263781E+03   -0.12872E-03   -0.86609E-04  9576   0.577E-02    0.817E-02
DAV:   7    -0.530972246661E+03    0.17119E-04   -0.23549E-04 10248   0.267E-02    0.599E-02
DAV:   8    -0.530972225141E+03    0.21520E-04   -0.37564E-05 10784   0.125E-02    0.308E-02
DAV:   9    -0.530972217542E+03    0.75993E-05   -0.44170E-05  9104   0.104E-02    0.864E-03
[...]
 180 F= -.56503891E+03 E0= -.56503036E+03  d E =-.190502E-01  mag=     0.0000
       N       E                     dE             d eps       ncg     rms          rms(c)
DAV:   1    -0.532715753707E+03    0.69247E-02   -0.52089E+00  7934   0.294E+00    0.608E-01
DAV:   2    -0.532721918386E+03   -0.61647E-02   -0.72516E-02  9840   0.428E-01    0.219E-01
DAV:   3    -0.532721703375E+03    0.21501E-03   -0.14540E-03  9600   0.736E-02    0.137E-01
DAV:   4    -0.532721687229E+03    0.16146E-04   -0.40204E-04  9824   0.305E-02    0.631E-02
DAV:   5    -0.532721708698E+03   -0.21469E-04   -0.78718E-05  9256   0.134E-02    0.199E-02
DAV:   6    -0.532721712580E+03   -0.38819E-05   -0.92155E-06  9832   0.669E-03    0.130E-02
DAV:   7    -0.532721713935E+03   -0.13552E-05   -0.23948E-06  5856   0.329E-03    0.743E-03
DAV:   8    -0.532721714932E+03   -0.99661E-06   -0.13432E-06  4560   0.177E-03
 181 F= -.56505067E+03 E0= -.56504220E+03  d E =-.117587E-01  mag=    -0.0000
       N       E                     dE             d eps       ncg     rms          rms(c)
DAV:   1    -0.532670802581E+03    0.50911E-01   -0.28121E+01  7948   0.684E+00    0.143E+00
DAV:   2    -0.532704216756E+03   -0.33414E-01   -0.39527E-01  9856   0.995E-01    0.507E-01
DAV:   3    -0.532703124480E+03    0.10923E-02   -0.82662E-03  9616   0.176E-01    0.316E-01
DAV:   4    -0.532703042893E+03    0.81587E-04   -0.21102E-03  9840   0.692E-02    0.150E-01
DAV:   5    -0.532703133413E+03   -0.90521E-04   -0.43637E-04  9216   0.311E-02    0.456E-02
DAV:   6    -0.532703146529E+03   -0.13115E-04   -0.57550E-05 10256   0.155E-02    0.309E-02
DAV:   7    -0.532703148478E+03   -0.19490E-05   -0.13400E-05  9184   0.723E-03    0.181E-02
DAV:   8    -0.532703150558E+03   -0.20806E-05   -0.64093E-06  7520   0.394E-03    0.721E-03
DAV:   9    -0.532703152414E+03   -0.18558E-05   -0.12072E-06  4640   0.198E-03    0.254E-03
DAV:  10    -0.532703152390E+03    0.24607E-07   -0.26591E-07  4496   0.101E-03
 182 F= -.56506171E+03 E0= -.56505343E+03  d E =-.227968E-01  mag=     0.0000
       N       E                     dE             d eps       ncg     rms          rms(c)
DAV:   1    -0.532701135071E+03    0.20173E-02   -0.38659E+00  7948   0.257E+00    0.454E-01
DAV:   2    -0.532705521168E+03   -0.43861E-02   -0.50105E-02  9792   0.350E-01    0.154E-01
DAV:   3    -0.532705403879E+03    0.11729E-03   -0.90019E-04  9600   0.553E-02    0.101E-01
DAV:   4    -0.532705393382E+03    0.10497E-04   -0.23695E-04  9800   0.249E-02    0.409E-02
DAV:   5    -0.532705409530E+03   -0.16148E-04   -0.58972E-05  8896   0.113E-02    0.218E-02
DAV:   6    -0.532705411778E+03   -0.22481E-05   -0.67460E-06  8400   0.442E-03    0.152E-02
DAV:   7    -0.532705411851E+03   -0.72490E-07   -0.12175E-06  5040   0.287E-03
 183 F= -.56506934E+03 E0= -.56506110E+03  d E =-.763078E-02  mag=     0.0000
       N       E                     dE             d eps       ncg     rms          rms(c)
DAV:   1    -0.532676421871E+03    0.28990E-01   -0.21785E+01  7948   0.609E+00    0.108E+00
DAV:   2    -0.532701529309E+03   -0.25107E-01   -0.28669E-01  9792   0.835E-01    0.366E-01
DAV:   3    -0.532700899690E+03    0.62962E-03   -0.53226E-03  9632   0.135E-01    0.240E-01
DAV:   4    -0.532700834202E+03    0.65488E-04   -0.13332E-03  9880   0.592E-02    0.101E-01
DAV:   5    -0.532700908298E+03   -0.74096E-04   -0.33981E-04  9448   0.270E-02    0.508E-02
DAV:   6    -0.532700916217E+03   -0.79195E-05   -0.43539E-05  9360   0.107E-02    0.362E-02
DAV:   7    -0.532700913827E+03    0.23899E-05   -0.91482E-06  9488   0.685E-03    0.203E-02
DAV:   8    -0.532700914950E+03   -0.11228E-05   -0.59009E-06  8064   0.397E-03    0.627E-03
DAV:   9    -0.532700915754E+03   -0.80380E-06   -0.14587E-06  4704   0.193E-03
 184 F= -.56507760E+03 E0= -.56506948E+03  d E =-.158961E-01  mag=     0.0000
       N       E                     dE             d eps       ncg     rms          rms(c)
DAV:   1    -0.532687368177E+03    0.13547E-01   -0.14699E+00  7948   0.153E+00    0.547E-01
DAV:   2    -0.532688079081E+03   -0.71090E-03   -0.19865E-02  9936   0.240E-01    0.179E-01
DAV:   3    -0.532687822280E+03    0.25680E-03   -0.75194E-04  9792   0.580E-02    0.843E-02
DAV:   4    -0.532687806635E+03    0.15645E-04   -0.26015E-04  9552   0.249E-02    0.382E-02
DAV:   5    -0.532687816299E+03   -0.96643E-05   -0.26641E-05  9408   0.993E-03    0.228E-02
DAV:   6    -0.532687824070E+03   -0.77707E-05   -0.66284E-06  8320   0.418E-03    0.135E-02
DAV:   7    -0.532687830472E+03   -0.64022E-05   -0.15778E-06  4912   0.237E-03    0.372E-03
DAV:   8    -0.532687831760E+03   -0.12880E-05   -0.38301E-07  4512   0.174E-03    0.133E-03
DAV:   9    -0.532687832161E+03   -0.40105E-06   -0.34408E-07  4400   0.960E-04
 185 F= -.56508440E+03 E0= -.56507630E+03  d E =-.679545E-02  mag=     0.0000
       N       E                     dE             d eps       ncg     rms          rms(c)
DAV:   1    -0.532643803230E+03    0.44029E-01   -0.80868E+00  7872   0.358E+00    0.129E+00
DAV:   2    -0.532647718930E+03   -0.39157E-02   -0.10906E-01  9936   0.563E-01    0.421E-01
DAV:   3    -0.532646306752E+03    0.14122E-02   -0.40642E-03  9744   0.136E-01    0.198E-01
DAV:   4    -0.532646199079E+03    0.10767E-03   -0.14523E-03  9616   0.592E-02    0.896E-02
DAV:   5    -0.532646221554E+03   -0.22475E-04   -0.14748E-04  9616   0.233E-02    0.539E-02
DAV:   6    -0.532646243189E+03   -0.21635E-04   -0.36711E-05  8976   0.983E-03    0.319E-02
DAV:   7    -0.532646260011E+03   -0.16823E-04   -0.11027E-05 10432   0.548E-03    0.966E-03
DAV:   8    -0.532646262641E+03   -0.26300E-05   -0.14569E-06  5920   0.349E-03    0.345E-03
DAV:   9    -0.532646263690E+03   -0.10483E-05   -0.13249E-06  4544   0.164E-03    0.315E-03
DAV:  10    -0.532646263484E+03    0.20542E-06   -0.17920E-07  4400   0.819E-04
 186 F= -.56508954E+03 E0= -.56508150E+03  d E =-.119360E-01  mag=    -0.0000
       N       E                     dE             d eps       ncg     rms          rms(c)
DAV:   1    -0.532645471351E+03    0.79234E-03   -0.10822E+00  7920   0.148E+00    0.232E-01
DAV:   2    -0.532646785793E+03   -0.13144E-02   -0.15531E-02  9728   0.198E-01    0.103E-01
DAV:   3    -0.532646732831E+03    0.52962E-04   -0.27432E-04  9728   0.334E-02    0.623E-02
DAV:   4    -0.532646727165E+03    0.56657E-05   -0.11782E-04  9616   0.168E-02    0.289E-02
DAV:   5    -0.532646733217E+03   -0.60520E-05   -0.17687E-05  9184   0.816E-03    0.125E-02
DAV:   6    -0.532646733824E+03   -0.60697E-06   -0.30863E-06  6784   0.426E-03
 187 F= -.56509378E+03 E0= -.56508577E+03  d E =-.423851E-02  mag=     0.0000
       N       E                     dE             d eps       ncg     rms          rms(c)
DAV:   1    -0.532633945107E+03    0.12788E-01   -0.97377E+00  7920   0.444E+00    0.699E-01
DAV:   2    -0.532645849126E+03   -0.11904E-01   -0.14052E-01  9728   0.594E-01    0.309E-01
DAV:   3    -0.532645399739E+03    0.44939E-03   -0.26243E-03  9760   0.103E-01    0.184E-01
DAV:   4    -0.532645353664E+03    0.46076E-04   -0.10365E-03  9680   0.478E-02    0.877E-02
DAV:   5    -0.532645385038E+03   -0.31374E-04   -0.16097E-04 10096   0.248E-02    0.374E-02
DAV:   6    -0.532645386614E+03   -0.15762E-05   -0.29560E-05  9216   0.126E-02    0.193E-02
DAV:   7    -0.532645390775E+03   -0.41610E-05   -0.10338E-05  7984   0.460E-03    0.131E-02
DAV:   8    -0.532645391645E+03   -0.86977E-06   -0.29107E-06  6672   0.394E-03
 188 F= -.56510375E+03 E0= -.56509586E+03  d E =-.142126E-01  mag=     0.0000
       N       E                     dE             d eps       ncg     rms          rms(c)
DAV:   1    -0.532584500587E+03    0.60890E-01   -0.38952E+01  7920   0.887E+00    0.140E+00
DAV:   2    -0.532632677769E+03   -0.48177E-01   -0.57010E-01  9696   0.119E+00    0.619E-01
DAV:   3    -0.532630916438E+03    0.17613E-02   -0.10939E-02  9760   0.211E-01    0.369E-01
DAV:   4    -0.532630737918E+03    0.17852E-03   -0.41588E-03  9648   0.950E-02    0.179E-01
DAV:   5    -0.532630836936E+03   -0.99018E-04   -0.64073E-04  9984   0.494E-02    0.751E-02
DAV:   6    -0.532630840953E+03   -0.40169E-05   -0.12065E-04  9392   0.250E-02    0.384E-02
DAV:   7    -0.532630852286E+03   -0.11333E-04   -0.43145E-05  8496   0.929E-03    0.272E-02
DAV:   8    -0.532630852578E+03   -0.29296E-06   -0.11684E-05  8424   0.776E-03    0.872E-03
DAV:   9    -0.532630853969E+03   -0.13907E-05   -0.56689E-06  7040   0.375E-03    0.414E-03
DAV:  10    -0.532630853955E+03    0.13912E-07   -0.43986E-07  4560   0.120E-03
 189 F= -.56511190E+03 E0= -.56510420E+03  d E =-.223632E-01  mag=     0.0000
       N       E                     dE             d eps       ncg     rms          rms(c)
DAV:   1    -0.532643255013E+03   -0.12401E-01   -0.57826E+00  7920   0.362E+00    0.988E-01
DAV:   2    -0.532654710739E+03   -0.11456E-01   -0.12596E-01  9728   0.547E-01    0.288E-01
DAV:   3    -0.532654180960E+03    0.52978E-03   -0.21222E-03  9696   0.959E-02    0.162E-01
DAV:   4    -0.532654121587E+03    0.59372E-04   -0.88708E-04  9776   0.459E-02    0.661E-02
DAV:   5    -0.532654139268E+03   -0.17681E-04   -0.16256E-04  9272   0.214E-02    0.602E-02
DAV:   6    -0.532654141483E+03   -0.22152E-05   -0.18110E-05  9408   0.102E-02    0.362E-02
DAV:   7    -0.532654138454E+03    0.30289E-05   -0.90192E-06  7936   0.491E-03    0.249E-02
DAV:   8    -0.532654137386E+03    0.10681E-05   -0.59479E-06  7560   0.438E-03    0.518E-03
DAV:   9    -0.532654137249E+03    0.13696E-06   -0.10617E-06  4560   0.224E-03
 190 F= -.56512760E+03 E0= -.56512002E+03  d E =-.156965E-01  mag=     0.0000
       N       E                     dE             d eps       ncg     rms          rms(c)
DAV:   1    -0.532642167499E+03    0.11970E-01   -0.19102E+01  7920   0.658E+00    0.179E+00
DAV:   2    -0.532680400580E+03   -0.38233E-01   -0.42014E-01  9696   0.100E+00    0.526E-01
DAV:   3    -0.532678605214E+03    0.17954E-02   -0.71381E-03  9696   0.177E-01    0.297E-01
DAV:   4    -0.532678400609E+03    0.20461E-03   -0.29977E-03  9792   0.842E-02    0.121E-01
DAV:   5    -0.532678455304E+03   -0.54696E-04   -0.54450E-04  9504   0.396E-02    0.108E-01
DAV:   6    -0.532678463548E+03   -0.82436E-05   -0.63707E-05  9744   0.187E-02    0.651E-02
DAV:   7    -0.532678453970E+03    0.95778E-05   -0.30203E-05  8560   0.889E-03    0.462E-02
DAV:   8    -0.532678450895E+03    0.30752E-05   -0.18002E-05  8784   0.772E-03    0.812E-03
DAV:   9    -0.532678450622E+03    0.27331E-06   -0.34627E-06  6864   0.391E-03
 191 F= -.56513817E+03 E0= -.56513076E+03  d E =-.262679E-01  mag=     0.0000
       N       E                     dE             d eps       ncg     rms          rms(c)
DAV:   1    -0.532700399330E+03   -0.21948E-01   -0.38494E+00  7856   0.286E+00    0.776E-01
DAV:   2    -0.532707622462E+03   -0.72231E-02   -0.91030E-02  9680   0.463E-01    0.329E-01
DAV:   3    -0.532707127801E+03    0.49466E-03   -0.24909E-03  9408   0.992E-02    0.197E-01
DAV:   4    -0.532707041874E+03    0.85927E-04   -0.47723E-04  9840   0.436E-02    0.881E-02
DAV:   5    -0.532707045727E+03   -0.38533E-05   -0.20882E-04  8848   0.210E-02    0.384E-02
DAV:   6    -0.532707040358E+03    0.53692E-05   -0.23432E-05  9328   0.107E-02    0.300E-02
DAV:   7    -0.532707037649E+03    0.27090E-05   -0.10740E-05  8240   0.478E-03    0.166E-02
DAV:   8    -0.532707035834E+03    0.18149E-05   -0.39308E-06  7024   0.349E-03    0.465E-03
DAV:   9    -0.532707035187E+03    0.64676E-06   -0.80855E-07  4512   0.169E-03
 192 F= -.56514989E+03 E0= -.56514251E+03  d E =-.117256E-01  mag=    -0.0000
       N       E                     dE             d eps       ncg     rms          rms(c)
DAV:   1    -0.532723940570E+03   -0.16905E-01   -0.58578E+00  7856   0.353E+00    0.959E-01
DAV:   2    -0.532734929223E+03   -0.10989E-01   -0.13861E-01  9680   0.571E-01    0.410E-01
DAV:   3    -0.532734170091E+03    0.75913E-03   -0.38354E-03  9408   0.123E-01    0.246E-01
DAV:   4    -0.532734037318E+03    0.13277E-03   -0.73330E-04  9840   0.542E-02    0.109E-01
DAV:   5    -0.532734044766E+03   -0.74476E-05   -0.31860E-04  8872   0.260E-02    0.475E-02
DAV:   6    -0.532734037715E+03    0.70508E-05   -0.35905E-05  9480   0.133E-02    0.371E-02
DAV:   7    -0.532734034242E+03    0.34729E-05   -0.16566E-05  8528   0.594E-03    0.206E-02
DAV:   8    -0.532734031836E+03    0.24060E-05   -0.61531E-06  7744   0.434E-03    0.584E-03
DAV:   9    -0.532734031111E+03    0.72492E-06   -0.11740E-06  4576   0.205E-03
 193 F= -.56515613E+03 E0= -.56514877E+03  d E =-.179603E-01  mag=    -0.0000
       N       E                     dE             d eps       ncg     rms          rms(c)
DAV:   1    -0.532770278909E+03   -0.36247E-01   -0.52265E+00  7984   0.346E+00    0.100E+00
DAV:   2    -0.532781080434E+03   -0.10802E-01   -0.14043E-01  9664   0.552E-01    0.372E-01
DAV:   3    -0.532779958027E+03    0.11224E-02   -0.31249E-03  9568   0.122E-01    0.210E-01
DAV:   4    -0.532779768594E+03    0.18943E-03   -0.13747E-03  9760   0.568E-02    0.782E-02
DAV:   5    -0.532779771478E+03   -0.28839E-05   -0.26876E-04  9168   0.243E-02    0.509E-02
DAV:   6    -0.532779762859E+03    0.86196E-05   -0.16153E-05 10400   0.106E-02    0.343E-02
DAV:   7    -0.532779757038E+03    0.58208E-05   -0.10039E-05  8768   0.548E-03    0.158E-02
DAV:   8    -0.532779753295E+03    0.37431E-05   -0.23615E-06  5728   0.345E-03    0.271E-03
DAV:   9    -0.532779753082E+03    0.21320E-06   -0.53115E-07  4512   0.163E-03
 194 F= -.56517069E+03 E0= -.56516334E+03  d E =-.145596E-01  mag=     0.0000
       N       E                     dE             d eps       ncg     rms          rms(c)
DAV:   1    -0.532807154287E+03   -0.27401E-01   -0.28140E+01  7984   0.803E+00    0.231E+00
DAV:   2    -0.532866952643E+03   -0.59798E-01   -0.76589E-01  9680   0.128E+00    0.867E-01
DAV:   3    -0.532860807865E+03    0.61448E-02   -0.17279E-02  9456   0.287E-01    0.499E-01
DAV:   4    -0.532859716346E+03    0.10915E-02   -0.78317E-03  9744   0.138E-01    0.182E-01
DAV:   5    -0.532859760059E+03   -0.43713E-04   -0.14415E-03  9280   0.569E-02    0.119E-01
DAV:   6    -0.532859734653E+03    0.25405E-04   -0.90062E-05 10688   0.254E-02    0.798E-02
DAV:   7    -0.532859722305E+03    0.12348E-04   -0.58923E-05  9072   0.130E-02    0.391E-02
DAV:   8    -0.532859714202E+03    0.81036E-05   -0.17037E-05  8816   0.834E-03    0.813E-03
DAV:   9    -0.532859713212E+03    0.98962E-06   -0.28863E-06  6928   0.386E-03
 195 F= -.56517859E+03 E0= -.56517126E+03  d E =-.224597E-01  mag=     0.0000
       N       E                     dE             d eps       ncg     rms          rms(c)
DAV:   1    -0.532836246133E+03    0.23468E-01   -0.23580E+00  7952   0.233E+00    0.685E-01
DAV:   2    -0.532841036450E+03   -0.47903E-02   -0.62922E-02  9664   0.369E-01    0.246E-01
DAV:   3    -0.532840549475E+03    0.48697E-03   -0.14168E-03  9584   0.808E-02    0.137E-01
DAV:   4    -0.532840474228E+03    0.75247E-04   -0.57676E-04  9696   0.370E-02    0.520E-02
DAV:   5    -0.532840488221E+03   -0.13993E-04   -0.12077E-04  8896   0.156E-02    0.337E-02
DAV:   6    -0.532840491761E+03   -0.35398E-05   -0.68325E-06  9232   0.657E-03    0.231E-02
DAV:   7    -0.532840496956E+03   -0.51949E-05   -0.40305E-06  7440   0.381E-03    0.924E-03
DAV:   8    -0.532840499271E+03   -0.23149E-05   -0.80817E-07  4704   0.237E-03    0.181E-03
DAV:   9    -0.532840499340E+03   -0.69820E-07   -0.26698E-07  4448   0.105E-03
 196 F= -.56518019E+03 E0= -.56517286E+03  d E =-.240649E-01  mag=    -0.0000
       N       E                     dE             d eps       ncg     rms          rms(c)
DAV:   1    -0.532801302276E+03    0.39197E-01   -0.65683E+00  7952   0.389E+00    0.107E+00
DAV:   2    -0.532811427082E+03   -0.10125E-01   -0.19379E-01  9616   0.663E-01    0.441E-01
DAV:   3    -0.532809634171E+03    0.17929E-02   -0.58583E-03  9472   0.169E-01    0.251E-01
DAV:   4    -0.532809409851E+03    0.22432E-03   -0.33143E-03  9472   0.886E-02    0.115E-01
DAV:   5    -0.532809410278E+03   -0.42778E-06   -0.32858E-04  9632   0.412E-02    0.562E-02
DAV:   6    -0.532809430472E+03   -0.20194E-04   -0.86266E-05  8992   0.152E-02    0.266E-02
DAV:   7    -0.532809442321E+03   -0.11849E-04   -0.13780E-05  9632   0.595E-03    0.142E-02
DAV:   8    -0.532809447207E+03   -0.48859E-05   -0.14018E-06  5488   0.241E-03    0.425E-03
DAV:   9    -0.532809448509E+03   -0.13026E-05   -0.68508E-07  4528   0.139E-03    0.166E-03
DAV:  10    -0.532809448611E+03   -0.10205E-06   -0.16135E-07  4448   0.802E-04
 197 F= -.56519121E+03 E0= -.56518394E+03  d E =-.110109E-01  mag=     0.0000
       N       E                     dE             d eps       ncg     rms          rms(c)
DAV:   1    -0.532748919924E+03    0.60529E-01   -0.10084E+01  7888   0.482E+00    0.133E+00
DAV:   2    -0.532764513946E+03   -0.15594E-01   -0.29842E-01  9616   0.824E-01    0.549E-01
DAV:   3    -0.532761740529E+03    0.27734E-02   -0.90295E-03  9456   0.210E-01    0.312E-01
DAV:   4    -0.532761391412E+03    0.34912E-03   -0.51339E-03  9456   0.110E-01    0.143E-01
DAV:   5    -0.532761382852E+03    0.85604E-05   -0.50933E-04  9616   0.513E-02    0.702E-02
DAV:   6    -0.532761410658E+03   -0.27806E-04   -0.13534E-04  8992   0.188E-02    0.333E-02
DAV:   7    -0.532761426072E+03   -0.15414E-04   -0.21316E-05  9840   0.741E-03    0.178E-02
DAV:   8    -0.532761432307E+03   -0.62350E-05   -0.22474E-06  6432   0.299E-03    0.551E-03
DAV:   9    -0.532761433917E+03   -0.16094E-05   -0.96111E-07  4608   0.162E-03    0.194E-03
DAV:  10    -0.532761434154E+03   -0.23719E-06   -0.22822E-07  4448   0.893E-04
 198 F= -.56519543E+03 E0= -.56518823E+03  d E =-.152390E-01  mag=     0.0000
       N       E                     dE             d eps       ncg     rms          rms(c)
DAV:   1    -0.532727209996E+03    0.34224E-01   -0.79844E+00  7888   0.428E+00    0.107E+00
DAV:   2    -0.532742889719E+03   -0.15680E-01   -0.23633E-01  9616   0.711E-01    0.474E-01
DAV:   3    -0.532741005876E+03    0.18838E-02   -0.53372E-03  9488   0.169E-01    0.279E-01
DAV:   4    -0.532740780821E+03    0.22505E-03   -0.32688E-03  9408   0.842E-02    0.137E-01
DAV:   5    -0.532740803871E+03   -0.23049E-04   -0.34324E-04 10080   0.414E-02    0.651E-02
DAV:   6    -0.532740812055E+03   -0.81850E-05   -0.86378E-05  9336   0.193E-02    0.311E-02
DAV:   7    -0.532740821459E+03   -0.94036E-05   -0.25206E-05  8768   0.712E-03    0.232E-02
DAV:   8    -0.532740823724E+03   -0.22649E-05   -0.43629E-06  7376   0.453E-03    0.657E-03
DAV:   9    -0.532740824835E+03   -0.11114E-05   -0.21966E-06  5264   0.231E-03    0.260E-03
DAV:  10    -0.532740824912E+03   -0.77038E-07   -0.23721E-07  4448   0.913E-04
 199 F= -.56520726E+03 E0= -.56520010E+03  d E =-.118288E-01  mag=     0.0000
       N       E                     dE             d eps       ncg     rms          rms(c)
DAV:   1    -0.532632180046E+03    0.10864E+00   -0.28789E+01  7904   0.812E+00    0.203E+00
DAV:   2    -0.532689288249E+03   -0.57108E-01   -0.86228E-01  9600   0.135E+00    0.907E-01
DAV:   3    -0.532682421242E+03    0.68670E-02   -0.19821E-02  9488   0.326E-01    0.532E-01
DAV:   4    -0.532681629727E+03    0.79151E-03   -0.12011E-02  9496   0.162E-01    0.263E-01
DAV:   5    -0.532681662228E+03   -0.32501E-04   -0.12578E-03 10016   0.796E-02    0.127E-01
DAV:   6    -0.532681681152E+03   -0.18923E-04   -0.32379E-04  9392   0.362E-02    0.602E-02
DAV:   7    -0.532681704606E+03   -0.23454E-04   -0.95366E-05  9032   0.139E-02    0.452E-02
DAV:   8    -0.532681706184E+03   -0.15785E-05   -0.14431E-05  9120   0.829E-03    0.147E-02
DAV:   9    -0.532681708882E+03   -0.26980E-05   -0.86232E-06  7832   0.426E-03    0.567E-03
DAV:  10    -0.532681708873E+03    0.87748E-08   -0.59396E-07  4592   0.141E-03
 200 F= -.56520997E+03 E0= -.56520286E+03  d E =-.145335E-01  mag=    -0.0000
