   8   8   0   0
  0.2379200E+02  0.6973433E-09  0.6973433E-09  0.5965543E-09  0.1500000E-16
   1.0000000000000000E-004
  CAR 
 unknown system                          
     11.60549789    -20.53935647  301      3.68982750      1.00000000
    -20.539  0.0000E+00  0.0000E+00
    -20.432  0.0000E+00  0.0000E+00
    -20.325  0.0000E+00  0.0000E+00
    -20.218  0.0000E+00  0.0000E+00
    -20.111  0.0000E+00  0.0000E+00
    -20.004  0.0000E+00  0.0000E+00
    -19.896  0.0000E+00  0.0000E+00
    -19.789  0.0000E+00  0.0000E+00
    -19.682  0.0000E+00  0.0000E+00
    -19.575  0.0000E+00  0.0000E+00
    -19.468  0.0000E+00  0.0000E+00
    -19.361  0.9587E-16  0.1027E-16
    -19.254  0.6716E-07  0.7196E-08
    -19.146  0.8384E-02  0.8983E-03
    -19.039  0.5891E+00  0.6402E-01
    -18.932  0.2444E+00  0.9020E-01
    -18.825  0.2167E-03  0.9023E-01
    -18.718  0.4990E-10  0.9023E-01
    -18.611  0.0000E+00  0.9023E-01
    -18.504  0.0000E+00  0.9023E-01
    -18.396  0.0000E+00  0.9023E-01
    -18.289  0.0000E+00  0.9023E-01
    -18.182  0.0000E+00  0.9023E-01
    -18.075  0.0000E+00  0.9023E-01
    -17.968  0.0000E+00  0.9023E-01
    -17.861  0.0000E+00  0.9023E-01
    -17.753  0.0000E+00  0.9023E-01
    -17.646  0.0000E+00  0.9023E-01
    -17.539  0.0000E+00  0.9023E-01
    -17.432  0.0000E+00  0.9023E-01
    -17.325  0.0000E+00  0.9023E-01
    -17.218  0.0000E+00  0.9023E-01
    -17.111  0.0000E+00  0.9023E-01
    -17.003  0.0000E+00  0.9023E-01
    -16.896  0.0000E+00  0.9023E-01
    -16.789  0.0000E+00  0.9023E-01
    -16.682  0.0000E+00  0.9023E-01
    -16.575  0.0000E+00  0.9023E-01
    -16.468  0.0000E+00  0.9023E-01
    -16.361  0.0000E+00  0.9023E-01
    -16.253  0.0000E+00  0.9023E-01
    -16.146  0.0000E+00  0.9023E-01
    -16.039  0.0000E+00  0.9023E-01
    -15.932  0.0000E+00  0.9023E-01
    -15.825  0.0000E+00  0.9023E-01
    -15.718  0.0000E+00  0.9023E-01
    -15.610  0.0000E+00  0.9023E-01
    -15.503  0.0000E+00  0.9023E-01
    -15.396  0.0000E+00  0.9023E-01
    -15.289  0.0000E+00  0.9023E-01
    -15.182  0.0000E+00  0.9023E-01
    -15.075  0.0000E+00  0.9023E-01
    -14.968  0.0000E+00  0.9023E-01
    -14.860  0.0000E+00  0.9023E-01
    -14.753  0.0000E+00  0.9023E-01
    -14.646  0.0000E+00  0.9023E-01
    -14.539  0.0000E+00  0.9023E-01
    -14.432  0.0000E+00  0.9023E-01
    -14.325  0.0000E+00  0.9023E-01
    -14.218  0.0000E+00  0.9023E-01
    -14.110  0.0000E+00  0.9023E-01
    -14.003  0.0000E+00  0.9023E-01
    -13.896  0.0000E+00  0.9023E-01
    -13.789  0.0000E+00  0.9023E-01
    -13.682  0.0000E+00  0.9023E-01
    -13.575  0.0000E+00  0.9023E-01
    -13.467  0.0000E+00  0.9023E-01
    -13.360  0.0000E+00  0.9023E-01
    -13.253  0.0000E+00  0.9023E-01
    -13.146  0.0000E+00  0.9023E-01
    -13.039  0.0000E+00  0.9023E-01
    -12.932  0.0000E+00  0.9023E-01
    -12.825  0.0000E+00  0.9023E-01
    -12.717  0.0000E+00  0.9023E-01
    -12.610  0.0000E+00  0.9023E-01
    -12.503  0.0000E+00  0.9023E-01
    -12.396  0.0000E+00  0.9023E-01
    -12.289  0.0000E+00  0.9023E-01
    -12.182  0.0000E+00  0.9023E-01
    -12.075  0.0000E+00  0.9023E-01
    -11.967  0.0000E+00  0.9023E-01
    -11.860  0.0000E+00  0.9023E-01
    -11.753  0.0000E+00  0.9023E-01
    -11.646  0.0000E+00  0.9023E-01
    -11.539  0.0000E+00  0.9023E-01
    -11.432  0.0000E+00  0.9023E-01
    -11.324  0.0000E+00  0.9023E-01
    -11.217  0.0000E+00  0.9023E-01
    -11.110  0.0000E+00  0.9023E-01
    -11.003  0.0000E+00  0.9023E-01
    -10.896  0.0000E+00  0.9023E-01
    -10.789  0.0000E+00  0.9023E-01
    -10.682  0.0000E+00  0.9023E-01
    -10.574  0.0000E+00  0.9023E-01
    -10.467  0.0000E+00  0.9023E-01
    -10.360  0.0000E+00  0.9023E-01
    -10.253  0.0000E+00  0.9023E-01
    -10.146  0.0000E+00  0.9023E-01
    -10.039  0.0000E+00  0.9023E-01
     -9.932  0.6407E-10  0.9023E-01
     -9.824  0.2457E-04  0.9023E-01
     -9.717  0.2840E-02  0.9053E-01
     -9.610  0.7374E-02  0.9132E-01
     -9.503  0.5634E-02  0.9193E-01
     -9.396  0.1858E-01  0.9392E-01
     -9.289  0.4056E-01  0.9826E-01
     -9.182  0.2898E-01  0.1014E+00
     -9.074  0.6176E-02  0.1020E+00
     -8.967  0.2020E-01  0.1042E+00
     -8.860  0.1148E-01  0.1054E+00
     -8.753  0.3142E-01  0.1088E+00
     -8.646  0.2609E-01  0.1116E+00
     -8.539  0.3352E-02  0.1119E+00
     -8.431  0.1135E-02  0.1121E+00
     -8.324  0.3812E-01  0.1162E+00
     -8.217  0.2440E-01  0.1188E+00
     -8.110  0.3124E-01  0.1221E+00
     -8.003  0.9250E-01  0.1320E+00
     -7.896  0.1036E+00  0.1431E+00
     -7.789  0.5113E-01  0.1486E+00
     -7.681  0.1642E-01  0.1504E+00
     -7.574  0.6779E-04  0.1504E+00
     -7.467  0.1221E-09  0.1504E+00
     -7.360  0.0000E+00  0.1504E+00
     -7.253  0.0000E+00  0.1504E+00
     -7.146  0.0000E+00  0.1504E+00
     -7.039  0.0000E+00  0.1504E+00
     -6.931  0.0000E+00  0.1504E+00
     -6.824  0.0000E+00  0.1504E+00
     -6.717  0.0000E+00  0.1504E+00
     -6.610  0.0000E+00  0.1504E+00
     -6.503  0.0000E+00  0.1504E+00
     -6.396  0.0000E+00  0.1504E+00
     -6.288  0.0000E+00  0.1504E+00
     -6.181  0.0000E+00  0.1504E+00
     -6.074  0.0000E+00  0.1504E+00
     -5.967  0.0000E+00  0.1504E+00
     -5.860  0.0000E+00  0.1504E+00
     -5.753  0.0000E+00  0.1504E+00
     -5.646  0.3550E-09  0.1504E+00
     -5.538  0.1154E-03  0.1504E+00
     -5.431  0.1117E-01  0.1516E+00
     -5.324  0.6084E-02  0.1522E+00
     -5.217  0.2680E-01  0.1551E+00
     -5.110  0.3326E-02  0.1555E+00
     -5.003  0.1708E-01  0.1573E+00
     -4.896  0.9889E-02  0.1584E+00
     -4.788  0.1784E-01  0.1603E+00
     -4.681  0.1179E-01  0.1615E+00
     -4.574  0.1226E-01  0.1628E+00
     -4.467  0.1448E-01  0.1644E+00
     -4.360  0.1826E-01  0.1664E+00
     -4.253  0.2242E-01  0.1688E+00
     -4.145  0.2449E-01  0.1714E+00
     -4.038  0.2201E-01  0.1737E+00
     -3.931  0.7174E-02  0.1745E+00
     -3.824  0.8701E-02  0.1754E+00
     -3.717  0.4253E-02  0.1759E+00
     -3.610  0.4024E-02  0.1763E+00
     -3.503  0.1079E-01  0.1775E+00
     -3.395  0.5145E-02  0.1780E+00
     -3.288  0.7723E-02  0.1789E+00
     -3.181  0.1049E-01  0.1800E+00
     -3.074  0.1896E-02  0.1802E+00
     -2.967  0.2466E-02  0.1804E+00
     -2.860  0.1426E-04  0.1805E+00
     -2.753  0.2165E-10  0.1805E+00
     -2.645  0.0000E+00  0.1805E+00
     -2.538  0.0000E+00  0.1805E+00
     -2.431  0.0000E+00  0.1805E+00
     -2.324  0.0000E+00  0.1805E+00
     -2.217  0.0000E+00  0.1805E+00
     -2.110  0.0000E+00  0.1805E+00
     -2.002  0.0000E+00  0.1805E+00
     -1.895  0.0000E+00  0.1805E+00
     -1.788  0.0000E+00  0.1805E+00
     -1.681  0.0000E+00  0.1805E+00
     -1.574  0.6493E-13  0.1805E+00
     -1.467  0.8572E-06  0.1805E+00
     -1.360  0.2495E-02  0.1807E+00
     -1.252  0.1582E-01  0.1824E+00
     -1.145  0.1266E-01  0.1838E+00
     -1.038  0.1446E-01  0.1853E+00
     -0.931  0.6159E-02  0.1860E+00
     -0.824  0.1047E-01  0.1871E+00
     -0.717  0.1305E-01  0.1885E+00
     -0.610  0.1854E-01  0.1905E+00
     -0.502  0.3921E-01  0.1947E+00
     -0.395  0.3034E-01  0.1979E+00
     -0.288  0.3807E-01  0.2020E+00
     -0.181  0.2341E-01  0.2045E+00
     -0.074  0.2608E-01  0.2073E+00
      0.033  0.3213E-01  0.2108E+00
      0.140  0.6846E-01  0.2181E+00
      0.248  0.1586E-01  0.2198E+00
      0.355  0.4447E-01  0.2246E+00
      0.462  0.2006E-01  0.2267E+00
      0.569  0.2609E-01  0.2295E+00
      0.676  0.3747E-01  0.2335E+00
      0.783  0.5606E-01  0.2395E+00
      0.891  0.2015E-01  0.2417E+00
      0.998  0.2535E-01  0.2444E+00
      1.105  0.2612E-01  0.2472E+00
      1.212  0.5405E-01  0.2530E+00
      1.319  0.3836E-01  0.2571E+00
      1.426  0.5428E-01  0.2629E+00
      1.533  0.3772E-01  0.2670E+00
      1.641  0.4366E-01  0.2716E+00
      1.748  0.3268E-01  0.2751E+00
      1.855  0.3189E-01  0.2786E+00
      1.962  0.3251E-01  0.2820E+00
      2.069  0.8761E-01  0.2914E+00
      2.176  0.4936E-01  0.2967E+00
      2.283  0.5792E-01  0.3029E+00
      2.391  0.6610E-01  0.3100E+00
      2.498  0.7553E-01  0.3181E+00
      2.605  0.7332E-01  0.3260E+00
      2.712  0.7350E-01  0.3338E+00
      2.819  0.3788E-01  0.3379E+00
      2.926  0.2118E-01  0.3402E+00
      3.034  0.2420E-01  0.3428E+00
      3.141  0.3874E-01  0.3469E+00
      3.248  0.4620E-01  0.3519E+00
      3.355  0.4243E-01  0.3564E+00
      3.462  0.3481E-01  0.3601E+00
      3.569  0.7165E-02  0.3609E+00
      3.676  0.6662E-05  0.3609E+00
      3.784  0.1501E-11  0.3609E+00
      3.891  0.0000E+00  0.3609E+00
      3.998  0.0000E+00  0.3609E+00
      4.105  0.0000E+00  0.3609E+00
      4.212  0.0000E+00  0.3609E+00
      4.319  0.0000E+00  0.3609E+00
      4.426  0.0000E+00  0.3609E+00
      4.534  0.0000E+00  0.3609E+00
      4.641  0.0000E+00  0.3609E+00
      4.748  0.5873E-15  0.3609E+00
      4.855  0.5165E-07  0.3609E+00
      4.962  0.7217E-03  0.3610E+00
      5.069  0.8897E-02  0.3619E+00
      5.177  0.1337E-01  0.3634E+00
      5.284  0.5701E-03  0.3634E+00
      5.391  0.6402E-02  0.3641E+00
      5.498  0.1905E-02  0.3643E+00
      5.605  0.1364E-01  0.3658E+00
      5.712  0.1514E-01  0.3674E+00
      5.819  0.2143E-01  0.3697E+00
      5.927  0.4042E-01  0.3740E+00
      6.034  0.4513E-01  0.3789E+00
      6.141  0.5246E-01  0.3845E+00
      6.248  0.2179E-01  0.3868E+00
      6.355  0.1699E-01  0.3886E+00
      6.462  0.2595E-01  0.3914E+00
      6.569  0.1238E-01  0.3927E+00
      6.677  0.2196E-01  0.3951E+00
      6.784  0.7034E-01  0.4026E+00
      6.891  0.5634E-01  0.4087E+00
      6.998  0.2125E-01  0.4109E+00
      7.105  0.1321E-01  0.4124E+00
      7.212  0.3270E-01  0.4159E+00
      7.320  0.3913E-01  0.4201E+00
      7.427  0.4020E-01  0.4244E+00
      7.534  0.3597E-01  0.4282E+00
      7.641  0.1778E-01  0.4301E+00
      7.748  0.9086E-02  0.4311E+00
      7.855  0.2244E-01  0.4335E+00
      7.962  0.3379E-01  0.4371E+00
      8.070  0.1149E-01  0.4384E+00
      8.177  0.2561E-01  0.4411E+00
      8.284  0.1510E-01  0.4427E+00
      8.391  0.1873E-01  0.4447E+00
      8.498  0.2041E-01  0.4469E+00
      8.605  0.8146E-02  0.4478E+00
      8.712  0.3666E-02  0.4482E+00
      8.820  0.2494E-01  0.4509E+00
      8.927  0.1502E-01  0.4525E+00
      9.034  0.2670E-01  0.4553E+00
      9.141  0.2852E-01  0.4584E+00
      9.248  0.4457E-01  0.4632E+00
      9.355  0.2813E-01  0.4662E+00
      9.463  0.1172E-01  0.4674E+00
      9.570  0.1558E-01  0.4691E+00
      9.677  0.2479E-01  0.4717E+00
      9.784  0.3875E-01  0.4759E+00
      9.891  0.2539E-01  0.4786E+00
      9.998  0.8058E-03  0.4787E+00
     10.105  0.1181E-01  0.4800E+00
     10.213  0.1128E-01  0.4812E+00
     10.320  0.2128E-03  0.4812E+00
     10.427  0.2759E-08  0.4812E+00
     10.534  0.5194E-17  0.4812E+00
     10.641  0.0000E+00  0.4812E+00
     10.748  0.0000E+00  0.4812E+00
     10.855  0.0000E+00  0.4812E+00
     10.963  0.0000E+00  0.4812E+00
     11.070  0.0000E+00  0.4812E+00
     11.177  0.0000E+00  0.4812E+00
     11.284  0.0000E+00  0.4812E+00
     11.391  0.0000E+00  0.4812E+00
     11.498  0.0000E+00  0.4812E+00
     11.605  0.0000E+00  0.4812E+00
