 vasp.6.3.2 27Jun22 (build Jun 14 2024 17:29:11) complex                         
 executed on             LinuxGNU date 2026.03.30  12:44:49
 running on    8 total cores
 distrk:  each k-point on    8 cores,    1 groups
 distr:  one band on NCORE=   1 cores,    8 groups


--------------------------------------------------------------------------------------------------------


 INCAR:
   EDIFF = 1e-06
   ENCUT = 400.0
   IBRION = 6
   ISIF = 3
   ISMEAR = 0
   LCHARG = False
   LREAL = Auto
   LWAVE = False
   NFREE = 4
   NSW = 1
   POTIM = 0.015
   SIGMA = 0.05

 POTCAR:    PAW_PBE Na_pv 19Sep2006               
 POTCAR:    PAW_PBE Sb 06Sep2000                  
 POTCAR:    PAW_PBE S 06Sep2000                   
 -----------------------------------------------------------------------------
|                                                                             |
|           W    W    AA    RRRRR   N    N  II  N    N   GGGG   !!!           |
|           W    W   A  A   R    R  NN   N  II  NN   N  G    G  !!!           |
|           W    W  A    A  R    R  N N  N  II  N N  N  G       !!!           |
|           W WW W  AAAAAA  RRRRR   N  N N  II  N  N N  G  GGG   !            |
|           WW  WW  A    A  R   R   N   NN  II  N   NN  G    G                |
|           W    W  A    A  R    R  N    N  II  N    N   GGGG   !!!           |
|                                                                             |
|     For optimal performance we recommend to set                             |
|       NCORE = 2 up to number-of-cores-per-socket                            |
|     NCORE specifies how many cores store one orbital (NPAR=cpu/NCORE).      |
|     This setting can greatly improve the performance of VASP for DFT.       |
|     The default, NCORE=1 might be grossly inefficient on modern             |
|     multi-core architectures or massively parallel machines. Do your        |
|     own testing! More info at https://www.vasp.at/wiki/index.php/NCORE      |
|     Unfortunately you need to use the default for GW and RPA                |
|     calculations (for HF NCORE is supported but not extensively tested      |
|     yet).                                                                   |
|                                                                             |
 -----------------------------------------------------------------------------

 POTCAR:    PAW_PBE Na_pv 19Sep2006               
   SHA256 =  6a2f546d9e11350984debacf3dc457d8cffc0868e817d445faca461816a32b94 Na_pv/POTCAR          
   COPYR  = (c) Copyright 19Sep2006 Georg Kresse                                                    
   COPYR  = This file is part of the software VASP. Any use, copying, and all other rights are regul
   COPYR  = If you do not have a valid VASP license, you may not use, copy or distribute this file. 
   VRHFIN =Na: p6s1                                                                                 
   LEXCH  = PE                                                                                      
   EATOM  =   766.0439 eV,   56.3026 Ry                                                             
                                                                                                    
   TITEL  = PAW_PBE Na_pv 19Sep2006                                                                 
   LULTRA =        F    use ultrasoft PP ?                                                          
   IUNSCR =        1    unscreen: 0-lin 1-nonlin 2-no                                               
   RPACOR =    1.800    partial core radius                                                         
   POMASS =   22.990; ZVAL   =    7.000    mass and valenz                                          
   RCORE  =    2.200    outmost cutoff radius                                                       
   RWIGS  =    2.200; RWIGS  =    1.164    wigner-seitz radius (au A)                               
   ENMAX  =  259.561; ENMIN  =  194.671 eV                                                          
   ICORE  =        2    local potential                                                             
   LCOR   =        T    correct aug charges                                                         
   LPAW   =        T    paw PP                                                                      
   EAUG   =  368.056                                                                                
   DEXC   =    0.000                                                                                
   RMAX   =    2.245    core radius for proj-oper                                                   
   RAUG   =    1.300    factor for augmentation sphere                                              
   RDEP   =    2.259    radius for radial grids                                                     
   RDEPT  =    1.738    core radius for aug-charge                                                  
                                                                                                    
   Atomic configuration                                                                             
    5 entries                                                                                       
     n  l   j            E        occ.                                                              
     1  0  0.50     -1033.6933   2.0000                                                             
     2  0  0.50       -56.7526   2.0000                                                             
     2  1  1.50       -28.6721   6.0000                                                             
     3  0  0.50        -2.7440   1.0000                                                             
     3  2  1.50        -1.3606   0.0000                                                             
   Description                                                                                      
     l       E           TYP  RCUT    TYP  RCUT                                                     
     1    -28.6720912     23  2.000                                                                 
     1      6.8029130     23  2.000                                                                 
     0     -2.7439560     23  2.200                                                                 
     0     34.0145650     23  2.200                                                                 
     2     -1.3605826     23  2.200                                                                 
  local pseudopotential read in
  partial core-charges read in
  partial kinetic energy density read in
  atomic valenz-charges read in
  non local Contribution for L=           1  read in
    real space projection operators read in
  non local Contribution for L=           1  read in
    real space projection operators read in
  non local Contribution for L=           0  read in
    real space projection operators read in
  non local Contribution for L=           0  read in
    real space projection operators read in
    PAW grid and wavefunctions read in

   number of l-projection  operators is LMAX  =           4
   number of lm-projection operators is LMMAX =           8

 POTCAR:    PAW_PBE Sb 06Sep2000                  
   SHA256 =  8a1325a3afd8ca988779475cff04188eb880a428d1acb53275fe456fa3b784fc Sb/POTCAR             
   COPYR  = (c) Copyright 06Sep2000 Georg Kresse                                                    
   COPYR  = This file is part of the software VASP. Any use, copying, and all other rights are regul
   COPYR  = If you do not have a valid VASP license, you may not use, copy or distribute this file. 
   VRHFIN =Sb: s2p3                                                                                 
   LEXCH  = PE                                                                                      
   EATOM  =   149.9515 eV,   11.0211 Ry                                                             
                                                                                                    
   TITEL  = PAW_PBE Sb 06Sep2000                                                                    
   LULTRA =        F    use ultrasoft PP ?                                                          
   IUNSCR =        1    unscreen: 0-lin 1-nonlin 2-no                                               
   RPACOR =    2.200    partial core radius                                                         
   POMASS =  121.750; ZVAL   =    5.000    mass and valenz                                          
   RCORE  =    2.300    outmost cutoff radius                                                       
   RWIGS  =    2.980; RWIGS  =    1.577    wigner-seitz radius (au A)                               
   ENMAX  =  172.069; ENMIN  =  129.052 eV                                                          
   ICORE  =        3    local potential                                                             
   LCOR   =        T    correct aug charges                                                         
   LPAW   =        T    paw PP                                                                      
   EAUG   =  380.513                                                                                
   DEXC   =    0.000                                                                                
   RMAX   =    2.346    core radius for proj-oper                                                   
   RAUG   =    1.300    factor for augmentation sphere                                              
   RDEP   =    2.360    radius for radial grids                                                     
   RDEPT  =    2.192    core radius for aug-charge                                                  
                                                                                                    
   Atomic configuration                                                                             
   13 entries                                                                                       
     n  l   j            E        occ.                                                              
     1  0  0.50    -30298.2797   2.0000                                                             
     2  0  0.50     -4610.2252   2.0000                                                             
     2  1  1.50     -4138.3407   6.0000                                                             
     3  0  0.50      -903.8815   2.0000                                                             
     3  1  1.50      -750.1337   6.0000                                                             
     3  2  2.50      -515.7092  10.0000                                                             
     4  0  0.50      -148.8034   2.0000                                                             
     4  1  1.50      -101.7581   6.0000                                                             
     4  2  2.50       -33.5048  10.0000                                                             
     5  0  0.50       -12.8298   2.0000                                                             
     5  1  0.50        -4.8276   3.0000                                                             
     5  2  1.50        -4.0817   0.0000                                                             
     4  3  2.50        -4.0817   0.0000                                                             
   Description                                                                                      
     l       E           TYP  RCUT    TYP  RCUT                                                     
     0    -12.8297861     23  2.300                                                                 
     0     13.6058260     23  2.300                                                                 
     1     -4.8275512     23  2.300                                                                 
     1     -0.7245443     23  2.300                                                                 
     2     -4.0817478     23  2.300                                                                 
     3     -1.3605826     23  2.300                                                                 
  local pseudopotential read in
  partial core-charges read in
  partial kinetic energy density read in
  atomic valenz-charges read in
  non local Contribution for L=           0  read in
    real space projection operators read in
  non local Contribution for L=           0  read in
    real space projection operators read in
  non local Contribution for L=           1  read in
    real space projection operators read in
  non local Contribution for L=           1  read in
    real space projection operators read in
  non local Contribution for L=           2  read in
    real space projection operators read in
    PAW grid and wavefunctions read in

   number of l-projection  operators is LMAX  =           5
   number of lm-projection operators is LMMAX =          13

 POTCAR:    PAW_PBE S 06Sep2000                   
   SHA256 =  0fc7481fb0695f01bdc6462160264c5c84044ae9ec85a907d398b887a2bc3132 S/POTCAR              
   COPYR  = (c) Copyright 06Sep2000 Georg Kresse                                                    
   COPYR  = This file is part of the software VASP. Any use, copying, and all other rights are regul
   COPYR  = If you do not have a valid VASP license, you may not use, copy or distribute this file. 
   VRHFIN =S : s2p4                                                                                 
   LEXCH  = PE                                                                                      
   EATOM  =   276.8230 eV,   20.3459 Ry                                                             
                                                                                                    
   TITEL  = PAW_PBE S 06Sep2000                                                                     
   LULTRA =        F    use ultrasoft PP ?                                                          
   IUNSCR =        1    unscreen: 0-lin 1-nonlin 2-no                                               
   RPACOR =    1.500    partial core radius                                                         
   POMASS =   32.066; ZVAL   =    6.000    mass and valenz                                          
   RCORE  =    1.900    outmost cutoff radius                                                       
   RWIGS  =    2.200; RWIGS  =    1.164    wigner-seitz radius (au A)                               
   ENMAX  =  258.689; ENMIN  =  194.016 eV                                                          
   ICORE  =        2    local potential                                                             
   LCOR   =        T    correct aug charges                                                         
   LPAW   =        T    paw PP                                                                      
   EAUG   =  335.092                                                                                
   DEXC   =    0.000                                                                                
   RMAX   =    1.942    core radius for proj-oper                                                   
   RAUG   =    1.300    factor for augmentation sphere                                              
   RDEP   =    1.954    radius for radial grids                                                     
   RDEPT  =    1.744    core radius for aug-charge                                                  
                                                                                                    
   Atomic configuration                                                                             
    6 entries                                                                                       
     n  l   j            E        occ.                                                              
     1  0  0.50     -2405.8406   2.0000                                                             
     2  0  0.50      -211.7007   2.0000                                                             
     2  1  1.50      -156.4958   6.0000                                                             
     3  0  0.50       -17.2562   2.0000                                                             
     3  1  0.50        -7.0085   4.0000                                                             
     3  2  1.50        -6.8029   0.0000                                                             
   Description                                                                                      
     l       E           TYP  RCUT    TYP  RCUT                                                     
     0    -17.2561641     23  1.900                                                                 
     0    -15.8743224     23  1.900                                                                 
     1     -7.0085400     23  1.900                                                                 
     1     -2.7779785     23  1.900                                                                 
     2     -6.8029130     23  1.900                                                                 
  local pseudopotential read in
  partial core-charges read in
  partial kinetic energy density read in
  atomic valenz-charges read in
  non local Contribution for L=           0  read in
    real space projection operators read in
  non local Contribution for L=           0  read in
    real space projection operators read in
  non local Contribution for L=           1  read in
    real space projection operators read in
  non local Contribution for L=           1  read in
    real space projection operators read in
    PAW grid and wavefunctions read in

   number of l-projection  operators is LMAX  =           4
   number of lm-projection operators is LMMAX =           8

 -----------------------------------------------------------------------------
|                                                                             |
|               ----> ADVICE to this user running VASP <----                  |
|                                                                             |
|     You have a (more or less) 'small supercell' and for smaller cells       |
|     it is recommended to use the reciprocal-space projection scheme!        |
|     The real-space optimization is not efficient for small cells and it     |
|     is also less accurate ...                                               |
|     Therefore, set LREAL=.FALSE. in the INCAR file.                         |
|                                                                             |
 -----------------------------------------------------------------------------

 Optimization of the real space projectors (new method)

 maximal supplied QI-value         = 17.01
 optimisation between [QCUT,QGAM] = [ 10.20, 20.41] = [ 29.16,116.64] Ry 
 Optimized for a Real-space Cutoff    1.30 Angstroem

   l    n(q)    QCUT    max X(q) W(low)/X(q) W(high)/X(q)  e(spline) 
   1      7    10.205     4.940    0.23E-03    0.84E-03    0.11E-06
   1      7    10.205     6.253    0.40E-03    0.13E-02    0.18E-06
   0      8    10.205    37.438    0.23E-03    0.37E-03    0.42E-07
   0      8    10.205     9.606    0.16E-03    0.26E-03    0.31E-07
 Optimization of the real space projectors (new method)

 maximal supplied QI-value         = 16.25
 optimisation between [QCUT,QGAM] = [ 10.24, 20.48] = [ 29.35,117.42] Ry 
 Optimized for a Real-space Cutoff    1.38 Angstroem

   l    n(q)    QCUT    max X(q) W(low)/X(q) W(high)/X(q)  e(spline) 
   0      8    10.239    19.000    0.74E-04    0.15E-03    0.61E-07
   0      8    10.239     9.057    0.91E-04    0.19E-03    0.74E-07
   1      8    10.239   125.345    0.50E-03    0.38E-03    0.74E-07
   1      8    10.239    79.963    0.49E-03    0.37E-03    0.73E-07
   2      7    10.239     6.963    0.74E-04    0.11E-03    0.40E-07
 Optimization of the real space projectors (new method)

 maximal supplied QI-value         = 19.84
 optimisation between [QCUT,QGAM] = [ 10.12, 20.44] = [ 28.68,116.96] Ry 
 Optimized for a Real-space Cutoff    1.23 Angstroem

   l    n(q)    QCUT    max X(q) W(low)/X(q) W(high)/X(q)  e(spline) 
   0      7    10.119   187.594    0.62E-04    0.28E-03    0.52E-07
   0      7    10.119   164.243    0.61E-04    0.28E-03    0.52E-07
   1      7    10.119    67.533    0.45E-03    0.63E-03    0.13E-06
   1      7    10.119    50.729    0.44E-03    0.62E-03    0.12E-06
  PAW_PBE Na_pv 19Sep2006               :
 energy of atom  1       EATOM= -766.0439
 kinetic energy error for atom=    0.0103 (will be added to EATOM!!)
  PAW_PBE Sb 06Sep2000                  :
 energy of atom  2       EATOM= -149.9515
 kinetic energy error for atom=    0.0008 (will be added to EATOM!!)
  PAW_PBE S 06Sep2000                   :
 energy of atom  3       EATOM= -276.8230
 kinetic energy error for atom=    0.0046 (will be added to EATOM!!)


 POSCAR: Na2 Sb2 S4
  positions in direct lattice
  velocities in cartesian coordinates
 exchange correlation table for  LEXCH =        8
   RHO(1)=    0.500       N(1)  =     2000
   RHO(2)=  100.500       N(2)  =     4000



--------------------------------------------------------------------------------------------------------


 ion  position               nearest neighbor table
   1  0.627  0.627  0.132-   5 2.78   5 2.78
   2  0.373  0.373  0.868-   7 2.78   7 2.78
   3  0.871  0.871  0.409-   7 2.46   6 2.73   8 2.77   8 2.77   5 2.84
   4  0.129  0.129  0.591-   5 2.46   8 2.73   6 2.77   6 2.77   7 2.84
   5  0.117  0.117  0.190-   4 2.46   1 2.78   1 2.78   3 2.84
   6  0.634  0.634  0.632-   3 2.73   4 2.77   4 2.77
   7  0.883  0.883  0.810-   3 2.46   2 2.78   2 2.78   4 2.84
   8  0.366  0.366  0.368-   4 2.73   3 2.77   3 2.77

  LATTYP: Found a base centered monoclinic cell.
 ALAT       =    12.8075345907
 B/A-ratio  =     0.4310793321
 C/A-ratio  =     0.4657838857
 COS(beta)  =    -0.4308401213
  
  Lattice vectors:
  
 A1 = (  -6.3940055114,  -0.0182299859,  -2.7830077586)
 A2 = (  -3.9961764993,  -4.9914138477,  -2.7830077586)
 A3 = (  -0.0223459433,  -0.0107741344,   5.9654916463)


Analysis of symmetry for initial positions (statically):
=====================================================================
 Subroutine PRICEL returns:
 Original cell was already a primitive cell.
 

 Routine SETGRP: Setting up the symmetry group for a 
 base centered monoclinic supercell.


 Subroutine GETGRP returns: Found  4 space group operations
 (whereof  4 operations were pure point group operations)
 out of a pool of  4 trial point group operations.


The static configuration has the point symmetry C_2h.


Analysis of symmetry for dynamics (positions and initial velocities):
=====================================================================
 Subroutine PRICEL returns:
 Original cell was already a primitive cell.
 

 Routine SETGRP: Setting up the symmetry group for a 
 base centered monoclinic supercell.


 Subroutine GETGRP returns: Found  4 space group operations
 (whereof  4 operations were pure point group operations)
 out of a pool of  4 trial point group operations.


The dynamic configuration has the point symmetry C_2h.


 Subroutine INISYM returns: Found  4 space group operations
 (whereof  4 operations are pure point group operations),
 and found     1 'primitive' translations


----------------------------------------------------------------------------------------

                                     Primitive cell                                     

  volume of cell :     190.3360

  direct lattice vectors                    reciprocal lattice vectors
     6.394005511  0.018229986  2.783007759     0.156597910 -0.125574482  0.000359798
     3.996176499  4.991413848  2.783007759    -0.000728897  0.200726991  0.000359798
    -0.022345943 -0.010774134  5.965491646    -0.072715662 -0.035059979  0.167295073

  length of vectors
     6.973433229  6.973433229  5.965543228     0.200728636  0.200728636  0.185753630

  position of ions in fractional coordinates (direct lattice)
     0.626930573  0.626930573  0.132264886
     0.373069427  0.373069427  0.867735114
     0.871046406  0.871046406  0.409243185
     0.128953594  0.128953594  0.590756815
     0.116730391  0.116730391  0.190487963
     0.634441933  0.634441933  0.631770217
     0.883269609  0.883269609  0.809512037
     0.365558067  0.365558067  0.368229783

  ion indices of the primitive-cell ions
   primitive index   ion index
                 1           1
                 2           2
                 3           3
                 4           4
                 5           5
                 6           6
                 7           7
                 8           8

----------------------------------------------------------------------------------------



 KPOINTS: pymatgen with grid density = 600 / numbe

Automatic generation of k-mesh.
 Grid dimensions read from file:
 generate k-points for:    3    3    4

 Generating k-lattice:

  Cartesian coordinates                     Fractional coordinates (reciprocal lattice)
     0.052199303 -0.041858161  0.000119933     0.333333333  0.000000000 -0.000000000
    -0.000242966  0.066908997  0.000119933     0.000000000  0.333333333 -0.000000000
    -0.018178915 -0.008764995  0.041823768    -0.000000000 -0.000000000  0.250000000

  Length of vectors
     0.066909545  0.066909545  0.046438407

  Shift w.r.t. Gamma in fractional coordinates (k-lattice)
     0.000000000  0.000000000  0.000000000

 
 Subroutine IBZKPT returns following result:
 ===========================================
 
 Found     14 irreducible k-points:
 
 Following reciprocal coordinates:
            Coordinates               Weight
  0.000000  0.000000  0.000000      1.000000
  0.333333  0.000000  0.000000      4.000000
  0.333333  0.333333  0.000000      2.000000
 -0.333333  0.333333  0.000000      2.000000
  0.000000  0.000000  0.250000      2.000000
  0.333333  0.000000  0.250000      4.000000
 -0.333333  0.000000  0.250000      4.000000
  0.333333  0.333333  0.250000      2.000000
 -0.333333  0.333333  0.250000      4.000000
 -0.333333 -0.333333  0.250000      2.000000
  0.000000  0.000000  0.500000      1.000000
  0.333333  0.000000  0.500000      4.000000
  0.333333  0.333333  0.500000      2.000000
 -0.333333  0.333333  0.500000      2.000000
 
 Following cartesian coordinates:
            Coordinates               Weight
  0.000000  0.000000  0.000000      1.000000
  0.052199 -0.041858  0.000120      4.000000
  0.051956  0.025051  0.000240      2.000000
 -0.052442  0.108767  0.000000      2.000000
 -0.018179 -0.008765  0.041824      2.000000
  0.034020 -0.050623  0.041944      4.000000
 -0.070378  0.033093  0.041704      4.000000
  0.033777  0.016286  0.042064      2.000000
 -0.070621  0.100002  0.041824      4.000000
 -0.070135 -0.033816  0.041584      2.000000
 -0.036358 -0.017530  0.083648      1.000000
  0.015841 -0.059388  0.083767      4.000000
  0.015599  0.007521  0.083887      2.000000
 -0.088800  0.091237  0.083648      2.000000
 
 
 Subroutine IBZKPT_HF returns following result:
 ==============================================
 
 Found     36 k-points in 1st BZ
 the following     36 k-points will be used (e.g. in the exchange kernel)
 Following reciprocal coordinates:   # in IRBZ
  0.000000  0.000000  0.000000    0.02777778   1 t-inv F
  0.333333  0.000000  0.000000    0.02777778   2 t-inv F
  0.333333  0.333333  0.000000    0.02777778   3 t-inv F
 -0.333333  0.333333  0.000000    0.02777778   4 t-inv F
  0.000000  0.000000  0.250000    0.02777778   5 t-inv F
  0.333333  0.000000  0.250000    0.02777778   6 t-inv F
 -0.333333  0.000000  0.250000    0.02777778   7 t-inv F
  0.333333  0.333333  0.250000    0.02777778   8 t-inv F
 -0.333333  0.333333  0.250000    0.02777778   9 t-inv F
 -0.333333 -0.333333  0.250000    0.02777778  10 t-inv F
  0.000000  0.000000  0.500000    0.02777778  11 t-inv F
  0.333333  0.000000  0.500000    0.02777778  12 t-inv F
  0.333333  0.333333  0.500000    0.02777778  13 t-inv F
 -0.333333  0.333333  0.500000    0.02777778  14 t-inv F
 -0.333333 -0.000000 -0.000000    0.02777778   2 t-inv F
 -0.000000 -0.333333 -0.000000    0.02777778   2 t-inv F
  0.000000  0.333333  0.000000    0.02777778   2 t-inv F
 -0.333333 -0.333333 -0.000000    0.02777778   3 t-inv F
  0.333333 -0.333333 -0.000000    0.02777778   4 t-inv F
 -0.000000 -0.000000 -0.250000    0.02777778   5 t-inv F
 -0.333333 -0.000000 -0.250000    0.02777778   6 t-inv F
 -0.000000 -0.333333 -0.250000    0.02777778   6 t-inv F
  0.000000  0.333333  0.250000    0.02777778   6 t-inv F
  0.333333 -0.000000 -0.250000    0.02777778   7 t-inv F
 -0.000000  0.333333 -0.250000    0.02777778   7 t-inv F
  0.000000 -0.333333  0.250000    0.02777778   7 t-inv F
 -0.333333 -0.333333 -0.250000    0.02777778   8 t-inv F
  0.333333 -0.333333 -0.250000    0.02777778   9 t-inv F
 -0.333333  0.333333 -0.250000    0.02777778   9 t-inv F
  0.333333 -0.333333  0.250000    0.02777778   9 t-inv F
  0.333333  0.333333 -0.250000    0.02777778  10 t-inv F
 -0.333333 -0.000000 -0.500000    0.02777778  12 t-inv F
 -0.000000 -0.333333 -0.500000    0.02777778  12 t-inv F
  0.000000  0.333333  0.500000    0.02777778  12 t-inv F
 -0.333333 -0.333333 -0.500000    0.02777778  13 t-inv F
  0.333333 -0.333333 -0.500000    0.02777778  14 t-inv F


--------------------------------------------------------------------------------------------------------




 Dimension of arrays:
   k-points           NKPTS =     14   k-points in BZ     NKDIM =     14   number of bands    NBANDS=     32
   number of dos      NEDOS =    301   number of ions     NIONS =      8
   non local maximal  LDIM  =      5   non local SUM 2l+1 LMDIM =     13
   total plane-waves  NPLWV =  38880
   max r-space proj   IRMAX =   2301   max aug-charges    IRDMAX=  11534
   dimension x,y,z NGX =    36 NGY =   36 NGZ =   30
   dimension x,y,z NGXF=    72 NGYF=   72 NGZF=   60
   support grid    NGXF=    72 NGYF=   72 NGZF=   60
   ions per type =               2   2   4
   NGX,Y,Z   is equivalent  to a cutoff of   8.58,  8.58,  8.36 a.u.
   NGXF,Y,Z  is equivalent  to a cutoff of  17.16, 17.16, 16.72 a.u.

 SYSTEM =  unknown system                          
 POSCAR =  Na2 Sb2 S4                              

 Startparameter for this run:
   NWRITE =      2    write-flag & timer
   PREC   = normal    normal or accurate (medium, high low for compatibility)
   ISTART =      0    job   : 0-new  1-cont  2-samecut
   ICHARG =      2    charge: 1-file 2-atom 10-const
   ISPIN  =      1    spin polarized calculation?
   LNONCOLLINEAR =      F non collinear calculations
   LSORBIT =      F    spin-orbit coupling
   INIWAV =      1    electr: 0-lowe 1-rand  2-diag
   LASPH  =      F    aspherical Exc in radial PAW
 Electronic Relaxation 1
   ENCUT  =  400.0 eV  29.40 Ry    5.42 a.u.  11.37 11.37  9.73*2*pi/ulx,y,z
   ENINI  =  400.0     initial cutoff
   ENAUG  =  380.5 eV  augmentation charge cutoff
   NELM   =     60;   NELMIN=  2; NELMDL= -5     # of ELM steps 
   EDIFF  = 0.1E-05   stopping-criterion for ELM
   LREAL  =      T    real-space projection
   NLSPLINE    = F    spline interpolate recip. space projectors
   LCOMPAT=      F    compatible to vasp.4.4
   GGA_COMPAT  = T    GGA compatible to vasp.4.4-vasp.4.6
   LMAXPAW     = -100 max onsite density
   LMAXMIX     =    2 max onsite mixed and CHGCAR
   VOSKOWN=      0    Vosko Wilk Nusair interpolation
   ROPT   =   -0.00050  -0.00050  -0.00050
 Ionic relaxation
   EDIFFG = 0.1E-04   stopping-criterion for IOM
   NSW    =    133    number of steps for IOM
   NBLOCK =      1;   KBLOCK =    133    inner block; outer block 
   IBRION =      6    ionic relax: 0-MD 1-quasi-New 2-CG
   NFREE  =      4    steps in history (QN), initial steepest desc. (CG)
   ISIF   =      3    stress and relaxation
   IWAVPR =     11    prediction:  0-non 1-charg 2-wave 3-comb
   ISYM   =      2    0-nonsym 1-usesym 2-fastsym
   LCORR  =      T    Harris-Foulkes like correction to forces

   POTIM  = 0.0150    time-step for ionic-motion
   TEIN   =    0.0    initial temperature
   TEBEG  =    0.0;   TEEND  =   0.0 temperature during run
   SMASS  =  -3.00    Nose mass-parameter (am)
   estimated Nose-frequenzy (Omega)   =  0.10E-29 period in steps = 0.42E+48 mass=  -0.111E-26a.u.
   SCALEE = 1.0000    scale energy and forces
   NPACO  =    256;   APACO  = 10.0  distance and # of slots for P.C.
   PSTRESS=    0.0 pullay stress

  Mass of Ions in am
   POMASS =  22.99121.75 32.07
  Ionic Valenz
   ZVAL   =   7.00  5.00  6.00
  Atomic Wigner-Seitz radii
   RWIGS  =  -1.00 -1.00 -1.00
  virtual crystal weights 
   VCA    =   1.00  1.00  1.00
   NELECT =      48.0000    total number of electrons
   NUPDOWN=      -1.0000    fix difference up-down

 DOS related values:
   EMIN   =  10.00;   EMAX   =-10.00  energy-range for DOS
   EFERMI =   0.00
   ISMEAR =     0;   SIGMA  =   0.05  broadening in eV -4-tet -1-fermi 0-gaus

 Electronic relaxation 2 (details)
   IALGO  =     38    algorithm
   LDIAG  =      T    sub-space diagonalisation (order eigenvalues)
   LSUBROT=      F    optimize rotation matrix (better conditioning)
   TURBO    =      0    0=normal 1=particle mesh
   IRESTART =      0    0=no restart 2=restart with 2 vectors
   NREBOOT  =      0    no. of reboots
   NMIN     =      0    reboot dimension
   EREF     =   0.00    reference energy to select bands
   IMIX   =      4    mixing-type and parameters
     AMIX     =   0.40;   BMIX     =  1.00
     AMIX_MAG =   1.60;   BMIX_MAG =  1.00
     AMIN     =   0.10
     WC   =   100.;   INIMIX=   1;  MIXPRE=   1;  MAXMIX= -45

 Intra band minimization:
   WEIMIN = 0.0010     energy-eigenvalue tresh-hold
   EBREAK =  0.78E-08  absolut break condition
   DEPER  =   0.30     relativ break condition  

   TIME   =   0.40     timestep for ELM

  volume/ion in A,a.u.               =      23.79       160.56
  Fermi-wavevector in a.u.,A,eV,Ry     =   1.034304  1.954551 14.555309  1.069785
  Thomas-Fermi vector in A             =   2.168593

 Write flags
   LWAVE        =      F    write WAVECAR
   LDOWNSAMPLE  =      F    k-point downsampling of WAVECAR
   LCHARG       =      F    write CHGCAR
   LVTOT        =      F    write LOCPOT, total local potential
   LVHAR        =      F    write LOCPOT, Hartree potential only
   LELF         =      F    write electronic localiz. function (ELF)
   LORBIT       =      0    0 simple, 1 ext, 2 COOP (PROOUT), +10 PAW based schemes


 Dipole corrections
   LMONO  =      F    monopole corrections only (constant potential shift)
   LDIPOL =      F    correct potential (dipole corrections)
   IDIPOL =      0    1-x, 2-y, 3-z, 4-all directions 
   EPSILON=  1.0000000 bulk dielectric constant

 Exchange correlation treatment:
   GGA     =    --    GGA type
   LEXCH   =     8    internal setting for exchange type
   LIBXC   =     F    Libxc                    
   VOSKOWN =     0    Vosko Wilk Nusair interpolation
   LHFCALC =     F    Hartree Fock is set to
   LHFONE  =     F    Hartree Fock one center treatment
   AEXX    =    0.0000 exact exchange contribution

 Linear response parameters
   LEPSILON=     F    determine dielectric tensor
   LRPA    =     F    only Hartree local field effects (RPA)
   LNABLA  =     F    use nabla operator in PAW spheres
   LVEL    =     F    velocity operator in full k-point grid
   CSHIFT  =0.1000    complex shift for real part using Kramers Kronig
   OMEGAMAX=  -1.0    maximum frequency
   DEG_THRESHOLD= 0.2000000E-02 threshold for treating states as degnerate
   RTIME   =   -0.100 relaxation time in fs
  (WPLASMAI=    0.000 imaginary part of plasma frequency in eV, 0.658/RTIME)
   DFIELD  = 0.0000000 0.0000000 0.0000000 field for delta impulse in time

  Optional k-point grid parameters
   LKPOINTS_OPT  =     F    use optional k-point grid
   KPOINTS_OPT_MODE=     1    mode for optional k-point grid

 Orbital magnetization related:
   ORBITALMAG=     F  switch on orbital magnetization
   LCHIMAG   =     F  perturbation theory with respect to B field
   DQ        =  0.001000  dq finite difference perturbation B field
   LLRAUG    =     F  two centre corrections for induced B field



--------------------------------------------------------------------------------------------------------


 finite differences with symmetry
 charge density and potential will be updated during run
 non-spin polarized calculation
 Variant of blocked Davidson
 Davidson routine will perform the subspace rotation
 perform sub-space diagonalisation
    after iterative eigenvector-optimisation
 modified Broyden-mixing scheme, WC =      100.0
 initial mixing is a Kerker type mixing with AMIX =  0.4000 and BMIX =      1.0000
 Hartree-type preconditioning will be used
 using additional bands            8
 real space projection scheme for non local part
 use partial core corrections
 calculate Harris-corrections to forces   (improved forces if not selfconsistent)
 use gradient corrections 
 use of overlap-Matrix (Vanderbilt PP)
 Gauss-broadening in eV      SIGMA  =   0.05


--------------------------------------------------------------------------------------------------------


  energy-cutoff  :      400.00
  volume of cell :      190.34
      direct lattice vectors                 reciprocal lattice vectors
     6.394005511  0.018229986  2.783007759     0.156597910 -0.125574482  0.000359798
     3.996176499  4.991413848  2.783007759    -0.000728897  0.200726991  0.000359798
    -0.022345943 -0.010774134  5.965491646    -0.072715662 -0.035059979  0.167295073

  length of vectors
     6.973433229  6.973433229  5.965543228     0.200728636  0.200728636  0.185753630



 k-points in units of 2pi/SCALE and weight: pymatgen with grid density = 600 / numbe
   0.00000000  0.00000000  0.00000000       0.028
   0.05219930 -0.04185816  0.00011993       0.111
   0.05195634  0.02505084  0.00023987       0.056
  -0.05244227  0.10876716  0.00000000       0.056
  -0.01817892 -0.00876499  0.04182377       0.056
   0.03402039 -0.05062316  0.04194370       0.111
  -0.07037822  0.03309317  0.04170384       0.111
   0.03377742  0.01628584  0.04206363       0.056
  -0.07062118  0.10000216  0.04182377       0.111
  -0.07013525 -0.03381583  0.04158390       0.056
  -0.03635783 -0.01752999  0.08364754       0.028
   0.01584147 -0.05938815  0.08376747       0.111
   0.01559851  0.00752085  0.08388740       0.056
  -0.08880010  0.09123717  0.08364754       0.056

 k-points in reciprocal lattice and weights: pymatgen with grid density = 600 / numbe
   0.00000000  0.00000000  0.00000000       0.028
   0.33333333  0.00000000  0.00000000       0.111
   0.33333333  0.33333333  0.00000000       0.056
  -0.33333333  0.33333333  0.00000000       0.056
   0.00000000  0.00000000  0.25000000       0.056
   0.33333333  0.00000000  0.25000000       0.111
  -0.33333333  0.00000000  0.25000000       0.111
   0.33333333  0.33333333  0.25000000       0.056
  -0.33333333  0.33333333  0.25000000       0.111
  -0.33333333 -0.33333333  0.25000000       0.056
   0.00000000  0.00000000  0.50000000       0.028
   0.33333333  0.00000000  0.50000000       0.111
   0.33333333  0.33333333  0.50000000       0.056
  -0.33333333  0.33333333  0.50000000       0.056

 position of ions in fractional coordinates (direct lattice) 
   0.62693057  0.62693057  0.13226489
   0.37306943  0.37306943  0.86773511
   0.87104641  0.87104641  0.40924319
   0.12895359  0.12895359  0.59075681
   0.11673039  0.11673039  0.19048796
   0.63444193  0.63444193  0.63177022
   0.88326961  0.88326961  0.80951204
   0.36555807  0.36555807  0.36822978

 position of ions in cartesian coordinates  (Angst):
   6.51096718  3.13927384  4.27853037
   3.85686889  1.85959586  7.25297679
   9.04118578  4.35922302  7.28959461
   1.32665029  0.63964668  4.24191255
   1.20859337  0.58272534  1.78607752
   6.57784966  3.17152134  7.30013360
   9.15924269  4.41614436  9.74542964
   3.78998641  1.82734836  4.23137357



--------------------------------------------------------------------------------------------------------


 k-point   1 :   0.0000 0.0000 0.0000  plane waves:    3471
 k-point   2 :   0.3333 0.0000 0.0000  plane waves:    3459
 k-point   3 :   0.3333 0.3333 0.0000  plane waves:    3462
 k-point   4 :  -0.3333 0.3333 0.0000  plane waves:    3455
 k-point   5 :   0.0000 0.0000 0.2500  plane waves:    3447
 k-point   6 :   0.3333 0.0000 0.2500  plane waves:    3464
 k-point   7 :  -0.3333 0.0000 0.2500  plane waves:    3468
 k-point   8 :   0.3333 0.3333 0.2500  plane waves:    3452
 k-point   9 :  -0.3333 0.3333 0.2500  plane waves:    3448
 k-point  10 :  -0.3333-0.3333 0.2500  plane waves:    3435
 k-point  11 :   0.0000 0.0000 0.5000  plane waves:    3454
 k-point  12 :   0.3333 0.0000 0.5000  plane waves:    3475
 k-point  13 :   0.3333 0.3333 0.5000  plane waves:    3440
 k-point  14 :  -0.3333 0.3333 0.5000  plane waves:    3446

 maximum and minimum number of plane-waves per node :      3475     3435

 maximum number of plane-waves:      3475
 maximum index in each direction: 
   IXMAX=   11   IYMAX=   11   IZMAX=    9
   IXMIN=  -11   IYMIN=  -11   IZMIN=  -10


 serial   3D FFT for wavefunctions
 parallel 3D FFT for charge:
    minimum data exchange during FFTs selected (reduces bandwidth)


 total amount of memory used by VASP MPI-rank0    40390. kBytes
=======================================================================

   base      :      30000. kBytes
   nonlr-proj:       1496. kBytes
   fftplans  :       1515. kBytes
   grid      :       4126. kBytes
   one-center:         64. kBytes
   wavefun   :       3189. kBytes

     INWAV:  cpu time      0.0000: real time      0.0002
 Broyden mixing: mesh for mixing (old mesh)
   NGX = 23   NGY = 23   NGZ = 19
  (NGX  = 72   NGY  = 72   NGZ  = 60)
  gives a total of  10051 points

 initial charge density was supplied:
 charge density of overlapping atoms calculated
 number of electron      48.0000000 magnetization 
 keeping initial charge density in first step


--------------------------------------------------------------------------------------------------------


 Maximum index for non-local projection operator         2191
 Maximum index for augmentation-charges         1353 (set IRDMAX)


--------------------------------------------------------------------------------------------------------


 First call to EWALD:  gamma=   0.308
 Maximum number of real-space cells 3x 3x 3
 Maximum number of reciprocal cells 3x 3x 3

    FEWALD:  cpu time      0.0006: real time      0.0006


--------------------------------------- Iteration      1(   1)  ---------------------------------------


    POTLOK:  cpu time      0.0194: real time      0.0195
    SETDIJ:  cpu time      0.0023: real time      0.0023
     EDDAV:  cpu time      0.4869: real time      0.4870
       DOS:  cpu time      0.0003: real time      0.0004
    --------------------------------------------
      LOOP:  cpu time      0.5090: real time      0.5092

 eigenvalue-minimisations  :   928
 total energy-change (2. order) : 0.3525902E+03  (-0.1806834E+04)
 number of electron      48.0000000 magnetization 
 augmentation part       48.0000000 magnetization 

 Free energy of the ion-electron system (eV)
  ---------------------------------------------------
  alpha Z        PSCENC =        41.33448456
  Ewald energy   TEWEN  =     -2038.90830619
  -Hartree energ DENC   =      -629.25966898
  -exchange      EXHF   =         0.00000000
  -V(xc)+E(xc)   XCENC  =         6.04082053
  PAW double counting   =      2201.99118543    -2258.46358349
  entropy T*S    EENTRO =        -0.00316888
  eigenvalues    EBANDS =        90.61630773
  atomic energy  EATOM  =      2939.24215825
  Solvation  Ediel_sol  =         0.00000000
  ---------------------------------------------------
  free energy    TOTEN  =       352.59022895 eV

  energy without entropy =      352.59339783  energy(sigma->0) =      352.59181339


--------------------------------------------------------------------------------------------------------




--------------------------------------- Iteration      1(   2)  ---------------------------------------


     EDDAV:  cpu time      0.5393: real time      0.5397
       DOS:  cpu time      0.0002: real time      0.0003
    --------------------------------------------
      LOOP:  cpu time      0.5395: real time      0.5400

 eigenvalue-minimisations  :  1056
 total energy-change (2. order) :-0.3473954E+03  (-0.3279461E+03)
 number of electron      48.0000000 magnetization 
 augmentation part       48.0000000 magnetization 

 Free energy of the ion-electron system (eV)
  ---------------------------------------------------
  alpha Z        PSCENC =        41.33448456
  Ewald energy   TEWEN  =     -2038.90830619
  -Hartree energ DENC   =      -629.25966898
  -exchange      EXHF   =         0.00000000
  -V(xc)+E(xc)   XCENC  =         6.04082053
  PAW double counting   =      2201.99118543    -2258.46358349
  entropy T*S    EENTRO =        -0.00000000
  eigenvalues    EBANDS =      -256.78228204
  atomic energy  EATOM  =      2939.24215825
  Solvation  Ediel_sol  =         0.00000000
  ---------------------------------------------------
  free energy    TOTEN  =         5.19480806 eV

  energy without entropy =        5.19480806  energy(sigma->0) =        5.19480806


--------------------------------------------------------------------------------------------------------




--------------------------------------- Iteration      1(   3)  ---------------------------------------


     EDDAV:  cpu time      0.6079: real time      0.6080
       DOS:  cpu time      0.0003: real time      0.0003
    --------------------------------------------
      LOOP:  cpu time      0.6082: real time      0.6084

 eigenvalue-minimisations  :  1184
 total energy-change (2. order) :-0.3878298E+02  (-0.3786633E+02)
 number of electron      48.0000000 magnetization 
 augmentation part       48.0000000 magnetization 

 Free energy of the ion-electron system (eV)
  ---------------------------------------------------
  alpha Z        PSCENC =        41.33448456
  Ewald energy   TEWEN  =     -2038.90830619
  -Hartree energ DENC   =      -629.25966898
  -exchange      EXHF   =         0.00000000
  -V(xc)+E(xc)   XCENC  =         6.04082053
  PAW double counting   =      2201.99118543    -2258.46358349
  entropy T*S    EENTRO =        -0.00000000
  eigenvalues    EBANDS =      -295.56526300
  atomic energy  EATOM  =      2939.24215825
  Solvation  Ediel_sol  =         0.00000000
  ---------------------------------------------------
  free energy    TOTEN  =       -33.58817290 eV

  energy without entropy =      -33.58817290  energy(sigma->0) =      -33.58817290


--------------------------------------------------------------------------------------------------------




--------------------------------------- Iteration      1(   4)  ---------------------------------------


     EDDAV:  cpu time      0.5446: real time      0.5450
       DOS:  cpu time      0.0002: real time      0.0003
    --------------------------------------------
      LOOP:  cpu time      0.5448: real time      0.5453

 eigenvalue-minimisations  :  1096
 total energy-change (2. order) :-0.1194010E+01  (-0.1189463E+01)
 number of electron      48.0000000 magnetization 
 augmentation part       48.0000000 magnetization 

 Free energy of the ion-electron system (eV)
  ---------------------------------------------------
  alpha Z        PSCENC =        41.33448456
  Ewald energy   TEWEN  =     -2038.90830619
  -Hartree energ DENC   =      -629.25966898
  -exchange      EXHF   =         0.00000000
  -V(xc)+E(xc)   XCENC  =         6.04082053
  PAW double counting   =      2201.99118543    -2258.46358349
  entropy T*S    EENTRO =        -0.00000000
  eigenvalues    EBANDS =      -296.75927318
  atomic energy  EATOM  =      2939.24215825
  Solvation  Ediel_sol  =         0.00000000
  ---------------------------------------------------
  free energy    TOTEN  =       -34.78218308 eV

  energy without entropy =      -34.78218308  energy(sigma->0) =      -34.78218308


--------------------------------------------------------------------------------------------------------




--------------------------------------- Iteration      1(   5)  ---------------------------------------


     EDDAV:  cpu time      0.5378: real time      0.5380
       DOS:  cpu time      0.0002: real time      0.0002
    CHARGE:  cpu time      0.0338: real time      0.0338
    MIXING:  cpu time      0.0009: real time      0.0009
    --------------------------------------------
      LOOP:  cpu time      0.5727: real time      0.5729

 eigenvalue-minimisations  :  1160
 total energy-change (2. order) :-0.3825930E-01  (-0.3824657E-01)
 number of electron      48.0000083 magnetization 
 augmentation part        3.9380600 magnetization 

 Broyden mixing:
  rms(total) = 0.10618E+01    rms(broyden)= 0.10618E+01
  rms(prec ) = 0.16684E+01
  weight for this iteration     100.00

 Free energy of the ion-electron system (eV)
  ---------------------------------------------------
  alpha Z        PSCENC =        41.33448456
  Ewald energy   TEWEN  =     -2038.90830619
  -Hartree energ DENC   =      -629.25966898
  -exchange      EXHF   =         0.00000000
  -V(xc)+E(xc)   XCENC  =         6.04082053
  PAW double counting   =      2201.99118543    -2258.46358349
  entropy T*S    EENTRO =        -0.00000000
  eigenvalues    EBANDS =      -296.79753248
  atomic energy  EATOM  =      2939.24215825
  Solvation  Ediel_sol  =         0.00000000
  ---------------------------------------------------
  free energy    TOTEN  =       -34.82044238 eV

  energy without entropy =      -34.82044238  energy(sigma->0) =      -34.82044238


--------------------------------------------------------------------------------------------------------




--------------------------------------- Iteration      1(   6)  ---------------------------------------


    POTLOK:  cpu time      0.0192: real time      0.0193
    SETDIJ:  cpu time      0.0020: real time      0.0020
     EDDAV:  cpu time      0.4937: real time      0.4938
       DOS:  cpu time      0.0002: real time      0.0003
    CHARGE:  cpu time      0.0322: real time      0.0322
    MIXING:  cpu time      0.0009: real time      0.0009
    --------------------------------------------
      LOOP:  cpu time      0.5483: real time      0.5485

 eigenvalue-minimisations  :  1048
 total energy-change (2. order) : 0.1916946E+01  (-0.3410853E+00)
 number of electron      48.0000084 magnetization 
 augmentation part        4.0260276 magnetization 

 Broyden mixing:
  rms(total) = 0.79217E+00    rms(broyden)= 0.79216E+00
  rms(prec ) = 0.86746E+00
  weight for this iteration     100.00

 eigenvalues of (default mixing * dielectric matrix)
  average eigenvalue GAMMA=   1.7238
  1.7238

 Free energy of the ion-electron system (eV)
  ---------------------------------------------------
  alpha Z        PSCENC =        41.33448456
  Ewald energy   TEWEN  =     -2038.90830619
  -Hartree energ DENC   =      -642.78158924
  -exchange      EXHF   =         0.00000000
  -V(xc)+E(xc)   XCENC  =         7.33821646
  PAW double counting   =      2631.07851545    -2687.87059478
  entropy T*S    EENTRO =        -0.00000000
  eigenvalues    EBANDS =      -282.33638082
  atomic energy  EATOM  =      2939.24215825
  Solvation  Ediel_sol  =         0.00000000
  ---------------------------------------------------
  free energy    TOTEN  =       -32.90349632 eV

  energy without entropy =      -32.90349632  energy(sigma->0) =      -32.90349632


--------------------------------------------------------------------------------------------------------




--------------------------------------- Iteration      1(   7)  ---------------------------------------


    POTLOK:  cpu time      0.0180: real time      0.0181
    SETDIJ:  cpu time      0.0019: real time      0.0019
     EDDAV:  cpu time      0.5371: real time      0.5372
       DOS:  cpu time      0.0003: real time      0.0003
    CHARGE:  cpu time      0.0343: real time      0.0343
    MIXING:  cpu time      0.0009: real time      0.0009
    --------------------------------------------
      LOOP:  cpu time      0.5926: real time      0.5928

 eigenvalue-minimisations  :  1128
 total energy-change (2. order) : 0.1042674E-02  (-0.9684400E-01)
 number of electron      48.0000084 magnetization 
 augmentation part        4.0287205 magnetization 

 Broyden mixing:
  rms(total) = 0.39366E+00    rms(broyden)= 0.39366E+00
  rms(prec ) = 0.42327E+00
  weight for this iteration     100.00

 eigenvalues of (default mixing * dielectric matrix)
  average eigenvalue GAMMA=   1.5007
  1.0792  1.9221

 Free energy of the ion-electron system (eV)
  ---------------------------------------------------
  alpha Z        PSCENC =        41.33448456
  Ewald energy   TEWEN  =     -2038.90830619
  -Hartree energ DENC   =      -646.04998501
  -exchange      EXHF   =         0.00000000
  -V(xc)+E(xc)   XCENC  =         7.82050330
  PAW double counting   =      3173.92708093    -3230.97824684
  entropy T*S    EENTRO =        -0.00000000
  eigenvalues    EBANDS =      -279.29014264
  atomic energy  EATOM  =      2939.24215825
  Solvation  Ediel_sol  =         0.00000000
  ---------------------------------------------------
  free energy    TOTEN  =       -32.90245365 eV

  energy without entropy =      -32.90245365  energy(sigma->0) =      -32.90245365


--------------------------------------------------------------------------------------------------------




--------------------------------------- Iteration      1(   8)  ---------------------------------------


    POTLOK:  cpu time      0.0190: real time      0.0191
    SETDIJ:  cpu time      0.0020: real time      0.0020
     EDDAV:  cpu time      0.5082: real time      0.5083
       DOS:  cpu time      0.0002: real time      0.0003
    CHARGE:  cpu time      0.0322: real time      0.0322
    MIXING:  cpu time      0.0009: real time      0.0009
    --------------------------------------------
      LOOP:  cpu time      0.5624: real time      0.5627

 eigenvalue-minimisations  :  1080
 total energy-change (2. order) :-0.1103771E-02  (-0.6208416E-02)
 number of electron      48.0000084 magnetization 
 augmentation part        4.0168054 magnetization 

 Broyden mixing:
  rms(total) = 0.11458E+00    rms(broyden)= 0.11458E+00
  rms(prec ) = 0.13375E+00
  weight for this iteration     100.00

 eigenvalues of (default mixing * dielectric matrix)
  average eigenvalue GAMMA=   1.5483
  2.3877  1.1286  1.1286

 Free energy of the ion-electron system (eV)
  ---------------------------------------------------
  alpha Z        PSCENC =        41.33448456
  Ewald energy   TEWEN  =     -2038.90830619
  -Hartree energ DENC   =      -645.05586759
  -exchange      EXHF   =         0.00000000
  -V(xc)+E(xc)   XCENC  =         7.86939450
  PAW double counting   =      3513.86581069    -3571.10975639
  entropy T*S    EENTRO =        -0.00000000
  eigenvalues    EBANDS =      -280.14147523
  atomic energy  EATOM  =      2939.24215825
  Solvation  Ediel_sol  =         0.00000000
  ---------------------------------------------------
  free energy    TOTEN  =       -32.90355742 eV

  energy without entropy =      -32.90355742  energy(sigma->0) =      -32.90355742


--------------------------------------------------------------------------------------------------------




--------------------------------------- Iteration      1(   9)  ---------------------------------------


    POTLOK:  cpu time      0.0182: real time      0.0183
    SETDIJ:  cpu time      0.0019: real time      0.0019
     EDDAV:  cpu time      0.5203: real time      0.5203
       DOS:  cpu time      0.0002: real time      0.0003
    CHARGE:  cpu time      0.0322: real time      0.0322
    MIXING:  cpu time      0.0009: real time      0.0009
    --------------------------------------------
      LOOP:  cpu time      0.5736: real time      0.5739

 eigenvalue-minimisations  :  1104
 total energy-change (2. order) :-0.1829127E-02  (-0.1262412E-02)
 number of electron      48.0000084 magnetization 
 augmentation part        4.0176034 magnetization 

 Broyden mixing:
  rms(total) = 0.23429E-01    rms(broyden)= 0.23429E-01
  rms(prec ) = 0.27421E-01
  weight for this iteration     100.00

 eigenvalues of (default mixing * dielectric matrix)
  average eigenvalue GAMMA=   1.4158
  2.2047  1.1045  1.1045  1.2494

 Free energy of the ion-electron system (eV)
  ---------------------------------------------------
  alpha Z        PSCENC =        41.33448456
  Ewald energy   TEWEN  =     -2038.90830619
  -Hartree energ DENC   =      -645.82844922
  -exchange      EXHF   =         0.00000000
  -V(xc)+E(xc)   XCENC  =         8.00163766
  PAW double counting   =      3670.46565322    -3727.80449701
  entropy T*S    EENTRO =        -0.00000000
  eigenvalues    EBANDS =      -279.40806781
  atomic energy  EATOM  =      2939.24215825
  Solvation  Ediel_sol  =         0.00000000
  ---------------------------------------------------
  free energy    TOTEN  =       -32.90538654 eV

  energy without entropy =      -32.90538654  energy(sigma->0) =      -32.90538654


--------------------------------------------------------------------------------------------------------




--------------------------------------- Iteration      1(  10)  ---------------------------------------


    POTLOK:  cpu time      0.0180: real time      0.0182
    SETDIJ:  cpu time      0.0019: real time      0.0019
     EDDAV:  cpu time      0.5214: real time      0.5215
       DOS:  cpu time      0.0002: real time      0.0003
    CHARGE:  cpu time      0.0322: real time      0.0322
    MIXING:  cpu time      0.0009: real time      0.0009
    --------------------------------------------
      LOOP:  cpu time      0.5746: real time      0.5749

 eigenvalue-minimisations  :  1112
 total energy-change (2. order) :-0.4243456E-03  (-0.1444935E-03)
 number of electron      48.0000084 magnetization 
 augmentation part        4.0174703 magnetization 

 Broyden mixing:
  rms(total) = 0.12542E-01    rms(broyden)= 0.12542E-01
  rms(prec ) = 0.16912E-01
  weight for this iteration     100.00

 eigenvalues of (default mixing * dielectric matrix)
  average eigenvalue GAMMA=   1.6951
  2.6475  2.6475  1.0992  1.0992  0.9819

 Free energy of the ion-electron system (eV)
  ---------------------------------------------------
  alpha Z        PSCENC =        41.33448456
  Ewald energy   TEWEN  =     -2038.90830619
  -Hartree energ DENC   =      -645.88672086
  -exchange      EXHF   =         0.00000000
  -V(xc)+E(xc)   XCENC  =         8.00500650
  PAW double counting   =      3641.89201734    -3699.22859763
  entropy T*S    EENTRO =        -0.00000000
  eigenvalues    EBANDS =      -279.35585285
  atomic energy  EATOM  =      2939.24215825
  Solvation  Ediel_sol  =         0.00000000
  ---------------------------------------------------
  free energy    TOTEN  =       -32.90581089 eV

  energy without entropy =      -32.90581089  energy(sigma->0) =      -32.90581089


--------------------------------------------------------------------------------------------------------




--------------------------------------- Iteration      1(  11)  ---------------------------------------


    POTLOK:  cpu time      0.0184: real time      0.0186
    SETDIJ:  cpu time      0.0019: real time      0.0019
     EDDAV:  cpu time      0.5211: real time      0.5211
       DOS:  cpu time      0.0002: real time      0.0003
    CHARGE:  cpu time      0.0324: real time      0.0324
    MIXING:  cpu time      0.0009: real time      0.0009
    --------------------------------------------
      LOOP:  cpu time      0.5748: real time      0.5751

 eigenvalue-minimisations  :  1112
 total energy-change (2. order) :-0.4302826E-03  (-0.6567533E-04)
 number of electron      48.0000084 magnetization 
 augmentation part        4.0175608 magnetization 

 Broyden mixing:
  rms(total) = 0.26227E-02    rms(broyden)= 0.26226E-02
  rms(prec ) = 0.39485E-02
  weight for this iteration     100.00

 eigenvalues of (default mixing * dielectric matrix)
  average eigenvalue GAMMA=   1.5415
  2.4984  2.4984  1.0669  1.0669  0.9873  1.1311

 Free energy of the ion-electron system (eV)
  ---------------------------------------------------
  alpha Z        PSCENC =        41.33448456
  Ewald energy   TEWEN  =     -2038.90830619
  -Hartree energ DENC   =      -645.95680490
  -exchange      EXHF   =         0.00000000
  -V(xc)+E(xc)   XCENC  =         8.01859823
  PAW double counting   =      3629.13115483    -3686.48379324
  entropy T*S    EENTRO =        -0.00000000
  eigenvalues    EBANDS =      -279.28373271
  atomic energy  EATOM  =      2939.24215825
  Solvation  Ediel_sol  =         0.00000000
  ---------------------------------------------------
  free energy    TOTEN  =       -32.90624117 eV

  energy without entropy =      -32.90624117  energy(sigma->0) =      -32.90624117


--------------------------------------------------------------------------------------------------------




--------------------------------------- Iteration      1(  12)  ---------------------------------------


    POTLOK:  cpu time      0.0182: real time      0.0183
    SETDIJ:  cpu time      0.0019: real time      0.0019
     EDDAV:  cpu time      0.5223: real time      0.5223
       DOS:  cpu time      0.0002: real time      0.0003
    CHARGE:  cpu time      0.0321: real time      0.0321
    MIXING:  cpu time      0.0009: real time      0.0009
    --------------------------------------------
      LOOP:  cpu time      0.5756: real time      0.5758

 eigenvalue-minimisations  :  1120
 total energy-change (2. order) : 0.5578277E-05  (-0.3175662E-05)
 number of electron      48.0000084 magnetization 
 augmentation part        4.0176259 magnetization 

 Broyden mixing:
  rms(total) = 0.22780E-02    rms(broyden)= 0.22780E-02
  rms(prec ) = 0.25851E-02
  weight for this iteration     100.00

 eigenvalues of (default mixing * dielectric matrix)
  average eigenvalue GAMMA=   1.6467
  2.7099  2.7099  1.8549  1.0643  1.0643  1.1846  0.9391

 Free energy of the ion-electron system (eV)
  ---------------------------------------------------
  alpha Z        PSCENC =        41.33448456
  Ewald energy   TEWEN  =     -2038.90830619
  -Hartree energ DENC   =      -645.98598360
  -exchange      EXHF   =         0.00000000
  -V(xc)+E(xc)   XCENC  =         8.02086139
  PAW double counting   =      3631.13146548    -3688.48444706
  entropy T*S    EENTRO =        -0.00000000
  eigenvalues    EBANDS =      -279.25646842
  atomic energy  EATOM  =      2939.24215825
  Solvation  Ediel_sol  =         0.00000000
  ---------------------------------------------------
  free energy    TOTEN  =       -32.90623559 eV

  energy without entropy =      -32.90623559  energy(sigma->0) =      -32.90623559


--------------------------------------------------------------------------------------------------------




--------------------------------------- Iteration      1(  13)  ---------------------------------------


    POTLOK:  cpu time      0.0185: real time      0.0186
    SETDIJ:  cpu time      0.0019: real time      0.0019
     EDDAV:  cpu time      0.5523: real time      0.5524
       DOS:  cpu time      0.0002: real time      0.0003
    CHARGE:  cpu time      0.0324: real time      0.0324
    MIXING:  cpu time      0.0010: real time      0.0010
    --------------------------------------------
      LOOP:  cpu time      0.6062: real time      0.6066

 eigenvalue-minimisations  :  1096
 total energy-change (2. order) :-0.9017170E-05  (-0.1782349E-05)
 number of electron      48.0000084 magnetization 
 augmentation part        4.0176776 magnetization 

 Broyden mixing:
  rms(total) = 0.10947E-02    rms(broyden)= 0.10947E-02
  rms(prec ) = 0.12095E-02
  weight for this iteration     100.00

 eigenvalues of (default mixing * dielectric matrix)
  average eigenvalue GAMMA=   1.6181
  2.8389  2.3125  2.3125  1.0658  1.0658  1.3102  0.9174  1.1215

 Free energy of the ion-electron system (eV)
  ---------------------------------------------------
  alpha Z        PSCENC =        41.33448456
  Ewald energy   TEWEN  =     -2038.90830619
  -Hartree energ DENC   =      -646.00676224
  -exchange      EXHF   =         0.00000000
  -V(xc)+E(xc)   XCENC  =         8.02225533
  PAW double counting   =      3628.54722380    -3685.90097058
  entropy T*S    EENTRO =        -0.00000000
  eigenvalues    EBANDS =      -279.23632753
  atomic energy  EATOM  =      2939.24215825
  Solvation  Ediel_sol  =         0.00000000
  ---------------------------------------------------
  free energy    TOTEN  =       -32.90624461 eV

  energy without entropy =      -32.90624461  energy(sigma->0) =      -32.90624461


--------------------------------------------------------------------------------------------------------




--------------------------------------- Iteration      1(  14)  ---------------------------------------


    POTLOK:  cpu time      0.0197: real time      0.0199
    SETDIJ:  cpu time      0.0020: real time      0.0020
     EDDAV:  cpu time      0.4396: real time      0.4396
       DOS:  cpu time      0.0002: real time      0.0003
    --------------------------------------------
      LOOP:  cpu time      0.4615: real time      0.4618

 eigenvalue-minimisations  :   792
 total energy-change (2. order) :-0.2961951E-07  (-0.1405941E-06)
 number of electron      48.0000084 magnetization 
 augmentation part        4.0176776 magnetization 

 Free energy of the ion-electron system (eV)
  ---------------------------------------------------
  alpha Z        PSCENC =        41.33448456
  Ewald energy   TEWEN  =     -2038.90830619
  -Hartree energ DENC   =      -646.00455887
  -exchange      EXHF   =         0.00000000
  -V(xc)+E(xc)   XCENC  =         8.02267396
  PAW double counting   =      3630.46814857    -3687.82224439
  entropy T*S    EENTRO =        -0.00000000
  eigenvalues    EBANDS =      -279.23860052
  atomic energy  EATOM  =      2939.24215825
  Solvation  Ediel_sol  =         0.00000000
  ---------------------------------------------------
  free energy    TOTEN  =       -32.90624464 eV

  energy without entropy =      -32.90624464  energy(sigma->0) =      -32.90624464


--------------------------------------------------------------------------------------------------------




 average (electrostatic) potential at core
  the test charge radii are     0.9254  1.1712  0.9698
  (the norm of the test charge is              1.0000)
       1 -44.8643       2 -44.8643       3 -89.2940       4 -89.2940       5 -86.9503
       6 -87.0227       7 -86.9503       8 -87.0227



 E-fermi :   3.7009     XC(G=0):  -8.9226     alpha+bet : -9.8959

 Fermi energy:         3.7008546659

 k-point     1 :       0.0000    0.0000    0.0000
  band No.  band energies     occupation 
      1     -19.0793      2.00000
      2     -19.0719      2.00000
      3     -19.0586      2.00000
      4     -19.0565      2.00000
      5     -19.0509      2.00000
      6     -19.0466      2.00000
      7      -9.7337      2.00000
      8      -8.1144      2.00000
      9      -7.9601      2.00000
     10      -7.8540      2.00000
     11      -4.6325      2.00000
     12      -3.0665      2.00000
     13      -1.0454      2.00000
     14      -1.0454      2.00000
     15      -0.3840      2.00000
     16      -0.2771      2.00000
     17       0.0435      2.00000
     18       2.0347      2.00000
     19       2.0801      2.00000
     20       2.2241      2.00000
     21       2.4776      2.00000
     22       2.5330      2.00000
     23       2.5719      2.00000
     24       3.0526      2.00000
     25       6.0554      0.00000
     26       7.7789      0.00000
     27       7.8291      0.00000
     28       8.0557      0.00000
     29       8.3114      0.00000
     30       9.0411      0.00000
     31       9.1220      0.00000
     32       9.3453      0.00000

 k-point     2 :       0.3333    0.0000    0.0000
  band No.  band energies     occupation 
      1     -19.0781      2.00000
      2     -19.0738      2.00000
      3     -19.0589      2.00000
      4     -19.0563      2.00000
      5     -19.0507      2.00000
      6     -19.0487      2.00000
      7      -9.3695      2.00000
      8      -8.3528      2.00000
      9      -8.0374      2.00000
     10      -7.9142      2.00000
     11      -5.0466      2.00000
     12      -3.9240      2.00000
     13      -0.6123      2.00000
     14      -0.5800      2.00000
     15       0.0633      2.00000
     16       0.6958      2.00000
     17       1.3335      2.00000
     18       1.3883      2.00000
     19       1.7840      2.00000
     20       2.0110      2.00000
     21       2.3579      2.00000
     22       2.3932      2.00000
     23       3.0381      2.00000
     24       3.3347      2.00000
     25       6.0289      0.00000
     26       6.0487      0.00000
     27       6.8641      0.00000
     28       7.3337      0.00000
     29       7.9015      0.00000
     30       8.4814      0.00000
     31       9.2062      0.00000
     32       9.6481      0.00000

 k-point     3 :       0.3333    0.3333    0.0000
  band No.  band energies     occupation 
      1     -19.0777      2.00000
      2     -19.0736      2.00000
      3     -19.0591      2.00000
      4     -19.0558      2.00000
      5     -19.0514      2.00000
      6     -19.0461      2.00000
      7      -9.4530      2.00000
      8      -8.7393      2.00000
      9      -7.8854      2.00000
     10      -7.7907      2.00000
     11      -4.1100      2.00000
     12      -3.2938      2.00000
     13      -1.3262      2.00000
     14      -0.7757      2.00000
     15      -0.3158      2.00000
     16       0.0532      2.00000
     17       0.6383      2.00000
     18       0.9974      2.00000
     19       2.1057      2.00000
     20       2.1362      2.00000
     21       2.3794      2.00000
     22       2.5101      2.00000
     23       2.6463      2.00000
     24       2.7536      2.00000
     25       6.3957      0.00000
     26       7.4931      0.00000
     27       7.8788      0.00000
     28       8.1255      0.00000
     29       8.4039      0.00000
     30       8.4793      0.00000
     31       8.6984      0.00000
     32       9.0071      0.00000

 k-point     4 :      -0.3333    0.3333    0.0000
  band No.  band energies     occupation 
      1     -19.0762      2.00000
      2     -19.0757      2.00000
      3     -19.0593      2.00000
      4     -19.0559      2.00000
      5     -19.0512      2.00000
      6     -19.0482      2.00000
      7      -9.0312      2.00000
      8      -8.8239      2.00000
      9      -8.1029      2.00000
     10      -7.8604      2.00000
     11      -4.6084      2.00000
     12      -4.1863      2.00000
     13      -0.8199      2.00000
     14       0.0571      2.00000
     15       0.2640      2.00000
     16       0.3705      2.00000
     17       0.8845      2.00000
     18       1.5689      2.00000
     19       1.8874      2.00000
     20       2.0209      2.00000
     21       2.3920      2.00000
     22       2.5124      2.00000
     23       2.6267      2.00000
     24       3.1682      2.00000
     25       5.7282      0.00000
     26       6.8270      0.00000
     27       6.9675      0.00000
     28       7.1988      0.00000
     29       7.9114      0.00000
     30       8.0412      0.00000
     31       8.9677      0.00000
     32       9.5907      0.00000

 k-point     5 :       0.0000    0.0000    0.2500
  band No.  band energies     occupation 
      1     -19.0791      2.00000
      2     -19.0722      2.00000
      3     -19.0589      2.00000
      4     -19.0566      2.00000
      5     -19.0510      2.00000
      6     -19.0464      2.00000
      7      -9.6377      2.00000
      8      -8.1358      2.00000
      9      -8.0060      2.00000
     10      -7.9052      2.00000
     11      -4.8412      2.00000
     12      -3.2386      2.00000
     13      -1.0561      2.00000
     14      -0.8864      2.00000
     15      -0.2927      2.00000
     16       0.2993      2.00000
     17       0.7341      2.00000
     18       1.8119      2.00000
     19       1.9495      2.00000
     20       1.9967      2.00000
     21       2.2293      2.00000
     22       2.4076      2.00000
     23       2.8462      2.00000
     24       3.0891      2.00000
     25       5.9058      0.00000
     26       7.0279      0.00000
     27       7.5410      0.00000
     28       7.7738      0.00000
     29       8.1583      0.00000
     30       8.7309      0.00000
     31       8.9997      0.00000
     32       9.3520      0.00000

 k-point     6 :       0.3333    0.0000    0.2500
  band No.  band energies     occupation 
      1     -19.0782      2.00000
      2     -19.0740      2.00000
      3     -19.0586      2.00000
      4     -19.0569      2.00000
      5     -19.0506      2.00000
      6     -19.0488      2.00000
      7      -9.3183      2.00000
      8      -8.3009      2.00000
      9      -8.0670      2.00000
     10      -7.9192      2.00000
     11      -5.2713      2.00000
     12      -4.1726      2.00000
     13      -0.5743      2.00000
     14       0.0543      2.00000
     15       0.4522      2.00000
     16       0.7321      2.00000
     17       1.1356      2.00000
     18       1.4471      2.00000
     19       1.5971      2.00000
     20       2.0710      2.00000
     21       2.4369      2.00000
     22       2.5377      2.00000
     23       3.2151      2.00000
     24       3.4092      2.00000
     25       5.8988      0.00000
     26       6.0820      0.00000
     27       6.4634      0.00000
     28       6.7933      0.00000
     29       7.1560      0.00000
     30       7.5099      0.00000
     31       9.3071      0.00000
     32       9.7915      0.00000

 k-point     7 :      -0.3333    0.0000    0.2500
  band No.  band energies     occupation 
      1     -19.0778      2.00000
      2     -19.0743      2.00000
      3     -19.0591      2.00000
      4     -19.0565      2.00000
      5     -19.0510      2.00000
      6     -19.0485      2.00000
      7      -9.2590      2.00000
      8      -8.3768      2.00000
      9      -8.0815      2.00000
     10      -7.9309      2.00000
     11      -5.2564      2.00000
     12      -4.1205      2.00000
     13      -0.4436      2.00000
     14      -0.1128      2.00000
     15       0.4882      2.00000
     16       0.6352      2.00000
     17       1.3163      2.00000
     18       1.4719      2.00000
     19       1.6096      2.00000
     20       2.2046      2.00000
     21       2.4372      2.00000
     22       2.6323      2.00000
     23       2.9429      2.00000
     24       3.2105      2.00000
     25       5.8576      0.00000
     26       5.9366      0.00000
     27       6.6333      0.00000
     28       6.7625      0.00000
     29       7.2591      0.00000
     30       7.4800      0.00000
     31       9.1961      0.00000
     32       9.7106      0.00000

 k-point     8 :       0.3333    0.3333    0.2500
  band No.  band energies     occupation 
      1     -19.0781      2.00000
      2     -19.0736      2.00000
      3     -19.0585      2.00000
      4     -19.0566      2.00000
      5     -19.0511      2.00000
      6     -19.0463      2.00000
      7      -9.4467      2.00000
      8      -8.6521      2.00000
      9      -7.9222      2.00000
     10      -7.7997      2.00000
     11      -4.3548      2.00000
     12      -3.5571      2.00000
     13      -1.2257      2.00000
     14      -0.5973      2.00000
     15      -0.0098      2.00000
     16       0.1288      2.00000
     17       0.8186      2.00000
     18       1.1494      2.00000
     19       1.9232      2.00000
     20       1.9897      2.00000
     21       2.3435      2.00000
     22       2.5274      2.00000
     23       2.8451      2.00000
     24       3.0813      2.00000
     25       6.1519      0.00000
     26       6.7431      0.00000
     27       7.3643      0.00000
     28       7.8597      0.00000
     29       8.0985      0.00000
     30       8.7877      0.00000
     31       9.0585      0.00000
     32       9.3214      0.00000

 k-point     9 :      -0.3333    0.3333    0.2500
  band No.  band energies     occupation 
      1     -19.0763      2.00000
      2     -19.0758      2.00000
      3     -19.0590      2.00000
      4     -19.0565      2.00000
      5     -19.0510      2.00000
      6     -19.0484      2.00000
      7      -8.9966      2.00000
      8      -8.7709      2.00000
      9      -8.0709      2.00000
     10      -7.9174      2.00000
     11      -4.8047      2.00000
     12      -4.4565      2.00000
     13      -0.3212      2.00000
     14       0.0478      2.00000
     15       0.2686      2.00000
     16       0.6858      2.00000
     17       1.1051      2.00000
     18       1.4289      2.00000
     19       1.6830      2.00000
     20       2.2358      2.00000
     21       2.5147      2.00000
     22       2.6478      2.00000
     23       2.7515      2.00000
     24       3.2594      2.00000
     25       5.6104      0.00000
     26       6.2859      0.00000
     27       6.7153      0.00000
     28       6.8487      0.00000
     29       7.1279      0.00000
     30       7.3785      0.00000
     31       9.1353      0.00000
     32       9.7415      0.00000

 k-point    10 :      -0.3333   -0.3333    0.2500
  band No.  band energies     occupation 
      1     -19.0775      2.00000
      2     -19.0739      2.00000
      3     -19.0593      2.00000
      4     -19.0560      2.00000
      5     -19.0514      2.00000
      6     -19.0460      2.00000
      7      -9.3190      2.00000
      8      -8.7882      2.00000
      9      -8.0081      2.00000
     10      -7.7697      2.00000
     11      -4.3112      2.00000
     12      -3.5053      2.00000
     13      -1.2973      2.00000
     14      -0.2179      2.00000
     15      -0.1426      2.00000
     16       0.1039      2.00000
     17       0.9034      2.00000
     18       1.3475      2.00000
     19       2.0015      2.00000
     20       2.0146      2.00000
     21       2.2860      2.00000
     22       2.3035      2.00000
     23       2.6328      2.00000
     24       2.7343      2.00000
     25       6.4186      0.00000
     26       6.9513      0.00000
     27       7.6024      0.00000
     28       7.7640      0.00000
     29       8.1005      0.00000
     30       8.3146      0.00000
     31       8.7666      0.00000
     32       8.8709      0.00000

 k-point    11 :       0.0000    0.0000    0.5000
  band No.  band energies     occupation 
      1     -19.0789      2.00000
      2     -19.0726      2.00000
      3     -19.0593      2.00000
      4     -19.0567      2.00000
      5     -19.0512      2.00000
      6     -19.0462      2.00000
      7      -9.5239      2.00000
      8      -8.2062      2.00000
      9      -8.0407      2.00000
     10      -7.9411      2.00000
     11      -5.0138      2.00000
     12      -3.3672      2.00000
     13      -1.0592      2.00000
     14      -0.6980      2.00000
     15      -0.2103      2.00000
     16       0.8613      2.00000
     17       1.2920      2.00000
     18       1.8034      2.00000
     19       1.9354      2.00000
     20       2.0496      2.00000
     21       2.0617      2.00000
     22       2.2176      2.00000
[...]
      6.510967  3.139274  4.278530     0.071359    0.034406   -0.202544  
      3.856869  1.859596  7.252977    -0.071359   -0.034406    0.202544  
      9.041186  4.359223  7.289595     0.077735    0.037480    0.156063  
      1.326650  0.639647  4.241913    -0.077735   -0.037480   -0.156063  
      1.208593  0.582725  1.786078     0.366108    0.176519    0.064347  
      6.577850  3.171521  7.300134     0.143420    0.069150    0.475617  
      9.159243  4.416144  9.745430    -0.366108   -0.176519   -0.064347  
      3.789986  1.827348  4.231374    -0.143420   -0.069150   -0.475617  

   8 f  =    5.643231 THz    35.457467 2PiTHz  188.237928 cm-1    23.338518 meV
             X         Y         Z           dx          dy          dz
      6.510967  3.139274  4.278530     0.000531    0.000256    0.225870  
      3.856869  1.859596  7.252977     0.000531    0.000256    0.225870  
      9.041186  4.359223  7.289595    -0.095138   -0.045871    0.135048  
      1.326650  0.639647  4.241913    -0.095138   -0.045871    0.135048  
      1.208593  0.582725  1.786078     0.008274    0.003989    0.128167  
      6.577850  3.171521  7.300134     0.176744    0.085217   -0.603803  
      9.159243  4.416144  9.745430     0.008274    0.003989    0.128167  
      3.789986  1.827348  4.231374     0.176744    0.085217   -0.603803  

   9 f  =    5.193596 THz    32.632328 2PiTHz  173.239728 cm-1    21.478979 meV
             X         Y         Z           dx          dy          dz
      6.510967  3.139274  4.278530    -0.025033   -0.012069   -0.225292  
      3.856869  1.859596  7.252977     0.025033    0.012069    0.225292  
      9.041186  4.359223  7.289595    -0.022540   -0.010868    0.019302  
      1.326650  0.639647  4.241913     0.022540    0.010868   -0.019302  
      1.208593  0.582725  1.786078    -0.459186   -0.221397   -0.087596  
      6.577850  3.171521  7.300134    -0.125015   -0.060276    0.400835  
      9.159243  4.416144  9.745430     0.459186    0.221397    0.087596  
      3.789986  1.827348  4.231374     0.125015    0.060276   -0.400835  

  10 f  =    3.936296 THz    24.732476 2PiTHz  131.300697 cm-1    16.279204 meV
             X         Y         Z           dx          dy          dz
      6.510967  3.139274  4.278530    -0.243870   -0.117582    0.448582  
      3.856869  1.859596  7.252977    -0.243870   -0.117582    0.448582  
      9.041186  4.359223  7.289595     0.294402    0.141946   -0.133812  
      1.326650  0.639647  4.241913     0.294402    0.141946   -0.133812  
      1.208593  0.582725  1.786078    -0.228000   -0.109931   -0.142151  
      6.577850  3.171521  7.300134    -0.115532   -0.055704    0.004737  
      9.159243  4.416144  9.745430    -0.228000   -0.109931   -0.142151  
      3.789986  1.827348  4.231374    -0.115532   -0.055704    0.004737  

  11 f  =    3.744055 THz    23.524592 2PiTHz  124.888236 cm-1    15.484161 meV
             X         Y         Z           dx          dy          dz
      6.510967  3.139274  4.278530     0.572119    0.275848    0.031499  
      3.856869  1.859596  7.252977    -0.572119   -0.275848   -0.031499  
      9.041186  4.359223  7.289595     0.233796    0.112725    0.083053  
      1.326650  0.639647  4.241913    -0.233796   -0.112725   -0.083053  
      1.208593  0.582725  1.786078    -0.085404   -0.041178   -0.085439  
      6.577850  3.171521  7.300134    -0.011684   -0.005634   -0.069801  
      9.159243  4.416144  9.745430     0.085404    0.041178    0.085439  
      3.789986  1.827348  4.231374     0.011684    0.005634    0.069801  

  12 f  =    3.706125 THz    23.286268 2PiTHz  123.623014 cm-1    15.327293 meV
             X         Y         Z           dx          dy          dz
      6.510967  3.139274  4.278530     0.162888   -0.337835    0.000000  
      3.856869  1.859596  7.252977    -0.162888    0.337835    0.000000  
      9.041186  4.359223  7.289595     0.138313   -0.286867    0.000000  
      1.326650  0.639647  4.241913    -0.138313    0.286867   -0.000000  
      1.208593  0.582725  1.786078     0.171210   -0.355097   -0.000000  
      6.577850  3.171521  7.300134    -0.139049    0.288393   -0.000000  
      9.159243  4.416144  9.745430    -0.171210    0.355097    0.000000  
      3.789986  1.827348  4.231374     0.139049   -0.288393    0.000000  

  13 f  =    3.598951 THz    22.612878 2PiTHz  120.048095 cm-1    14.884060 meV
             X         Y         Z           dx          dy          dz
      6.510967  3.139274  4.278530     0.179249   -0.371769   -0.000000  
      3.856869  1.859596  7.252977     0.179249   -0.371769    0.000000  
      9.041186  4.359223  7.289595    -0.164799    0.341798   -0.000000  
      1.326650  0.639647  4.241913    -0.164799    0.341798    0.000000  
      1.208593  0.582725  1.786078     0.178431   -0.370072    0.000000  
      6.577850  3.171521  7.300134    -0.056429    0.117036   -0.000000  
      9.159243  4.416144  9.745430     0.178431   -0.370072   -0.000000  
      3.789986  1.827348  4.231374    -0.056429    0.117036    0.000000  

  14 f  =    3.590237 THz    22.558125 2PiTHz  119.757416 cm-1    14.848021 meV
             X         Y         Z           dx          dy          dz
      6.510967  3.139274  4.278530    -0.134934   -0.065059    0.542759  
      3.856869  1.859596  7.252977     0.134934    0.065059   -0.542759  
      9.041186  4.359223  7.289595     0.173827    0.083811    0.285054  
      1.326650  0.639647  4.241913    -0.173827   -0.083811   -0.285054  
      1.208593  0.582725  1.786078    -0.040512   -0.019533   -0.155693  
      6.577850  3.171521  7.300134    -0.019495   -0.009399    0.194281  
      9.159243  4.416144  9.745430     0.040512    0.019533    0.155693  
      3.789986  1.827348  4.231374     0.019495    0.009399   -0.194281  

  15 f  =    3.168205 THz    19.906418 2PiTHz  105.679938 cm-1    13.102636 meV
             X         Y         Z           dx          dy          dz
      6.510967  3.139274  4.278530    -0.451863   -0.217866   -0.386158  
      3.856869  1.859596  7.252977    -0.451863   -0.217866   -0.386158  
      9.041186  4.359223  7.289595     0.188659    0.090962    0.181588  
      1.326650  0.639647  4.241913     0.188659    0.090962    0.181588  
      1.208593  0.582725  1.786078    -0.016777   -0.008089    0.079360  
      6.577850  3.171521  7.300134    -0.002931   -0.001413   -0.125460  
      9.159243  4.416144  9.745430    -0.016777   -0.008089    0.079360  
      3.789986  1.827348  4.231374    -0.002931   -0.001413   -0.125460  

  16 f  =    3.025027 THz    19.006806 2PiTHz  100.904041 cm-1    12.510501 meV
             X         Y         Z           dx          dy          dz
      6.510967  3.139274  4.278530    -0.311489   -0.150185    0.191907  
      3.856869  1.859596  7.252977    -0.311489   -0.150185    0.191907  
      9.041186  4.359223  7.289595    -0.171597   -0.082736   -0.158235  
      1.326650  0.639647  4.241913    -0.171597   -0.082736   -0.158235  
      1.208593  0.582725  1.786078     0.391044    0.188543   -0.029527  
      6.577850  3.171521  7.300134     0.236434    0.113997    0.155016  
      9.159243  4.416144  9.745430     0.391044    0.188543   -0.029527  
      3.789986  1.827348  4.231374     0.236434    0.113997    0.155016  

  17 f  =    2.931252 THz    18.417599 2PiTHz   97.776041 cm-1    12.122679 meV
             X         Y         Z           dx          dy          dz
      6.510967  3.139274  4.278530     0.231952    0.111836    0.257107  
      3.856869  1.859596  7.252977    -0.231952   -0.111836   -0.257107  
      9.041186  4.359223  7.289595    -0.521612   -0.251496   -0.032040  
      1.326650  0.639647  4.241913     0.521612    0.251496    0.032040  
      1.208593  0.582725  1.786078     0.015010    0.007237    0.069754  
      6.577850  3.171521  7.300134    -0.007519   -0.003625    0.161301  
      9.159243  4.416144  9.745430    -0.015010   -0.007237   -0.069754  
      3.789986  1.827348  4.231374     0.007519    0.003625   -0.161301  

  18 f  =    2.711195 THz    17.034941 2PiTHz   90.435735 cm-1    11.212597 meV
             X         Y         Z           dx          dy          dz
      6.510967  3.139274  4.278530    -0.122935    0.254972    0.000000  
      3.856869  1.859596  7.252977     0.122935   -0.254972   -0.000000  
      9.041186  4.359223  7.289595     0.215423   -0.446794    0.000000  
      1.326650  0.639647  4.241913    -0.215423    0.446794    0.000000  
      1.208593  0.582725  1.786078    -0.145079    0.300899    0.000000  
      6.577850  3.171521  7.300134    -0.108364    0.224751    0.000000  
      9.159243  4.416144  9.745430     0.145079   -0.300899   -0.000000  
      3.789986  1.827348  4.231374     0.108364   -0.224751   -0.000000  

  19 f  =    2.241068 THz    14.081046 2PiTHz   74.753987 cm-1     9.268309 meV
             X         Y         Z           dx          dy          dz
      6.510967  3.139274  4.278530    -0.021632   -0.010430   -0.214469  
      3.856869  1.859596  7.252977     0.021632    0.010430    0.214469  
      9.041186  4.359223  7.289595    -0.199662   -0.096267    0.548761  
      1.326650  0.639647  4.241913     0.199662    0.096267   -0.548761  
      1.208593  0.582725  1.786078     0.015226    0.007341   -0.248634  
      6.577850  3.171521  7.300134    -0.016763   -0.008082   -0.201754  
      9.159243  4.416144  9.745430    -0.015226   -0.007341    0.248634  
      3.789986  1.827348  4.231374     0.016763    0.008082    0.201754  

  20 f  =    0.179401 THz     1.127208 2PiTHz    5.984163 cm-1     0.741941 meV
             X         Y         Z           dx          dy          dz
      6.510967  3.139274  4.278530    -0.112735    0.233817    0.000000  
      3.856869  1.859596  7.252977    -0.112735    0.233817    0.000000  
      9.041186  4.359223  7.289595    -0.243031    0.504055    0.000000  
      1.326650  0.639647  4.241913    -0.243031    0.504055    0.000000  
      1.208593  0.582725  1.786078    -0.133144    0.276146    0.000000  
      6.577850  3.171521  7.300134    -0.069355    0.143844    0.000000  
      9.159243  4.416144  9.745430    -0.133144    0.276146    0.000000  
      3.789986  1.827348  4.231374    -0.069355    0.143844    0.000000  

  21 f/i=    0.123180 THz     0.773966 2PiTHz    4.108858 cm-1     0.509433 meV
             X         Y         Z           dx          dy          dz
      6.510967  3.139274  4.278530    -0.130311   -0.062830    0.206762  
      3.856869  1.859596  7.252977    -0.130311   -0.062830    0.206762  
      9.041186  4.359223  7.289595    -0.279690   -0.134853    0.434470  
      1.326650  0.639647  4.241913    -0.279690   -0.134853    0.434470  
      1.208593  0.582725  1.786078    -0.139952   -0.067478    0.229172  
      6.577850  3.171521  7.300134    -0.139689   -0.067351    0.224579  
      9.159243  4.416144  9.745430    -0.139952   -0.067478    0.229172  
      3.789986  1.827348  4.231374    -0.139689   -0.067351    0.224579  

  22 f/i=    0.135354 THz     0.850456 2PiTHz    4.514932 cm-1     0.559780 meV
             X         Y         Z           dx          dy          dz
      6.510967  3.139274  4.278530    -0.166530   -0.080293   -0.124114  
      3.856869  1.859596  7.252977    -0.166530   -0.080293   -0.124114  
      9.041186  4.359223  7.289595    -0.402186   -0.193915   -0.318334  
      1.326650  0.639647  4.241913    -0.402186   -0.193915   -0.318334  
      1.208593  0.582725  1.786078    -0.207849   -0.100215   -0.164115  
      6.577850  3.171521  7.300134    -0.196115   -0.094557   -0.148805  
      9.159243  4.416144  9.745430    -0.207849   -0.100215   -0.164115  
      3.789986  1.827348  4.231374    -0.196115   -0.094557   -0.148805  

  23 f/i=    1.694004 THz    10.643741 2PiTHz   56.505893 cm-1     7.005835 meV
             X         Y         Z           dx          dy          dz
      6.510967  3.139274  4.278530     0.007740   -0.016053    0.000000  
      3.856869  1.859596  7.252977     0.007740   -0.016053    0.000000  
      9.041186  4.359223  7.289595    -0.089028    0.184647    0.000000  
      1.326650  0.639647  4.241913    -0.089028    0.184647    0.000000  
      1.208593  0.582725  1.786078     0.002912   -0.006040    0.000000  
      6.577850  3.171521  7.300134     0.293796   -0.609344    0.000000  
      9.159243  4.416144  9.745430     0.002912   -0.006040    0.000000  
      3.789986  1.827348  4.231374     0.293796   -0.609344    0.000000  

  24 f/i=    1.984112 THz    12.466546 2PiTHz   66.182864 cm-1     8.205626 meV
             X         Y         Z           dx          dy          dz
      6.510967  3.139274  4.278530     0.026457   -0.054873   -0.000000  
      3.856869  1.859596  7.252977    -0.026457    0.054873   -0.000000  
      9.041186  4.359223  7.289595     0.169610   -0.351778   -0.000000  
      1.326650  0.639647  4.241913    -0.169610    0.351778   -0.000000  
      1.208593  0.582725  1.786078     0.041810   -0.086716   -0.000000  
      6.577850  3.171521  7.300134     0.251187   -0.520971   -0.000000  
      9.159243  4.416144  9.745430    -0.041810    0.086716   -0.000000  
      3.789986  1.827348  4.231374    -0.251187    0.520971   -0.000000  



--------------------------------------------------------------------------------------------------------



 ELASTIC MODULI CONTR FROM IONIC RELAXATION (kBar)
 Direction    XX          YY          ZZ          XY          YZ          ZX
 --------------------------------------------------------------------------------
 XX        -370.9080   -116.5376     -8.6726   -148.6904     -1.7883     31.2175
 YY        -116.5376    -89.3388    -84.5228    -28.1876     12.6848     -8.6177
 ZZ          -8.6726    -84.5228   -862.7403     47.6481    -13.0872    -27.1433
 XY        -148.6904    -28.1876     47.6481    -84.5346     18.9500     11.5035
 YZ          -1.7883     12.6848    -13.0872     18.9500    -45.4114      1.2124
 ZX          31.2175     -8.6177    -27.1433     11.5035      1.2124    -43.4816
 --------------------------------------------------------------------------------


 TOTAL ELASTIC MODULI (kBar)
 Direction    XX          YY          ZZ          XY          YZ          ZX
 --------------------------------------------------------------------------------
 XX         680.4137    254.0625    145.5203     15.3775     15.9308     60.9848
 YY         254.0625   1027.6252    123.3790   -233.4910     11.8199     -3.4287
 ZZ         145.5203    123.3790    370.2606     13.9089      0.7068      1.4660
 XY          15.3775   -233.4910     13.9089    357.2717     25.0179     29.6463
 YZ          15.9308     11.8199      0.7068     25.0179    155.3239     -4.2242
 ZX          60.9848     -3.4287      1.4660     29.6463     -4.2242    148.5994
 --------------------------------------------------------------------------------



--------------------------------------------------------------------------------------------------------


  LATTYP: Found a base centered monoclinic cell.
 ALAT       =    12.8075345907
 B/A-ratio  =     0.4310793321
 C/A-ratio  =     0.4657838857
 COS(beta)  =    -0.4308401213
  
  Lattice vectors:
  
 A1 = (  -6.3940055114,  -0.0182299859,  -2.7830077586)
 A2 = (  -3.9961764993,  -4.9914138477,  -2.7830077586)
 A3 = (  -0.0223459433,  -0.0107741344,   5.9654916463)


Analysis of symmetry for initial positions (statically):
=====================================================================
 Subroutine PRICEL returns:
 Original cell was already a primitive cell.
 

 Routine SETGRP: Setting up the symmetry group for a 
 base centered monoclinic supercell.


 Subroutine GETGRP returns: Found  4 space group operations
 (whereof  4 operations were pure point group operations)
 out of a pool of  4 trial point group operations.


The static configuration has the point symmetry C_2h.


Analysis of symmetry for dynamics (positions and initial velocities):
=====================================================================
 Subroutine PRICEL returns:
 Original cell was already a primitive cell.
 

 Routine SETGRP: Setting up the symmetry group for a 
 base centered monoclinic supercell.


 Subroutine GETGRP returns: Found  4 space group operations
 (whereof  4 operations were pure point group operations)
 out of a pool of  4 trial point group operations.


The dynamic configuration has the point symmetry C_2h.


 Subroutine INISYM returns: Found  4 space group operations
 (whereof  4 operations are pure point group operations),
 and found     1 'primitive' translations


 KPOINTS: pymatgen with grid density = 600 / numbe

Automatic generation of k-mesh.
 Grid dimensions read from file:
 generate k-points for:    3    3    4

 Generating k-lattice:

  Cartesian coordinates                     Fractional coordinates (reciprocal lattice)
     0.052199303 -0.041858161  0.000119933     0.333333333  0.000000000 -0.000000000
    -0.000242966  0.066908997  0.000119933     0.000000000  0.333333333 -0.000000000
    -0.018178915 -0.008764995  0.041823768    -0.000000000 -0.000000000  0.250000000

  Length of vectors
     0.066909545  0.066909545  0.046438407

  Shift w.r.t. Gamma in fractional coordinates (k-lattice)
     0.000000000  0.000000000  0.000000000

 
 Subroutine IBZKPT returns following result:
 ===========================================
 
 Found     14 irreducible k-points:
 
 Following reciprocal coordinates:
            Coordinates               Weight
  0.000000  0.000000  0.000000      1.000000
  0.333333  0.000000  0.000000      4.000000
  0.333333  0.333333  0.000000      2.000000
 -0.333333  0.333333  0.000000      2.000000
  0.000000  0.000000  0.250000      2.000000
  0.333333  0.000000  0.250000      4.000000
 -0.333333  0.000000  0.250000      4.000000
  0.333333  0.333333  0.250000      2.000000
 -0.333333  0.333333  0.250000      4.000000
 -0.333333 -0.333333  0.250000      2.000000
  0.000000  0.000000  0.500000      1.000000
  0.333333  0.000000  0.500000      4.000000
  0.333333  0.333333  0.500000      2.000000
 -0.333333  0.333333  0.500000      2.000000
 
 Following cartesian coordinates:
            Coordinates               Weight
  0.000000  0.000000  0.000000      1.000000
  0.052199 -0.041858  0.000120      4.000000
  0.051956  0.025051  0.000240      2.000000
 -0.052442  0.108767  0.000000      2.000000
 -0.018179 -0.008765  0.041824      2.000000
  0.034020 -0.050623  0.041944      4.000000
 -0.070378  0.033093  0.041704      4.000000
  0.033777  0.016286  0.042064      2.000000
 -0.070621  0.100002  0.041824      4.000000
 -0.070135 -0.033816  0.041584      2.000000
 -0.036358 -0.017530  0.083648      1.000000
  0.015841 -0.059388  0.083767      4.000000
  0.015599  0.007521  0.083887      2.000000
 -0.088800  0.091237  0.083648      2.000000
 
     LOOP+:  cpu time      4.0515: real time      4.1472
    4ORBIT:  cpu time      0.0000: real time      0.0000

 total amount of memory used by VASP MPI-rank0    40390. kBytes
=======================================================================

   base      :      30000. kBytes
   nonlr-proj:       1496. kBytes
   fftplans  :       1515. kBytes
   grid      :       4126. kBytes
   one-center:         64. kBytes
   wavefun   :       3189. kBytes

  
  
 General timing and accounting informations for this job:
 ========================================================
  
                  Total CPU time used (sec):      342.369
                            User time (sec):      341.059
                          System time (sec):        1.310
                         Elapsed time (sec):      350.797
  
                   Maximum memory used (kb):      126368.
                   Average memory used (kb):          N/A
  
                          Minor page faults:        67633
                          Major page faults:           68
                 Voluntary context switches:         1183
