  19  19   0   0
  0.2504161E+02  0.6834254E-09  0.8835925E-09  0.7880486E-09  0.0000000E+00
   1.0000000000000000E-004
  CAR 
 NEB_bottleneck                          
      9.91842535    -41.16077546  301      1.42372350      1.00000000
    -41.161  0.0000E+00  0.0000E+00
    -40.991  0.0000E+00  0.0000E+00
    -40.820  0.0000E+00  0.0000E+00
    -40.650  0.0000E+00  0.0000E+00
    -40.480 -0.1609E-30 -0.2739E-31
    -40.309 -0.8134E-25 -0.1385E-25
    -40.139 -0.9522E-20 -0.1621E-20
    -39.969 -0.2493E-15 -0.4245E-16
    -39.799 -0.1525E-11 -0.2596E-12
    -39.628 -0.2101E-08 -0.3580E-09
    -39.458 -0.6339E-06 -0.1083E-06
    -39.288 -0.3881E-04 -0.6716E-05
    -39.118 -0.3367E-03 -0.6405E-04
    -38.947  0.1643E-02  0.2157E-03
    -38.777  0.7526E-02  0.1497E-02
    -38.607  0.3362E-02  0.2070E-02
    -38.437 -0.3182E-03  0.2015E-02
    -38.266 -0.8795E-04  0.2000E-02
    -38.096 -0.2294E-05  0.2000E-02
    -37.926 -0.1161E-07  0.2000E-02
    -37.755 -0.1270E-10  0.2000E-02
    -37.585 -0.3112E-14  0.2000E-02
    -37.415  0.0000E+00  0.2000E-02
    -37.245  0.0000E+00  0.2000E-02
    -37.074  0.0000E+00  0.2000E-02
    -36.904  0.0000E+00  0.2000E-02
    -36.734  0.0000E+00  0.2000E-02
    -36.564  0.0000E+00  0.2000E-02
    -36.393  0.0000E+00  0.2000E-02
    -36.223  0.0000E+00  0.2000E-02
    -36.053  0.0000E+00  0.2000E-02
    -35.883  0.0000E+00  0.2000E-02
    -35.712  0.0000E+00  0.2000E-02
    -35.542  0.0000E+00  0.2000E-02
    -35.372  0.0000E+00  0.2000E-02
    -35.202  0.0000E+00  0.2000E-02
    -35.031  0.0000E+00  0.2000E-02
    -34.861  0.0000E+00  0.2000E-02
    -34.691  0.0000E+00  0.2000E-02
    -34.520 -0.1429E-32  0.2000E-02
    -34.350 -0.1179E-26  0.2000E-02
    -34.180 -0.2257E-21  0.2000E-02
    -34.010 -0.9989E-17  0.2000E-02
    -33.839 -0.9805E-13  0.2000E-02
    -33.669 -0.2256E-09  0.2000E-02
    -33.499 -0.1167E-06  0.2000E-02
    -33.329 -0.1309E-04  0.1998E-02
    -33.158 -0.2787E-03  0.1950E-02
    -32.988 -0.8136E-04  0.1936E-02
    -32.818  0.8594E-02  0.3400E-02
    -32.648  0.1338E-01  0.5678E-02
    -32.477  0.2503E-02  0.6105E-02
    -32.307 -0.5461E-03  0.6012E-02
    -32.137 -0.6702E-04  0.6000E-02
    -31.967 -0.1245E-05  0.6000E-02
    -31.796 -0.4831E-08  0.6000E-02
    -31.626 -0.4165E-11  0.6000E-02
    -31.456 -0.8138E-15  0.6000E-02
    -31.285  0.0000E+00  0.6000E-02
    -31.115  0.0000E+00  0.6000E-02
    -30.945  0.0000E+00  0.6000E-02
    -30.775  0.0000E+00  0.6000E-02
    -30.604  0.0000E+00  0.6000E-02
    -30.434  0.0000E+00  0.6000E-02
    -30.264  0.0000E+00  0.6000E-02
    -30.094  0.0000E+00  0.6000E-02
    -29.923  0.0000E+00  0.6000E-02
    -29.753  0.0000E+00  0.6000E-02
    -29.583  0.0000E+00  0.6000E-02
    -29.413  0.0000E+00  0.6000E-02
    -29.242  0.0000E+00  0.6000E-02
    -29.072  0.0000E+00  0.6000E-02
    -28.902  0.0000E+00  0.6000E-02
    -28.732  0.0000E+00  0.6000E-02
    -28.561  0.0000E+00  0.6000E-02
    -28.391  0.0000E+00  0.6000E-02
    -28.221  0.0000E+00  0.6000E-02
    -28.050  0.0000E+00  0.6000E-02
    -27.880  0.0000E+00  0.6000E-02
    -27.710  0.0000E+00  0.6000E-02
    -27.540  0.0000E+00  0.6000E-02
    -27.369  0.0000E+00  0.6000E-02
    -27.199  0.0000E+00  0.6000E-02
    -27.029  0.0000E+00  0.6000E-02
    -26.859  0.0000E+00  0.6000E-02
    -26.688  0.0000E+00  0.6000E-02
    -26.518  0.0000E+00  0.6000E-02
    -26.348  0.0000E+00  0.6000E-02
    -26.178  0.0000E+00  0.6000E-02
    -26.007  0.0000E+00  0.6000E-02
    -25.837  0.0000E+00  0.6000E-02
    -25.667  0.0000E+00  0.6000E-02
    -25.496  0.0000E+00  0.6000E-02
    -25.326  0.0000E+00  0.6000E-02
    -25.156  0.0000E+00  0.6000E-02
    -24.986 -0.3485E-31  0.6000E-02
    -24.815 -0.2122E-25  0.6000E-02
    -24.645 -0.3011E-20  0.6000E-02
    -24.475 -0.9607E-16  0.6000E-02
    -24.305 -0.7285E-12  0.6000E-02
    -24.134 -0.1258E-08  0.6000E-02
    -23.964 -0.4854E-06  0.6000E-02
    -23.794 -0.3949E-04  0.5993E-02
    -23.624 -0.5341E-03  0.5902E-02
    -23.453  0.1303E-02  0.6124E-02
    -23.283  0.1312E-01  0.8358E-02
    -23.113  0.1298E-01  0.1057E-01
    -22.943  0.8058E-02  0.1194E-01
    -22.772  0.2107E-01  0.1553E-01
    -22.602  0.2771E-01  0.2025E-01
    -22.432  0.1843E-01  0.2338E-01
    -22.261  0.4543E-02  0.2416E-01
    -22.091 -0.8046E-03  0.2402E-01
    -21.921 -0.5884E-03  0.2392E-01
    -21.751 -0.9892E-03  0.2375E-01
    -21.580  0.1245E-01  0.2587E-01
    -21.410  0.4747E-01  0.3395E-01
    -21.240  0.4293E-01  0.4126E-01
    -21.070  0.3535E-01  0.4728E-01
    -20.899  0.3756E-01  0.5368E-01
    -20.729  0.3533E-02  0.5428E-01
    -20.559 -0.1523E-02  0.5402E-01
    -20.389 -0.1090E-03  0.5400E-01
    -20.218 -0.1318E-05  0.5400E-01
    -20.048 -0.3396E-08  0.5400E-01
    -19.878 -0.1973E-11  0.5400E-01
    -19.708 -0.2608E-15  0.5400E-01
    -19.537  0.0000E+00  0.5400E-01
    -19.367  0.0000E+00  0.5400E-01
    -19.197  0.0000E+00  0.5400E-01
    -19.026  0.0000E+00  0.5400E-01
    -18.856  0.0000E+00  0.5400E-01
    -18.686  0.0000E+00  0.5400E-01
    -18.516  0.0000E+00  0.5400E-01
    -18.345  0.0000E+00  0.5400E-01
    -18.175  0.0000E+00  0.5400E-01
    -18.005  0.0000E+00  0.5400E-01
    -17.835  0.0000E+00  0.5400E-01
    -17.664  0.0000E+00  0.5400E-01
    -17.494  0.0000E+00  0.5400E-01
    -17.324  0.0000E+00  0.5400E-01
    -17.154  0.0000E+00  0.5400E-01
    -16.983  0.0000E+00  0.5400E-01
    -16.813  0.0000E+00  0.5400E-01
    -16.643  0.0000E+00  0.5400E-01
    -16.472  0.0000E+00  0.5400E-01
    -16.302  0.0000E+00  0.5400E-01
    -16.132  0.0000E+00  0.5400E-01
    -15.962  0.0000E+00  0.5400E-01
    -15.791  0.0000E+00  0.5400E-01
    -15.621  0.0000E+00  0.5400E-01
    -15.451  0.0000E+00  0.5400E-01
    -15.281  0.0000E+00  0.5400E-01
    -15.110  0.0000E+00  0.5400E-01
    -14.940  0.0000E+00  0.5400E-01
    -14.770 -0.6921E-31  0.5400E-01
    -14.600 -0.3824E-25  0.5400E-01
    -14.429 -0.4892E-20  0.5400E-01
    -14.259 -0.1398E-15  0.5400E-01
    -14.089 -0.9374E-12  0.5400E-01
    -13.919 -0.1415E-08  0.5400E-01
    -13.748 -0.4692E-06  0.5400E-01
    -13.578 -0.3199E-04  0.5399E-01
    -13.408 -0.3455E-03  0.5394E-01
    -13.237  0.8669E-03  0.5408E-01
    -13.067  0.7597E-02  0.5538E-01
    -12.897  0.1636E-01  0.5816E-01
    -12.727  0.2148E-01  0.6182E-01
    -12.556  0.1143E-01  0.6376E-01
    -12.386  0.6231E-02  0.6483E-01
    -12.216  0.2188E-01  0.6855E-01
    -12.046  0.2218E-01  0.7233E-01
    -11.875  0.1030E-01  0.7408E-01
    -11.705 -0.7910E-04  0.7407E-01
    -11.535 -0.3814E-03  0.7400E-01
    -11.365 -0.2294E-04  0.7400E-01
    -11.194 -0.1306E-03  0.7398E-01
    -11.024 -0.1941E-03  0.7394E-01
    -10.854  0.4452E-02  0.7470E-01
    -10.684  0.7033E-02  0.7590E-01
    -10.513  0.8784E-03  0.7605E-01
    -10.343 -0.5835E-03  0.7595E-01
    -10.173  0.9297E-03  0.7611E-01
    -10.002  0.6873E-02  0.7728E-01
     -9.832  0.4573E-02  0.7806E-01
     -9.662  0.5485E-02  0.7899E-01
     -9.492  0.7277E-02  0.8023E-01
     -9.321  0.9828E-02  0.8190E-01
     -9.151  0.1567E-01  0.8457E-01
     -8.981  0.9697E-02  0.8622E-01
     -8.811  0.1111E-01  0.8811E-01
     -8.640  0.1060E-01  0.8992E-01
     -8.470  0.9136E-03  0.9008E-01
     -8.300 -0.4097E-03  0.9001E-01
     -8.130 -0.3224E-04  0.9000E-01
     -7.959 -0.4364E-06  0.9000E-01
     -7.789 -0.1251E-08  0.9000E-01
     -7.619 -0.7977E-12  0.9000E-01
     -7.449 -0.1148E-15  0.9000E-01
     -7.278  0.0000E+00  0.9000E-01
     -7.108  0.0000E+00  0.9000E-01
     -6.938  0.0000E+00  0.9000E-01
     -6.767  0.0000E+00  0.9000E-01
     -6.597 -0.1525E-33  0.9000E-01
     -6.427 -0.1577E-27  0.9000E-01
     -6.257 -0.3779E-22  0.9000E-01
     -6.086 -0.2093E-17  0.9000E-01
     -5.916 -0.2571E-13  0.9000E-01
     -5.746 -0.7367E-10  0.9000E-01
     -5.576 -0.4699E-07  0.9000E-01
     -5.405 -0.6381E-05  0.9000E-01
     -5.235 -0.1587E-03  0.8997E-01
     -5.065 -0.7284E-04  0.8996E-01
     -4.895  0.5053E-02  0.9082E-01
     -4.724  0.6630E-02  0.9195E-01
     -4.554  0.5745E-03  0.9205E-01
     -4.384 -0.2562E-03  0.9200E-01
     -4.213 -0.1960E-04  0.9200E-01
     -4.043 -0.9505E-04  0.9198E-01
     -3.873 -0.3034E-03  0.9193E-01
     -3.703  0.3558E-02  0.9254E-01
     -3.532  0.7442E-02  0.9380E-01
     -3.362  0.1225E-02  0.9401E-01
     -3.192  0.3592E-03  0.9407E-01
     -3.022  0.6753E-02  0.9522E-01
     -2.851  0.4830E-02  0.9605E-01
     -2.681 -0.1954E-03  0.9601E-01
     -2.511 -0.4898E-03  0.9593E-01
     -2.341  0.2895E-02  0.9642E-01
     -2.170  0.7635E-02  0.9772E-01
     -2.000  0.2025E-02  0.9807E-01
     -1.830 -0.3526E-03  0.9801E-01
     -1.660 -0.1829E-03  0.9798E-01
     -1.489 -0.4282E-03  0.9790E-01
     -1.319  0.4428E-02  0.9866E-01
     -1.149  0.1252E-01  0.1008E+00
     -0.978  0.9417E-02  0.1024E+00
     -0.808  0.1377E-01  0.1047E+00
     -0.638  0.1549E-01  0.1074E+00
     -0.468  0.4645E-02  0.1082E+00
     -0.297  0.5511E-02  0.1091E+00
     -0.127  0.5982E-02  0.1101E+00
      0.043  0.1390E-01  0.1125E+00
      0.213  0.2009E-01  0.1159E+00
      0.384  0.1554E-01  0.1186E+00
      0.554  0.2052E-01  0.1220E+00
      0.724  0.1866E-01  0.1252E+00
      0.894  0.1270E-01  0.1274E+00
      1.065  0.1354E-01  0.1297E+00
      1.235  0.1885E-01  0.1329E+00
      1.405  0.2227E-01  0.1367E+00
      1.575  0.8559E-02  0.1382E+00
      1.746 -0.6004E-03  0.1380E+00
      1.916 -0.2775E-03  0.1380E+00
      2.086 -0.9832E-05  0.1380E+00
      2.257 -0.2589E-06  0.1380E+00
      2.427 -0.1723E-04  0.1380E+00
      2.597 -0.2576E-03  0.1380E+00
      2.767  0.5874E-03  0.1381E+00
      2.938  0.6649E-02  0.1392E+00
      3.108  0.5028E-02  0.1400E+00
      3.278 -0.7891E-04  0.1400E+00
      3.448 -0.1575E-03  0.1400E+00
      3.619 -0.1340E-04  0.1400E+00
      3.789 -0.1686E-03  0.1400E+00
      3.959 -0.4892E-04  0.1400E+00
      4.129  0.4948E-02  0.1408E+00
      4.300  0.7406E-02  0.1421E+00
      4.470  0.7422E-02  0.1433E+00
      4.640  0.3921E-02  0.1440E+00
      4.811  0.3842E-02  0.1447E+00
      4.981  0.7027E-02  0.1458E+00
      5.151  0.4951E-03  0.1459E+00
      5.321  0.2924E-02  0.1464E+00
      5.492  0.1571E-01  0.1491E+00
      5.662  0.1411E-01  0.1515E+00
      5.832  0.3064E-02  0.1520E+00
      6.002  0.2730E-02  0.1525E+00
      6.173  0.7143E-02  0.1537E+00
      6.343  0.1877E-02  0.1540E+00
      6.513  0.8176E-02  0.1554E+00
      6.683  0.1548E-01  0.1581E+00
      6.854  0.1126E-01  0.1600E+00
      7.024  0.1618E-01  0.1627E+00
      7.194  0.1681E-01  0.1656E+00
      7.364  0.2720E-02  0.1661E+00
      7.535  0.2719E-02  0.1665E+00
      7.705  0.7432E-02  0.1678E+00
      7.875  0.1641E-02  0.1681E+00
      8.046 -0.3367E-03  0.1680E+00
      8.216 -0.3881E-04  0.1680E+00
      8.386 -0.6339E-06  0.1680E+00
      8.556 -0.2101E-08  0.1680E+00
      8.727 -0.1525E-11  0.1680E+00
      8.897 -0.2504E-15  0.1680E+00
      9.067  0.0000E+00  0.1680E+00
      9.237  0.0000E+00  0.1680E+00
      9.408  0.0000E+00  0.1680E+00
      9.578  0.0000E+00  0.1680E+00
      9.748  0.0000E+00  0.1680E+00
      9.918  0.0000E+00  0.1680E+00
