  19  19   0   0
  0.2504161E+02  0.6834254E-09  0.8835925E-09  0.7880486E-09  0.0000000E+00
   1.0000000000000000E-004
  CAR 
 NEB_bottleneck                          
      9.66986129    -24.59121375  301      1.00832751      1.00000000
    -24.591  0.0000E+00  0.0000E+00
    -24.477  0.0000E+00  0.0000E+00
    -24.363  0.0000E+00  0.0000E+00
    -24.249 -0.8131E-31 -0.9285E-32
    -24.134 -0.7205E-27 -0.8230E-28
    -24.020 -0.3316E-23 -0.3787E-24
    -23.906 -0.7918E-20 -0.9046E-21
    -23.792 -0.9803E-17 -0.1120E-17
    -23.678 -0.6078E-14 -0.6953E-15
    -23.563 -0.1999E-11 -0.2290E-12
    -23.449 -0.3378E-09 -0.3881E-10
    -23.335 -0.2915E-07 -0.3368E-08
    -23.221 -0.1269E-05 -0.1483E-06
    -23.107 -0.2724E-04 -0.3259E-05
    -22.992 -0.2720E-03 -0.3433E-04
    -22.878 -0.1043E-02 -0.1534E-03
    -22.764  0.3793E-03 -0.1101E-03
    -22.650  0.1114E-01  0.1162E-02
    -22.536  0.2336E-01  0.3829E-02
    -22.421  0.1729E-01  0.5804E-02
    -22.307  0.3448E-02  0.6198E-02
    -22.193 -0.1197E-02  0.6061E-02
    -22.079 -0.1239E-02  0.5920E-02
    -21.965 -0.2553E-02  0.5628E-02
    -21.850 -0.1744E-04  0.5626E-02
    -21.736  0.2220E-01  0.8161E-02
    -21.622  0.6254E-01  0.1530E-01
    -21.508  0.9147E-01  0.2575E-01
    -21.394  0.8874E-01  0.3588E-01
    -21.279  0.6455E-01  0.4326E-01
    -21.165  0.4850E-01  0.4880E-01
    -21.051  0.3525E-01  0.5282E-01
    -20.937  0.1282E-01  0.5428E-01
    -20.822 -0.5373E-03  0.5422E-01
    -20.708 -0.1543E-02  0.5405E-01
    -20.594 -0.3722E-03  0.5400E-01
    -20.480 -0.3695E-04  0.5400E-01
    -20.366 -0.1743E-05  0.5400E-01
    -20.251 -0.4089E-07  0.5400E-01
    -20.137 -0.4858E-09  0.5400E-01
    -20.023 -0.2952E-11  0.5400E-01
    -19.909 -0.9231E-14  0.5400E-01
    -19.795 -0.1167E-16  0.5400E-01
    -19.680  0.0000E+00  0.5400E-01
    -19.566  0.0000E+00  0.5400E-01
    -19.452  0.0000E+00  0.5400E-01
    -19.338  0.0000E+00  0.5400E-01
    -19.224  0.0000E+00  0.5400E-01
    -19.109  0.0000E+00  0.5400E-01
    -18.995  0.0000E+00  0.5400E-01
    -18.881  0.0000E+00  0.5400E-01
    -18.767  0.0000E+00  0.5400E-01
    -18.653  0.0000E+00  0.5400E-01
    -18.538  0.0000E+00  0.5400E-01
    -18.424  0.0000E+00  0.5400E-01
    -18.310  0.0000E+00  0.5400E-01
    -18.196  0.0000E+00  0.5400E-01
    -18.082  0.0000E+00  0.5400E-01
    -17.967  0.0000E+00  0.5400E-01
    -17.853  0.0000E+00  0.5400E-01
    -17.739  0.0000E+00  0.5400E-01
    -17.625  0.0000E+00  0.5400E-01
    -17.511  0.0000E+00  0.5400E-01
    -17.396  0.0000E+00  0.5400E-01
    -17.282  0.0000E+00  0.5400E-01
    -17.168  0.0000E+00  0.5400E-01
    -17.054  0.0000E+00  0.5400E-01
    -16.940  0.0000E+00  0.5400E-01
    -16.825  0.0000E+00  0.5400E-01
    -16.711  0.0000E+00  0.5400E-01
    -16.597  0.0000E+00  0.5400E-01
    -16.483  0.0000E+00  0.5400E-01
    -16.369  0.0000E+00  0.5400E-01
    -16.254  0.0000E+00  0.5400E-01
    -16.140  0.0000E+00  0.5400E-01
    -16.026  0.0000E+00  0.5400E-01
    -15.912  0.0000E+00  0.5400E-01
    -15.798  0.0000E+00  0.5400E-01
    -15.683  0.0000E+00  0.5400E-01
    -15.569  0.0000E+00  0.5400E-01
    -15.455  0.0000E+00  0.5400E-01
    -15.341  0.0000E+00  0.5400E-01
    -15.227  0.0000E+00  0.5400E-01
    -15.112  0.0000E+00  0.5400E-01
    -14.998  0.0000E+00  0.5400E-01
    -14.884 -0.6590E-32  0.5400E-01
    -14.770 -0.6661E-28  0.5400E-01
    -14.656 -0.3489E-24  0.5400E-01
    -14.541 -0.9463E-21  0.5400E-01
    -14.427 -0.1327E-17  0.5400E-01
    -14.313 -0.9305E-15  0.5400E-01
    -14.199 -0.3441E-12  0.5400E-01
    -14.084 -0.6517E-10  0.5400E-01
    -13.970 -0.6273E-08  0.5400E-01
    -13.856 -0.3032E-06  0.5400E-01
    -13.742 -0.7188E-05  0.5400E-01
    -13.628 -0.7922E-04  0.5399E-01
    -13.513 -0.3422E-03  0.5395E-01
    -13.399 -0.8189E-05  0.5395E-01
    -13.285  0.3448E-02  0.5434E-01
    -13.171  0.7725E-02  0.5523E-01
    -13.057  0.5396E-02  0.5584E-01
    -12.942  0.3581E-03  0.5588E-01
    -12.828  0.3760E-02  0.5631E-01
    -12.714  0.1673E-01  0.5822E-01
    -12.600  0.2701E-01  0.6131E-01
    -12.486  0.2926E-01  0.6465E-01
    -12.371  0.2836E-01  0.6789E-01
    -12.257  0.2423E-01  0.7066E-01
    -12.143  0.1893E-01  0.7282E-01
    -12.029  0.1020E-01  0.7398E-01
    -11.915  0.1440E-02  0.7415E-01
    -11.800 -0.8867E-03  0.7404E-01
    -11.686 -0.3461E-03  0.7401E-01
    -11.572 -0.4505E-04  0.7400E-01
    -11.458 -0.2630E-05  0.7400E-01
    -11.344 -0.7431E-07  0.7400E-01
    -11.229 -0.1160E-08  0.7400E-01
    -11.115 -0.9991E-08  0.7400E-01
    -11.001 -0.4465E-06  0.7400E-01
    -10.887 -0.9759E-05  0.7400E-01
    -10.773 -0.9828E-04  0.7399E-01
    -10.658 -0.3749E-03  0.7394E-01
    -10.544  0.1348E-03  0.7396E-01
    -10.430  0.3770E-02  0.7439E-01
    -10.316  0.7736E-02  0.7527E-01
    -10.202  0.7754E-02  0.7616E-01
    -10.087  0.7988E-02  0.7707E-01
     -9.973  0.6486E-02  0.7781E-01
     -9.859  0.1440E-02  0.7798E-01
     -9.745 -0.4045E-04  0.7797E-01
     -9.631  0.5424E-02  0.7859E-01
     -9.516  0.1506E-01  0.8031E-01
     -9.402  0.2284E-01  0.8292E-01
     -9.288  0.2515E-01  0.8579E-01
     -9.174  0.2223E-01  0.8833E-01
     -9.060  0.1297E-01  0.8981E-01
     -8.945  0.2939E-02  0.9015E-01
     -8.831 -0.7120E-03  0.9007E-01
     -8.717 -0.4828E-03  0.9001E-01
     -8.603 -0.8802E-04  0.9000E-01
     -8.489 -0.7116E-05  0.9000E-01
     -8.374 -0.2791E-06  0.9000E-01
     -8.260 -0.5481E-08  0.9000E-01
     -8.146 -0.5463E-10  0.9000E-01
     -8.032 -0.2785E-12  0.9000E-01
     -7.917 -0.7272E-15  0.9000E-01
     -7.803  0.0000E+00  0.9000E-01
     -7.689  0.0000E+00  0.9000E-01
     -7.575  0.0000E+00  0.9000E-01
     -7.461  0.0000E+00  0.9000E-01
     -7.346  0.0000E+00  0.9000E-01
     -7.232  0.0000E+00  0.9000E-01
     -7.118  0.0000E+00  0.9000E-01
     -7.004  0.0000E+00  0.9000E-01
     -6.890  0.0000E+00  0.9000E-01
     -6.775  0.0000E+00  0.9000E-01
     -6.661  0.0000E+00  0.9000E-01
     -6.547  0.0000E+00  0.9000E-01
     -6.433  0.0000E+00  0.9000E-01
     -6.319  0.0000E+00  0.9000E-01
     -6.204  0.0000E+00  0.9000E-01
     -6.090  0.0000E+00  0.9000E-01
     -5.976  0.0000E+00  0.9000E-01
     -5.862  0.0000E+00  0.9000E-01
     -5.748  0.0000E+00  0.9000E-01
     -5.633  0.0000E+00  0.9000E-01
     -5.519  0.0000E+00  0.9000E-01
     -5.405  0.0000E+00  0.9000E-01
     -5.291  0.0000E+00  0.9000E-01
     -5.177 -0.1193E-31  0.9000E-01
     -5.062 -0.1158E-27  0.9000E-01
     -4.948 -0.5821E-24  0.9000E-01
     -4.834 -0.1515E-20  0.9000E-01
     -4.720 -0.2039E-17  0.9000E-01
     -4.606 -0.1371E-14  0.9000E-01
     -4.491 -0.4865E-12  0.9000E-01
     -4.377 -0.8836E-10  0.9000E-01
     -4.263 -0.8151E-08  0.9000E-01
     -4.149 -0.3772E-06  0.9000E-01
     -4.035 -0.8543E-05  0.9000E-01
     -3.920 -0.8947E-04  0.8999E-01
     -3.806 -0.3592E-03  0.8995E-01
     -3.692  0.9203E-04  0.8996E-01
     -3.578  0.3758E-02  0.9039E-01
     -3.464  0.7779E-02  0.9128E-01
     -3.349  0.5325E-02  0.9188E-01
     -3.235  0.2045E-02  0.9212E-01
     -3.121  0.5349E-02  0.9273E-01
     -3.007  0.7773E-02  0.9362E-01
     -2.893  0.3733E-02  0.9404E-01
     -2.778  0.8367E-04  0.9405E-01
     -2.664 -0.3580E-03  0.9401E-01
     -2.550 -0.8864E-04  0.9400E-01
     -2.436 -0.8430E-05  0.9400E-01
     -2.322 -0.4153E-06  0.9400E-01
     -2.207 -0.1537E-05  0.9400E-01
     -2.093 -0.2536E-04  0.9400E-01
     -1.979 -0.1863E-03  0.9398E-01
     -1.865 -0.4309E-03  0.9393E-01
     -1.750  0.9125E-03  0.9403E-01
     -1.636  0.5163E-02  0.9462E-01
     -1.522  0.8537E-02  0.9560E-01
     -1.408  0.1262E-01  0.9704E-01
     -1.294  0.1968E-01  0.9928E-01
     -1.179  0.1839E-01  0.1014E+00
     -1.065  0.1096E-01  0.1026E+00
     -0.951  0.7499E-02  0.1035E+00
     -0.837  0.3978E-02  0.1039E+00
     -0.723  0.2809E-02  0.1043E+00
     -0.608  0.6573E-02  0.1050E+00
     -0.494  0.8714E-02  0.1060E+00
     -0.380  0.1084E-01  0.1073E+00
     -0.266  0.1568E-01  0.1090E+00
     -0.152  0.2125E-01  0.1115E+00
     -0.037  0.2456E-01  0.1143E+00
      0.077  0.2143E-01  0.1167E+00
      0.191  0.1913E-01  0.1189E+00
      0.305  0.2599E-01  0.1219E+00
      0.419  0.2832E-01  0.1251E+00
      0.534  0.2268E-01  0.1277E+00
      0.648  0.1987E-01  0.1300E+00
      0.762  0.2007E-01  0.1323E+00
      0.876  0.2124E-01  0.1347E+00
      0.990  0.1811E-01  0.1368E+00
      1.105  0.9729E-02  0.1379E+00
      1.219  0.2156E-02  0.1381E+00
      1.333 -0.5318E-03  0.1381E+00
      1.447 -0.3745E-03  0.1380E+00
      1.561 -0.6982E-04  0.1380E+00
      1.676 -0.5676E-05  0.1380E+00
      1.790 -0.2210E-06  0.1380E+00
      1.904 -0.4266E-08  0.1380E+00
      2.018 -0.4163E-10  0.1380E+00
      2.132 -0.1956E-10  0.1380E+00
      2.247 -0.2198E-08  0.1380E+00
      2.361 -0.1258E-06  0.1380E+00
      2.475 -0.3559E-05  0.1380E+00
      2.589 -0.4766E-04  0.1380E+00
      2.703 -0.2672E-03  0.1380E+00
      2.818 -0.2791E-03  0.1379E+00
      2.932  0.2275E-02  0.1382E+00
      3.046  0.7152E-02  0.1390E+00
      3.160  0.7089E-02  0.1398E+00
      3.274  0.2198E-02  0.1401E+00
      3.389 -0.2916E-03  0.1400E+00
      3.503 -0.2619E-03  0.1400E+00
      3.617 -0.4658E-04  0.1400E+00
      3.731 -0.1689E-04  0.1400E+00
      3.845 -0.1227E-03  0.1400E+00
      3.960 -0.3952E-03  0.1399E+00
      4.074  0.4466E-03  0.1400E+00
      4.188  0.4685E-02  0.1405E+00
      4.302  0.8091E-02  0.1414E+00
      4.416  0.4844E-02  0.1420E+00
      4.531  0.5207E-03  0.1421E+00
      4.645 -0.4041E-03  0.1420E+00
      4.759 -0.1884E-03  0.1420E+00
      4.873 -0.3137E-03  0.1420E+00
      4.988 -0.1918E-03  0.1419E+00
      5.102  0.2717E-02  0.1422E+00
      5.216  0.7293E-02  0.1431E+00
      5.330  0.6231E-02  0.1438E+00
      5.444  0.2626E-02  0.1441E+00
      5.559  0.5074E-02  0.1447E+00
      5.673  0.9906E-02  0.1458E+00
      5.787  0.1358E-01  0.1474E+00
      5.901  0.1520E-01  0.1491E+00
      6.015  0.1412E-01  0.1507E+00
      6.130  0.1428E-01  0.1523E+00
      6.244  0.1116E-01  0.1536E+00
      6.358  0.3603E-02  0.1540E+00
      6.472  0.8737E-03  0.1541E+00
      6.586  0.5128E-02  0.1547E+00
      6.701  0.8308E-02  0.1557E+00
      6.815  0.8124E-02  0.1566E+00
      6.929  0.8498E-02  0.1576E+00
      7.043  0.1097E-01  0.1588E+00
      7.157  0.1676E-01  0.1607E+00
      7.272  0.2097E-01  0.1631E+00
      7.386  0.1768E-01  0.1651E+00
      7.500  0.8318E-02  0.1661E+00
      7.614  0.5141E-02  0.1667E+00
      7.728  0.7307E-02  0.1675E+00
      7.843  0.4474E-02  0.1680E+00
      7.957  0.4278E-03  0.1681E+00
      8.071 -0.3969E-03  0.1680E+00
      8.185 -0.1232E-03  0.1680E+00
      8.299 -0.1359E-04  0.1680E+00
      8.414 -0.6821E-06  0.1680E+00
      8.528 -0.1665E-07  0.1680E+00
      8.642 -0.2031E-09  0.1680E+00
      8.756 -0.1257E-11  0.1680E+00
      8.870 -0.3974E-14  0.1680E+00
      8.985 -0.7777E-17  0.1680E+00
      9.099  0.0000E+00  0.1680E+00
      9.213  0.0000E+00  0.1680E+00
      9.327  0.0000E+00  0.1680E+00
      9.441  0.0000E+00  0.1680E+00
      9.556  0.0000E+00  0.1680E+00
      9.670  0.0000E+00  0.1680E+00
