 vasp.6.3.2 27Jun22 (build Jun 14 2024 17:29:11) complex                         
 POSCAR found type information on POSCAR NaInS 
 07/POSCAR found :  3 types and      19 ions
 LDA part: xc-table for Pade appr. of Perdew
 POSCAR found type information on POSCAR NaInS 
 00/POSCAR found :  3 types and      19 ions
 POSCAR found type information on POSCAR NaInS 
 10/POSCAR found :  3 types and      19 ions
 POSCAR, INCAR and KPOINTS ok, starting setup
 FFT: planning ... GRIDC
 FFT: planning ... GRID_SOFT
 FFT: planning ... GRID
 WAVECAR not read
 entering main loop
       N       E                     dE             d eps       ncg     rms          rms(c)
DAV:   1     0.145572237346E+04    0.14557E+04   -0.62969E+04   168   0.166E+03
DAV:   2     0.153088135084E+03   -0.13026E+04   -0.12652E+04   177   0.451E+02
DAV:   3    -0.518619407546E+02   -0.20495E+03   -0.20071E+03   189   0.192E+02
DAV:   4    -0.689572059964E+02   -0.17095E+02   -0.16926E+02   201   0.485E+01
DAV:   5    -0.696454142006E+02   -0.68821E+00   -0.68655E+00   237   0.108E+01    0.147E+01
RMM:   6    -0.651128644256E+02    0.45325E+01   -0.72112E+00   187   0.715E+00    0.894E+00
RMM:   7    -0.650015539926E+02    0.11131E+00   -0.74300E+00   206   0.544E+00    0.620E+00
RMM:   8    -0.648607281456E+02    0.14083E+00   -0.56122E-01   211   0.258E+00    0.430E+00
RMM:   9    -0.648901161360E+02   -0.29388E-01   -0.63574E-01   204   0.227E+00    0.103E+00
RMM:  10    -0.648473582630E+02    0.42758E-01   -0.63705E-02   192   0.137E+00    0.796E-01
RMM:  11    -0.648442128006E+02    0.31455E-02   -0.53457E-02   188   0.617E-01    0.533E-01
RMM:  12    -0.648464996912E+02   -0.22869E-02   -0.13979E-02   255   0.365E-01    0.481E-01
RMM:  13    -0.648479877297E+02   -0.14880E-02   -0.13633E-03   220   0.136E-01    0.318E-01
RMM:  14    -0.648500605688E+02   -0.20728E-02   -0.32103E-03   170   0.170E-01    0.124E-01
RMM:  15    -0.648500559974E+02    0.45714E-05   -0.39344E-04   227   0.689E-02    0.992E-02
RMM:  16    -0.648500892103E+02   -0.33213E-04   -0.15550E-04   193   0.384E-02    0.208E-02
RMM:  17    -0.648501099861E+02   -0.20776E-04   -0.88073E-05   164   0.255E-02    0.287E-02
RMM:  18    -0.648501114554E+02   -0.14692E-05   -0.23451E-05   188   0.152E-02    0.127E-02
RMM:  19    -0.648501120725E+02   -0.61710E-06   -0.40437E-06   140   0.707E-03
   1 F= -.64850112E+02 E0= -.64845108E+02  d E =-.648501E+02
quench:  g(F)=  0.000E+00 g(S)=  0.000E+00 dE (1.order)= 0.000E+00
 bond charge predicted
       N       E                     dE             d eps       ncg     rms          rms(c)
DAV:   1    -0.648501116466E+02   -0.19128E-06   -0.11996E-06   114   0.648E-03    0.839E-03
RMM:   2    -0.648501114504E+02    0.19620E-06   -0.85834E-07    99   0.452E-03
   2 F= -.64850111E+02 E0= -.64845107E+02  d E =0.622029E-06
quench:  g(F)=  0.000E+00 g(S)=  0.000E+00 dE (1.order)= 0.000E+00
 bond charge predicted
       N       E                     dE             d eps       ncg     rms          rms(c)
DAV:   1    -0.648501114094E+02    0.23723E-06   -0.70956E-07   138   0.407E-03    0.187E-03
RMM:   2    -0.648501114582E+02   -0.48756E-07   -0.22921E-07    93   0.243E-03
   3 F= -.64850111E+02 E0= -.64845099E+02  d E =-.773252E-08
quench:  g(F)=  0.000E+00 g(S)=  0.000E+00 dE (1.order)= 0.000E+00
 bond charge predicted
       N       E                     dE             d eps       ncg     rms          rms(c)
DAV:   1    -0.648501114180E+02   -0.85729E-08   -0.38886E-07   120   0.230E-03    0.127E-03
RMM:   2    -0.648501114478E+02   -0.29830E-07   -0.49707E-08    74   0.131E-03
   4 F= -.64850111E+02 E0= -.64845111E+02  d E =0.103537E-07
quench:  g(F)=  0.000E+00 g(S)=  0.000E+00 dE (1.order)= 0.000E+00
 bond charge predicted
       N       E                     dE             d eps       ncg     rms          rms(c)
DAV:   1    -0.648501114808E+02   -0.62788E-07   -0.50270E-08   120   0.116E-03    0.445E-04
RMM:   2    -0.648501114726E+02    0.82073E-08   -0.71367E-09    41   0.838E-04
   5 F= -.64850111E+02 E0= -.64845113E+02  d E =-.247510E-07
quench:  g(F)=  0.000E+00 g(S)=  0.000E+00 dE (1.order)= 0.000E+00
 bond charge predicted
       N       E                     dE             d eps       ncg     rms          rms(c)
DAV:   1    -0.648501114688E+02    0.11991E-07   -0.28833E-08   120   0.729E-04    0.470E-04
RMM:   2    -0.648501114650E+02    0.37871E-08   -0.13898E-10    11   0.523E-04
   6 F= -.64850111E+02 E0= -.64845110E+02  d E =0.757063E-08
quench:  g(F)=  0.000E+00 g(S)=  0.000E+00 dE (1.order)= 0.000E+00
 bond charge predicted
       N       E                     dE             d eps       ncg     rms          rms(c)
DAV:   1    -0.648501114592E+02    0.96370E-08   -0.82959E-09   111   0.547E-04    0.987E-05
RMM:   2    -0.648501114581E+02    0.10277E-08    0.45823-200     9   0.295E-04
   7 F= -.64850111E+02 E0= -.64845111E+02  d E =0.687760E-08
quench:  g(F)=  0.000E+00 g(S)=  0.000E+00 dE (1.order)= 0.000E+00
 bond charge predicted
       N       E                     dE             d eps       ncg     rms          rms(c)
DAV:   1    -0.648501114580E+02    0.11787E-08   -0.30221E-09    93   0.307E-04    0.827E-05
RMM:   2    -0.648501114578E+02    0.16007E-09    0.00000E+00     8   0.212E-04
   8 F= -.64850111E+02 E0= -.64845110E+02  d E =0.311047E-09
quench:  g(F)=  0.000E+00 g(S)=  0.000E+00 dE (1.order)= 0.000E+00
 bond charge predicted
       N       E                     dE             d eps       ncg     rms          rms(c)
DAV:   1    -0.648501114583E+02   -0.29831E-09   -0.11792E-09    93   0.230E-04    0.445E-05
RMM:   2    -0.648501114572E+02    0.10641E-08    0.00000E+00     8   0.159E-04
   9 F= -.64850111E+02 E0= -.64845110E+02  d E =0.605723E-09
quench:  g(F)=  0.000E+00 g(S)=  0.000E+00 dE (1.order)= 0.000E+00
 bond charge predicted
       N       E                     dE             d eps       ncg     rms          rms(c)
DAV:   1    -0.648501114568E+02    0.14898E-08   -0.70327E-10    93   0.198E-04    0.346E-05
RMM:   2    -0.648501114568E+02   -0.10914E-10    0.00000E+00     8   0.128E-04
  10 F= -.64850111E+02 E0= -.64845110E+02  d E =0.414730E-09
quench:  g(F)=  0.000E+00 g(S)=  0.000E+00 dE (1.order)= 0.000E+00
 bond charge predicted
       N       E                     dE             d eps       ncg     rms          rms(c)
DAV:   1    -0.648501114572E+02   -0.40018E-09   -0.40573E-10    93   0.139E-04    0.324E-05
RMM:   2    -0.648501114567E+02    0.52205E-09    0.00000E+00     7   0.957E-05
  11 F= -.64850111E+02 E0= -.64845110E+02  d E =0.132786E-09
quench:  g(F)=  0.000E+00 g(S)=  0.000E+00 dE (1.order)= 0.000E+00
 bond charge predicted
       N       E                     dE             d eps       ncg     rms          rms(c)
DAV:   1    -0.648501114568E+02    0.38744E-09   -0.34065E-10    93   0.100E-04    0.301E-05
RMM:   2    -0.648501114565E+02    0.24920E-09    0.00000E+00     6   0.799E-05
  12 F= -.64850111E+02 E0= -.64845110E+02  d E =0.114596E-09
quench:  g(F)=  0.000E+00 g(S)=  0.000E+00 dE (1.order)= 0.000E+00
 bond charge predicted
       N       E                     dE             d eps       ncg     rms          rms(c)
DAV:   1    -0.648501114566E+02    0.23283E-09   -0.22630E-10    93   0.845E-05    0.248E-05
RMM:   2    -0.648501114563E+02    0.23465E-09    0.00000E+00     5   0.605E-05
  13 F= -.64850111E+02 E0= -.64845110E+02  d E =0.218279E-09
quench:  g(F)=  0.000E+00 g(S)=  0.000E+00 dE (1.order)= 0.000E+00
 bond charge predicted
       N       E                     dE             d eps       ncg     rms          rms(c)
DAV:   1    -0.648501114559E+02    0.65847E-09   -0.13619E-10    93   0.643E-05    0.211E-05
RMM:   2    -0.648501114561E+02   -0.15643E-09    0.00000E+00     3   0.502E-05
  14 F= -.64850111E+02 E0= -.64845110E+02  d E =0.267391E-09
quench:  g(F)=  0.000E+00 g(S)=  0.000E+00 dE (1.order)= 0.000E+00
 bond charge predicted
       N       E                     dE             d eps       ncg     rms          rms(c)
DAV:   1    -0.648501114563E+02   -0.39108E-09   -0.79642E-11    93   0.530E-05    0.163E-05
RMM:   2    -0.648501114561E+02    0.18008E-09    0.00000E+00     4   0.387E-05
  15 F= -.64850111E+02 E0= -.64845110E+02  d E =-.545697E-10
quench:  g(F)=  0.000E+00 g(S)=  0.000E+00 dE (1.order)= 0.000E+00
 bond charge predicted
       N       E                     dE             d eps       ncg     rms          rms(c)
DAV:   1    -0.648501114558E+02    0.44747E-09   -0.73370E-11    93   0.411E-05    0.138E-05
RMM:   2    -0.648501114560E+02   -0.13097E-09    0.00000E+00     2   0.319E-05
  16 F= -.64850111E+02 E0= -.64845110E+02  d E =0.136424E-09
quench:  g(F)=  0.000E+00 g(S)=  0.000E+00 dE (1.order)= 0.000E+00
 bond charge predicted
       N       E                     dE             d eps       ncg     rms          rms(c)
DAV:   1    -0.648501114564E+02   -0.55115E-09   -0.44802E-11    93   0.338E-05    0.106E-05
RMM:   2    -0.648501114558E+02    0.59299E-09    0.00000E+00     2   0.247E-05
  17 F= -.64850111E+02 E0= -.64845110E+02  d E =0.172804E-09
quench:  g(F)=  0.000E+00 g(S)=  0.000E+00 dE (1.order)= 0.000E+00
 bond charge predicted
       N       E                     dE             d eps       ncg     rms          rms(c)
DAV:   1    -0.648501114560E+02    0.41655E-09   -0.76873E-12    93   0.262E-05    0.881E-06
RMM:   2    -0.648501114557E+02    0.23283E-09    0.00000E+00     2   0.202E-05
  18 F= -.64850111E+02 E0= -.64845110E+02  d E =0.563887E-10
quench:  g(F)=  0.000E+00 g(S)=  0.000E+00 dE (1.order)= 0.000E+00
 bond charge predicted
       N       E                     dE             d eps       ncg     rms          rms(c)
DAV:   1    -0.648501114563E+02   -0.34561E-09    0.96818E-11    93   0.214E-05    0.711E-06
RMM:   2    -0.648501114558E+02    0.50204E-09    0.00000E+00     2   0.156E-05
  19 F= -.64850111E+02 E0= -.64845110E+02  d E =-.763976E-10
quench:  g(F)=  0.000E+00 g(S)=  0.000E+00 dE (1.order)= 0.000E+00
 bond charge predicted
       N       E                     dE             d eps       ncg     rms          rms(c)
DAV:   1    -0.648501114553E+02    0.10023E-08   -0.76913E-13    93   0.167E-05    0.548E-06
RMM:   2    -0.648501114557E+02   -0.38381E-09    0.00000E+00     2   0.126E-05
  20 F= -.64850111E+02 E0= -.64845110E+02  d E =0.116415E-09
quench:  g(F)=  0.000E+00 g(S)=  0.000E+00 dE (1.order)= 0.000E+00
 bond charge predicted
       N       E                     dE             d eps       ncg     rms          rms(c)
DAV:   1    -0.648501114558E+02   -0.51659E-09   -0.44628E-11    93   0.134E-05    0.469E-06
RMM:   2    -0.648501114557E+02    0.16007E-09    0.00000E+00     2   0.981E-06
  21 F= -.64850111E+02 E0= -.64845110E+02  d E =0.272848E-10
quench:  g(F)=  0.000E+00 g(S)=  0.000E+00 dE (1.order)= 0.000E+00
 bond charge predicted
       N       E                     dE             d eps       ncg     rms          rms(c)
DAV:   1    -0.648501114556E+02    0.28922E-09   -0.77419E-11    93   0.105E-05    0.322E-06
RMM:   2    -0.648501114558E+02   -0.20555E-09    0.00000E+00     2   0.776E-06
  22 F= -.64850111E+02 E0= -.64845110E+02  d E =-.763976E-10
quench:  g(F)=  0.000E+00 g(S)=  0.000E+00 dE (1.order)= 0.000E+00
 bond charge predicted
       N       E                     dE             d eps       ncg     rms          rms(c)
DAV:   1    -0.648501114558E+02   -0.25102E-09    0.25865E-11    93   0.820E-06    0.242E-06
RMM:   2    -0.648501114556E+02    0.16007E-09    0.00000E+00     2   0.606E-06
  23 F= -.64850111E+02 E0= -.64845110E+02  d E =0.114596E-09
quench:  g(F)=  0.000E+00 g(S)=  0.000E+00 dE (1.order)= 0.000E+00
 bond charge predicted
       N       E                     dE             d eps       ncg     rms          rms(c)
DAV:   1    -0.648501114558E+02    0.30923E-10   -0.91406E-11    93   0.649E-06    0.181E-06
RMM:   2    -0.648501114556E+02    0.19463E-09    0.00000E+00     2   0.492E-06
  24 F= -.64850111E+02 E0= -.64845110E+02  d E =0.654836E-10
quench:  g(F)=  0.000E+00 g(S)=  0.000E+00 dE (1.order)= 0.000E+00
 bond charge predicted
       N       E                     dE             d eps       ncg     rms          rms(c)
DAV:   1    -0.648501114553E+02    0.50750E-09    0.25892E-11    93   0.521E-06    0.137E-06
RMM:   2    -0.648501114557E+02   -0.39108E-09    0.00000E+00     2   0.385E-06
  25 F= -.64850111E+02 E0= -.64845110E+02  d E =-.782165E-10
quench:  g(F)=  0.000E+00 g(S)=  0.000E+00 dE (1.order)= 0.000E+00
 bond charge predicted
       N       E                     dE             d eps       ncg     rms          rms(c)
DAV:   1    -0.648501114556E+02   -0.34925E-09    0.64203E-11    93   0.411E-06    0.108E-06
RMM:   2    -0.648501114556E+02    0.61846E-10    0.00000E+00     2   0.316E-06
  26 F= -.64850111E+02 E0= -.64845110E+02  d E =0.103682E-09
quench:  g(F)=  0.000E+00 g(S)=  0.000E+00 dE (1.order)= 0.000E+00
 bond charge predicted
       N       E                     dE             d eps       ncg     rms          rms(c)
DAV:   1    -0.648501114551E+02    0.52205E-09    0.37190E-11    93   0.336E-06    0.812E-07
RMM:   2    -0.648501114557E+02   -0.58753E-09    0.00000E+00     2   0.246E-06
  27 F= -.64850111E+02 E0= -.64845110E+02  d E =-.127329E-09
quench:  g(F)=  0.000E+00 g(S)=  0.000E+00 dE (1.order)= 0.000E+00
 bond charge predicted
       N       E                     dE             d eps       ncg     rms          rms(c)
DAV:   1    -0.648501114550E+02    0.45475E-10   -0.68074E-11    93   0.263E-06    0.676E-07
RMM:   2    -0.648501114556E+02   -0.56571E-09    0.00000E+00     2   0.204E-06
  28 F= -.64850111E+02 E0= -.64845110E+02  d E =0.673026E-10
quench:  g(F)=  0.000E+00 g(S)=  0.000E+00 dE (1.order)= 0.000E+00
 bond charge predicted
       N       E                     dE             d eps       ncg     rms          rms(c)
DAV:   1    -0.648501114553E+02   -0.21282E-09   -0.46015E-11    93   0.217E-06    0.502E-07
RMM:   2    -0.648501114555E+02   -0.28376E-09    0.00000E+00     2   0.159E-06
  29 F= -.64850111E+02 E0= -.64845110E+02  d E =0.691216E-10
quench:  g(F)=  0.000E+00 g(S)=  0.000E+00 dE (1.order)= 0.000E+00
 bond charge predicted
       N       E                     dE             d eps       ncg     rms          rms(c)
DAV:   1    -0.648501114557E+02   -0.48021E-09   -0.22263E-11    84   0.170E-06    0.434E-07
RMM:   2    -0.648501114557E+02    0.58208E-10    0.00000E+00     2   0.132E-06
  30 F= -.64850111E+02 E0= -.64845110E+02  d E =-.138243E-09
quench:  g(F)=  0.000E+00 g(S)=  0.000E+00 dE (1.order)= 0.000E+00
 bond charge predicted
       N       E                     dE             d eps       ncg     rms          rms(c)
DAV:   1    -0.648501114560E+02   -0.26193E-09   -0.62609E-11    84   0.141E-06    0.317E-07
RMM:   2    -0.648501114556E+02    0.42019E-09    0.00000E+00     2   0.103E-06
  31 F= -.64850111E+02 E0= -.64845110E+02  d E =0.100044E-09
quench:  g(F)=  0.000E+00 g(S)=  0.000E+00 dE (1.order)= 0.000E+00
 bond charge predicted
       N       E                     dE             d eps       ncg     rms          rms(c)
DAV:   1    -0.648501114554E+02    0.56207E-09   -0.10893E-10    84   0.110E-06    0.276E-07
RMM:   2    -0.648501114556E+02   -0.19827E-09    0.00000E+00     1   0.854E-07
  32 F= -.64850111E+02 E0= -.64845110E+02  d E =-.563887E-10
quench:  g(F)=  0.000E+00 g(S)=  0.000E+00 dE (1.order)= 0.000E+00
 bond charge predicted
       N       E                     dE             d eps       ncg     rms          rms(c)
DAV:   1    -0.648501114557E+02   -0.22374E-09    0.29908E-11    84   0.918E-07    0.204E-07
RMM:   2    -0.648501114556E+02    0.63665E-10    0.00000E+00     1   0.670E-07
  33 F= -.64850111E+02 E0= -.64845110E+02  d E =0.381988E-10
quench:  g(F)=  0.000E+00 g(S)=  0.000E+00 dE (1.order)= 0.000E+00
 bond charge predicted
       N       E                     dE             d eps       ncg     rms          rms(c)
DAV:   1    -0.648501114559E+02   -0.26921E-09    0.11619E-11    84   0.716E-07    0.173E-07
RMM:   2    -0.648501114556E+02    0.29831E-09    0.00000E+00     2   0.553E-07
  34 F= -.64850111E+02 E0= -.64845110E+02  d E =-.345608E-10
quench:  g(F)=  0.000E+00 g(S)=  0.000E+00 dE (1.order)= 0.000E+00
 bond charge predicted
       N       E                     dE             d eps       ncg     rms          rms(c)
DAV:   1    -0.648501114555E+02    0.38926E-09   -0.47582E-11    84   0.595E-07    0.129E-07
RMM:   2    -0.648501114556E+02   -0.10004E-09    0.00000E+00     1   0.436E-07
  35 F= -.64850111E+02 E0= -.64845110E+02  d E =-.909495E-11
quench:  g(F)=  0.000E+00 g(S)=  0.000E+00 dE (1.order)= 0.000E+00
 bond charge predicted
       N       E                     dE             d eps       ncg     rms          rms(c)
DAV:   1    -0.648501114556E+02   -0.58208E-10   -0.48945E-11    84   0.467E-07    0.110E-07
RMM:   2    -0.648501114555E+02    0.56389E-10    0.00000E+00     1   0.359E-07
  36 F= -.64850111E+02 E0= -.64845110E+02  d E =0.982254E-10
quench:  g(F)=  0.000E+00 g(S)=  0.000E+00 dE (1.order)= 0.000E+00
 bond charge predicted
       N       E                     dE             d eps       ncg     rms          rms(c)
DAV:   1    -0.648501114551E+02    0.48931E-09    0.57908E-11    84   0.387E-07    0.856E-08
RMM:   2    -0.648501114556E+02   -0.47294E-09    0.00000E+00     2   0.285E-07
  37 F= -.64850111E+02 E0= -.64845110E+02  d E =-.400178E-10
quench:  g(F)=  0.000E+00 g(S)=  0.000E+00 dE (1.order)= 0.000E+00
 bond charge predicted
       N       E                     dE             d eps       ncg     rms          rms(c)
DAV:   1    -0.648501114556E+02   -0.44565E-09    0.98929E-12    84   0.306E-07    0.706E-08
RMM:   2    -0.648501114555E+02    0.34561E-10    0.00000E+00     1   0.234E-07
  38 F= -.64850111E+02 E0= -.64845110E+02  d E =0.618456E-10
quench:  g(F)=  0.000E+00 g(S)=  0.000E+00 dE (1.order)= 0.000E+00
 bond charge predicted
       N       E                     dE             d eps       ncg     rms          rms(c)
DAV:   1    -0.648501114559E+02   -0.38744E-09    0.83790E-11    84   0.252E-07    0.540E-08
RMM:   2    -0.648501114557E+02    0.28012E-09    0.00000E+00     1   0.187E-07
  39 F= -.64850111E+02 E0= -.64845110E+02  d E =-.141881E-09
quench:  g(F)=  0.000E+00 g(S)=  0.000E+00 dE (1.order)= 0.000E+00
 bond charge predicted
       N       E                     dE             d eps       ncg     rms          rms(c)
DAV:   1    -0.648501114547E+02    0.12642E-08    0.97404E-11    84   0.200E-07    0.455E-08
RMM:   2    -0.648501114557E+02   -0.98044E-09    0.00000E+00     2   0.153E-07
  40 F= -.64850111E+02 E0= -.64845110E+02  d E =0.363798E-11
quench:  g(F)=  0.000E+00 g(S)=  0.000E+00 dE (1.order)= 0.000E+00
 bond charge predicted
       N       E                     dE             d eps       ncg     rms          rms(c)
DAV:   1    -0.648501114554E+02   -0.73305E-09   -0.61601E-11    84   0.166E-07    0.351E-08
RMM:   2    -0.648501114557E+02   -0.26375E-09    0.00000E+00     1   0.123E-07
  41 F= -.64850111E+02 E0= -.64845110E+02  d E =-.163709E-10
quench:  g(F)=  0.000E+00 g(S)=  0.000E+00 dE (1.order)= 0.000E+00
 bond charge predicted
       N       E                     dE             d eps       ncg     rms          rms(c)
DAV:   1    -0.648501114558E+02   -0.36744E-09    0.41813E-13    84   0.132E-07    0.297E-08
RMM:   2    -0.648501114557E+02    0.70941E-10    0.00000E+00     1   0.101E-07
  42 F= -.64850111E+02 E0= -.64845110E+02  d E =-.327418E-10
quench:  g(F)=  0.000E+00 g(S)=  0.000E+00 dE (1.order)= 0.000E+00
 bond charge predicted
       N       E                     dE             d eps       ncg     rms          rms(c)
DAV:   1    -0.648501114561E+02   -0.27831E-09    0.53551E-12    90   0.109E-07    0.232E-08
RMM:   2    -0.648501114557E+02    0.38199E-09    0.00000E+00     1   0.808E-08
  43 F= -.64850111E+02 E0= -.64845110E+02  d E =0.327418E-10
quench:  g(F)=  0.000E+00 g(S)=  0.000E+00 dE (1.order)= 0.000E+00
 bond charge predicted
       N       E                     dE             d eps       ncg     rms          rms(c)
DAV:   1    -0.648501114556E+02    0.46202E-09   -0.10854E-10    84   0.867E-08    0.196E-08
RMM:   2    -0.648501114557E+02   -0.14916E-09    0.00000E+00     1   0.663E-08
  44 F= -.64850111E+02 E0= -.64845110E+02  d E =-.691216E-10
quench:  g(F)=  0.000E+00 g(S)=  0.000E+00 dE (1.order)= 0.000E+00
 bond charge predicted
       N       E                     dE             d eps       ncg     rms          rms(c)
DAV:   1    -0.648501114558E+02   -0.18372E-09    0.29333E-11    84   0.716E-08    0.154E-08
RMM:   2    -0.648501114557E+02    0.98225E-10    0.00000E+00     1   0.533E-08
  45 F= -.64850111E+02 E0= -.64845110E+02  d E =0.636646E-10
quench:  g(F)=  0.000E+00 g(S)=  0.000E+00 dE (1.order)= 0.000E+00
 bond charge predicted
       N       E                     dE             d eps       ncg     rms          rms(c)
DAV:   1    -0.648501114553E+02    0.43838E-09   -0.58501E-11    84   0.573E-08    0.129E-08
RMM:   2    -0.648501114557E+02   -0.33833E-09    0.00000E+00     0   0.436E-08
  46 F= -.64850111E+02 E0= -.64845110E+02  d E =0.181899E-11
quench:  g(F)=  0.000E+00 g(S)=  0.000E+00 dE (1.order)= 0.000E+00
 bond charge predicted
       N       E                     dE             d eps       ncg     rms          rms(c)
DAV:   1    -0.648501114561E+02   -0.76398E-09    0.24732E-11    84   0.467E-08    0.104E-08
RMM:   2    -0.648501114555E+02    0.56752E-09    0.00000E+00     1   0.350E-08
  47 F= -.64850111E+02 E0= -.64845110E+02  d E =0.141881E-09
quench:  g(F)=  0.000E+00 g(S)=  0.000E+00 dE (1.order)= 0.000E+00
 bond charge predicted
       N       E                     dE             d eps       ncg     rms          rms(c)
DAV:   1    -0.648501114552E+02    0.91495E-09    0.34543E-11    84   0.378E-08    0.872E-09
RMM:   2    -0.648501114557E+02   -0.52933E-09    0.00000E+00     0   0.289E-08
  48 F= -.64850111E+02 E0= -.64845110E+02  d E =-.181899E-09
quench:  g(F)=  0.000E+00 g(S)=  0.000E+00 dE (1.order)= 0.000E+00
 bond charge predicted
       N       E                     dE             d eps       ncg     rms          rms(c)
DAV:   1    -0.648501114553E+02   -0.14916E-09    0.54874E-11    84   0.312E-08    0.677E-09
RMM:   2    -0.648501114556E+02   -0.30195E-09    0.00000E+00     1   0.231E-08
  49 F= -.64850111E+02 E0= -.64845110E+02  d E =0.782165E-10
quench:  g(F)=  0.000E+00 g(S)=  0.000E+00 dE (1.order)= 0.000E+00
 bond charge predicted
       N       E                     dE             d eps       ncg     rms          rms(c)
DAV:   1    -0.648501114554E+02   -0.60027E-10    0.94940E-12    84   0.250E-08    0.565E-09
RMM:   2    -0.648501114557E+02   -0.26012E-09    0.00000E+00     0   0.191E-08
  50 F= -.64850111E+02 E0= -.64845110E+02  d E =-.181899E-10
quench:  g(F)=  0.000E+00 g(S)=  0.000E+00 dE (1.order)= 0.000E+00
 bond charge predicted
       N       E                     dE             d eps       ncg     rms          rms(c)
DAV:   1    -0.648501114556E+02   -0.22374E-09   -0.29381E-11    84   0.207E-08    0.437E-09
RMM:   2    -0.648501114556E+02    0.32742E-10    0.00000E+00     1   0.153E-08
  51 F= -.64850111E+02 E0= -.64845110E+02  d E =0.691216E-10
quench:  g(F)=  0.000E+00 g(S)=  0.000E+00 dE (1.order)= 0.000E+00
 bond charge predicted
       N       E                     dE             d eps       ncg     rms          rms(c)
DAV:   1    -0.648501114558E+02   -0.20736E-09    0.41102E-11    84   0.166E-08    0.369E-09
RMM:   2    -0.648501114557E+02    0.17644E-09    0.00000E+00     0   0.126E-08
  52 F= -.64850111E+02 E0= -.64845110E+02  d E =-.636646E-10
quench:  g(F)=  0.000E+00 g(S)=  0.000E+00 dE (1.order)= 0.000E+00
 bond charge predicted
       N       E                     dE             d eps       ncg     rms          rms(c)
DAV:   1    -0.648501114555E+02    0.34197E-09   -0.95985E-12    84   0.137E-08    0.294E-09
RMM:   2    -0.648501114556E+02   -0.10550E-09    0.00000E+00     1   0.101E-08
  53 F= -.64850111E+02 E0= -.64845110E+02  d E =0.600267E-10
quench:  g(F)=  0.000E+00 g(S)=  0.000E+00 dE (1.order)= 0.000E+00
 bond charge predicted
       N       E                     dE             d eps       ncg     rms          rms(c)
DAV:   1    -0.648501114558E+02   -0.30741E-09    0.65861E-11    84   0.108E-08    0.252E-09
RMM:   2    -0.648501114555E+02    0.26557E-09    0.00000E+00     0   0.830E-09
  54 F= -.64850111E+02 E0= -.64845110E+02  d E =0.636646E-10
quench:  g(F)=  0.000E+00 g(S)=  0.000E+00 dE (1.order)= 0.000E+00
 bond charge predicted
       N       E                     dE             d eps       ncg     rms          rms(c)
DAV:   1    -0.648501114554E+02    0.35106E-09    0.79471E-11    84   0.884E-09    0.205E-09
RMM:   2    -0.648501114556E+02   -0.20191E-09    0.00000E+00     0   0.667E-09
  55 F= -.64850111E+02 E0= -.64845110E+02  d E =-.116415E-09
quench:  g(F)=  0.000E+00 g(S)=  0.000E+00 dE (1.order)= 0.000E+00
 bond charge predicted
       N       E                     dE             d eps       ncg     rms          rms(c)
DAV:   1    -0.648501114562E+02   -0.79490E-09    0.52645E-11    84   0.730E-09    0.167E-09
RMM:   2    -0.648501114556E+02    0.63119E-09    0.00000E+00     0   0.549E-09
  56 F= -.64850111E+02 E0= -.64845110E+02  d E =0.381988E-10
quench:  g(F)=  0.000E+00 g(S)=  0.000E+00 dE (1.order)= 0.000E+00
 bond charge predicted
       N       E                     dE             d eps       ncg     rms          rms(c)
DAV:   1    -0.648501114556E+02    0.67485E-09    0.90742E-11    84   0.585E-09    0.134E-09
RMM:   2    -0.648501114557E+02   -0.14916E-09    0.00000E+00     0   0.439E-09
  57 F= -.64850111E+02 E0= -.64845110E+02  d E =-.105501E-09
quench:  g(F)=  0.000E+00 g(S)=  0.000E+00 dE (1.order)= 0.000E+00
 bond charge predicted
       N       E                     dE             d eps       ncg     rms          rms(c)
DAV:   1    -0.648501114557E+02   -0.16917E-09    0.79030E-11    84   0.486E-09    0.122E-09
RMM:   2    -0.648501114556E+02    0.11096E-09    0.00000E+00     0   0.371E-09
  58 F= -.64850111E+02 E0= -.64845110E+02  d E =0.909495E-10
quench:  g(F)=  0.000E+00 g(S)=  0.000E+00 dE (1.order)= 0.000E+00
 bond charge predicted
       N       E                     dE             d eps       ncg     rms          rms(c)
DAV:   1    -0.648501114553E+02    0.44201E-09    0.90498E-11    84   0.403E-09    0.869E-10
RMM:   2    -0.648501114556E+02   -0.35470E-09    0.00000E+00     0   0.290E-09
  59 F= -.64850111E+02 E0= -.64845110E+02  d E =-.236469E-10
quench:  g(F)=  0.000E+00 g(S)=  0.000E+00 dE (1.order)= 0.000E+00
 bond charge predicted
       N       E                     dE             d eps       ncg     rms          rms(c)
DAV:   1    -0.648501114557E+02   -0.44020E-09    0.39506E-11    84   0.312E-09    0.699E-10
RMM:   2    -0.648501114557E+02    0.47294E-10    0.00000E+00     0   0.238E-09
  60 F= -.64850111E+02 E0= -.64845110E+02  d E =-.381988E-10
quench:  g(F)=  0.000E+00 g(S)=  0.000E+00 dE (1.order)= 0.000E+00
 bond charge predicted
       N       E                     dE             d eps       ncg     rms          rms(c)
DAV:   1    -0.648501114556E+02    0.10732E-09    0.43786E-11    84   0.259E-09    0.563E-10
RMM:   2    -0.648501114555E+02    0.10004E-09    0.00000E+00     0   0.192E-09
  61 F= -.64850111E+02 E0= -.64845110E+02  d E =0.160071E-09
quench:  g(F)=  0.000E+00 g(S)=  0.000E+00 dE (1.order)= 0.000E+00
 bond charge predicted
       N       E                     dE             d eps       ncg     rms          rms(c)
DAV:   1    -0.648501114558E+02   -0.14188E-09    0.88516E-11    84   0.204E-09    0.643E-10
RMM:   2    -0.648501114556E+02    0.16553E-09    0.00000E+00     0   0.163E-09
  62 F= -.64850111E+02 E0= -.64845110E+02  d E =-.763976E-10
quench:  g(F)=  0.000E+00 g(S)=  0.000E+00 dE (1.order)= 0.000E+00
 bond charge predicted
       N       E                     dE             d eps       ncg     rms          rms(c)
DAV:   1    -0.648501114553E+02    0.49477E-09   -0.10967E-11    84   0.170E-09    0.459E-10
RMM:   2    -0.648501114556E+02   -0.33288E-09    0.00000E+00     0   0.128E-09
  63 F= -.64850111E+02 E0= -.64845110E+02  d E =-.363798E-11
quench:  g(F)=  0.000E+00 g(S)=  0.000E+00 dE (1.order)= 0.000E+00
 bond charge predicted
       N       E                     dE             d eps       ncg     rms          rms(c)
DAV:   1    -0.648501114562E+02   -0.90040E-09    0.42046E-11    84   0.136E-09    0.671E-10
RMM:   2    -0.648501114556E+02    0.54570E-09    0.00000E+00     0   0.112E-09
  64 F= -.64850111E+02 E0= -.64845110E+02  d E =-.218279E-10
quench:  g(F)=  0.000E+00 g(S)=  0.000E+00 dE (1.order)= 0.000E+00
 bond charge predicted
       N       E                     dE             d eps       ncg     rms          rms(c)
DAV:   1    -0.648501114558E+02    0.34743E-09    0.98566E-12    84   0.118E-09    0.359E-10
RMM:   2    -0.648501114556E+02    0.22374E-09    0.00000E+00     0   0.915E-10
  65 F= -.64850111E+02 E0= -.64845110E+02  d E =0.254659E-10
quench:  g(F)=  0.000E+00 g(S)=  0.000E+00 dE (1.order)= 0.000E+00
 bond charge predicted
       N       E                     dE             d eps       ncg     rms          rms(c)
DAV:   1    -0.648501114558E+02   -0.18190E-10   -0.18068E-11    84   0.927E-10    0.437E-10
RMM:   2    -0.648501114557E+02    0.15280E-09    0.00000E+00     0   0.788E-10
  66 F= -.64850111E+02 E0= -.64845110E+02  d E =-.891305E-10
quench:  g(F)=  0.000E+00 g(S)=  0.000E+00 dE (1.order)= 0.000E+00
 bond charge predicted
       N       E                     dE             d eps       ncg     rms          rms(c)
DAV:   1    -0.648501114553E+02    0.54933E-09    0.13208E-11    84   0.844E-10    0.288E-10
RMM:   2    -0.648501114556E+02   -0.29831E-09    0.00000E+00     0   0.585E-10
  67 F= -.64850111E+02 E0= -.64845110E+02  d E =0.982254E-10
quench:  g(F)=  0.000E+00 g(S)=  0.000E+00 dE (1.order)= 0.000E+00
 bond charge predicted
       N       E                     dE             d eps       ncg     rms          rms(c)
DAV:   1    -0.648501114554E+02   -0.61846E-10    0.59515E-11    84   0.647E-10    0.305E-10
RMM:   2    -0.648501114557E+02   -0.35652E-09    0.00000E+00     0   0.545E-10
  68 F= -.64850111E+02 E0= -.64845110E+02  d E =-.120053E-09
quench:  g(F)=  0.000E+00 g(S)=  0.000E+00 dE (1.order)= 0.000E+00
 bond charge predicted
       N       E                     dE             d eps       ncg     rms          rms(c)
DAV:   1    -0.648501114557E+02   -0.29286E-09    0.45779E-11    84   0.567E-10    0.403E-10
RMM:   2    -0.648501114555E+02    0.10914E-09    0.00000E+00     0   0.511E-10
  69 F= -.64850111E+02 E0= -.64845110E+02  d E =0.172804E-09
quench:  g(F)=  0.000E+00 g(S)=  0.000E+00 dE (1.order)= 0.000E+00
 bond charge predicted
       N       E                     dE             d eps       ncg     rms          rms(c)
DAV:   1    -0.648501114558E+02   -0.11823E-09    0.31491E-11    84   0.587E-10    0.399E-10
RMM:   2    -0.648501114556E+02    0.18736E-09    0.00000E+00     0   0.444E-10
  70 F= -.64850111E+02 E0= -.64845110E+02  d E =-.400178E-10
quench:  g(F)=  0.000E+00 g(S)=  0.000E+00 dE (1.order)= 0.000E+00
 bond charge predicted
       N       E                     dE             d eps       ncg     rms          rms(c)
DAV:   1    -0.648501114561E+02   -0.29831E-09    0.95817E-12    84   0.475E-10    0.376E-10
RMM:   2    -0.648501114557E+02    0.37471E-09    0.00000E+00     0   0.385E-10
  71 F= -.64850111E+02 E0= -.64845110E+02  d E =-.110958E-09
quench:  g(F)=  0.000E+00 g(S)=  0.000E+00 dE (1.order)= 0.000E+00
 bond charge predicted
       N       E                     dE             d eps       ncg     rms          rms(c)
DAV:   1    -0.648501114560E+02    0.70941E-10    0.19579E-11    84   0.354E-10    0.172E-10
RMM:   2    -0.648501114556E+02    0.39108E-09    0.00000E+00     0   0.265E-10
  72 F= -.64850111E+02 E0= -.64845110E+02  d E =0.873115E-10
quench:  g(F)=  0.000E+00 g(S)=  0.000E+00 dE (1.order)= 0.000E+00
 bond charge predicted
       N       E                     dE             d eps       ncg     rms          rms(c)
DAV:   1    -0.648501114552E+02    0.77853E-09    0.66525E-11    84   0.282E-10    0.219E-10
RMM:   2    -0.648501114556E+02   -0.38381E-09    0.00000E+00     0   0.259E-10
  73 F= -.64850111E+02 E0= -.64845110E+02  d E =0.363798E-11
quench:  g(F)=  0.000E+00 g(S)=  0.000E+00 dE (1.order)= 0.000E+00
 bond charge predicted
       N       E                     dE             d eps       ncg     rms          rms(c)
DAV:   1    -0.648501114555E+02   -0.30923E-09    0.37906E-11    84   0.255E-10    0.219E-10
RMM:   2    -0.648501114556E+02   -0.38199E-10    0.00000E+00     0   0.228E-10
  74 F= -.64850111E+02 E0= -.64845110E+02  d E =0.363798E-10
quench:  g(F)=  0.000E+00 g(S)=  0.000E+00 dE (1.order)= 0.000E+00
 bond charge predicted
       N       E                     dE             d eps       ncg     rms          rms(c)
DAV:   1    -0.648501114555E+02    0.18190E-11   -0.31258E-12    84   0.230E-10    0.144E-10
RMM:   2    -0.648501114556E+02   -0.38199E-10    0.00000E+00     0   0.192E-10
  75 F= -.64850111E+02 E0= -.64845110E+02  d E =0.181899E-11
quench:  g(F)=  0.000E+00 g(S)=  0.000E+00 dE (1.order)= 0.000E+00
 bond charge predicted
       N       E                     dE             d eps       ncg     rms          rms(c)
DAV:   1    -0.648501114551E+02    0.44201E-09    0.56770E-11    84   0.188E-10    0.217E-10
RMM:   2    -0.648501114557E+02   -0.58208E-09    0.00000E+00     0   0.163E-10
  76 F= -.64850111E+02 E0= -.64845110E+02  d E =-.101863E-09
quench:  g(F)=  0.000E+00 g(S)=  0.000E+00 dE (1.order)= 0.000E+00
 bond charge predicted
       N       E                     dE             d eps       ncg     rms          rms(c)
DAV:   1    -0.648501114561E+02   -0.98771E-09    0.53356E-11    84   0.327E-10    0.568E-10
RMM:   2    -0.648501114556E+02    0.42201E-09    0.00000E+00     0   0.279E-10
  77 F= -.64850111E+02 E0= -.64845110E+02  d E =0.163709E-10
quench:  g(F)=  0.000E+00 g(S)=  0.000E+00 dE (1.order)= 0.000E+00
 bond charge predicted
       N       E                     dE             d eps       ncg     rms          rms(c)
DAV:   1    -0.648501114556E+02    0.50932E-09    0.58523E-11    84   0.332E-10    0.303E-10
RMM:   2    -0.648501114555E+02    0.38199E-10    0.00000E+00     0   0.244E-10
  78 F= -.64850111E+02 E0= -.64845110E+02  d E =0.125510E-09
quench:  g(F)=  0.000E+00 g(S)=  0.000E+00 dE (1.order)= 0.000E+00
 bond charge predicted
       N       E                     dE             d eps       ncg     rms          rms(c)
DAV:   1    -0.648501114550E+02    0.55479E-09   -0.23373E-11    84   0.270E-10    0.167E-10
RMM:   2    -0.648501114556E+02   -0.61846E-09    0.00000E+00     0   0.176E-10
  79 F= -.64850111E+02 E0= -.64845110E+02  d E =-.101863E-09
quench:  g(F)=  0.000E+00 g(S)=  0.000E+00 dE (1.order)= 0.000E+00
 bond charge predicted
       N       E                     dE             d eps       ncg     rms          rms(c)
DAV:   1    -0.648501114556E+02   -0.54752E-09    0.26589E-11    84   0.219E-10    0.379E-10
RMM:   2    -0.648501114556E+02   -0.16371E-10    0.00000E+00     0   0.277E-10
  80 F= -.64850111E+02 E0= -.64845110E+02  d E =0.545697E-10
quench:  g(F)=  0.000E+00 g(S)=  0.000E+00 dE (1.order)= 0.000E+00
 bond charge predicted
       N       E                     dE             d eps       ncg     rms          rms(c)
DAV:   1    -0.648501114555E+02    0.45475E-10    0.50615E-11    84   0.274E-10    0.230E-10
RMM:   2    -0.648501114556E+02   -0.78217E-10    0.00000E+00     0   0.146E-10
  81 F= -.64850111E+02 E0= -.64845110E+02  d E =-.163709E-10
quench:  g(F)=  0.000E+00 g(S)=  0.000E+00 dE (1.order)= 0.000E+00
 bond charge predicted
       N       E                     dE             d eps       ncg     rms          rms(c)
DAV:   1    -0.648501114553E+02    0.17462E-09    0.96952E-12    84   0.250E-10    0.477E-10
RMM:   2    -0.648501114555E+02   -0.21282E-09    0.00000E+00     0   0.273E-10
  82 F= -.64850111E+02 E0= -.64845110E+02  d E =0.400178E-10
quench:  g(F)=  0.000E+00 g(S)=  0.000E+00 dE (1.order)= 0.000E+00
 bond charge predicted
       N       E                     dE             d eps       ncg     rms          rms(c)
DAV:   1    -0.648501114556E+02   -0.24556E-09    0.33168E-11    84   0.280E-10    0.232E-10
RMM:   2    -0.648501114556E+02   -0.58208E-10    0.00000E+00     0   0.187E-10
  83 F= -.64850111E+02 E0= -.64845110E+02  d E =-.909495E-10
quench:  g(F)=  0.000E+00 g(S)=  0.000E+00 dE (1.order)= 0.000E+00
 bond charge predicted
       N       E                     dE             d eps       ncg     rms          rms(c)
DAV:   1    -0.648501114556E+02   -0.65484E-10    0.34175E-11    84   0.190E-10    0.418E-10
RMM:   2    -0.648501114556E+02    0.81855E-10    0.00000E+00     0   0.260E-10
  84 F= -.64850111E+02 E0= -.64845110E+02  d E =0.745786E-10
quench:  g(F)=  0.000E+00 g(S)=  0.000E+00 dE (1.order)= 0.000E+00
 bond charge predicted
       N       E                     dE             d eps       ncg     rms          rms(c)
DAV:   1    -0.648501114556E+02    0.21828E-10    0.36485E-11    84   0.273E-10    0.262E-10
RMM:   2    -0.648501114556E+02   -0.10914E-10    0.00000E+00     0   0.160E-10
  85 F= -.64850111E+02 E0= -.64845110E+02  d E =-.709406E-10
quench:  g(F)=  0.000E+00 g(S)=  0.000E+00 dE (1.order)= 0.000E+00
 bond charge predicted
       N       E                     dE             d eps       ncg     rms          rms(c)
DAV:   1    -0.648501114558E+02   -0.20555E-09    0.42588E-11    84   0.194E-10    0.211E-10
RMM:   2    -0.648501114556E+02    0.19463E-09    0.00000E+00     0   0.152E-10
  86 F= -.64850111E+02 E0= -.64845110E+02  d E =0.000000E+00
quench:  g(F)=  0.000E+00 g(S)=  0.000E+00 dE (1.order)= 0.000E+00
 bond charge predicted
       N       E                     dE             d eps       ncg     rms          rms(c)
DAV:   1    -0.648501114559E+02   -0.10550E-09    0.78220E-11    84   0.140E-10    0.247E-10
RMM:   2    -0.648501114556E+02    0.35288E-09    0.00000E+00     0   0.247E-10
  87 F= -.64850111E+02 E0= -.64845110E+02  d E =0.527507E-10
quench:  g(F)=  0.000E+00 g(S)=  0.000E+00 dE (1.order)= 0.000E+00
 bond charge predicted
       N       E                     dE             d eps       ncg     rms          rms(c)
DAV:   1    -0.648501114560E+02   -0.50932E-10    0.18904E-11    84   0.158E-10    0.244E-10
RMM:   2    -0.648501114556E+02    0.37653E-09    0.00000E+00     0   0.156E-10
  88 F= -.64850111E+02 E0= -.64845110E+02  d E =-.272848E-10
quench:  g(F)=  0.000E+00 g(S)=  0.000E+00 dE (1.order)= 0.000E+00
 bond charge predicted
       N       E                     dE             d eps       ncg     rms          rms(c)
DAV:   1    -0.648501114559E+02    0.87311E-10    0.12071E-11    84   0.159E-10    0.210E-10
RMM:   2    -0.648501114556E+02    0.34197E-09    0.00000E+00     0   0.179E-10
  89 F= -.64850111E+02 E0= -.64845110E+02  d E =0.527507E-10
quench:  g(F)=  0.000E+00 g(S)=  0.000E+00 dE (1.order)= 0.000E+00
 bond charge predicted
       N       E                     dE             d eps       ncg     rms          rms(c)
DAV:   1    -0.648501114557E+02    0.16189E-09    0.13992E-12    84   0.190E-10    0.377E-10
RMM:   2    -0.648501114556E+02    0.13279E-09    0.00000E+00     0   0.190E-10
  90 F= -.64850111E+02 E0= -.64845110E+02  d E =-.472937E-10
quench:  g(F)=  0.000E+00 g(S)=  0.000E+00 dE (1.order)= 0.000E+00
 bond charge predicted
       N       E                     dE             d eps       ncg     rms          rms(c)
DAV:   1    -0.648501114552E+02    0.57662E-09    0.28426E-11    84   0.182E-10    0.288E-10
RMM:   2    -0.648501114556E+02   -0.42382E-09    0.00000E+00     0   0.135E-10
  91 F= -.64850111E+02 E0= -.64845110E+02  d E =0.200089E-10
quench:  g(F)=  0.000E+00 g(S)=  0.000E+00 dE (1.order)= 0.000E+00
 bond charge predicted
       N       E                     dE             d eps       ncg     rms          rms(c)
DAV:   1    -0.648501114553E+02   -0.12733E-09   -0.11696E-11    84   0.200E-10    0.448E-10
RMM:   2    -0.648501114557E+02   -0.38563E-09    0.00000E+00     0   0.229E-10
  92 F= -.64850111E+02 E0= -.64845110E+02  d E =-.891305E-10
quench:  g(F)=  0.000E+00 g(S)=  0.000E+00 dE (1.order)= 0.000E+00
 bond charge predicted
       N       E                     dE             d eps       ncg     rms          rms(c)
DAV:   1    -0.648501114558E+02   -0.49840E-09    0.14176E-11    84   0.327E-10    0.447E-10
RMM:   2    -0.648501114557E+02    0.12733E-09    0.00000E+00     0   0.265E-10
  93 F= -.64850111E+02 E0= -.64845110E+02  d E =0.145519E-10
quench:  g(F)=  0.000E+00 g(S)=  0.000E+00 dE (1.order)= 0.000E+00
 bond charge predicted
       N       E                     dE             d eps       ncg     rms          rms(c)
DAV:   1    -0.648501114560E+02   -0.21100E-09   -0.12473E-11    84   0.355E-10    0.254E-10
RMM:   2    -0.648501114556E+02    0.39108E-09    0.00000E+00     0   0.221E-10
  94 F= -.64850111E+02 E0= -.64845110E+02  d E =0.527507E-10
quench:  g(F)=  0.000E+00 g(S)=  0.000E+00 dE (1.order)= 0.000E+00
 bond charge predicted
       N       E                     dE             d eps       ncg     rms          rms(c)
DAV:   1    -0.648501114560E+02    0.16371E-10    0.23042E-11    84   0.220E-10    0.217E-10
RMM:   2    -0.648501114556E+02    0.37289E-09    0.00000E+00     0   0.209E-10
  95 F= -.64850111E+02 E0= -.64845110E+02  d E =-.181899E-11
quench:  g(F)=  0.000E+00 g(S)=  0.000E+00 dE (1.order)= 0.000E+00
 bond charge predicted
       N       E                     dE             d eps       ncg     rms          rms(c)
DAV:   1    -0.648501114558E+02    0.21828E-09    0.57189E-11    84   0.186E-10    0.251E-10
RMM:   2    -0.648501114556E+02    0.15643E-09    0.00000E+00     0   0.130E-10
  96 F= -.64850111E+02 E0= -.64845110E+02  d E =0.181899E-11
quench:  g(F)=  0.000E+00 g(S)=  0.000E+00 dE (1.order)= 0.000E+00
 bond charge predicted
       N       E                     dE             d eps       ncg     rms          rms(c)
DAV:   1    -0.648501114554E+02    0.35834E-09    0.96670E-11    84   0.153E-10    0.115E-10
RMM:   2    -0.648501114556E+02   -0.21464E-09    0.00000E+00     0   0.139E-10
  97 F= -.64850111E+02 E0= -.64845110E+02  d E =-.127329E-10
quench:  g(F)=  0.000E+00 g(S)=  0.000E+00 dE (1.order)= 0.000E+00
 bond charge predicted
       N       E                     dE             d eps       ncg     rms          rms(c)
DAV:   1    -0.648501114554E+02    0.36380E-11    0.73612E-11    84   0.126E-10    0.387E-10
RMM:   2    -0.648501114556E+02   -0.23101E-09    0.00000E+00     0   0.218E-10
  98 F= -.64850111E+02 E0= -.64845110E+02  d E =-.127329E-10
quench:  g(F)=  0.000E+00 g(S)=  0.000E+00 dE (1.order)= 0.000E+00
 bond charge predicted
       N       E                     dE             d eps       ncg     rms          rms(c)
DAV:   1    -0.648501114560E+02   -0.58935E-09   -0.38297E-11    84   0.327E-10    0.282E-10
RMM:   2    -0.648501114556E+02    0.35652E-09    0.00000E+00     0   0.223E-10
  99 F= -.64850111E+02 E0= -.64845110E+02  d E =-.181899E-11
quench:  g(F)=  0.000E+00 g(S)=  0.000E+00 dE (1.order)= 0.000E+00
 bond charge predicted
       N       E                     dE             d eps       ncg     rms          rms(c)
DAV:   1    -0.648501114556E+02    0.40200E-09    0.26661E-11    84   0.225E-10    0.248E-10
RMM:   2    -0.648501114556E+02    0.30923E-10    0.00000E+00     0   0.277E-10
 100 F= -.64850111E+02 E0= -.64845110E+02  d E =0.763976E-10
quench:  g(F)=  0.000E+00 g(S)=  0.000E+00 dE (1.order)= 0.000E+00
 bond charge predicted
       N       E                     dE             d eps       ncg     rms          rms(c)
DAV:   1    -0.648501114560E+02   -0.45839E-09    0.36655E-11    84   0.236E-10    0.237E-10
RMM:   2    -0.648501114556E+02    0.46566E-09    0.00000E+00     0   0.209E-10
 101 F= -.64850111E+02 E0= -.64845110E+02  d E =-.236469E-10
quench:  g(F)=  0.000E+00 g(S)=  0.000E+00 dE (1.order)= 0.000E+00
 bond charge predicted
       N       E                     dE             d eps       ncg     rms          rms(c)
DAV:   1    -0.648501114557E+02    0.37653E-09    0.10752E-11    84   0.158E-10    0.275E-10
RMM:   2    -0.648501114556E+02    0.32742E-10    0.00000E+00     0   0.152E-10
 102 F= -.64850111E+02 E0= -.64845110E+02  d E =-.563887E-10
quench:  g(F)=  0.000E+00 g(S)=  0.000E+00 dE (1.order)= 0.000E+00
 bond charge predicted
       N       E                     dE             d eps       ncg     rms          rms(c)
DAV:   1    -0.648501114558E+02   -0.17280E-09    0.52680E-11    84   0.189E-10    0.231E-10
RMM:   2    -0.648501114557E+02    0.16007E-09    0.00000E+00     0   0.176E-10
 103 F= -.64850111E+02 E0= -.64845110E+02  d E =-.454747E-10
quench:  g(F)=  0.000E+00 g(S)=  0.000E+00 dE (1.order)= 0.000E+00
 bond charge predicted
       N       E                     dE             d eps       ncg     rms          rms(c)
DAV:   1    -0.648501114556E+02    0.28922E-09   -0.17827E-11    84   0.216E-10    0.406E-10
RMM:   2    -0.648501114556E+02   -0.40018E-10    0.00000E+00     0   0.262E-10
 104 F= -.64850111E+02 E0= -.64845110E+02  d E =0.891305E-10
quench:  g(F)=  0.000E+00 g(S)=  0.000E+00 dE (1.order)= 0.000E+00
 bond charge predicted
       N       E                     dE             d eps       ncg     rms          rms(c)
DAV:   1    -0.648501114555E+02    0.74579E-10    0.74492E-11    84   0.297E-10    0.257E-10
RMM:   2    -0.648501114556E+02   -0.12369E-09    0.00000E+00     0   0.212E-10
 105 F= -.64850111E+02 E0= -.64845110E+02  d E =-.909495E-11
quench:  g(F)=  0.000E+00 g(S)=  0.000E+00 dE (1.order)= 0.000E+00
 bond charge predicted
       N       E                     dE             d eps       ncg     rms          rms(c)
DAV:   1    -0.648501114549E+02    0.60754E-09    0.74068E-11    84   0.217E-10    0.314E-10
RMM:   2    -0.648501114556E+02   -0.74579E-09    0.00000E+00     0   0.212E-10
 106 F= -.64850111E+02 E0= -.64845110E+02  d E =-.145519E-10
quench:  g(F)=  0.000E+00 g(S)=  0.000E+00 dE (1.order)= 0.000E+00
 bond charge predicted
       N       E                     dE             d eps       ncg     rms          rms(c)
DAV:   1    -0.648501114560E+02   -0.11460E-08   -0.13155E-12    84   0.247E-10    0.331E-10
RMM:   2    -0.648501114556E+02    0.44020E-09    0.00000E+00     0   0.305E-10
 107 F= -.64850111E+02 E0= -.64845110E+02  d E =0.400178E-10
quench:  g(F)=  0.000E+00 g(S)=  0.000E+00 dE (1.order)= 0.000E+00
 bond charge predicted
       N       E                     dE             d eps       ncg     rms          rms(c)
DAV:   1    -0.648501114550E+02    0.10277E-08    0.13984E-11    84   0.219E-10    0.255E-10
RMM:   2    -0.648501114556E+02   -0.59481E-09    0.00000E+00     0   0.189E-10
 108 F= -.64850111E+02 E0= -.64845110E+02  d E =-.727596E-11
quench:  g(F)=  0.000E+00 g(S)=  0.000E+00 dE (1.order)= 0.000E+00
 bond charge predicted
       N       E                     dE             d eps       ncg     rms          rms(c)
DAV:   1    -0.648501114555E+02   -0.52751E-09    0.89960E-12    84   0.224E-10    0.298E-10
RMM:   2    -0.648501114556E+02   -0.67303E-10    0.00000E+00     0   0.251E-10
 109 F= -.64850111E+02 E0= -.64845110E+02  d E =0.000000E+00
quench:  g(F)=  0.000E+00 g(S)=  0.000E+00 dE (1.order)= 0.000E+00
 bond charge predicted
       N       E                     dE             d eps       ncg     rms          rms(c)
DAV:   1    -0.648501114558E+02   -0.26921E-09    0.44495E-11    84   0.238E-10    0.262E-10
RMM:   2    -0.648501114556E+02    0.21100E-09    0.00000E+00     0   0.170E-10
 110 F= -.64850111E+02 E0= -.64845110E+02  d E =0.909495E-11
quench:  g(F)=  0.000E+00 g(S)=  0.000E+00 dE (1.order)= 0.000E+00
 bond charge predicted
       N       E                     dE             d eps       ncg     rms          rms(c)
DAV:   1    -0.648501114561E+02   -0.36198E-09    0.24967E-11    84   0.228E-10    0.178E-10
RMM:   2    -0.648501114556E+02    0.50932E-09    0.00000E+00     0   0.173E-10
 111 F= -.64850111E+02 E0= -.64845110E+02  d E =-.636646E-10
quench:  g(F)=  0.000E+00 g(S)=  0.000E+00 dE (1.order)= 0.000E+00
 bond charge predicted
       N       E                     dE             d eps       ncg     rms          rms(c)
DAV:   1    -0.648501114556E+02    0.52751E-09   -0.19963E-11    84   0.152E-10    0.214E-10
RMM:   2    -0.648501114557E+02   -0.60027E-10    0.00000E+00     0   0.164E-10
 112 F= -.64850111E+02 E0= -.64845110E+02  d E =-.418368E-10
quench:  g(F)=  0.000E+00 g(S)=  0.000E+00 dE (1.order)= 0.000E+00
 bond charge predicted
       N       E                     dE             d eps       ncg     rms          rms(c)
DAV:   1    -0.648501114557E+02   -0.63665E-10    0.58402E-11    84   0.185E-10    0.216E-10
RMM:   2    -0.648501114556E+02    0.58208E-10    0.00000E+00     0   0.142E-10
 113 F= -.64850111E+02 E0= -.64845110E+02  d E =0.545697E-10
quench:  g(F)=  0.000E+00 g(S)=  0.000E+00 dE (1.order)= 0.000E+00
 bond charge predicted
       N       E                     dE             d eps       ncg     rms          rms(c)
DAV:   1    -0.648501114559E+02   -0.18008E-09    0.31074E-11    84   0.160E-10    0.169E-10
RMM:   2    -0.648501114555E+02    0.34015E-09    0.00000E+00     0   0.130E-10
 114 F= -.64850111E+02 E0= -.64845110E+02  d E =0.101863E-09
quench:  g(F)=  0.000E+00 g(S)=  0.000E+00 dE (1.order)= 0.000E+00
 bond charge predicted
       N       E                     dE             d eps       ncg     rms          rms(c)
DAV:   1    -0.648501114556E+02    0.28740E-09    0.70023E-12    84   0.188E-10    0.363E-10
RMM:   2    -0.648501114556E+02   -0.56389E-10    0.00000E+00     0   0.267E-10
 115 F= -.64850111E+02 E0= -.64845110E+02  d E =-.109139E-09
quench:  g(F)=  0.000E+00 g(S)=  0.000E+00 dE (1.order)= 0.000E+00
 bond charge predicted
       N       E                     dE             d eps       ncg     rms          rms(c)
DAV:   1    -0.648501114547E+02    0.86766E-09    0.50990E-11    84   0.290E-10    0.135E-10
RMM:   2    -0.648501114556E+02   -0.90768E-09    0.00000E+00     0   0.192E-10
 116 F= -.64850111E+02 E0= -.64845110E+02  d E =0.163709E-10
quench:  g(F)=  0.000E+00 g(S)=  0.000E+00 dE (1.order)= 0.000E+00
 bond charge predicted
       N       E                     dE             d eps       ncg     rms          rms(c)
DAV:   1    -0.648501114554E+02   -0.73487E-09    0.22762E-11    84   0.151E-10    0.233E-10
RMM:   2    -0.648501114556E+02   -0.19099E-09    0.00000E+00     0   0.135E-10
 117 F= -.64850111E+02 E0= -.64845110E+02  d E =-.181899E-10
quench:  g(F)=  0.000E+00 g(S)=  0.000E+00 dE (1.order)= 0.000E+00
 bond charge predicted
       N       E                     dE             d eps       ncg     rms          rms(c)
DAV:   1    -0.648501114551E+02    0.34379E-09    0.49870E-11    84   0.166E-10    0.232E-10
RMM:   2    -0.648501114555E+02   -0.42382E-09    0.00000E+00     0   0.167E-10
 118 F= -.64850111E+02 E0= -.64845110E+02  d E =0.110958E-09
quench:  g(F)=  0.000E+00 g(S)=  0.000E+00 dE (1.order)= 0.000E+00
 bond charge predicted
       N       E                     dE             d eps       ncg     rms          rms(c)
DAV:   1    -0.648501114559E+02   -0.81309E-09    0.22348E-11    84   0.210E-10    0.222E-10
RMM:   2    -0.648501114556E+02    0.27285E-09    0.00000E+00     0   0.229E-10
 119 F= -.64850111E+02 E0= -.64845110E+02  d E =-.116415E-09
quench:  g(F)=  0.000E+00 g(S)=  0.000E+00 dE (1.order)= 0.000E+00
 bond charge predicted
       N       E                     dE             d eps       ncg     rms          rms(c)
DAV:   1    -0.648501114557E+02    0.22737E-09    0.35449E-11    84   0.218E-10    0.191E-10
RMM:   2    -0.648501114556E+02    0.12187E-09    0.00000E+00     0   0.223E-10
 120 F= -.64850111E+02 E0= -.64845110E+02  d E =0.763976E-10
quench:  g(F)=  0.000E+00 g(S)=  0.000E+00 dE (1.order)= 0.000E+00
 bond charge predicted
       N       E                     dE             d eps       ncg     rms          rms(c)
DAV:   1    -0.648501114555E+02    0.15461E-09    0.63556E-11    84   0.166E-10    0.218E-10
RMM:   2    -0.648501114557E+02   -0.17280E-09    0.00000E+00     0   0.118E-10
 121 F= -.64850111E+02 E0= -.64845110E+02  d E =-.140062E-09
quench:  g(F)=  0.000E+00 g(S)=  0.000E+00 dE (1.order)= 0.000E+00
 bond charge predicted
       N       E                     dE             d eps       ncg     rms          rms(c)
DAV:   1    -0.648501114562E+02   -0.69485E-09    0.15923E-11    84   0.162E-10    0.170E-10
RMM:   2    -0.648501114557E+02    0.53842E-09    0.00000E+00     0   0.202E-10
 122 F= -.64850111E+02 E0= -.64845110E+02  d E =0.163709E-10
quench:  g(F)=  0.000E+00 g(S)=  0.000E+00 dE (1.order)= 0.000E+00
 bond charge predicted
       N       E                     dE             d eps       ncg     rms          rms(c)
DAV:   1    -0.648501114558E+02    0.43110E-09    0.81145E-13    84   0.182E-10    0.247E-10
RMM:   2    -0.648501114557E+02    0.96406E-10    0.00000E+00     0   0.175E-10
 123 F= -.64850111E+02 E0= -.64845110E+02  d E =-.109139E-10
quench:  g(F)=  0.000E+00 g(S)=  0.000E+00 dE (1.order)= 0.000E+00
 bond charge predicted
       N       E                     dE             d eps       ncg     rms          rms(c)
DAV:   1    -0.648501114558E+02    0.41837E-10    0.39028E-11    84   0.213E-10    0.257E-10
RMM:   2    -0.648501114556E+02    0.17462E-09    0.00000E+00     0   0.222E-10
 124 F= -.64850111E+02 E0= -.64845110E+02  d E =0.120053E-09
quench:  g(F)=  0.000E+00 g(S)=  0.000E+00 dE (1.order)= 0.000E+00
 bond charge predicted
       N       E                     dE             d eps       ncg     rms          rms(c)
DAV:   1    -0.648501114559E+02   -0.19645E-09    0.57577E-11    84   0.242E-10    0.274E-10
RMM:   2    -0.648501114556E+02    0.35652E-09    0.00000E+00     0   0.236E-10
 125 F= -.64850111E+02 E0= -.64845110E+02  d E =-.145519E-10
quench:  g(F)=  0.000E+00 g(S)=  0.000E+00 dE (1.order)= 0.000E+00
 bond charge predicted
       N       E                     dE             d eps       ncg     rms          rms(c)
DAV:   1    -0.648501114550E+02    0.98589E-09   -0.84785E-12    84   0.300E-10    0.265E-10
RMM:   2    -0.648501114555E+02   -0.58208E-09    0.00000E+00     0   0.184E-10
 126 F= -.64850111E+02 E0= -.64845110E+02  d E =0.472937E-10
quench:  g(F)=  0.000E+00 g(S)=  0.000E+00 dE (1.order)= 0.000E+00
 bond charge predicted
       N       E                     dE             d eps       ncg     rms          rms(c)
DAV:   1    -0.648501114553E+02   -0.37653E-09    0.63890E-11    84   0.220E-10    0.266E-10
RMM:   2    -0.648501114556E+02   -0.25830E-09    0.00000E+00     0   0.182E-10
 127 F= -.64850111E+02 E0= -.64845110E+02  d E =-.527507E-10
quench:  g(F)=  0.000E+00 g(S)=  0.000E+00 dE (1.order)= 0.000E+00
 bond charge predicted
       N       E                     dE             d eps       ncg     rms          rms(c)
DAV:   1    -0.648501114556E+02   -0.22919E-09   -0.72711E-12    84   0.286E-10    0.403E-10
RMM:   2    -0.648501114556E+02   -0.34561E-10    0.00000E+00     0   0.288E-10
 128 F= -.64850111E+02 E0= -.64845110E+02  d E =-.545697E-11
quench:  g(F)=  0.000E+00 g(S)=  0.000E+00 dE (1.order)= 0.000E+00
 bond charge predicted
       N       E                     dE             d eps       ncg     rms          rms(c)
DAV:   1    -0.648501114563E+02   -0.68940E-09    0.11242E-11    84   0.322E-10    0.209E-10
RMM:   2    -0.648501114556E+02    0.64028E-09    0.00000E+00     0   0.146E-10
 129 F= -.64850111E+02 E0= -.64845110E+02  d E =-.145519E-10
quench:  g(F)=  0.000E+00 g(S)=  0.000E+00 dE (1.order)= 0.000E+00
 bond charge predicted
       N       E                     dE             d eps       ncg     rms          rms(c)
DAV:   1    -0.648501114559E+02    0.34925E-09   -0.56105E-12    84   0.169E-10    0.254E-10
RMM:   2    -0.648501114556E+02    0.29650E-09    0.00000E+00     0   0.151E-10
 130 F= -.64850111E+02 E0= -.64845110E+02  d E =0.545697E-11
quench:  g(F)=  0.000E+00 g(S)=  0.000E+00 dE (1.order)= 0.000E+00
 bond charge predicted
       N       E                     dE             d eps       ncg     rms          rms(c)
DAV:   1    -0.648501114554E+02    0.49477E-09    0.43578E-11    84   0.205E-10    0.305E-10
RMM:   2    -0.648501114556E+02   -0.22010E-09    0.00000E+00     0   0.199E-10
 131 F= -.64850111E+02 E0= -.64845110E+02  d E =-.218279E-10
quench:  g(F)=  0.000E+00 g(S)=  0.000E+00 dE (1.order)= 0.000E+00
 bond charge predicted
       N       E                     dE             d eps       ncg     rms          rms(c)
DAV:   1    -0.648501114560E+02   -0.56025E-09    0.47851E-11    84   0.300E-10    0.357E-10
RMM:   2    -0.648501114557E+02    0.32014E-09    0.00000E+00     0   0.233E-10
 132 F= -.64850111E+02 E0= -.64845110E+02  d E =-.200089E-10
quench:  g(F)=  0.000E+00 g(S)=  0.000E+00 dE (1.order)= 0.000E+00
 bond charge predicted
       N       E                     dE             d eps       ncg     rms          rms(c)
DAV:   1    -0.648501114557E+02    0.23101E-09    0.87626E-12    84   0.302E-10    0.343E-10
RMM:   2    -0.648501114556E+02    0.94587E-10    0.00000E+00     0   0.229E-10
 133 F= -.64850111E+02 E0= -.64845110E+02  d E =0.545697E-11
quench:  g(F)=  0.000E+00 g(S)=  0.000E+00 dE (1.order)= 0.000E+00
 bond charge predicted
       N       E                     dE             d eps       ncg     rms          rms(c)
DAV:   1    -0.648501114555E+02    0.19827E-09    0.32341E-11    84   0.290E-10    0.364E-10
RMM:   2    -0.648501114555E+02    0.00000E+00    0.00000E+00     0   0.233E-10
 134 F= -.64850111E+02 E0= -.64845110E+02  d E =0.103682E-09
quench:  g(F)=  0.000E+00 g(S)=  0.000E+00 dE (1.order)= 0.000E+00
 bond charge predicted
       N       E                     dE             d eps       ncg     rms          rms(c)
DAV:   1    -0.648501114560E+02   -0.49477E-09   -0.21027E-11    84   0.261E-10    0.145E-10
RMM:   2    -0.648501114556E+02    0.48385E-09    0.00000E+00     0   0.242E-10
 135 F= -.64850111E+02 E0= -.64845110E+02  d E =-.109139E-10
quench:  g(F)=  0.000E+00 g(S)=  0.000E+00 dE (1.order)= 0.000E+00
 bond charge predicted
       N       E                     dE             d eps       ncg     rms          rms(c)
DAV:   1    -0.648501114561E+02   -0.70941E-10    0.66187E-11    84   0.172E-10    0.143E-10
RMM:   2    -0.648501114557E+02    0.41655E-09    0.00000E+00     0   0.150E-10
 136 F= -.64850111E+02 E0= -.64845110E+02  d E =-.138243E-09
quench:  g(F)=  0.000E+00 g(S)=  0.000E+00 dE (1.order)= 0.000E+00
 bond charge predicted
       N       E                     dE             d eps       ncg     rms          rms(c)
DAV:   1    -0.648501114550E+02    0.10641E-08    0.87766E-11    84   0.163E-10    0.239E-10
RMM:   2    -0.648501114556E+02   -0.57662E-09    0.00000E+00     0   0.175E-10
 137 F= -.64850111E+02 E0= -.64845110E+02  d E =0.709406E-10
quench:  g(F)=  0.000E+00 g(S)=  0.000E+00 dE (1.order)= 0.000E+00
 bond charge predicted
       N       E                     dE             d eps       ncg     rms          rms(c)
DAV:   1    -0.648501114555E+02   -0.42564E-09    0.46184E-11    84   0.193E-10    0.277E-10
RMM:   2    -0.648501114556E+02   -0.14916E-09    0.00000E+00     0   0.157E-10
 138 F= -.64850111E+02 E0= -.64845110E+02  d E =0.181899E-11
quench:  g(F)=  0.000E+00 g(S)=  0.000E+00 dE (1.order)= 0.000E+00
 bond charge predicted
       N       E                     dE             d eps       ncg     rms          rms(c)
DAV:   1    -0.648501114549E+02    0.54206E-09    0.34478E-11    84   0.214E-10    0.166E-10
RMM:   2    -0.648501114555E+02   -0.58390E-09    0.00000E+00     0   0.152E-10
 139 F= -.64850111E+02 E0= -.64845110E+02  d E =0.107320E-09
quench:  g(F)=  0.000E+00 g(S)=  0.000E+00 dE (1.order)= 0.000E+00
 bond charge predicted
       N       E                     dE             d eps       ncg     rms          rms(c)
DAV:   1    -0.648501114565E+02   -0.15225E-08    0.67584E-11    84   0.151E-10    0.213E-10
RMM:   2    -0.648501114555E+02    0.93314E-09    0.00000E+00     0   0.155E-10
 140 F= -.64850111E+02 E0= -.64845110E+02  d E =-.545697E-11
quench:  g(F)=  0.000E+00 g(S)=  0.000E+00 dE (1.order)= 0.000E+00
 bond charge predicted
       N       E                     dE             d eps       ncg     rms          rms(c)
DAV:   1    -0.648501114555E+02    0.95679E-09    0.56077E-11    84   0.174E-10    0.196E-10
RMM:   2    -0.648501114556E+02   -0.54570E-10    0.00000E+00     0   0.152E-10
 141 F= -.64850111E+02 E0= -.64845110E+02  d E =-.309228E-10
quench:  g(F)=  0.000E+00 g(S)=  0.000E+00 dE (1.order)= 0.000E+00
 bond charge predicted
       N       E                     dE             d eps       ncg     rms          rms(c)
DAV:   1    -0.648501114558E+02   -0.34743E-09    0.51546E-11    84   0.128E-10    0.199E-10
RMM:   2    -0.648501114556E+02    0.20373E-09    0.00000E+00     0   0.138E-10
 142 F= -.64850111E+02 E0= -.64845110E+02  d E =-.891305E-10
quench:  g(F)=  0.000E+00 g(S)=  0.000E+00 dE (1.order)= 0.000E+00
 bond charge predicted
       N       E                     dE             d eps       ncg     rms          rms(c)
DAV:   1    -0.648501114551E+02    0.73851E-09    0.26927E-11    84   0.144E-10    0.169E-10
RMM:   2    -0.648501114555E+02   -0.40018E-09    0.00000E+00     0   0.171E-10
 143 F= -.64850111E+02 E0= -.64845110E+02  d E =0.134605E-09
quench:  g(F)=  0.000E+00 g(S)=  0.000E+00 dE (1.order)= 0.000E+00
 bond charge predicted
       N       E                     dE             d eps       ncg     rms          rms(c)
DAV:   1    -0.648501114552E+02   -0.13279E-09    0.70595E-12    84   0.202E-10    0.426E-10
RMM:   2    -0.648501114556E+02   -0.40382E-09    0.00000E+00     0   0.250E-10
 144 F= -.64850111E+02 E0= -.64845110E+02  d E =-.136424E-09
quench:  g(F)=  0.000E+00 g(S)=  0.000E+00 dE (1.order)= 0.000E+00
 bond charge predicted
       N       E                     dE             d eps       ncg     rms          rms(c)
DAV:   1    -0.648501114551E+02    0.14552E-09    0.23378E-11    84   0.355E-10    0.186E-10
RMM:   2    -0.648501114557E+02   -0.61664E-09    0.00000E+00     0   0.230E-10
 145 F= -.64850111E+02 E0= -.64845110E+02  d E =-.673026E-10
quench:  g(F)=  0.000E+00 g(S)=  0.000E+00 dE (1.order)= 0.000E+00
 bond charge predicted
       N       E                     dE             d eps       ncg     rms          rms(c)
DAV:   1    -0.648501114557E+02   -0.58208E-09   -0.13788E-12    84   0.182E-10    0.159E-10
RMM:   2    -0.648501114556E+02    0.90949E-10    0.00000E+00     0   0.172E-10
 146 F= -.64850111E+02 E0= -.64845110E+02  d E =0.125510E-09
quench:  g(F)=  0.000E+00 g(S)=  0.000E+00 dE (1.order)= 0.000E+00
 bond charge predicted
       N       E                     dE             d eps       ncg     rms          rms(c)
DAV:   1    -0.648501114554E+02    0.27467E-09    0.17422E-11    84   0.161E-10    0.349E-10
RMM:   2    -0.648501114556E+02   -0.20373E-09    0.00000E+00     0   0.210E-10
 147 F= -.64850111E+02 E0= -.64845110E+02  d E =-.200089E-10
quench:  g(F)=  0.000E+00 g(S)=  0.000E+00 dE (1.order)= 0.000E+00
 bond charge predicted
       N       E                     dE             d eps       ncg     rms          rms(c)
DAV:   1    -0.648501114558E+02   -0.36198E-09    0.70531E-11    84   0.219E-10    0.198E-10
RMM:   2    -0.648501114556E+02    0.14916E-09    0.00000E+00     0   0.182E-10
 148 F= -.64850111E+02 E0= -.64845110E+02  d E =-.909495E-11
quench:  g(F)=  0.000E+00 g(S)=  0.000E+00 dE (1.order)= 0.000E+00
 bond charge predicted
       N       E                     dE             d eps       ncg     rms          rms(c)
DAV:   1    -0.648501114559E+02   -0.18554E-09    0.51805E-11    84   0.155E-10    0.149E-10
RMM:   2    -0.648501114556E+02    0.35470E-09    0.00000E+00     0   0.207E-10
 149 F= -.64850111E+02 E0= -.64845110E+02  d E =0.200089E-10
quench:  g(F)=  0.000E+00 g(S)=  0.000E+00 dE (1.order)= 0.000E+00
 bond charge predicted
       N       E                     dE             d eps       ncg     rms          rms(c)
DAV:   1    -0.648501114559E+02    0.63665E-10    0.10147E-10    84   0.141E-10    0.209E-10
RMM:   2    -0.648501114556E+02    0.28194E-09    0.00000E+00     0   0.140E-10
 150 F= -.64850111E+02 E0= -.64845110E+02  d E =-.909495E-11
quench:  g(F)=  0.000E+00 g(S)=  0.000E+00 dE (1.order)= 0.000E+00
 bond charge predicted
       N       E                     dE             d eps       ncg     rms          rms(c)
DAV:   1    -0.648501114559E+02   -0.49113E-10    0.46888E-11    84   0.225E-10    0.333E-10
RMM:   2    -0.648501114556E+02    0.34379E-09    0.00000E+00     0   0.185E-10
 151 F= -.64850111E+02 E0= -.64845110E+02  d E =0.127329E-10
quench:  g(F)=  0.000E+00 g(S)=  0.000E+00 dE (1.order)= 0.000E+00
 bond charge predicted
       N       E                     dE             d eps       ncg     rms          rms(c)
DAV:   1    -0.648501114546E+02    0.13533E-08    0.28982E-11    84   0.242E-10    0.182E-10
RMM:   2    -0.648501114557E+02   -0.11005E-08    0.00000E+00     0   0.147E-10
 152 F= -.64850111E+02 E0= -.64845110E+02  d E =-.909495E-10
quench:  g(F)=  0.000E+00 g(S)=  0.000E+00 dE (1.order)= 0.000E+00
 bond charge predicted
       N       E                     dE             d eps       ncg     rms          rms(c)
DAV:   1    -0.648501114557E+02   -0.11023E-08    0.21907E-11    84   0.147E-10    0.333E-10
RMM:   2    -0.648501114556E+02    0.96406E-10    0.00000E+00     0   0.182E-10
 153 F= -.64850111E+02 E0= -.64845110E+02  d E =0.945874E-10
quench:  g(F)=  0.000E+00 g(S)=  0.000E+00 dE (1.order)= 0.000E+00
 bond charge predicted
       N       E                     dE             d eps       ncg     rms          rms(c)
DAV:   1    -0.648501114551E+02    0.57844E-09    0.94477E-12    84   0.229E-10    0.252E-10
RMM:   2    -0.648501114557E+02   -0.59299E-09    0.00000E+00     0   0.198E-10
 154 F= -.64850111E+02 E0= -.64845110E+02  d E =-.110958E-09
quench:  g(F)=  0.000E+00 g(S)=  0.000E+00 dE (1.order)= 0.000E+00
 bond charge predicted
       N       E                     dE             d eps       ncg     rms          rms(c)
DAV:   1    -0.648501114555E+02   -0.36925E-09    0.54612E-11    84   0.228E-10    0.189E-10
RMM:   2    -0.648501114557E+02   -0.20009E-09    0.00000E+00     0   0.206E-10
 155 F= -.64850111E+02 E0= -.64845110E+02  d E =0.236469E-10
quench:  g(F)=  0.000E+00 g(S)=  0.000E+00 dE (1.order)= 0.000E+00
 bond charge predicted
       N       E                     dE             d eps       ncg     rms          rms(c)
DAV:   1    -0.648501114549E+02    0.55297E-09    0.62256E-11    84   0.159E-10    0.290E-10
RMM:   2    -0.648501114555E+02   -0.62391E-09    0.00000E+00     0   0.169E-10
 156 F= -.64850111E+02 E0= -.64845110E+02  d E =0.129148E-09
quench:  g(F)=  0.000E+00 g(S)=  0.000E+00 dE (1.order)= 0.000E+00
 bond charge predicted
       N       E                     dE             d eps       ncg     rms          rms(c)
DAV:   1    -0.648501114561E+02   -0.12278E-08    0.31494E-11    84   0.249E-10    0.299E-10
RMM:   2    -0.648501114555E+02    0.61664E-09    0.00000E+00     0   0.188E-10
 157 F= -.64850111E+02 E0= -.64845110E+02  d E =0.127329E-10
quench:  g(F)=  0.000E+00 g(S)=  0.000E+00 dE (1.order)= 0.000E+00
 bond charge predicted
       N       E                     dE             d eps       ncg     rms          rms(c)
DAV:   1    -0.648501114556E+02    0.55115E-09   -0.68126E-12    84   0.222E-10    0.331E-10
RMM:   2    -0.648501114556E+02    0.12733E-10    0.00000E+00     0   0.218E-10
 158 F= -.64850111E+02 E0= -.64845110E+02  d E =-.527507E-10
quench:  g(F)=  0.000E+00 g(S)=  0.000E+00 dE (1.order)= 0.000E+00
 bond charge predicted
       N       E                     dE             d eps       ncg     rms          rms(c)
DAV:   1    -0.648501114562E+02   -0.64938E-09   -0.39234E-11    84   0.301E-10    0.516E-10
RMM:   2    -0.648501114556E+02    0.64574E-09    0.00000E+00     0   0.260E-10
 159 F= -.64850111E+02 E0= -.64845110E+02  d E =-.163709E-10
quench:  g(F)=  0.000E+00 g(S)=  0.000E+00 dE (1.order)= 0.000E+00
 bond charge predicted
       N       E                     dE             d eps       ncg     rms          rms(c)
DAV:   1    -0.648501114560E+02    0.21464E-09    0.73427E-11    84   0.371E-10    0.150E-10
RMM:   2    -0.648501114556E+02    0.46930E-09    0.00000E+00     0   0.145E-10
 160 F= -.64850111E+02 E0= -.64845110E+02  d E =0.381988E-10
quench:  g(F)=  0.000E+00 g(S)=  0.000E+00 dE (1.order)= 0.000E+00
 bond charge predicted
       N       E                     dE             d eps       ncg     rms          rms(c)
DAV:   1    -0.648501114559E+02    0.92768E-10    0.67947E-11    84   0.141E-10    0.118E-10
RMM:   2    -0.648501114557E+02    0.25648E-09    0.00000E+00     0   0.167E-10
 161 F= -.64850111E+02 E0= -.64845110E+02  d E =-.120053E-09
quench:  g(F)=  0.000E+00 g(S)=  0.000E+00 dE (1.order)= 0.000E+00
 bond charge predicted
       N       E                     dE             d eps       ncg     rms          rms(c)
DAV:   1    -0.648501114554E+02    0.49840E-09    0.64925E-11    84   0.190E-10    0.360E-10
RMM:   2    -0.648501114556E+02   -0.15098E-09    0.00000E+00     0   0.153E-10
 162 F= -.64850111E+02 E0= -.64845110E+02  d E =0.909495E-10
quench:  g(F)=  0.000E+00 g(S)=  0.000E+00 dE (1.order)= 0.000E+00
 bond charge predicted
       N       E                     dE             d eps       ncg     rms          rms(c)
DAV:   1    -0.648501114560E+02   -0.54933E-09    0.59368E-11    84   0.302E-10    0.311E-10
RMM:   2    -0.648501114556E+02    0.35288E-09    0.00000E+00     0   0.200E-10
 163 F= -.64850111E+02 E0= -.64845110E+02  d E =-.454747E-10
quench:  g(F)=  0.000E+00 g(S)=  0.000E+00 dE (1.order)= 0.000E+00
 bond charge predicted
       N       E                     dE             d eps       ncg     rms          rms(c)
DAV:   1    -0.648501114554E+02    0.54206E-09    0.46920E-11    84   0.239E-10    0.156E-10
RMM:   2    -0.648501114555E+02   -0.90949E-10    0.00000E+00     0   0.169E-10
 164 F= -.64850111E+02 E0= -.64845110E+02  d E =0.982254E-10
quench:  g(F)=  0.000E+00 g(S)=  0.000E+00 dE (1.order)= 0.000E+00
 bond charge predicted
       N       E                     dE             d eps       ncg     rms          rms(c)
DAV:   1    -0.648501114558E+02   -0.33833E-09    0.20542E-11    84   0.191E-10    0.400E-10
RMM:   2    -0.648501114556E+02    0.14552E-09    0.00000E+00     0   0.320E-10
 165 F= -.64850111E+02 E0= -.64845110E+02  d E =-.101863E-09
quench:  g(F)=  0.000E+00 g(S)=  0.000E+00 dE (1.order)= 0.000E+00
 bond charge predicted
       N       E                     dE             d eps       ncg     rms          rms(c)
DAV:   1    -0.648501114559E+02   -0.80036E-10    0.49169E-12    84   0.306E-10    0.271E-10
RMM:   2    -0.648501114556E+02    0.26193E-09    0.00000E+00     0   0.174E-10
 166 F= -.64850111E+02 E0= -.64845110E+02  d E =0.363798E-10
quench:  g(F)=  0.000E+00 g(S)=  0.000E+00 dE (1.order)= 0.000E+00
 bond charge predicted
       N       E                     dE             d eps       ncg     rms          rms(c)
DAV:   1    -0.648501114551E+02    0.78762E-09    0.66458E-11    84   0.222E-10    0.157E-10
RMM:   2    -0.648501114556E+02   -0.50386E-09    0.00000E+00     0   0.170E-10
 167 F= -.64850111E+02 E0= -.64845110E+02  d E =0.218279E-10
quench:  g(F)=  0.000E+00 g(S)=  0.000E+00 dE (1.order)= 0.000E+00
 bond charge predicted
       N       E                     dE             d eps       ncg     rms          rms(c)
DAV:   1    -0.648501114557E+02   -0.58208E-09    0.58993E-11    84   0.161E-10    0.272E-10
RMM:   2    -0.648501114556E+02    0.96406E-10    0.00000E+00     0   0.156E-10
 168 F= -.64850111E+02 E0= -.64845110E+02  d E =0.181899E-10
quench:  g(F)=  0.000E+00 g(S)=  0.000E+00 dE (1.order)= 0.000E+00
 bond charge predicted
       N       E                     dE             d eps       ncg     rms          rms(c)
DAV:   1    -0.648501114565E+02   -0.82582E-09    0.52986E-11    84   0.219E-10    0.151E-10
RMM:   2    -0.648501114555E+02    0.98044E-09    0.00000E+00     0   0.191E-10
 169 F= -.64850111E+02 E0= -.64845110E+02  d E =0.582077E-10
quench:  g(F)=  0.000E+00 g(S)=  0.000E+00 dE (1.order)= 0.000E+00
 bond charge predicted
       N       E                     dE             d eps       ncg     rms          rms(c)
DAV:   1    -0.648501114559E+02    0.60209E-09    0.14107E-11    84   0.218E-10    0.257E-10
RMM:   2    -0.648501114555E+02    0.36925E-09    0.00000E+00     0   0.211E-10
 170 F= -.64850111E+02 E0= -.64845110E+02  d E =-.909495E-11
quench:  g(F)=  0.000E+00 g(S)=  0.000E+00 dE (1.order)= 0.000E+00
 bond charge predicted
       N       E                     dE             d eps       ncg     rms          rms(c)
DAV:   1    -0.648501114554E+02    0.50204E-09   -0.68425E-12    84   0.181E-10    0.260E-10
RMM:   2    -0.648501114556E+02   -0.21282E-09    0.00000E+00     0   0.185E-10
 171 F= -.64850111E+02 E0= -.64845110E+02  d E =-.800355E-10
quench:  g(F)=  0.000E+00 g(S)=  0.000E+00 dE (1.order)= 0.000E+00
 bond charge predicted
       N       E                     dE             d eps       ncg     rms          rms(c)
DAV:   1    -0.648501114564E+02   -0.10368E-08    0.69740E-11    84   0.227E-10    0.384E-10
RMM:   2    -0.648501114555E+02    0.89312E-09    0.00000E+00     0   0.281E-10
 172 F= -.64850111E+02 E0= -.64845110E+02  d E =0.691216E-10
quench:  g(F)=  0.000E+00 g(S)=  0.000E+00 dE (1.order)= 0.000E+00
 bond charge predicted
       N       E                     dE             d eps       ncg     rms          rms(c)
DAV:   1    -0.648501114553E+02    0.11532E-08    0.21001E-11    84   0.296E-10    0.276E-10
RMM:   2    -0.648501114556E+02   -0.29468E-09    0.00000E+00     0   0.182E-10
 173 F= -.64850111E+02 E0= -.64845110E+02  d E =-.345608E-10
quench:  g(F)=  0.000E+00 g(S)=  0.000E+00 dE (1.order)= 0.000E+00
 bond charge predicted
       N       E                     dE             d eps       ncg     rms          rms(c)
DAV:   1    -0.648501114556E+02   -0.31469E-09    0.73823E-11    84   0.236E-10    0.154E-10
RMM:   2    -0.648501114555E+02    0.50932E-10    0.00000E+00     0   0.159E-10
 174 F= -.64850111E+02 E0= -.64845110E+02  d E =0.309228E-10
quench:  g(F)=  0.000E+00 g(S)=  0.000E+00 dE (1.order)= 0.000E+00
 bond charge predicted
       N       E                     dE             d eps       ncg     rms          rms(c)
DAV:   1    -0.648501114557E+02   -0.70941E-10    0.46515E-11    84   0.136E-10    0.278E-10
RMM:   2    -0.648501114557E+02   -0.30923E-10    0.00000E+00     0   0.172E-10
 175 F= -.64850111E+02 E0= -.64845110E+02  d E =-.152795E-09
quench:  g(F)=  0.000E+00 g(S)=  0.000E+00 dE (1.order)= 0.000E+00
 bond charge predicted
       N       E                     dE             d eps       ncg     rms          rms(c)
DAV:   1    -0.648501114557E+02   -0.25466E-10    0.27511E-11    84   0.204E-10    0.222E-10
RMM:   2    -0.648501114555E+02    0.13642E-09    0.00000E+00     0   0.267E-10
 176 F= -.64850111E+02 E0= -.64845110E+02  d E =0.141881E-09
quench:  g(F)=  0.000E+00 g(S)=  0.000E+00 dE (1.order)= 0.000E+00
 bond charge predicted
       N       E                     dE             d eps       ncg     rms          rms(c)
DAV:   1    -0.648501114556E+02    0.43656E-10   -0.10336E-11    84   0.236E-10    0.282E-10
RMM:   2    -0.648501114556E+02    0.52751E-10    0.00000E+00     0   0.167E-10
 177 F= -.64850111E+02 E0= -.64845110E+02  d E =-.400178E-10
quench:  g(F)=  0.000E+00 g(S)=  0.000E+00 dE (1.order)= 0.000E+00
 bond charge predicted
       N       E                     dE             d eps       ncg     rms          rms(c)
DAV:   1    -0.648501114560E+02   -0.38017E-09    0.30471E-11    84   0.207E-10    0.205E-10
RMM:   2    -0.648501114556E+02    0.36380E-09    0.00000E+00     0   0.205E-10
 178 F= -.64850111E+02 E0= -.64845110E+02  d E =-.691216E-10
quench:  g(F)=  0.000E+00 g(S)=  0.000E+00 dE (1.order)= 0.000E+00
 bond charge predicted
       N       E                     dE             d eps       ncg     rms          rms(c)
DAV:   1    -0.648501114555E+02    0.53478E-09    0.67841E-11    84   0.207E-10    0.384E-10
RMM:   2    -0.648501114556E+02   -0.10732E-09    0.00000E+00     0   0.218E-10
 179 F= -.64850111E+02 E0= -.64845110E+02  d E =0.636646E-10
quench:  g(F)=  0.000E+00 g(S)=  0.000E+00 dE (1.order)= 0.000E+00
 bond charge predicted
       N       E                     dE             d eps       ncg     rms          rms(c)
DAV:   1    -0.648501114555E+02   -0.16371E-10    0.57283E-11    84   0.247E-10    0.312E-10
RMM:   2    -0.648501114555E+02   -0.41837E-10    0.00000E+00     0   0.183E-10
 180 F= -.64850111E+02 E0= -.64845110E+02  d E =0.491127E-10
quench:  g(F)=  0.000E+00 g(S)=  0.000E+00 dE (1.order)= 0.000E+00
 bond charge predicted
       N       E                     dE             d eps       ncg     rms          rms(c)
DAV:   1    -0.648501114562E+02   -0.65847E-09   -0.75641E-12    84   0.249E-10    0.254E-10
RMM:   2    -0.648501114557E+02    0.49658E-09    0.00000E+00     0   0.173E-10
 181 F= -.64850111E+02 E0= -.64845110E+02  d E =-.120053E-09
quench:  g(F)=  0.000E+00 g(S)=  0.000E+00 dE (1.order)= 0.000E+00
 bond charge predicted
       N       E                     dE             d eps       ncg     rms          rms(c)
DAV:   1    -0.648501114549E+02    0.12824E-08    0.75580E-11    84   0.206E-10    0.149E-10
RMM:   2    -0.648501114556E+02   -0.68940E-09    0.00000E+00     0   0.167E-10
 182 F= -.64850111E+02 E0= -.64845110E+02  d E =0.964064E-10
quench:  g(F)=  0.000E+00 g(S)=  0.000E+00 dE (1.order)= 0.000E+00
 bond charge predicted
       N       E                     dE             d eps       ncg     rms          rms(c)
DAV:   1    -0.648501114549E+02   -0.70941E-10    0.10432E-10    84   0.177E-10    0.632E-10
RMM:   2    -0.648501114557E+02   -0.74942E-09    0.00000E+00     0   0.307E-10
 183 F= -.64850111E+02 E0= -.64845110E+02  d E =-.130967E-09
quench:  g(F)=  0.000E+00 g(S)=  0.000E+00 dE (1.order)= 0.000E+00
 bond charge predicted
       N       E                     dE             d eps       ncg     rms          rms(c)
DAV:   1    -0.648501114556E+02   -0.67666E-09   -0.14281E-11    84   0.388E-10    0.318E-10
RMM:   2    -0.648501114556E+02    0.30923E-10    0.00000E+00     0   0.242E-10
 184 F= -.64850111E+02 E0= -.64845110E+02  d E =0.103682E-09
quench:  g(F)=  0.000E+00 g(S)=  0.000E+00 dE (1.order)= 0.000E+00
 bond charge predicted
       N       E                     dE             d eps       ncg     rms          rms(c)
DAV:   1    -0.648501114558E+02   -0.16553E-09    0.47895E-11    84   0.289E-10    0.341E-10
RMM:   2    -0.648501114556E+02    0.22010E-09    0.00000E+00     0   0.228E-10
 185 F= -.64850111E+02 E0= -.64845110E+02  d E =0.236469E-10
quench:  g(F)=  0.000E+00 g(S)=  0.000E+00 dE (1.order)= 0.000E+00
 bond charge predicted
       N       E                     dE             d eps       ncg     rms          rms(c)
DAV:   1    -0.648501114551E+02    0.71122E-09   -0.32744E-11    84   0.272E-10    0.142E-10
RMM:   2    -0.648501114556E+02   -0.52023E-09    0.00000E+00     0   0.154E-10
 186 F= -.64850111E+02 E0= -.64845110E+02  d E =-.291038E-10
quench:  g(F)=  0.000E+00 g(S)=  0.000E+00 dE (1.order)= 0.000E+00
 bond charge predicted
       N       E                     dE             d eps       ncg     rms          rms(c)
DAV:   1    -0.648501114553E+02   -0.23283E-09    0.43441E-11    84   0.152E-10    0.268E-10
RMM:   2    -0.648501114556E+02   -0.30377E-09    0.00000E+00     0   0.199E-10
 187 F= -.64850111E+02 E0= -.64845110E+02  d E =-.163709E-10
quench:  g(F)=  0.000E+00 g(S)=  0.000E+00 dE (1.order)= 0.000E+00
 bond charge predicted
       N       E                     dE             d eps       ncg     rms          rms(c)
[...]
 bond charge predicted
       N       E                     dE             d eps       ncg     rms          rms(c)
DAV:   1    -0.648501114559E+02   -0.41473E-09    0.43131E-12    84   0.162E-10    0.381E-10
RMM:   2    -0.648501114556E+02    0.28376E-09    0.00000E+00     0   0.208E-10
 953 F= -.64850111E+02 E0= -.64845110E+02  d E =0.114596E-09
quench:  g(F)=  0.000E+00 g(S)=  0.000E+00 dE (1.order)= 0.000E+00
 bond charge predicted
       N       E                     dE             d eps       ncg     rms          rms(c)
DAV:   1    -0.648501114553E+02    0.60209E-09    0.44534E-11    84   0.304E-10    0.273E-10
RMM:   2    -0.648501114556E+02   -0.37107E-09    0.00000E+00     0   0.211E-10
 954 F= -.64850111E+02 E0= -.64845110E+02  d E =-.527507E-10
quench:  g(F)=  0.000E+00 g(S)=  0.000E+00 dE (1.order)= 0.000E+00
 bond charge predicted
       N       E                     dE             d eps       ncg     rms          rms(c)
DAV:   1    -0.648501114563E+02   -0.98044E-09    0.70242E-11    84   0.204E-10    0.320E-10
RMM:   2    -0.648501114555E+02    0.72760E-09    0.00000E+00     0   0.213E-10
 955 F= -.64850111E+02 E0= -.64845110E+02  d E =0.118234E-09
quench:  g(F)=  0.000E+00 g(S)=  0.000E+00 dE (1.order)= 0.000E+00
 bond charge predicted
       N       E                     dE             d eps       ncg     rms          rms(c)
DAV:   1    -0.648501114558E+02    0.45839E-09    0.41514E-11    84   0.253E-10    0.472E-10
RMM:   2    -0.648501114556E+02    0.17826E-09    0.00000E+00     0   0.270E-10
 956 F= -.64850111E+02 E0= -.64845110E+02  d E =-.909495E-10
quench:  g(F)=  0.000E+00 g(S)=  0.000E+00 dE (1.order)= 0.000E+00
 bond charge predicted
       N       E                     dE             d eps       ncg     rms          rms(c)
DAV:   1    -0.648501114550E+02    0.77307E-09    0.75346E-11    84   0.348E-10    0.426E-10
RMM:   2    -0.648501114556E+02   -0.56207E-09    0.00000E+00     0   0.214E-10
 957 F= -.64850111E+02 E0= -.64845110E+02  d E =0.327418E-10
quench:  g(F)=  0.000E+00 g(S)=  0.000E+00 dE (1.order)= 0.000E+00
 bond charge predicted
       N       E                     dE             d eps       ncg     rms          rms(c)
DAV:   1    -0.648501114559E+02   -0.84583E-09    0.24945E-11    84   0.285E-10    0.255E-10
RMM:   2    -0.648501114555E+02    0.32196E-09    0.00000E+00     0   0.181E-10
 958 F= -.64850111E+02 E0= -.64845110E+02  d E =0.381988E-10
quench:  g(F)=  0.000E+00 g(S)=  0.000E+00 dE (1.order)= 0.000E+00
 bond charge predicted
       N       E                     dE             d eps       ncg     rms          rms(c)
DAV:   1    -0.648501114563E+02   -0.41473E-09    0.68501E-12    84   0.199E-10    0.123E-10
RMM:   2    -0.648501114555E+02    0.76216E-09    0.00000E+00     0   0.109E-10
 959 F= -.64850111E+02 E0= -.64845110E+02  d E =0.254659E-10
quench:  g(F)=  0.000E+00 g(S)=  0.000E+00 dE (1.order)= 0.000E+00
 bond charge predicted
       N       E                     dE             d eps       ncg     rms          rms(c)
DAV:   1    -0.648501114558E+02    0.47112E-09    0.51842E-11    84   0.148E-10    0.310E-10
RMM:   2    -0.648501114557E+02    0.13824E-09    0.00000E+00     0   0.148E-10
 960 F= -.64850111E+02 E0= -.64845110E+02  d E =-.152795E-09
quench:  g(F)=  0.000E+00 g(S)=  0.000E+00 dE (1.order)= 0.000E+00
 bond charge predicted
       N       E                     dE             d eps       ncg     rms          rms(c)
DAV:   1    -0.648501114559E+02   -0.41837E-10    0.37381E-11    84   0.330E-10    0.385E-10
RMM:   2    -0.648501114557E+02    0.16007E-09    0.00000E+00     0   0.200E-10
 961 F= -.64850111E+02 E0= -.64845110E+02  d E =-.200089E-10
quench:  g(F)=  0.000E+00 g(S)=  0.000E+00 dE (1.order)= 0.000E+00
 bond charge predicted
       N       E                     dE             d eps       ncg     rms          rms(c)
DAV:   1    -0.648501114554E+02    0.42746E-09    0.11405E-11    84   0.286E-10    0.124E-10
RMM:   2    -0.648501114556E+02   -0.20373E-09    0.00000E+00     0   0.155E-10
 962 F= -.64850111E+02 E0= -.64845110E+02  d E =0.636646E-10
quench:  g(F)=  0.000E+00 g(S)=  0.000E+00 dE (1.order)= 0.000E+00
 bond charge predicted
       N       E                     dE             d eps       ncg     rms          rms(c)
DAV:   1    -0.648501114558E+02   -0.41655E-09    0.23792E-11    84   0.153E-10    0.177E-10
RMM:   2    -0.648501114556E+02    0.24556E-09    0.00000E+00     0   0.127E-10
 963 F= -.64850111E+02 E0= -.64845110E+02  d E =0.327418E-10
quench:  g(F)=  0.000E+00 g(S)=  0.000E+00 dE (1.order)= 0.000E+00
 bond charge predicted
       N       E                     dE             d eps       ncg     rms          rms(c)
DAV:   1    -0.648501114560E+02   -0.10914E-09    0.18862E-11    84   0.151E-10    0.160E-10
RMM:   2    -0.648501114555E+02    0.42746E-09    0.00000E+00     0   0.122E-10
 964 F= -.64850111E+02 E0= -.64845110E+02  d E =0.727596E-10
quench:  g(F)=  0.000E+00 g(S)=  0.000E+00 dE (1.order)= 0.000E+00
 bond charge predicted
       N       E                     dE             d eps       ncg     rms          rms(c)
DAV:   1    -0.648501114553E+02    0.67666E-09   -0.82827E-12    84   0.154E-10    0.374E-10
RMM:   2    -0.648501114557E+02   -0.38926E-09    0.00000E+00     0   0.220E-10
 965 F= -.64850111E+02 E0= -.64845110E+02  d E =-.140062E-09
quench:  g(F)=  0.000E+00 g(S)=  0.000E+00 dE (1.order)= 0.000E+00
 bond charge predicted
       N       E                     dE             d eps       ncg     rms          rms(c)
DAV:   1    -0.648501114552E+02    0.92768E-10   -0.20229E-11    84   0.317E-10    0.539E-10
RMM:   2    -0.648501114556E+02   -0.40927E-09    0.00000E+00     0   0.289E-10
 966 F= -.64850111E+02 E0= -.64845110E+02  d E =0.727596E-10
quench:  g(F)=  0.000E+00 g(S)=  0.000E+00 dE (1.order)= 0.000E+00
 bond charge predicted
       N       E                     dE             d eps       ncg     rms          rms(c)
DAV:   1    -0.648501114552E+02   -0.40018E-10    0.10371E-11    84   0.413E-10    0.198E-10
RMM:   2    -0.648501114556E+02   -0.40563E-09    0.00000E+00     0   0.188E-10
 967 F= -.64850111E+02 E0= -.64845110E+02  d E =-.363798E-10
quench:  g(F)=  0.000E+00 g(S)=  0.000E+00 dE (1.order)= 0.000E+00
 bond charge predicted
       N       E                     dE             d eps       ncg     rms          rms(c)
DAV:   1    -0.648501114555E+02   -0.28558E-09    0.60744E-11    84   0.215E-10    0.211E-10
RMM:   2    -0.648501114557E+02   -0.18190E-09    0.00000E+00     0   0.216E-10
 968 F= -.64850111E+02 E0= -.64845110E+02  d E =-.618456E-10
quench:  g(F)=  0.000E+00 g(S)=  0.000E+00 dE (1.order)= 0.000E+00
 bond charge predicted
       N       E                     dE             d eps       ncg     rms          rms(c)
DAV:   1    -0.648501114558E+02   -0.27285E-09    0.90399E-11    84   0.153E-10    0.187E-10
RMM:   2    -0.648501114557E+02    0.12369E-09    0.00000E+00     0   0.187E-10
 969 F= -.64850111E+02 E0= -.64845110E+02  d E =0.327418E-10
quench:  g(F)=  0.000E+00 g(S)=  0.000E+00 dE (1.order)= 0.000E+00
 bond charge predicted
       N       E                     dE             d eps       ncg     rms          rms(c)
DAV:   1    -0.648501114558E+02    0.29104E-10   -0.10666E-11    84   0.180E-10    0.349E-10
RMM:   2    -0.648501114556E+02    0.11096E-09    0.00000E+00     0   0.178E-10
 970 F= -.64850111E+02 E0= -.64845110E+02  d E =0.163709E-10
quench:  g(F)=  0.000E+00 g(S)=  0.000E+00 dE (1.order)= 0.000E+00
 bond charge predicted
       N       E                     dE             d eps       ncg     rms          rms(c)
DAV:   1    -0.648501114556E+02    0.17099E-09    0.36500E-11    84   0.219E-10    0.183E-10
RMM:   2    -0.648501114557E+02   -0.10550E-09    0.00000E+00     0   0.151E-10
 971 F= -.64850111E+02 E0= -.64845110E+02  d E =-.454747E-10
quench:  g(F)=  0.000E+00 g(S)=  0.000E+00 dE (1.order)= 0.000E+00
 bond charge predicted
       N       E                     dE             d eps       ncg     rms          rms(c)
DAV:   1    -0.648501114559E+02   -0.29104E-09    0.13610E-11    84   0.152E-10    0.153E-10
RMM:   2    -0.648501114556E+02    0.25466E-09    0.00000E+00     0   0.158E-10
 972 F= -.64850111E+02 E0= -.64845110E+02  d E =0.691216E-10
quench:  g(F)=  0.000E+00 g(S)=  0.000E+00 dE (1.order)= 0.000E+00
 bond charge predicted
       N       E                     dE             d eps       ncg     rms          rms(c)
DAV:   1    -0.648501114553E+02    0.59481E-09   -0.95161E-12    84   0.166E-10    0.173E-10
RMM:   2    -0.648501114556E+02   -0.35470E-09    0.00000E+00     0   0.203E-10
 973 F= -.64850111E+02 E0= -.64845110E+02  d E =-.145519E-10
quench:  g(F)=  0.000E+00 g(S)=  0.000E+00 dE (1.order)= 0.000E+00
 bond charge predicted
       N       E                     dE             d eps       ncg     rms          rms(c)
DAV:   1    -0.648501114556E+02   -0.32196E-09    0.21235E-11    84   0.174E-10    0.232E-10
RMM:   2    -0.648501114556E+02    0.20009E-10    0.00000E+00     0   0.144E-10
 974 F= -.64850111E+02 E0= -.64845110E+02  d E =0.527507E-10
quench:  g(F)=  0.000E+00 g(S)=  0.000E+00 dE (1.order)= 0.000E+00
 bond charge predicted
       N       E                     dE             d eps       ncg     rms          rms(c)
DAV:   1    -0.648501114558E+02   -0.17826E-09    0.26667E-11    84   0.135E-10    0.248E-10
RMM:   2    -0.648501114556E+02    0.14188E-09    0.00000E+00     0   0.200E-10
 975 F= -.64850111E+02 E0= -.64845110E+02  d E =-.563887E-10
quench:  g(F)=  0.000E+00 g(S)=  0.000E+00 dE (1.order)= 0.000E+00
 bond charge predicted
       N       E                     dE             d eps       ncg     rms          rms(c)
DAV:   1    -0.648501114548E+02    0.98044E-09    0.39195E-11    84   0.213E-10    0.175E-10
RMM:   2    -0.648501114556E+02   -0.79490E-09    0.00000E+00     0   0.132E-10
 976 F= -.64850111E+02 E0= -.64845110E+02  d E =0.436557E-10
quench:  g(F)=  0.000E+00 g(S)=  0.000E+00 dE (1.order)= 0.000E+00
 bond charge predicted
       N       E                     dE             d eps       ncg     rms          rms(c)
DAV:   1    -0.648501114555E+02   -0.75124E-09    0.57559E-11    84   0.198E-10    0.209E-10
RMM:   2    -0.648501114557E+02   -0.10368E-09    0.00000E+00     0   0.216E-10
 977 F= -.64850111E+02 E0= -.64845110E+02  d E =-.600267E-10
quench:  g(F)=  0.000E+00 g(S)=  0.000E+00 dE (1.order)= 0.000E+00
 bond charge predicted
       N       E                     dE             d eps       ncg     rms          rms(c)
DAV:   1    -0.648501114557E+02   -0.12551E-09    0.86727E-11    84   0.168E-10    0.170E-10
RMM:   2    -0.648501114557E+02   -0.38199E-10    0.00000E+00     0   0.160E-10
 978 F= -.64850111E+02 E0= -.64845110E+02  d E =-.600267E-10
quench:  g(F)=  0.000E+00 g(S)=  0.000E+00 dE (1.order)= 0.000E+00
 bond charge predicted
       N       E                     dE             d eps       ncg     rms          rms(c)
DAV:   1    -0.648501114558E+02   -0.16189E-09    0.40311E-11    84   0.156E-10    0.388E-10
RMM:   2    -0.648501114556E+02    0.24556E-09    0.00000E+00     0   0.280E-10
 979 F= -.64850111E+02 E0= -.64845110E+02  d E =0.121872E-09
quench:  g(F)=  0.000E+00 g(S)=  0.000E+00 dE (1.order)= 0.000E+00
 bond charge predicted
       N       E                     dE             d eps       ncg     rms          rms(c)
DAV:   1    -0.648501114550E+02    0.80036E-09    0.39247E-11    84   0.349E-10    0.293E-10
RMM:   2    -0.648501114556E+02   -0.61118E-09    0.00000E+00     0   0.253E-10
 980 F= -.64850111E+02 E0= -.64845110E+02  d E =-.563887E-10
quench:  g(F)=  0.000E+00 g(S)=  0.000E+00 dE (1.order)= 0.000E+00
 bond charge predicted
       N       E                     dE             d eps       ncg     rms          rms(c)
DAV:   1    -0.648501114553E+02   -0.23465E-09    0.81563E-11    84   0.350E-10    0.649E-10
RMM:   2    -0.648501114556E+02   -0.28194E-09    0.00000E+00     0   0.359E-10
 981 F= -.64850111E+02 E0= -.64845110E+02  d E =0.945874E-10
quench:  g(F)=  0.000E+00 g(S)=  0.000E+00 dE (1.order)= 0.000E+00
 bond charge predicted
       N       E                     dE             d eps       ncg     rms          rms(c)
DAV:   1    -0.648501114558E+02   -0.51296E-09    0.23682E-11    84   0.452E-10    0.276E-10
RMM:   2    -0.648501114557E+02    0.10732E-09    0.00000E+00     0   0.202E-10
 982 F= -.64850111E+02 E0= -.64845110E+02  d E =-.123691E-09
quench:  g(F)=  0.000E+00 g(S)=  0.000E+00 dE (1.order)= 0.000E+00
 bond charge predicted
       N       E                     dE             d eps       ncg     rms          rms(c)
DAV:   1    -0.648501114555E+02    0.32378E-09    0.18767E-11    84   0.237E-10    0.170E-10
RMM:   2    -0.648501114555E+02   -0.63665E-10    0.00000E+00     0   0.124E-10
 983 F= -.64850111E+02 E0= -.64845110E+02  d E =0.152795E-09
quench:  g(F)=  0.000E+00 g(S)=  0.000E+00 dE (1.order)= 0.000E+00
 bond charge predicted
       N       E                     dE             d eps       ncg     rms          rms(c)
DAV:   1    -0.648501114559E+02   -0.41473E-09    0.43675E-11    84   0.151E-10    0.209E-10
RMM:   2    -0.648501114556E+02    0.26193E-09    0.00000E+00     0   0.147E-10
 984 F= -.64850111E+02 E0= -.64845110E+02  d E =-.891305E-10
quench:  g(F)=  0.000E+00 g(S)=  0.000E+00 dE (1.order)= 0.000E+00
 bond charge predicted
       N       E                     dE             d eps       ncg     rms          rms(c)
DAV:   1    -0.648501114553E+02    0.54024E-09    0.44275E-11    84   0.172E-10    0.193E-10
RMM:   2    -0.648501114556E+02   -0.23647E-09    0.00000E+00     0   0.110E-10
 985 F= -.64850111E+02 E0= -.64845110E+02  d E =0.418368E-10
quench:  g(F)=  0.000E+00 g(S)=  0.000E+00 dE (1.order)= 0.000E+00
 bond charge predicted
       N       E                     dE             d eps       ncg     rms          rms(c)
DAV:   1    -0.648501114554E+02   -0.74579E-10    0.32291E-11    84   0.164E-10    0.278E-10
RMM:   2    -0.648501114557E+02   -0.25102E-09    0.00000E+00     0   0.206E-10
 986 F= -.64850111E+02 E0= -.64845110E+02  d E =-.891305E-10
quench:  g(F)=  0.000E+00 g(S)=  0.000E+00 dE (1.order)= 0.000E+00
 bond charge predicted
       N       E                     dE             d eps       ncg     rms          rms(c)
DAV:   1    -0.648501114555E+02   -0.13279E-09    0.26082E-11    84   0.277E-10    0.556E-10
RMM:   2    -0.648501114557E+02   -0.14916E-09    0.00000E+00     0   0.326E-10
 987 F= -.64850111E+02 E0= -.64845110E+02  d E =-.309228E-10
quench:  g(F)=  0.000E+00 g(S)=  0.000E+00 dE (1.order)= 0.000E+00
 bond charge predicted
       N       E                     dE             d eps       ncg     rms          rms(c)
DAV:   1    -0.648501114552E+02    0.31650E-09    0.70662E-11    84   0.420E-10    0.553E-10
RMM:   2    -0.648501114556E+02   -0.35652E-09    0.00000E+00     0   0.347E-10
 988 F= -.64850111E+02 E0= -.64845110E+02  d E =0.109139E-09
quench:  g(F)=  0.000E+00 g(S)=  0.000E+00 dE (1.order)= 0.000E+00
 bond charge predicted
       N       E                     dE             d eps       ncg     rms          rms(c)
DAV:   1    -0.648501114555E+02   -0.30741E-09   -0.18397E-11    84   0.444E-10    0.395E-10
RMM:   2    -0.648501114557E+02   -0.13642E-09    0.00000E+00     0   0.242E-10
 989 F= -.64850111E+02 E0= -.64845110E+02  d E =-.873115E-10
quench:  g(F)=  0.000E+00 g(S)=  0.000E+00 dE (1.order)= 0.000E+00
 bond charge predicted
       N       E                     dE             d eps       ncg     rms          rms(c)
DAV:   1    -0.648501114562E+02   -0.64392E-09   -0.32534E-11    84   0.342E-10    0.212E-10
RMM:   2    -0.648501114555E+02    0.66211E-09    0.00000E+00     0   0.193E-10
 990 F= -.64850111E+02 E0= -.64845110E+02  d E =0.154614E-09
quench:  g(F)=  0.000E+00 g(S)=  0.000E+00 dE (1.order)= 0.000E+00
 bond charge predicted
       N       E                     dE             d eps       ncg     rms          rms(c)
DAV:   1    -0.648501114556E+02    0.56752E-09    0.72197E-11    84   0.214E-10    0.148E-10
RMM:   2    -0.648501114556E+02    0.52751E-10    0.00000E+00     0   0.147E-10
 991 F= -.64850111E+02 E0= -.64845110E+02  d E =-.418368E-10
quench:  g(F)=  0.000E+00 g(S)=  0.000E+00 dE (1.order)= 0.000E+00
 bond charge predicted
       N       E                     dE             d eps       ncg     rms          rms(c)
DAV:   1    -0.648501114561E+02   -0.45111E-09    0.76987E-11    84   0.187E-10    0.387E-10
RMM:   2    -0.648501114555E+02    0.52751E-09    0.00000E+00     0   0.243E-10
 992 F= -.64850111E+02 E0= -.64845110E+02  d E =0.236469E-10
quench:  g(F)=  0.000E+00 g(S)=  0.000E+00 dE (1.order)= 0.000E+00
 bond charge predicted
       N       E                     dE             d eps       ncg     rms          rms(c)
DAV:   1    -0.648501114555E+02    0.54752E-09   -0.11210E-11    84   0.293E-10    0.545E-10
RMM:   2    -0.648501114557E+02   -0.16371E-09    0.00000E+00     0   0.335E-10
 993 F= -.64850111E+02 E0= -.64845110E+02  d E =-.143700E-09
quench:  g(F)=  0.000E+00 g(S)=  0.000E+00 dE (1.order)= 0.000E+00
 bond charge predicted
       N       E                     dE             d eps       ncg     rms          rms(c)
DAV:   1    -0.648501114558E+02   -0.25466E-09    0.34775E-11    84   0.406E-10    0.345E-10
RMM:   2    -0.648501114556E+02    0.16189E-09    0.00000E+00     0   0.228E-10
 994 F= -.64850111E+02 E0= -.64845110E+02  d E =0.709406E-10
quench:  g(F)=  0.000E+00 g(S)=  0.000E+00 dE (1.order)= 0.000E+00
 bond charge predicted
       N       E                     dE             d eps       ncg     rms          rms(c)
DAV:   1    -0.648501114558E+02    0.90949E-11    0.27219E-12    84   0.297E-10    0.331E-10
RMM:   2    -0.648501114557E+02    0.10186E-09    0.00000E+00     0   0.193E-10
 995 F= -.64850111E+02 E0= -.64845110E+02  d E =-.509317E-10
quench:  g(F)=  0.000E+00 g(S)=  0.000E+00 dE (1.order)= 0.000E+00
 bond charge predicted
       N       E                     dE             d eps       ncg     rms          rms(c)
DAV:   1    -0.648501114550E+02    0.75852E-09    0.25510E-11    84   0.260E-10    0.130E-10
RMM:   2    -0.648501114556E+02   -0.63847E-09    0.00000E+00     0   0.144E-10
 996 F= -.64850111E+02 E0= -.64845110E+02  d E =0.181899E-10
quench:  g(F)=  0.000E+00 g(S)=  0.000E+00 dE (1.order)= 0.000E+00
 bond charge predicted
       N       E                     dE             d eps       ncg     rms          rms(c)
DAV:   1    -0.648501114555E+02   -0.46566E-09    0.36904E-11    84   0.110E-10    0.233E-10
RMM:   2    -0.648501114556E+02   -0.14734E-09    0.00000E+00     0   0.181E-10
 997 F= -.64850111E+02 E0= -.64845110E+02  d E =0.254659E-10
quench:  g(F)=  0.000E+00 g(S)=  0.000E+00 dE (1.order)= 0.000E+00
 bond charge predicted
       N       E                     dE             d eps       ncg     rms          rms(c)
DAV:   1    -0.648501114550E+02    0.46384E-09    0.13655E-11    84   0.159E-10    0.199E-10
RMM:   2    -0.648501114557E+02   -0.66757E-09    0.00000E+00     0   0.238E-10
 998 F= -.64850111E+02 E0= -.64845110E+02  d E =-.563887E-10
quench:  g(F)=  0.000E+00 g(S)=  0.000E+00 dE (1.order)= 0.000E+00
 bond charge predicted
       N       E                     dE             d eps       ncg     rms          rms(c)
DAV:   1    -0.648501114552E+02   -0.16189E-09    0.48091E-11    84   0.206E-10    0.322E-10
RMM:   2    -0.648501114556E+02   -0.48021E-09    0.00000E+00     0   0.174E-10
 999 F= -.64850111E+02 E0= -.64845110E+02  d E =0.254659E-10
quench:  g(F)=  0.000E+00 g(S)=  0.000E+00 dE (1.order)= 0.000E+00
 bond charge predicted
       N       E                     dE             d eps       ncg     rms          rms(c)
DAV:   1    -0.648501114556E+02   -0.41655E-09    0.57332E-11    84   0.238E-10    0.436E-10
RMM:   2    -0.648501114556E+02   -0.34561E-10    0.00000E+00     0   0.250E-10
1000 F= -.64850111E+02 E0= -.64845110E+02  d E =0.291038E-10
quench:  g(F)=  0.000E+00 g(S)=  0.000E+00 dE (1.order)= 0.000E+00
