 vasp.6.3.2 27Jun22 (build Jun 14 2024 17:29:11) complex                         
 POSCAR found type information on POSCAR NaInS 
 07/POSCAR found :  3 types and      19 ions
 -----------------------------------------------------------------------------
|                                                                             |
|           W    W    AA    RRRRR   N    N  II  N    N   GGGG   !!!           |
|           W    W   A  A   R    R  NN   N  II  NN   N  G    G  !!!           |
|           W    W  A    A  R    R  N N  N  II  N N  N  G       !!!           |
|           W WW W  AAAAAA  RRRRR   N  N N  II  N  N N  G  GGG   !            |
|           WW  WW  A    A  R   R   N   NN  II  N   NN  G    G                |
|           W    W  A    A  R    R  N    N  II  N    N   GGGG   !!!           |
|                                                                             |
|     The value NPAR = 9 specified in the INCAR file was overwritten,         |
|     because it was not compatible with the 3 processes available:           |
|     NPAR = 3                                                                |
|     was used instead, please check that this makes sense for your           |
|     machine.                                                                |
|                                                                             |
 -----------------------------------------------------------------------------

 -----------------------------------------------------------------------------
|                                                                             |
|               ----> ADVICE to this user running VASP <----                  |
|                                                                             |
|     You have a (more or less) 'large supercell' and for larger cells it     |
|     might be more efficient to use real-space projection operators.         |
|     Therefore, try LREAL= Auto in the INCAR file.                           |
|     Mind: For very accurate calculation, you might also keep the            |
|     reciprocal projection scheme (i.e. LREAL=.FALSE.).                      |
|                                                                             |
 -----------------------------------------------------------------------------

 LDA part: xc-table for Pade appr. of Perdew
 POSCAR found type information on POSCAR NaInS 
 00/POSCAR found :  3 types and      19 ions
 POSCAR found type information on POSCAR NaInS 
 10/POSCAR found :  3 types and      19 ions
 -----------------------------------------------------------------------------
|                                                                             |
|           W    W    AA    RRRRR   N    N  II  N    N   GGGG   !!!           |
|           W    W   A  A   R    R  NN   N  II  NN   N  G    G  !!!           |
|           W    W  A    A  R    R  N N  N  II  N N  N  G       !!!           |
|           W WW W  AAAAAA  RRRRR   N  N N  II  N  N N  G  GGG   !            |
|           WW  WW  A    A  R   R   N   NN  II  N   NN  G    G                |
|           W    W  A    A  R    R  N    N  II  N    N   GGGG   !!!           |
|                                                                             |
|     The distance between some ions is very small. Please check the          |
|     nearest-neighbor list in the OUTCAR file.                               |
|     I HOPE YOU KNOW WHAT YOU ARE DOING!                                     |
|                                                                             |
 -----------------------------------------------------------------------------

 POSCAR, INCAR and KPOINTS ok, starting setup
 FFT: planning ... GRIDC
 FFT: planning ... GRID_SOFT
 FFT: planning ... GRID
 WAVECAR not read
 entering main loop
       N       E                     dE             d eps       ncg     rms          rms(c)
DAV:   1     0.154488876220E+04    0.15449E+04   -0.62930E+04   168   0.170E+03
DAV:   2     0.200534683685E+03   -0.13444E+04   -0.13047E+04   177   0.461E+02
DAV:   3    -0.162163696481E+02   -0.21675E+03   -0.21140E+03   186   0.201E+02
DAV:   4    -0.342774557579E+02   -0.18061E+02   -0.17878E+02   201   0.527E+01
DAV:   5    -0.352318730740E+02   -0.95442E+00   -0.95285E+00   255   0.119E+01    0.173E+01
RMM:   6    -0.277392771629E+02    0.74926E+01   -0.11185E+01   193   0.848E+00    0.122E+01
RMM:   7    -0.270797042731E+02    0.65957E+00   -0.82245E+00   212   0.688E+00    0.657E+00
RMM:   8    -0.271284120058E+02   -0.48708E-01   -0.15070E+00   225   0.439E+00    0.551E+00
RMM:   9    -0.270177428711E+02    0.11067E+00   -0.47959E-01   216   0.298E+00    0.205E+00
RMM:  10    -0.269619195314E+02    0.55823E-01   -0.24013E-01   227   0.159E+00    0.118E+00
RMM:  11    -0.269581948442E+02    0.37247E-02   -0.89213E-02   238   0.897E-01    0.110E+00
RMM:  12    -0.269567577274E+02    0.14371E-02   -0.29869E-02   245   0.559E-01    0.881E-01
RMM:  13    -0.269657927503E+02   -0.90350E-02   -0.30191E-02   204   0.461E-01    0.861E-01
RMM:  14    -0.269580768309E+02    0.77159E-02   -0.90925E-03   208   0.343E-01    0.296E-01
RMM:  15    -0.269583103550E+02   -0.23352E-03   -0.45169E-03   236   0.183E-01    0.188E-01
RMM:  16    -0.269583803129E+02   -0.69958E-04   -0.18089E-03   227   0.123E-01    0.528E-02
RMM:  17    -0.269584712714E+02   -0.90958E-04   -0.11836E-03   230   0.811E-02    0.240E-02
RMM:  18    -0.269585124823E+02   -0.41211E-04   -0.52294E-04   211   0.553E-02    0.196E-02
RMM:  19    -0.269585404614E+02   -0.27979E-04   -0.34944E-04   182   0.371E-02    0.195E-02
RMM:  20    -0.269585528099E+02   -0.12348E-04   -0.15687E-04   169   0.270E-02    0.223E-02
RMM:  21    -0.269585632664E+02   -0.10456E-04   -0.12185E-04   168   0.205E-02    0.253E-02
RMM:  22    -0.269585664071E+02   -0.31407E-05   -0.47584E-05   161   0.157E-02    0.247E-02
RMM:  23    -0.269585673375E+02   -0.93035E-06   -0.33840E-05   177   0.150E-02    0.151E-02
RMM:  24    -0.269585718977E+02   -0.45602E-05   -0.36501E-05   192   0.163E-02    0.146E-02
RMM:  25    -0.269585683052E+02    0.35925E-05   -0.15069E-05   175   0.127E-02    0.665E-03
RMM:  26    -0.269585682628E+02    0.42408E-07   -0.76741E-06   168   0.714E-03
   1 F= -.26958568E+02 E0= -.26946434E+02  d E =-.269586E+02
quench:  g(F)=  0.000E+00 g(S)=  0.000E+00 dE (1.order)= 0.000E+00
 bond charge predicted
       N       E                     dE             d eps       ncg     rms          rms(c)
DAV:   1    -0.269585686223E+02   -0.31714E-06   -0.69679E-06   123   0.517E-03    0.295E-03
RMM:   2    -0.269585683100E+02    0.31228E-06   -0.47717E-07    96   0.340E-03
   2 F= -.26958568E+02 E0= -.26946438E+02  d E =-.472628E-07
quench:  g(F)=  0.000E+00 g(S)=  0.000E+00 dE (1.order)= 0.000E+00
 bond charge predicted
       N       E                     dE             d eps       ncg     rms          rms(c)
DAV:   1    -0.269585682521E+02    0.37016E-06   -0.27256E-07   138   0.207E-03    0.130E-03
RMM:   2    -0.269585682446E+02    0.75597E-08   -0.45322E-08    55   0.106E-03
   3 F= -.26958568E+02 E0= -.26946437E+02  d E =0.654418E-07
quench:  g(F)=  0.000E+00 g(S)=  0.000E+00 dE (1.order)= 0.000E+00
 bond charge predicted
       N       E                     dE             d eps       ncg     rms          rms(c)
DAV:   1    -0.269585682159E+02    0.36271E-07   -0.22851E-07   120   0.114E-03    0.947E-04
RMM:   2    -0.269585682095E+02    0.63646E-08   -0.22930E-09    20   0.575E-04
   4 F= -.26958568E+02 E0= -.26946436E+02  d E =0.350756E-07
quench:  g(F)=  0.000E+00 g(S)=  0.000E+00 dE (1.order)= 0.000E+00
 bond charge predicted
       N       E                     dE             d eps       ncg     rms          rms(c)
DAV:   1    -0.269585682053E+02    0.10605E-07   -0.55498E-08   120   0.614E-04    0.849E-04
RMM:   2    -0.269585681998E+02    0.54588E-08    0.25247-287    12   0.430E-04
   5 F= -.26958568E+02 E0= -.26946437E+02  d E =0.969885E-08
quench:  g(F)=  0.000E+00 g(S)=  0.000E+00 dE (1.order)= 0.000E+00
 bond charge predicted
       N       E                     dE             d eps       ncg     rms          rms(c)
DAV:   1    -0.269585681979E+02    0.73069E-08   -0.27316E-08   120   0.459E-04    0.731E-04
RMM:   2    -0.269585681962E+02    0.17208E-08    0.11917-314    10   0.296E-04
   6 F= -.26958568E+02 E0= -.26946436E+02  d E =0.356886E-08
quench:  g(F)=  0.000E+00 g(S)=  0.000E+00 dE (1.order)= 0.000E+00
 bond charge predicted
       N       E                     dE             d eps       ncg     rms          rms(c)
DAV:   1    -0.269585681963E+02    0.16644E-08   -0.13068E-08   120   0.303E-04    0.672E-04
RMM:   2    -0.269585681921E+02    0.41910E-08    0.22129-315     9   0.212E-04
   7 F= -.26958568E+02 E0= -.26946437E+02  d E =0.413456E-08
quench:  g(F)=  0.000E+00 g(S)=  0.000E+00 dE (1.order)= 0.000E+00
 bond charge predicted
       N       E                     dE             d eps       ncg     rms          rms(c)
DAV:   1    -0.269585681917E+02    0.45766E-08   -0.54952E-09   120   0.227E-04    0.647E-04
RMM:   2    -0.269585681910E+02    0.70577E-09    0.29253-316     9   0.160E-04
   8 F= -.26958568E+02 E0= -.26946437E+02  d E =0.109139E-08
quench:  g(F)=  0.000E+00 g(S)=  0.000E+00 dE (1.order)= 0.000E+00
 bond charge predicted
       N       E                     dE             d eps       ncg     rms          rms(c)
DAV:   1    -0.269585681912E+02    0.47112E-09   -0.24702E-09    99   0.165E-04    0.635E-04
RMM:   2    -0.269585681893E+02    0.19863E-08    0.00000E+00     6   0.120E-04
   9 F= -.26958568E+02 E0= -.26946437E+02  d E =0.175169E-08
quench:  g(F)=  0.000E+00 g(S)=  0.000E+00 dE (1.order)= 0.000E+00
 bond charge predicted
       N       E                     dE             d eps       ncg     rms          rms(c)
DAV:   1    -0.269585681894E+02    0.17917E-08   -0.15291E-09    93   0.128E-04    0.629E-04
RMM:   2    -0.269585681889E+02    0.52387E-09    0.00000E+00     6   0.862E-05
  10 F= -.26958568E+02 E0= -.26946437E+02  d E =0.329237E-09
quench:  g(F)=  0.000E+00 g(S)=  0.000E+00 dE (1.order)= 0.000E+00
 bond charge predicted
       N       E                     dE             d eps       ncg     rms          rms(c)
DAV:   1    -0.269585681894E+02    0.63665E-10   -0.72458E-10    90   0.907E-05    0.627E-04
RMM:   2    -0.269585681877E+02    0.16498E-08    0.00000E+00     4   0.693E-05
  11 F= -.26958568E+02 E0= -.26946437E+02  d E =0.118962E-08
quench:  g(F)=  0.000E+00 g(S)=  0.000E+00 dE (1.order)= 0.000E+00
 bond charge predicted
       N       E                     dE             d eps       ncg     rms          rms(c)
DAV:   1    -0.269585681880E+02    0.13933E-08   -0.58356E-10    93   0.729E-05    0.624E-04
RMM:   2    -0.269585681874E+02    0.59663E-09    0.00000E+00     4   0.489E-05
  12 F= -.26958568E+02 E0= -.26946437E+02  d E =0.340151E-09
quench:  g(F)=  0.000E+00 g(S)=  0.000E+00 dE (1.order)= 0.000E+00
 bond charge predicted
       N       E                     dE             d eps       ncg     rms          rms(c)
DAV:   1    -0.269585681877E+02    0.33651E-09   -0.16011E-10    90   0.508E-05    0.624E-04
RMM:   2    -0.269585681871E+02    0.56934E-09    0.00000E+00     3   0.407E-05
  13 F= -.26958568E+02 E0= -.26946437E+02  d E =0.309228E-09
quench:  g(F)=  0.000E+00 g(S)=  0.000E+00 dE (1.order)= 0.000E+00
 bond charge predicted
       N       E                     dE             d eps       ncg     rms          rms(c)
DAV:   1    -0.269585681864E+02    0.12769E-08   -0.21228E-10    93   0.430E-05    0.623E-04
RMM:   2    -0.269585681870E+02   -0.65302E-09    0.00000E+00     3   0.286E-05
  14 F= -.26958568E+02 E0= -.26946437E+02  d E =0.545697E-10
quench:  g(F)=  0.000E+00 g(S)=  0.000E+00 dE (1.order)= 0.000E+00
 bond charge predicted
       N       E                     dE             d eps       ncg     rms          rms(c)
DAV:   1    -0.269585681874E+02   -0.98407E-09   -0.67513E-11    93   0.297E-05    0.623E-04
RMM:   2    -0.269585681867E+02    0.68212E-09    0.00000E+00     3   0.238E-05
  15 F= -.26958568E+02 E0= -.26946437E+02  d E =0.351065E-09
quench:  g(F)=  0.000E+00 g(S)=  0.000E+00 dE (1.order)= 0.000E+00
 bond charge predicted
       N       E                     dE             d eps       ncg     rms          rms(c)
DAV:   1    -0.269585681866E+02    0.76034E-09   -0.11210E-10    93   0.251E-05    0.623E-04
RMM:   2    -0.269585681866E+02    0.72760E-11    0.00000E+00     3   0.172E-05
  16 F= -.26958568E+02 E0= -.26946437E+02  d E =0.854925E-10
quench:  g(F)=  0.000E+00 g(S)=  0.000E+00 dE (1.order)= 0.000E+00
 bond charge predicted
       N       E                     dE             d eps       ncg     rms          rms(c)
DAV:   1    -0.269585681868E+02   -0.22010E-09   -0.71158E-11    93   0.179E-05    0.623E-04
RMM:   2    -0.269585681864E+02    0.39836E-09    0.00000E+00     3   0.143E-05
  17 F= -.26958568E+02 E0= -.26946437E+02  d E =0.170985E-09
quench:  g(F)=  0.000E+00 g(S)=  0.000E+00 dE (1.order)= 0.000E+00
 bond charge predicted
       N       E                     dE             d eps       ncg     rms          rms(c)
DAV:   1    -0.269585681863E+02    0.51659E-09   -0.47872E-11    93   0.152E-05    0.622E-04
RMM:   2    -0.269585681865E+02   -0.20009E-09    0.00000E+00     2   0.105E-05
  18 F= -.26958568E+02 E0= -.26946437E+02  d E =-.818545E-10
quench:  g(F)=  0.000E+00 g(S)=  0.000E+00 dE (1.order)= 0.000E+00
 bond charge predicted
       N       E                     dE             d eps       ncg     rms          rms(c)
DAV:   1    -0.269585681868E+02   -0.47112E-09   -0.36226E-11    93   0.109E-05    0.622E-04
RMM:   2    -0.269585681864E+02    0.36016E-09    0.00000E+00     2   0.876E-06
  19 F= -.26958568E+02 E0= -.26946437E+02  d E =0.891305E-10
quench:  g(F)=  0.000E+00 g(S)=  0.000E+00 dE (1.order)= 0.000E+00
 bond charge predicted
       N       E                     dE             d eps       ncg     rms          rms(c)
DAV:   1    -0.269585681868E+02    0.10914E-10   -0.50034E-11    93   0.925E-06    0.622E-04
RMM:   2    -0.269585681865E+02    0.26921E-09    0.00000E+00     2   0.648E-06
  20 F= -.26958568E+02 E0= -.26946437E+02  d E =-.800355E-10
quench:  g(F)=  0.000E+00 g(S)=  0.000E+00 dE (1.order)= 0.000E+00
 bond charge predicted
       N       E                     dE             d eps       ncg     rms          rms(c)
DAV:   1    -0.269585681861E+02    0.64938E-09   -0.34894E-11    93   0.672E-06    0.622E-04
RMM:   2    -0.269585681864E+02   -0.30013E-09    0.00000E+00     2   0.543E-06
  21 F= -.26958568E+02 E0= -.26946437E+02  d E =0.800355E-10
quench:  g(F)=  0.000E+00 g(S)=  0.000E+00 dE (1.order)= 0.000E+00
 bond charge predicted
       N       E                     dE             d eps       ncg     rms          rms(c)
DAV:   1    -0.269585681865E+02   -0.36198E-09   -0.44502E-11    93   0.571E-06    0.622E-04
RMM:   2    -0.269585681864E+02    0.65484E-10    0.00000E+00     2   0.399E-06
  22 F= -.26958568E+02 E0= -.26946437E+02  d E =0.363798E-11
quench:  g(F)=  0.000E+00 g(S)=  0.000E+00 dE (1.order)= 0.000E+00
 bond charge predicted
       N       E                     dE             d eps       ncg     rms          rms(c)
DAV:   1    -0.269585681862E+02    0.24920E-09    0.10134E-10    93   0.414E-06    0.622E-04
RMM:   2    -0.269585681864E+02   -0.18917E-09    0.00000E+00     2   0.333E-06
  23 F= -.26958568E+02 E0= -.26946437E+02  d E =-.545697E-11
quench:  g(F)=  0.000E+00 g(S)=  0.000E+00 dE (1.order)= 0.000E+00
 bond charge predicted
       N       E                     dE             d eps       ncg     rms          rms(c)
DAV:   1    -0.269585681863E+02   -0.78217E-10   -0.91264E-11    93   0.348E-06    0.622E-04
RMM:   2    -0.269585681864E+02   -0.12005E-09    0.00000E+00     2   0.245E-06
  24 F= -.26958568E+02 E0= -.26946437E+02  d E =-.909495E-11
quench:  g(F)=  0.000E+00 g(S)=  0.000E+00 dE (1.order)= 0.000E+00
 bond charge predicted
       N       E                     dE             d eps       ncg     rms          rms(c)
DAV:   1    -0.269585681862E+02    0.13279E-09   -0.63382E-11    93   0.256E-06    0.622E-04
RMM:   2    -0.269585681864E+02   -0.19281E-09    0.00000E+00     2   0.208E-06
  25 F= -.26958568E+02 E0= -.26946437E+02  d E =0.600267E-10
quench:  g(F)=  0.000E+00 g(S)=  0.000E+00 dE (1.order)= 0.000E+00
 bond charge predicted
       N       E                     dE             d eps       ncg     rms          rms(c)
DAV:   1    -0.269585681861E+02    0.72760E-10   -0.16273E-11    93   0.218E-06    0.622E-04
RMM:   2    -0.269585681865E+02   -0.36744E-09    0.00000E+00     2   0.153E-06
  26 F= -.26958568E+02 E0= -.26946437E+02  d E =-.101863E-09
quench:  g(F)=  0.000E+00 g(S)=  0.000E+00 dE (1.order)= 0.000E+00
 bond charge predicted
       N       E                     dE             d eps       ncg     rms          rms(c)
DAV:   1    -0.269585681861E+02   -0.40018E-10   -0.75242E-11    93   0.159E-06    0.622E-04
RMM:   2    -0.269585681864E+02   -0.26375E-09    0.00000E+00     2   0.130E-06
  27 F= -.26958568E+02 E0= -.26946437E+02  d E =0.636646E-10
quench:  g(F)=  0.000E+00 g(S)=  0.000E+00 dE (1.order)= 0.000E+00
 bond charge predicted
       N       E                     dE             d eps       ncg     rms          rms(c)
DAV:   1    -0.269585681855E+02    0.66757E-09   -0.48787E-11    93   0.135E-06    0.622E-04
RMM:   2    -0.269585681864E+02   -0.96952E-09    0.00000E+00     2   0.961E-07
  28 F= -.26958568E+02 E0= -.26946437E+02  d E =-.381988E-10
quench:  g(F)=  0.000E+00 g(S)=  0.000E+00 dE (1.order)= 0.000E+00
 bond charge predicted
       N       E                     dE             d eps       ncg     rms          rms(c)
DAV:   1    -0.269585681867E+02   -0.12060E-08   -0.71378E-11    93   0.102E-06    0.622E-04
RMM:   2    -0.269585681862E+02    0.45657E-09    0.00000E+00     2   0.818E-07
  29 F= -.26958568E+02 E0= -.26946437E+02  d E =0.220098E-09
quench:  g(F)=  0.000E+00 g(S)=  0.000E+00 dE (1.order)= 0.000E+00
 bond charge predicted
       N       E                     dE             d eps       ncg     rms          rms(c)
DAV:   1    -0.269585681865E+02    0.15461E-09    0.40384E-11    93   0.850E-07    0.622E-04
RMM:   2    -0.269585681863E+02    0.25466E-09    0.00000E+00     2   0.608E-07
  30 F= -.26958568E+02 E0= -.26946437E+02  d E =-.472937E-10
quench:  g(F)=  0.000E+00 g(S)=  0.000E+00 dE (1.order)= 0.000E+00
 bond charge predicted
       N       E                     dE             d eps       ncg     rms          rms(c)
DAV:   1    -0.269585681863E+02    0.22010E-09   -0.48227E-11    93   0.643E-07    0.622E-04
RMM:   2    -0.269585681863E+02    0.18190E-11    0.00000E+00     2   0.523E-07
  31 F= -.26958568E+02 E0= -.26946437E+02  d E =-.327418E-10
quench:  g(F)=  0.000E+00 g(S)=  0.000E+00 dE (1.order)= 0.000E+00
 bond charge predicted
       N       E                     dE             d eps       ncg     rms          rms(c)
DAV:   1    -0.269585681864E+02   -0.85493E-10   -0.44671E-11    93   0.542E-07    0.622E-04
RMM:   2    -0.269585681863E+02    0.89130E-10    0.00000E+00     2   0.390E-07
  32 F= -.26958568E+02 E0= -.26946437E+02  d E =0.181899E-11
quench:  g(F)=  0.000E+00 g(S)=  0.000E+00 dE (1.order)= 0.000E+00
 bond charge predicted
       N       E                     dE             d eps       ncg     rms          rms(c)
DAV:   1    -0.269585681860E+02    0.43656E-09   -0.53946E-11    93   0.416E-07    0.622E-04
RMM:   2    -0.269585681864E+02   -0.41837E-09    0.00000E+00     2   0.336E-07
  33 F= -.26958568E+02 E0= -.26946437E+02  d E =-.709406E-10
quench:  g(F)=  0.000E+00 g(S)=  0.000E+00 dE (1.order)= 0.000E+00
 bond charge predicted
       N       E                     dE             d eps       ncg     rms          rms(c)
DAV:   1    -0.269585681861E+02   -0.19281E-09   -0.44447E-11    93   0.347E-07    0.622E-04
RMM:   2    -0.269585681864E+02   -0.23101E-09    0.00000E+00     2   0.252E-07
  34 F= -.26958568E+02 E0= -.26946437E+02  d E =-.545697E-11
quench:  g(F)=  0.000E+00 g(S)=  0.000E+00 dE (1.order)= 0.000E+00
 bond charge predicted
       N       E                     dE             d eps       ncg     rms          rms(c)
DAV:   1    -0.269585681864E+02   -0.27285E-09    0.92784E-12    93   0.268E-07    0.622E-04
RMM:   2    -0.269585681863E+02    0.11096E-09    0.00000E+00     2   0.217E-07
  35 F= -.26958568E+02 E0= -.26946437E+02  d E =0.691216E-10
quench:  g(F)=  0.000E+00 g(S)=  0.000E+00 dE (1.order)= 0.000E+00
 bond charge predicted
       N       E                     dE             d eps       ncg     rms          rms(c)
DAV:   1    -0.269585681856E+02    0.79126E-09   -0.33090E-11    93   0.225E-07    0.622E-04
RMM:   2    -0.269585681862E+02   -0.57298E-09    0.00000E+00     2   0.163E-07
  36 F= -.26958568E+02 E0= -.26946437E+02  d E =0.107320E-09
quench:  g(F)=  0.000E+00 g(S)=  0.000E+00 dE (1.order)= 0.000E+00
 bond charge predicted
       N       E                     dE             d eps       ncg     rms          rms(c)
DAV:   1    -0.269585681864E+02   -0.76216E-09   -0.54096E-12    93   0.174E-07    0.622E-04
RMM:   2    -0.269585681863E+02    0.90949E-10    0.00000E+00     2   0.140E-07
  37 F= -.26958568E+02 E0= -.26946437E+02  d E =-.982254E-10
quench:  g(F)=  0.000E+00 g(S)=  0.000E+00 dE (1.order)= 0.000E+00
 bond charge predicted
       N       E                     dE             d eps       ncg     rms          rms(c)
DAV:   1    -0.269585681868E+02   -0.42564E-09    0.31003E-11    93   0.145E-07    0.622E-04
RMM:   2    -0.269585681864E+02    0.37471E-09    0.00000E+00     2   0.106E-07
  38 F= -.26958568E+02 E0= -.26946437E+02  d E =-.141881E-09
quench:  g(F)=  0.000E+00 g(S)=  0.000E+00 dE (1.order)= 0.000E+00
 bond charge predicted
       N       E                     dE             d eps       ncg     rms          rms(c)
DAV:   1    -0.269585681863E+02    0.55843E-09   -0.83291E-12    93   0.111E-07    0.622E-04
RMM:   2    -0.269585681863E+02   -0.21828E-10    0.00000E+00     2   0.904E-08
  39 F= -.26958568E+02 E0= -.26946437E+02  d E =0.161890E-09
quench:  g(F)=  0.000E+00 g(S)=  0.000E+00 dE (1.order)= 0.000E+00
 bond charge predicted
       N       E                     dE             d eps       ncg     rms          rms(c)
DAV:   1    -0.269585681865E+02   -0.24374E-09    0.65719E-11    93   0.935E-08    0.622E-04
RMM:   2    -0.269585681863E+02    0.24193E-09    0.00000E+00     2   0.692E-08
  40 F= -.26958568E+02 E0= -.26946437E+02  d E =0.200089E-10
quench:  g(F)=  0.000E+00 g(S)=  0.000E+00 dE (1.order)= 0.000E+00
 bond charge predicted
       N       E                     dE             d eps       ncg     rms          rms(c)
DAV:   1    -0.269585681863E+02    0.22192E-09   -0.22379E-13    93   0.733E-08    0.622E-04
RMM:   2    -0.269585681864E+02   -0.72760E-10    0.00000E+00     2   0.587E-08
  41 F= -.26958568E+02 E0= -.26946437E+02  d E =-.927685E-10
quench:  g(F)=  0.000E+00 g(S)=  0.000E+00 dE (1.order)= 0.000E+00
 bond charge predicted
       N       E                     dE             d eps       ncg     rms          rms(c)
DAV:   1    -0.269585681864E+02   -0.12733E-09    0.47978E-12    93   0.607E-08    0.622E-04
RMM:   2    -0.269585681864E+02    0.90949E-11    0.00000E+00     2   0.451E-08
  42 F= -.26958568E+02 E0= -.26946437E+02  d E =-.454747E-10
quench:  g(F)=  0.000E+00 g(S)=  0.000E+00 dE (1.order)= 0.000E+00
 bond charge predicted
       N       E                     dE             d eps       ncg     rms          rms(c)
DAV:   1    -0.269585681864E+02    0.27285E-10   -0.51393E-11    93   0.466E-08    0.622E-04
RMM:   2    -0.269585681863E+02    0.70941E-10    0.00000E+00     2   0.378E-08
  43 F= -.26958568E+02 E0= -.26946437E+02  d E =0.891305E-10
quench:  g(F)=  0.000E+00 g(S)=  0.000E+00 dE (1.order)= 0.000E+00
 bond charge predicted
       N       E                     dE             d eps       ncg     rms          rms(c)
DAV:   1    -0.269585681863E+02    0.12187E-09   -0.91224E-12    93   0.390E-08    0.622E-04
RMM:   2    -0.269585681863E+02   -0.69122E-10    0.00000E+00     2   0.292E-08
  44 F= -.26958568E+02 E0= -.26946437E+02  d E =-.181899E-10
quench:  g(F)=  0.000E+00 g(S)=  0.000E+00 dE (1.order)= 0.000E+00
 bond charge predicted
       N       E                     dE             d eps       ncg     rms          rms(c)
DAV:   1    -0.269585681866E+02   -0.30741E-09    0.77422E-11    93   0.306E-08    0.622E-04
RMM:   2    -0.269585681864E+02    0.14370E-09    0.00000E+00     2   0.247E-08
  45 F= -.26958568E+02 E0= -.26946437E+02  d E =-.945874E-10
quench:  g(F)=  0.000E+00 g(S)=  0.000E+00 dE (1.order)= 0.000E+00
 bond charge predicted
       N       E                     dE             d eps       ncg     rms          rms(c)
DAV:   1    -0.269585681868E+02   -0.19099E-09   -0.60060E-12    93   0.255E-08    0.622E-04
RMM:   2    -0.269585681863E+02    0.45111E-09    0.00000E+00     2   0.190E-08
  46 F= -.26958568E+02 E0= -.26946437E+02  d E =0.116415E-09
quench:  g(F)=  0.000E+00 g(S)=  0.000E+00 dE (1.order)= 0.000E+00
 bond charge predicted
       N       E                     dE             d eps       ncg     rms          rms(c)
DAV:   1    -0.269585681865E+02    0.21282E-09    0.49429E-11    93   0.199E-08    0.622E-04
RMM:   2    -0.269585681863E+02    0.26557E-09    0.00000E+00     2   0.161E-08
  47 F= -.26958568E+02 E0= -.26946437E+02  d E =0.272848E-10
quench:  g(F)=  0.000E+00 g(S)=  0.000E+00 dE (1.order)= 0.000E+00
 bond charge predicted
       N       E                     dE             d eps       ncg     rms          rms(c)
DAV:   1    -0.269585681860E+02    0.58753E-09    0.90756E-11    93   0.167E-08    0.622E-04
RMM:   2    -0.269585681864E+02   -0.44201E-09    0.00000E+00     2   0.124E-08
  48 F= -.26958568E+02 E0= -.26946437E+02  d E =-.120053E-09
quench:  g(F)=  0.000E+00 g(S)=  0.000E+00 dE (1.order)= 0.000E+00
 bond charge predicted
       N       E                     dE             d eps       ncg     rms          rms(c)
DAV:   1    -0.269585681864E+02   -0.42928E-09    0.12335E-10    93   0.135E-08    0.622E-04
RMM:   2    -0.269585681863E+02    0.45475E-10    0.00000E+00     2   0.105E-08
  49 F= -.26958568E+02 E0= -.26946437E+02  d E =0.582077E-10
quench:  g(F)=  0.000E+00 g(S)=  0.000E+00 dE (1.order)= 0.000E+00
 bond charge predicted
       N       E                     dE             d eps       ncg     rms          rms(c)
DAV:   1    -0.269585681860E+02    0.39472E-09    0.87405E-12    93   0.109E-08    0.622E-04
RMM:   2    -0.269585681863E+02   -0.26375E-09    0.00000E+00     2   0.809E-09
  50 F= -.26958568E+02 E0= -.26946437E+02  d E =0.854925E-10
quench:  g(F)=  0.000E+00 g(S)=  0.000E+00 dE (1.order)= 0.000E+00
 bond charge predicted
       N       E                     dE             d eps       ncg     rms          rms(c)
DAV:   1    -0.269585681860E+02    0.16371E-10    0.78627E-11    93   0.827E-09    0.622E-04
RMM:   2    -0.269585681864E+02   -0.38926E-09    0.00000E+00     2   0.663E-09
  51 F= -.26958568E+02 E0= -.26946437E+02  d E =-.109139E-09
quench:  g(F)=  0.000E+00 g(S)=  0.000E+00 dE (1.order)= 0.000E+00
 bond charge predicted
       N       E                     dE             d eps       ncg     rms          rms(c)
DAV:   1    -0.269585681862E+02   -0.25466E-09    0.37986E-11    93   0.691E-09    0.622E-04
RMM:   2    -0.269585681865E+02   -0.26193E-09    0.00000E+00     2   0.538E-09
  52 F= -.26958568E+02 E0= -.26946437E+02  d E =-.127329E-09
quench:  g(F)=  0.000E+00 g(S)=  0.000E+00 dE (1.order)= 0.000E+00
 bond charge predicted
       N       E                     dE             d eps       ncg     rms          rms(c)
DAV:   1    -0.269585681857E+02    0.48931E-09    0.13894E-10    93   0.563E-09    0.622E-04
RMM:   2    -0.269585681863E+02   -0.59299E-09    0.00000E+00     2   0.437E-09
  53 F= -.26958568E+02 E0= -.26946437E+02  d E =0.158252E-09
quench:  g(F)=  0.000E+00 g(S)=  0.000E+00 dE (1.order)= 0.000E+00
 bond charge predicted
       N       E                     dE             d eps       ncg     rms          rms(c)
DAV:   1    -0.269585681861E+02   -0.41291E-09    0.38893E-11    93   0.444E-09    0.622E-04
RMM:   2    -0.269585681863E+02   -0.14370E-09    0.00000E+00     2   0.349E-09
  54 F= -.26958568E+02 E0= -.26946437E+02  d E =0.363798E-10
quench:  g(F)=  0.000E+00 g(S)=  0.000E+00 dE (1.order)= 0.000E+00
 bond charge predicted
       N       E                     dE             d eps       ncg     rms          rms(c)
DAV:   1    -0.269585681864E+02   -0.25648E-09   -0.32508E-11    93   0.368E-09    0.622E-04
RMM:   2    -0.269585681864E+02    0.16371E-10    0.00000E+00     2   0.287E-09
  55 F= -.26958568E+02 E0= -.26946437E+02  d E =-.964064E-10
quench:  g(F)=  0.000E+00 g(S)=  0.000E+00 dE (1.order)= 0.000E+00
 bond charge predicted
       N       E                     dE             d eps       ncg     rms          rms(c)
DAV:   1    -0.269585681862E+02    0.18554E-09    0.17543E-11    93   0.297E-09    0.622E-04
RMM:   2    -0.269585681863E+02   -0.47294E-10    0.00000E+00     2   0.233E-09
  56 F= -.26958568E+02 E0= -.26946437E+02  d E =0.121872E-09
quench:  g(F)=  0.000E+00 g(S)=  0.000E+00 dE (1.order)= 0.000E+00
 bond charge predicted
       N       E                     dE             d eps       ncg     rms          rms(c)
DAV:   1    -0.269585681860E+02    0.18372E-09   -0.95552E-12    93   0.238E-09    0.622E-04
RMM:   2    -0.269585681864E+02   -0.33288E-09    0.00000E+00     2   0.198E-09
  57 F= -.26958568E+02 E0= -.26946437E+02  d E =-.101863E-09
quench:  g(F)=  0.000E+00 g(S)=  0.000E+00 dE (1.order)= 0.000E+00
 bond charge predicted
       N       E                     dE             d eps       ncg     rms          rms(c)
DAV:   1    -0.269585681867E+02   -0.65120E-09   -0.25421E-11    93   0.206E-09    0.622E-04
RMM:   2    -0.269585681862E+02    0.50204E-09    0.00000E+00     1   0.160E-09
  58 F= -.26958568E+02 E0= -.26946437E+02  d E =0.183718E-09
quench:  g(F)=  0.000E+00 g(S)=  0.000E+00 dE (1.order)= 0.000E+00
 bond charge predicted
       N       E                     dE             d eps       ncg     rms          rms(c)
DAV:   1    -0.269585681873E+02   -0.60572E-09    0.34929E-11    84   0.168E-09    0.622E-04
RMM:   2    -0.269585681864E+02    0.90040E-09    0.00000E+00     2   0.130E-09
  59 F= -.26958568E+02 E0= -.26946437E+02  d E =-.207365E-09
quench:  g(F)=  0.000E+00 g(S)=  0.000E+00 dE (1.order)= 0.000E+00
 bond charge predicted
       N       E                     dE             d eps       ncg     rms          rms(c)
DAV:   1    -0.269585681859E+02    0.13624E-08    0.11724E-11    84   0.132E-09    0.622E-04
RMM:   2    -0.269585681864E+02   -0.47294E-09    0.00000E+00     1   0.114E-09
  60 F= -.26958568E+02 E0= -.26946437E+02  d E =-.109139E-10
quench:  g(F)=  0.000E+00 g(S)=  0.000E+00 dE (1.order)= 0.000E+00
 bond charge predicted
       N       E                     dE             d eps       ncg     rms          rms(c)
DAV:   1    -0.269585681863E+02   -0.36744E-09    0.15188E-11    84   0.113E-09    0.622E-04
RMM:   2    -0.269585681863E+02    0.34561E-10    0.00000E+00     1   0.872E-10
  61 F= -.26958568E+02 E0= -.26946437E+02  d E =0.140062E-09
quench:  g(F)=  0.000E+00 g(S)=  0.000E+00 dE (1.order)= 0.000E+00
 bond charge predicted
       N       E                     dE             d eps       ncg     rms          rms(c)
DAV:   1    -0.269585681862E+02    0.54570E-10    0.40136E-11    84   0.926E-10    0.622E-04
RMM:   2    -0.269585681862E+02   -0.54570E-11    0.00000E+00     1   0.740E-10
  62 F= -.26958568E+02 E0= -.26946437E+02  d E =0.145519E-10
quench:  g(F)=  0.000E+00 g(S)=  0.000E+00 dE (1.order)= 0.000E+00
 bond charge predicted
       N       E                     dE             d eps       ncg     rms          rms(c)
DAV:   1    -0.269585681863E+02   -0.67303E-10    0.33711E-11    84   0.780E-10    0.622E-04
RMM:   2    -0.269585681863E+02    0.36380E-11    0.00000E+00     1   0.715E-10
  63 F= -.26958568E+02 E0= -.26946437E+02  d E =-.582077E-10
quench:  g(F)=  0.000E+00 g(S)=  0.000E+00 dE (1.order)= 0.000E+00
 bond charge predicted
       N       E                     dE             d eps       ncg     rms          rms(c)
DAV:   1    -0.269585681864E+02   -0.74579E-10    0.93416E-11    84   0.645E-10    0.622E-04
RMM:   2    -0.269585681863E+02    0.10186E-09    0.00000E+00     1   0.515E-10
  64 F= -.26958568E+02 E0= -.26946437E+02  d E =0.236469E-10
quench:  g(F)=  0.000E+00 g(S)=  0.000E+00 dE (1.order)= 0.000E+00
 bond charge predicted
       N       E                     dE             d eps       ncg     rms          rms(c)
DAV:   1    -0.269585681857E+02    0.64574E-09    0.25422E-11    84   0.509E-10    0.622E-04
RMM:   2    -0.269585681862E+02   -0.43838E-09    0.00000E+00     1   0.458E-10
  65 F= -.26958568E+02 E0= -.26946437E+02  d E =0.105501E-09
quench:  g(F)=  0.000E+00 g(S)=  0.000E+00 dE (1.order)= 0.000E+00
 bond charge predicted
       N       E                     dE             d eps       ncg     rms          rms(c)
DAV:   1    -0.269585681866E+02   -0.84219E-09    0.59952E-11    84   0.484E-10    0.622E-04
RMM:   2    -0.269585681862E+02    0.33469E-09    0.00000E+00     1   0.489E-10
  66 F= -.26958568E+02 E0= -.26946437E+02  d E =-.691216E-10
quench:  g(F)=  0.000E+00 g(S)=  0.000E+00 dE (1.order)= 0.000E+00
 bond charge predicted
       N       E                     dE             d eps       ncg     rms          rms(c)
DAV:   1    -0.269585681864E+02    0.21646E-09    0.63902E-11    84   0.487E-10    0.622E-04
RMM:   2    -0.269585681863E+02    0.90949E-10    0.00000E+00     1   0.352E-10
  67 F= -.26958568E+02 E0= -.26946437E+02  d E =-.272848E-10
quench:  g(F)=  0.000E+00 g(S)=  0.000E+00 dE (1.order)= 0.000E+00
 bond charge predicted
       N       E                     dE             d eps       ncg     rms          rms(c)
DAV:   1    -0.269585681861E+02    0.23647E-09    0.61051E-11    84   0.400E-10    0.622E-04
RMM:   2    -0.269585681863E+02   -0.12187E-09    0.00000E+00     1   0.496E-10
  68 F= -.26958568E+02 E0= -.26946437E+02  d E =0.236469E-10
quench:  g(F)=  0.000E+00 g(S)=  0.000E+00 dE (1.order)= 0.000E+00
 bond charge predicted
       N       E                     dE             d eps       ncg     rms          rms(c)
DAV:   1    -0.269585681862E+02   -0.38199E-10    0.38992E-11    84   0.599E-10    0.622E-04
RMM:   2    -0.269585681863E+02   -0.92768E-10    0.00000E+00     1   0.610E-10
  69 F= -.26958568E+02 E0= -.26946437E+02  d E =-.909495E-11
quench:  g(F)=  0.000E+00 g(S)=  0.000E+00 dE (1.order)= 0.000E+00
 bond charge predicted
       N       E                     dE             d eps       ncg     rms          rms(c)
DAV:   1    -0.269585681867E+02   -0.50750E-09    0.11781E-12    84   0.580E-10    0.622E-04
RMM:   2    -0.269585681862E+02    0.48021E-09    0.00000E+00     1   0.342E-10
  70 F= -.26958568E+02 E0= -.26946437E+02  d E =0.654836E-10
quench:  g(F)=  0.000E+00 g(S)=  0.000E+00 dE (1.order)= 0.000E+00
 bond charge predicted
       N       E                     dE             d eps       ncg     rms          rms(c)
DAV:   1    -0.269585681863E+02    0.34743E-09   -0.20281E-11    84   0.424E-10    0.622E-04
RMM:   2    -0.269585681864E+02   -0.81855E-10    0.00000E+00     1   0.282E-10
  71 F= -.26958568E+02 E0= -.26946437E+02  d E =-.214641E-09
quench:  g(F)=  0.000E+00 g(S)=  0.000E+00 dE (1.order)= 0.000E+00
 bond charge predicted
       N       E                     dE             d eps       ncg     rms          rms(c)
DAV:   1    -0.269585681862E+02    0.14552E-09    0.21646E-11    84   0.366E-10    0.622E-04
RMM:   2    -0.269585681863E+02   -0.11642E-09    0.00000E+00     1   0.360E-10
  72 F= -.26958568E+02 E0= -.26946437E+02  d E =0.110958E-09
quench:  g(F)=  0.000E+00 g(S)=  0.000E+00 dE (1.order)= 0.000E+00
 bond charge predicted
       N       E                     dE             d eps       ncg     rms          rms(c)
DAV:   1    -0.269585681863E+02   -0.16371E-09    0.39460E-12    84   0.361E-10    0.622E-04
RMM:   2    -0.269585681862E+02    0.15461E-09    0.00000E+00     1   0.408E-10
  73 F= -.26958568E+02 E0= -.26946437E+02  d E =0.107320E-09
quench:  g(F)=  0.000E+00 g(S)=  0.000E+00 dE (1.order)= 0.000E+00
 bond charge predicted
       N       E                     dE             d eps       ncg     rms          rms(c)
DAV:   1    -0.269585681864E+02   -0.16371E-10    0.16852E-11    84   0.364E-10    0.622E-04
RMM:   2    -0.269585681863E+02    0.52751E-10    0.00000E+00     1   0.333E-10
  74 F= -.26958568E+02 E0= -.26946437E+02  d E =-.118234E-09
quench:  g(F)=  0.000E+00 g(S)=  0.000E+00 dE (1.order)= 0.000E+00
 bond charge predicted
       N       E                     dE             d eps       ncg     rms          rms(c)
DAV:   1    -0.269585681863E+02    0.89130E-10   -0.18351E-11    84   0.409E-10    0.622E-04
RMM:   2    -0.269585681863E+02   -0.20009E-10    0.00000E+00     1   0.359E-10
  75 F= -.26958568E+02 E0= -.26946437E+02  d E =0.163709E-10
quench:  g(F)=  0.000E+00 g(S)=  0.000E+00 dE (1.order)= 0.000E+00
 bond charge predicted
       N       E                     dE             d eps       ncg     rms          rms(c)
DAV:   1    -0.269585681861E+02    0.13279E-09    0.79475E-12    84   0.477E-10    0.622E-04
RMM:   2    -0.269585681863E+02   -0.16553E-09    0.00000E+00     1   0.380E-10
  76 F= -.26958568E+02 E0= -.26946437E+02  d E =-.127329E-10
quench:  g(F)=  0.000E+00 g(S)=  0.000E+00 dE (1.order)= 0.000E+00
 bond charge predicted
       N       E                     dE             d eps       ncg     rms          rms(c)
DAV:   1    -0.269585681861E+02   -0.72760E-11    0.49571E-11    84   0.420E-10    0.622E-04
RMM:   2    -0.269585681864E+02   -0.26012E-09    0.00000E+00     1   0.298E-10
  77 F= -.26958568E+02 E0= -.26946437E+02  d E =-.101863E-09
quench:  g(F)=  0.000E+00 g(S)=  0.000E+00 dE (1.order)= 0.000E+00
 bond charge predicted
       N       E                     dE             d eps       ncg     rms          rms(c)
DAV:   1    -0.269585681864E+02   -0.24011E-09    0.15907E-11    84   0.299E-10    0.622E-04
RMM:   2    -0.269585681863E+02    0.65484E-10    0.00000E+00     1   0.361E-10
  78 F= -.26958568E+02 E0= -.26946437E+02  d E =0.854925E-10
quench:  g(F)=  0.000E+00 g(S)=  0.000E+00 dE (1.order)= 0.000E+00
 bond charge predicted
       N       E                     dE             d eps       ncg     rms          rms(c)
DAV:   1    -0.269585681866E+02   -0.25102E-09    0.45140E-11    84   0.352E-10    0.622E-04
RMM:   2    -0.269585681862E+02    0.42382E-09    0.00000E+00     1   0.442E-10
  79 F= -.26958568E+02 E0= -.26946437E+02  d E =0.107320E-09
quench:  g(F)=  0.000E+00 g(S)=  0.000E+00 dE (1.order)= 0.000E+00
 bond charge predicted
       N       E                     dE             d eps       ncg     rms          rms(c)
DAV:   1    -0.269585681864E+02    0.20373E-09   -0.33183E-11    84   0.395E-10    0.622E-04
RMM:   2    -0.269585681864E+02    0.65484E-10    0.00000E+00     1   0.301E-10
  80 F= -.26958568E+02 E0= -.26946437E+02  d E =-.154614E-09
quench:  g(F)=  0.000E+00 g(S)=  0.000E+00 dE (1.order)= 0.000E+00
 bond charge predicted
       N       E                     dE             d eps       ncg     rms          rms(c)
DAV:   1    -0.269585681867E+02   -0.21646E-09    0.64056E-11    84   0.290E-10    0.622E-04
RMM:   2    -0.269585681863E+02    0.35106E-09    0.00000E+00     1   0.254E-10
  81 F= -.26958568E+02 E0= -.26946437E+02  d E =0.691216E-10
quench:  g(F)=  0.000E+00 g(S)=  0.000E+00 dE (1.order)= 0.000E+00
 bond charge predicted
       N       E                     dE             d eps       ncg     rms          rms(c)
DAV:   1    -0.269585681868E+02   -0.17826E-09    0.26443E-11    84   0.246E-10    0.622E-04
RMM:   2    -0.269585681864E+02    0.44929E-09    0.00000E+00     1   0.287E-10
  82 F= -.26958568E+02 E0= -.26946437E+02  d E =-.800355E-10
quench:  g(F)=  0.000E+00 g(S)=  0.000E+00 dE (1.order)= 0.000E+00
 bond charge predicted
       N       E                     dE             d eps       ncg     rms          rms(c)
DAV:   1    -0.269585681869E+02   -0.36380E-10   -0.28815E-11    84   0.303E-10    0.622E-04
RMM:   2    -0.269585681863E+02    0.53296E-09    0.00000E+00     1   0.303E-10
  83 F= -.26958568E+02 E0= -.26946437E+02  d E =0.472937E-10
quench:  g(F)=  0.000E+00 g(S)=  0.000E+00 dE (1.order)= 0.000E+00
 bond charge predicted
       N       E                     dE             d eps       ncg     rms          rms(c)
DAV:   1    -0.269585681859E+02    0.94406E-09   -0.78327E-12    84   0.312E-10    0.622E-04
RMM:   2    -0.269585681863E+02   -0.41473E-09    0.00000E+00     1   0.357E-10
  84 F= -.26958568E+02 E0= -.26946437E+02  d E =-.363798E-11
quench:  g(F)=  0.000E+00 g(S)=  0.000E+00 dE (1.order)= 0.000E+00
 bond charge predicted
       N       E                     dE             d eps       ncg     rms          rms(c)
DAV:   1    -0.269585681867E+02   -0.73851E-09    0.75628E-11    84   0.412E-10    0.622E-04
RMM:   2    -0.269585681862E+02    0.48385E-09    0.00000E+00     1   0.373E-10
  85 F= -.26958568E+02 E0= -.26946437E+02  d E =0.160071E-09
quench:  g(F)=  0.000E+00 g(S)=  0.000E+00 dE (1.order)= 0.000E+00
 bond charge predicted
       N       E                     dE             d eps       ncg     rms          rms(c)
DAV:   1    -0.269585681864E+02    0.25830E-09    0.24657E-11    84   0.396E-10    0.622E-04
RMM:   2    -0.269585681863E+02    0.56389E-10    0.00000E+00     1   0.217E-10
  86 F= -.26958568E+02 E0= -.26946437E+02  d E =-.169166E-09
quench:  g(F)=  0.000E+00 g(S)=  0.000E+00 dE (1.order)= 0.000E+00
 bond charge predicted
       N       E                     dE             d eps       ncg     rms          rms(c)
DAV:   1    -0.269585681860E+02    0.36925E-09   -0.11585E-12    84   0.279E-10    0.622E-04
RMM:   2    -0.269585681863E+02   -0.26557E-09    0.00000E+00     1   0.299E-10
  87 F= -.26958568E+02 E0= -.26946437E+02  d E =0.472937E-10
quench:  g(F)=  0.000E+00 g(S)=  0.000E+00 dE (1.order)= 0.000E+00
 bond charge predicted
       N       E                     dE             d eps       ncg     rms          rms(c)
DAV:   1    -0.269585681860E+02    0.25466E-10    0.32344E-11    84   0.364E-10    0.622E-04
RMM:   2    -0.269585681864E+02   -0.34379E-09    0.00000E+00     1   0.392E-10
  88 F= -.26958568E+02 E0= -.26946437E+02  d E =-.527507E-10
quench:  g(F)=  0.000E+00 g(S)=  0.000E+00 dE (1.order)= 0.000E+00
 bond charge predicted
       N       E                     dE             d eps       ncg     rms          rms(c)
DAV:   1    -0.269585681865E+02   -0.46202E-09    0.29596E-11    84   0.346E-10    0.622E-04
RMM:   2    -0.269585681862E+02    0.25466E-09    0.00000E+00     1   0.263E-10
  89 F= -.26958568E+02 E0= -.26946437E+02  d E =0.136424E-09
quench:  g(F)=  0.000E+00 g(S)=  0.000E+00 dE (1.order)= 0.000E+00
 bond charge predicted
       N       E                     dE             d eps       ncg     rms          rms(c)
DAV:   1    -0.269585681862E+02    0.27467E-09    0.96685E-11    84   0.355E-10    0.622E-04
RMM:   2    -0.269585681862E+02    0.36380E-11    0.00000E+00     1   0.394E-10
  90 F= -.26958568E+02 E0= -.26946437E+02  d E =0.236469E-10
quench:  g(F)=  0.000E+00 g(S)=  0.000E+00 dE (1.order)= 0.000E+00
 bond charge predicted
       N       E                     dE             d eps       ncg     rms          rms(c)
DAV:   1    -0.269585681868E+02   -0.64574E-09    0.46948E-11    84   0.404E-10    0.622E-04
RMM:   2    -0.269585681862E+02    0.64574E-09    0.00000E+00     1   0.277E-10
  91 F= -.26958568E+02 E0= -.26946437E+02  d E =-.363798E-11
quench:  g(F)=  0.000E+00 g(S)=  0.000E+00 dE (1.order)= 0.000E+00
 bond charge predicted
       N       E                     dE             d eps       ncg     rms          rms(c)
DAV:   1    -0.269585681866E+02    0.24011E-09    0.42267E-11    84   0.370E-10    0.622E-04
RMM:   2    -0.269585681862E+02    0.36198E-09    0.00000E+00     1   0.325E-10
  92 F= -.26958568E+02 E0= -.26946437E+02  d E =-.436557E-10
quench:  g(F)=  0.000E+00 g(S)=  0.000E+00 dE (1.order)= 0.000E+00
 bond charge predicted
       N       E                     dE             d eps       ncg     rms          rms(c)
DAV:   1    -0.269585681860E+02    0.55479E-09   -0.28651E-11    84   0.299E-10    0.622E-04
RMM:   2    -0.269585681863E+02   -0.25830E-09    0.00000E+00     1   0.237E-10
  93 F= -.26958568E+02 E0= -.26946437E+02  d E =-.654836E-10
quench:  g(F)=  0.000E+00 g(S)=  0.000E+00 dE (1.order)= 0.000E+00
 bond charge predicted
       N       E                     dE             d eps       ncg     rms          rms(c)
DAV:   1    -0.269585681870E+02   -0.96588E-09    0.80467E-11    84   0.362E-10    0.622E-04
RMM:   2    -0.269585681863E+02    0.73669E-09    0.00000E+00     1   0.379E-10
  94 F= -.26958568E+02 E0= -.26946437E+02  d E =0.291038E-10
quench:  g(F)=  0.000E+00 g(S)=  0.000E+00 dE (1.order)= 0.000E+00
 bond charge predicted
       N       E                     dE             d eps       ncg     rms          rms(c)
DAV:   1    -0.269585681863E+02    0.68758E-09    0.26249E-11    84   0.380E-10    0.622E-04
RMM:   2    -0.269585681863E+02   -0.36380E-11    0.00000E+00     1   0.259E-10
  95 F= -.26958568E+02 E0= -.26946437E+02  d E =-.527507E-10
quench:  g(F)=  0.000E+00 g(S)=  0.000E+00 dE (1.order)= 0.000E+00
 bond charge predicted
       N       E                     dE             d eps       ncg     rms          rms(c)
DAV:   1    -0.269585681861E+02    0.27103E-09    0.40093E-11    84   0.323E-10    0.622E-04
RMM:   2    -0.269585681863E+02   -0.28922E-09    0.00000E+00     1   0.285E-10
  96 F= -.26958568E+02 E0= -.26946437E+02  d E =-.145519E-10
quench:  g(F)=  0.000E+00 g(S)=  0.000E+00 dE (1.order)= 0.000E+00
 bond charge predicted
       N       E                     dE             d eps       ncg     rms          rms(c)
DAV:   1    -0.269585681865E+02   -0.40018E-09   -0.19585E-11    84   0.286E-10    0.622E-04
RMM:   2    -0.269585681864E+02    0.98225E-10    0.00000E+00     1   0.379E-10
  97 F= -.26958568E+02 E0= -.26946437E+02  d E =-.127329E-10
quench:  g(F)=  0.000E+00 g(S)=  0.000E+00 dE (1.order)= 0.000E+00
 bond charge predicted
       N       E                     dE             d eps       ncg     rms          rms(c)
DAV:   1    -0.269585681862E+02    0.22919E-09   -0.62716E-13    84   0.428E-10    0.622E-04
RMM:   2    -0.269585681863E+02   -0.10914E-09    0.00000E+00     1   0.408E-10
  98 F= -.26958568E+02 E0= -.26946437E+02  d E =0.218279E-10
quench:  g(F)=  0.000E+00 g(S)=  0.000E+00 dE (1.order)= 0.000E+00
 bond charge predicted
       N       E                     dE             d eps       ncg     rms          rms(c)
DAV:   1    -0.269585681864E+02   -0.22192E-09   -0.31866E-12    84   0.389E-10    0.622E-04
RMM:   2    -0.269585681863E+02    0.14006E-09    0.00000E+00     1   0.336E-10
  99 F= -.26958568E+02 E0= -.26946437E+02  d E =0.272848E-10
quench:  g(F)=  0.000E+00 g(S)=  0.000E+00 dE (1.order)= 0.000E+00
 bond charge predicted
       N       E                     dE             d eps       ncg     rms          rms(c)
DAV:   1    -0.269585681868E+02   -0.35470E-09    0.30994E-11    84   0.385E-10    0.622E-04
RMM:   2    -0.269585681862E+02    0.55297E-09    0.00000E+00     1   0.237E-10
 100 F= -.26958568E+02 E0= -.26946437E+02  d E =0.582077E-10
quench:  g(F)=  0.000E+00 g(S)=  0.000E+00 dE (1.order)= 0.000E+00
 bond charge predicted
       N       E                     dE             d eps       ncg     rms          rms(c)
DAV:   1    -0.269585681862E+02    0.63665E-09   -0.25907E-11    84   0.325E-10    0.622E-04
RMM:   2    -0.269585681863E+02   -0.13097E-09    0.00000E+00     1   0.211E-10
 101 F= -.26958568E+02 E0= -.26946437E+02  d E =-.472937E-10
quench:  g(F)=  0.000E+00 g(S)=  0.000E+00 dE (1.order)= 0.000E+00
 bond charge predicted
       N       E                     dE             d eps       ncg     rms          rms(c)
DAV:   1    -0.269585681855E+02    0.70395E-09    0.58218E-11    84   0.322E-10    0.622E-04
RMM:   2    -0.269585681863E+02   -0.83855E-09    0.00000E+00     1   0.360E-10
 102 F= -.26958568E+02 E0= -.26946437E+02  d E =-.363798E-11
quench:  g(F)=  0.000E+00 g(S)=  0.000E+00 dE (1.order)= 0.000E+00
 bond charge predicted
       N       E                     dE             d eps       ncg     rms          rms(c)
DAV:   1    -0.269585681866E+02   -0.11150E-08    0.65664E-11    84   0.314E-10    0.622E-04
RMM:   2    -0.269585681864E+02    0.14734E-09    0.00000E+00     1   0.298E-10
 103 F= -.26958568E+02 E0= -.26946437E+02  d E =-.129148E-09
quench:  g(F)=  0.000E+00 g(S)=  0.000E+00 dE (1.order)= 0.000E+00
 bond charge predicted
       N       E                     dE             d eps       ncg     rms          rms(c)
DAV:   1    -0.269585681864E+02    0.18917E-09   -0.72041E-12    84   0.312E-10    0.622E-04
RMM:   2    -0.269585681862E+02    0.16189E-09    0.00000E+00     1   0.364E-10
 104 F= -.26958568E+02 E0= -.26946437E+02  d E =0.203727E-09
quench:  g(F)=  0.000E+00 g(S)=  0.000E+00 dE (1.order)= 0.000E+00
 bond charge predicted
       N       E                     dE             d eps       ncg     rms          rms(c)
DAV:   1    -0.269585681866E+02   -0.18372E-09    0.26794E-11    84   0.449E-10    0.622E-04
RMM:   2    -0.269585681862E+02    0.35470E-09    0.00000E+00     1   0.301E-10
 105 F= -.26958568E+02 E0= -.26946437E+02  d E =0.909495E-11
quench:  g(F)=  0.000E+00 g(S)=  0.000E+00 dE (1.order)= 0.000E+00
 bond charge predicted
       N       E                     dE             d eps       ncg     rms          rms(c)
DAV:   1    -0.269585681859E+02    0.69122E-09    0.56050E-11    84   0.340E-10    0.622E-04
RMM:   2    -0.269585681862E+02   -0.29468E-09    0.00000E+00     1   0.268E-10
 106 F= -.26958568E+02 E0= -.26946437E+02  d E =0.418368E-10
quench:  g(F)=  0.000E+00 g(S)=  0.000E+00 dE (1.order)= 0.000E+00
 bond charge predicted
       N       E                     dE             d eps       ncg     rms          rms(c)
DAV:   1    -0.269585681861E+02   -0.23101E-09    0.38358E-11    84   0.290E-10    0.622E-04
RMM:   2    -0.269585681862E+02   -0.90949E-10    0.00000E+00     1   0.337E-10
 107 F= -.26958568E+02 E0= -.26946437E+02  d E =-.272848E-10
quench:  g(F)=  0.000E+00 g(S)=  0.000E+00 dE (1.order)= 0.000E+00
 bond charge predicted
       N       E                     dE             d eps       ncg     rms          rms(c)
DAV:   1    -0.269585681863E+02   -0.19463E-09   -0.35683E-12    84   0.326E-10    0.622E-04
RMM:   2    -0.269585681864E+02   -0.74579E-10    0.00000E+00     1   0.428E-10
 108 F= -.26958568E+02 E0= -.26946437E+02  d E =-.178261E-09
quench:  g(F)=  0.000E+00 g(S)=  0.000E+00 dE (1.order)= 0.000E+00
 bond charge predicted
       N       E                     dE             d eps       ncg     rms          rms(c)
DAV:   1    -0.269585681867E+02   -0.41655E-09   -0.20665E-11    84   0.357E-10    0.622E-04
RMM:   2    -0.269585681864E+02    0.29650E-09    0.00000E+00     1   0.332E-10
 109 F= -.26958568E+02 E0= -.26946437E+02  d E =-.454747E-10
quench:  g(F)=  0.000E+00 g(S)=  0.000E+00 dE (1.order)= 0.000E+00
 bond charge predicted
       N       E                     dE             d eps       ncg     rms          rms(c)
DAV:   1    -0.269585681867E+02    0.60027E-10    0.20818E-11    84   0.317E-10    0.622E-04
RMM:   2    -0.269585681862E+02    0.41473E-09    0.00000E+00     1   0.280E-10
 110 F= -.26958568E+02 E0= -.26946437E+02  d E =0.178261E-09
quench:  g(F)=  0.000E+00 g(S)=  0.000E+00 dE (1.order)= 0.000E+00
 bond charge predicted
       N       E                     dE             d eps       ncg     rms          rms(c)
DAV:   1    -0.269585681862E+02    0.46930E-09   -0.29342E-11    84   0.380E-10    0.622E-04
RMM:   2    -0.269585681863E+02   -0.90949E-10    0.00000E+00     1   0.369E-10
 111 F= -.26958568E+02 E0= -.26946437E+02  d E =-.363798E-10
quench:  g(F)=  0.000E+00 g(S)=  0.000E+00 dE (1.order)= 0.000E+00
 bond charge predicted
       N       E                     dE             d eps       ncg     rms          rms(c)
DAV:   1    -0.269585681862E+02   -0.12733E-10   -0.48128E-12    84   0.315E-10    0.622E-04
RMM:   2    -0.269585681864E+02   -0.22919E-09    0.00000E+00     1   0.211E-10
 112 F= -.26958568E+02 E0= -.26946437E+02  d E =-.150976E-09
quench:  g(F)=  0.000E+00 g(S)=  0.000E+00 dE (1.order)= 0.000E+00
 bond charge predicted
       N       E                     dE             d eps       ncg     rms          rms(c)
DAV:   1    -0.269585681864E+02   -0.17462E-09    0.43509E-12    84   0.253E-10    0.622E-04
RMM:   2    -0.269585681863E+02    0.89130E-10    0.00000E+00     1   0.307E-10
 113 F= -.26958568E+02 E0= -.26946437E+02  d E =0.143700E-09
quench:  g(F)=  0.000E+00 g(S)=  0.000E+00 dE (1.order)= 0.000E+00
 bond charge predicted
       N       E                     dE             d eps       ncg     rms          rms(c)
DAV:   1    -0.269585681865E+02   -0.74579E-10    0.40356E-11    84   0.329E-10    0.622E-04
RMM:   2    -0.269585681863E+02    0.15825E-09    0.00000E+00     1   0.281E-10
 114 F= -.26958568E+02 E0= -.26946437E+02  d E =-.545697E-11
quench:  g(F)=  0.000E+00 g(S)=  0.000E+00 dE (1.order)= 0.000E+00
 bond charge predicted
       N       E                     dE             d eps       ncg     rms          rms(c)
DAV:   1    -0.269585681861E+02    0.30923E-09    0.41359E-11    84   0.366E-10    0.622E-04
RMM:   2    -0.269585681864E+02   -0.25466E-09    0.00000E+00     1   0.333E-10
 115 F= -.26958568E+02 E0= -.26946437E+02  d E =-.103682E-09
quench:  g(F)=  0.000E+00 g(S)=  0.000E+00 dE (1.order)= 0.000E+00
 bond charge predicted
       N       E                     dE             d eps       ncg     rms          rms(c)
DAV:   1    -0.269585681858E+02    0.30559E-09    0.44527E-11    84   0.314E-10    0.622E-04
RMM:   2    -0.269585681863E+02   -0.42201E-09    0.00000E+00     1   0.314E-10
 116 F= -.26958568E+02 E0= -.26946437E+02  d E =0.138243E-09
quench:  g(F)=  0.000E+00 g(S)=  0.000E+00 dE (1.order)= 0.000E+00
 bond charge predicted
       N       E                     dE             d eps       ncg     rms          rms(c)
DAV:   1    -0.269585681865E+02   -0.68758E-09    0.46165E-11    84   0.268E-10    0.622E-04
RMM:   2    -0.269585681864E+02    0.12369E-09    0.00000E+00     1   0.244E-10
 117 F= -.26958568E+02 E0= -.26946437E+02  d E =-.141881E-09
quench:  g(F)=  0.000E+00 g(S)=  0.000E+00 dE (1.order)= 0.000E+00
 bond charge predicted
       N       E                     dE             d eps       ncg     rms          rms(c)
DAV:   1    -0.269585681862E+02    0.28194E-09    0.11545E-11    84   0.295E-10    0.622E-04
RMM:   2    -0.269585681862E+02    0.20009E-10    0.00000E+00     1   0.289E-10
 118 F= -.26958568E+02 E0= -.26946437E+02  d E =0.178261E-09
quench:  g(F)=  0.000E+00 g(S)=  0.000E+00 dE (1.order)= 0.000E+00
 bond charge predicted
       N       E                     dE             d eps       ncg     rms          rms(c)
DAV:   1    -0.269585681859E+02    0.30195E-09    0.40430E-11    84   0.348E-10    0.622E-04
RMM:   2    -0.269585681864E+02   -0.45293E-09    0.00000E+00     1   0.349E-10
 119 F= -.26958568E+02 E0= -.26946437E+02  d E =-.170985E-09
quench:  g(F)=  0.000E+00 g(S)=  0.000E+00 dE (1.order)= 0.000E+00
 bond charge predicted
       N       E                     dE             d eps       ncg     rms          rms(c)
DAV:   1    -0.269585681852E+02    0.76398E-09    0.35885E-11    84   0.441E-10    0.622E-04
RMM:   2    -0.269585681862E+02   -0.10368E-08    0.00000E+00     1   0.338E-10
 120 F= -.26958568E+02 E0= -.26946437E+02  d E =0.180080E-09
quench:  g(F)=  0.000E+00 g(S)=  0.000E+00 dE (1.order)= 0.000E+00
 bond charge predicted
       N       E                     dE             d eps       ncg     rms          rms(c)
DAV:   1    -0.269585681867E+02   -0.15116E-08    0.84062E-12    84   0.394E-10    0.622E-04
RMM:   2    -0.269585681862E+02    0.52569E-09    0.00000E+00     1   0.253E-10
 121 F= -.26958568E+02 E0= -.26946437E+02  d E =0.509317E-10
quench:  g(F)=  0.000E+00 g(S)=  0.000E+00 dE (1.order)= 0.000E+00
 bond charge predicted
       N       E                     dE             d eps       ncg     rms          rms(c)
DAV:   1    -0.269585681863E+02    0.34197E-09   -0.23614E-11    84   0.297E-10    0.622E-04
RMM:   2    -0.269585681862E+02    0.17280E-09    0.00000E+00     1   0.385E-10
 122 F= -.26958568E+02 E0= -.26946437E+02  d E =-.109139E-10
quench:  g(F)=  0.000E+00 g(S)=  0.000E+00 dE (1.order)= 0.000E+00
 bond charge predicted
       N       E                     dE             d eps       ncg     rms          rms(c)
DAV:   1    -0.269585681864E+02   -0.36380E-11    0.17060E-11    84   0.321E-10    0.622E-04
RMM:   2    -0.269585681864E+02   -0.20009E-10    0.00000E+00     1   0.312E-10
 123 F= -.26958568E+02 E0= -.26946437E+02  d E =-.196451E-09
quench:  g(F)=  0.000E+00 g(S)=  0.000E+00 dE (1.order)= 0.000E+00
 bond charge predicted
       N       E                     dE             d eps       ncg     rms          rms(c)
DAV:   1    -0.269585681865E+02   -0.13279E-09   -0.85617E-12    84   0.285E-10    0.622E-04
RMM:   2    -0.269585681863E+02    0.22010E-09    0.00000E+00     1   0.276E-10
 124 F= -.26958568E+02 E0= -.26946437E+02  d E =0.107320E-09
quench:  g(F)=  0.000E+00 g(S)=  0.000E+00 dE (1.order)= 0.000E+00
 bond charge predicted
       N       E                     dE             d eps       ncg     rms          rms(c)
DAV:   1    -0.269585681868E+02   -0.32196E-09    0.38978E-11    84   0.311E-10    0.622E-04
RMM:   2    -0.269585681864E+02    0.41837E-09    0.00000E+00     1   0.341E-10
 125 F= -.26958568E+02 E0= -.26946437E+02  d E =-.123691E-09
quench:  g(F)=  0.000E+00 g(S)=  0.000E+00 dE (1.order)= 0.000E+00
 bond charge predicted
       N       E                     dE             d eps       ncg     rms          rms(c)
DAV:   1    -0.269585681861E+02    0.68030E-09   -0.11671E-11    84   0.316E-10    0.622E-04
RMM:   2    -0.269585681864E+02   -0.23647E-09    0.00000E+00     1   0.203E-10
 126 F= -.26958568E+02 E0= -.26946437E+02  d E =0.254659E-10
quench:  g(F)=  0.000E+00 g(S)=  0.000E+00 dE (1.order)= 0.000E+00
 bond charge predicted
       N       E                     dE             d eps       ncg     rms          rms(c)
DAV:   1    -0.269585681862E+02   -0.81855E-10    0.76943E-11    84   0.241E-10    0.622E-04
RMM:   2    -0.269585681863E+02   -0.10004E-09    0.00000E+00     1   0.245E-10
 127 F= -.26958568E+02 E0= -.26946437E+02  d E =0.545697E-10
quench:  g(F)=  0.000E+00 g(S)=  0.000E+00 dE (1.order)= 0.000E+00
 bond charge predicted
       N       E                     dE             d eps       ncg     rms          rms(c)
DAV:   1    -0.269585681862E+02    0.18190E-10    0.58784E-11    84   0.267E-10    0.622E-04
RMM:   2    -0.269585681863E+02   -0.12187E-09    0.00000E+00     1   0.281E-10
 128 F= -.26958568E+02 E0= -.26946437E+02  d E =-.363798E-11
quench:  g(F)=  0.000E+00 g(S)=  0.000E+00 dE (1.order)= 0.000E+00
 bond charge predicted
       N       E                     dE             d eps       ncg     rms          rms(c)
DAV:   1    -0.269585681863E+02   -0.11642E-09   -0.24526E-11    84   0.411E-10    0.622E-04
RMM:   2    -0.269585681864E+02   -0.70941E-10    0.00000E+00     1   0.419E-10
 129 F= -.26958568E+02 E0= -.26946437E+02  d E =-.654836E-10
quench:  g(F)=  0.000E+00 g(S)=  0.000E+00 dE (1.order)= 0.000E+00
 bond charge predicted
       N       E                     dE             d eps       ncg     rms          rms(c)
DAV:   1    -0.269585681862E+02    0.10914E-09    0.11411E-11    84   0.375E-10    0.622E-04
RMM:   2    -0.269585681862E+02   -0.40018E-10    0.00000E+00     1   0.325E-10
 130 F= -.26958568E+02 E0= -.26946437E+02  d E =0.140062E-09
quench:  g(F)=  0.000E+00 g(S)=  0.000E+00 dE (1.order)= 0.000E+00
 bond charge predicted
       N       E                     dE             d eps       ncg     rms          rms(c)
DAV:   1    -0.269585681860E+02    0.18917E-09    0.35473E-11    84   0.297E-10    0.622E-04
RMM:   2    -0.269585681863E+02   -0.26739E-09    0.00000E+00     1   0.207E-10
 131 F= -.26958568E+02 E0= -.26946437E+02  d E =-.381988E-10
quench:  g(F)=  0.000E+00 g(S)=  0.000E+00 dE (1.order)= 0.000E+00
 bond charge predicted
       N       E                     dE             d eps       ncg     rms          rms(c)
DAV:   1    -0.269585681861E+02   -0.10550E-09    0.57346E-11    84   0.278E-10    0.622E-04
RMM:   2    -0.269585681863E+02   -0.23465E-09    0.00000E+00     1   0.255E-10
 132 F= -.26958568E+02 E0= -.26946437E+02  d E =-.727596E-10
quench:  g(F)=  0.000E+00 g(S)=  0.000E+00 dE (1.order)= 0.000E+00
 bond charge predicted
       N       E                     dE             d eps       ncg     rms          rms(c)
DAV:   1    -0.269585681863E+02   -0.15825E-09    0.10884E-11    84   0.300E-10    0.622E-04
RMM:   2    -0.269585681864E+02   -0.11823E-09    0.00000E+00     1   0.240E-10
 133 F= -.26958568E+02 E0= -.26946437E+02  d E =-.418368E-10
quench:  g(F)=  0.000E+00 g(S)=  0.000E+00 dE (1.order)= 0.000E+00
 bond charge predicted
       N       E                     dE             d eps       ncg     rms          rms(c)
DAV:   1    -0.269585681868E+02   -0.57662E-09   -0.20932E-11    84   0.296E-10    0.622E-04
RMM:   2    -0.269585681862E+02    0.69303E-09    0.00000E+00     1   0.424E-10
 134 F= -.26958568E+02 E0= -.26946437E+02  d E =0.234650E-09
quench:  g(F)=  0.000E+00 g(S)=  0.000E+00 dE (1.order)= 0.000E+00
 bond charge predicted
       N       E                     dE             d eps       ncg     rms          rms(c)
DAV:   1    -0.269585681867E+02    0.15098E-09    0.94448E-12    84   0.357E-10    0.622E-04
RMM:   2    -0.269585681862E+02    0.51296E-09    0.00000E+00     1   0.287E-10
 135 F= -.26958568E+02 E0= -.26946437E+02  d E =-.291038E-10
quench:  g(F)=  0.000E+00 g(S)=  0.000E+00 dE (1.order)= 0.000E+00
 bond charge predicted
       N       E                     dE             d eps       ncg     rms          rms(c)
DAV:   1    -0.269585681860E+02    0.68940E-09    0.74683E-11    84   0.345E-10    0.622E-04
RMM:   2    -0.269585681861E+02   -0.14006E-09    0.00000E+00     1   0.248E-10
 136 F= -.26958568E+02 E0= -.26946437E+02  d E =0.363798E-10
quench:  g(F)=  0.000E+00 g(S)=  0.000E+00 dE (1.order)= 0.000E+00
 bond charge predicted
       N       E                     dE             d eps       ncg     rms          rms(c)
DAV:   1    -0.269585681864E+02   -0.40745E-09    0.19458E-11    84   0.319E-10    0.622E-04
RMM:   2    -0.269585681863E+02    0.78217E-10    0.00000E+00     1   0.274E-10
 137 F= -.26958568E+02 E0= -.26946437E+02  d E =-.189175E-09
quench:  g(F)=  0.000E+00 g(S)=  0.000E+00 dE (1.order)= 0.000E+00
 bond charge predicted
       N       E                     dE             d eps       ncg     rms          rms(c)
DAV:   1    -0.269585681864E+02    0.41837E-10    0.39802E-11    84   0.460E-10    0.622E-04
RMM:   2    -0.269585681864E+02   -0.18190E-10    0.00000E+00     1   0.466E-10
 138 F= -.26958568E+02 E0= -.26946437E+02  d E =-.545697E-10
quench:  g(F)=  0.000E+00 g(S)=  0.000E+00 dE (1.order)= 0.000E+00
 bond charge predicted
       N       E                     dE             d eps       ncg     rms          rms(c)
DAV:   1    -0.269585681858E+02    0.59299E-09    0.12930E-11    84   0.392E-10    0.622E-04
RMM:   2    -0.269585681863E+02   -0.51477E-09    0.00000E+00     1   0.301E-10
 139 F= -.26958568E+02 E0= -.26946437E+02  d E =0.964064E-10
quench:  g(F)=  0.000E+00 g(S)=  0.000E+00 dE (1.order)= 0.000E+00
 bond charge predicted
       N       E                     dE             d eps       ncg     rms          rms(c)
DAV:   1    -0.269585681864E+02   -0.58208E-09    0.15369E-11    84   0.277E-10    0.622E-04
RMM:   2    -0.269585681862E+02    0.15280E-09    0.00000E+00     1   0.313E-10
 140 F= -.26958568E+02 E0= -.26946437E+02  d E =0.854925E-10
quench:  g(F)=  0.000E+00 g(S)=  0.000E+00 dE (1.order)= 0.000E+00
 bond charge predicted
       N       E                     dE             d eps       ncg     rms          rms(c)
DAV:   1    -0.269585681864E+02   -0.67303E-10   -0.13722E-11    84   0.293E-10    0.622E-04
RMM:   2    -0.269585681863E+02    0.11096E-09    0.00000E+00     1   0.268E-10
 141 F= -.26958568E+02 E0= -.26946437E+02  d E =-.109139E-09
quench:  g(F)=  0.000E+00 g(S)=  0.000E+00 dE (1.order)= 0.000E+00
 bond charge predicted
       N       E                     dE             d eps       ncg     rms          rms(c)
DAV:   1    -0.269585681864E+02    0.72760E-11    0.60797E-11    84   0.311E-10    0.622E-04
RMM:   2    -0.269585681864E+02    0.12733E-10    0.00000E+00     1   0.339E-10
 142 F= -.26958568E+02 E0= -.26946437E+02  d E =-.909495E-10
quench:  g(F)=  0.000E+00 g(S)=  0.000E+00 dE (1.order)= 0.000E+00
 bond charge predicted
       N       E                     dE             d eps       ncg     rms          rms(c)
DAV:   1    -0.269585681861E+02    0.35288E-09    0.28918E-11    84   0.335E-10    0.622E-04
RMM:   2    -0.269585681863E+02   -0.19827E-09    0.00000E+00     1   0.223E-10
 143 F= -.26958568E+02 E0= -.26946437E+02  d E =0.141881E-09
quench:  g(F)=  0.000E+00 g(S)=  0.000E+00 dE (1.order)= 0.000E+00
 bond charge predicted
       N       E                     dE             d eps       ncg     rms          rms(c)
DAV:   1    -0.269585681861E+02    0.10914E-10    0.39600E-11    84   0.380E-10    0.622E-04
RMM:   2    -0.269585681863E+02   -0.20555E-09    0.00000E+00     1   0.358E-10
 144 F= -.26958568E+02 E0= -.26946437E+02  d E =0.363798E-11
quench:  g(F)=  0.000E+00 g(S)=  0.000E+00 dE (1.order)= 0.000E+00
 bond charge predicted
       N       E                     dE             d eps       ncg     rms          rms(c)
DAV:   1    -0.269585681865E+02   -0.40563E-09    0.63514E-11    84   0.288E-10    0.622E-04
RMM:   2    -0.269585681862E+02    0.30741E-09    0.00000E+00     1   0.329E-10
 145 F= -.26958568E+02 E0= -.26946437E+02  d E =0.107320E-09
quench:  g(F)=  0.000E+00 g(S)=  0.000E+00 dE (1.order)= 0.000E+00
 bond charge predicted
       N       E                     dE             d eps       ncg     rms          rms(c)
DAV:   1    -0.269585681864E+02    0.32742E-10    0.22456E-11    84   0.318E-10    0.622E-04
RMM:   2    -0.269585681862E+02    0.26193E-09    0.00000E+00     1   0.287E-10
 146 F= -.26958568E+02 E0= -.26946437E+02  d E =-.127329E-10
quench:  g(F)=  0.000E+00 g(S)=  0.000E+00 dE (1.order)= 0.000E+00
 bond charge predicted
       N       E                     dE             d eps       ncg     rms          rms(c)
DAV:   1    -0.269585681864E+02    0.50932E-10    0.14780E-11    84   0.300E-10    0.622E-04
RMM:   2    -0.269585681863E+02    0.98225E-10    0.00000E+00     1   0.334E-10
 147 F= -.26958568E+02 E0= -.26946437E+02  d E =-.112777E-09
quench:  g(F)=  0.000E+00 g(S)=  0.000E+00 dE (1.order)= 0.000E+00
 bond charge predicted
       N       E                     dE             d eps       ncg     rms          rms(c)
DAV:   1    -0.269585681860E+02    0.38563E-09    0.26267E-11    84   0.330E-10    0.622E-04
RMM:   2    -0.269585681864E+02   -0.36562E-09    0.00000E+00     1   0.353E-10
 148 F= -.26958568E+02 E0= -.26946437E+02  d E =-.782165E-10
quench:  g(F)=  0.000E+00 g(S)=  0.000E+00 dE (1.order)= 0.000E+00
 bond charge predicted
       N       E                     dE             d eps       ncg     rms          rms(c)
DAV:   1    -0.269585681865E+02   -0.49295E-09   -0.18417E-11    84   0.386E-10    0.622E-04
RMM:   2    -0.269585681861E+02    0.33833E-09    0.00000E+00     1   0.280E-10
 149 F= -.26958568E+02 E0= -.26946437E+02  d E =0.211003E-09
quench:  g(F)=  0.000E+00 g(S)=  0.000E+00 dE (1.order)= 0.000E+00
 bond charge predicted
       N       E                     dE             d eps       ncg     rms          rms(c)
DAV:   1    -0.269585681860E+02    0.46748E-09   -0.28011E-11    84   0.316E-10    0.622E-04
RMM:   2    -0.269585681863E+02   -0.29468E-09    0.00000E+00     1   0.279E-10
 150 F= -.26958568E+02 E0= -.26946437E+02  d E =-.165528E-09
quench:  g(F)=  0.000E+00 g(S)=  0.000E+00 dE (1.order)= 0.000E+00
 bond charge predicted
       N       E                     dE             d eps       ncg     rms          rms(c)
DAV:   1    -0.269585681863E+02   -0.25102E-09    0.40125E-11    84   0.279E-10    0.622E-04
RMM:   2    -0.269585681862E+02    0.27285E-10    0.00000E+00     1   0.210E-10
 151 F= -.26958568E+02 E0= -.26946437E+02  d E =0.709406E-10
quench:  g(F)=  0.000E+00 g(S)=  0.000E+00 dE (1.order)= 0.000E+00
 bond charge predicted
       N       E                     dE             d eps       ncg     rms          rms(c)
DAV:   1    -0.269585681869E+02   -0.59117E-09    0.44607E-11    84   0.389E-10    0.622E-04
RMM:   2    -0.269585681864E+02    0.44747E-09    0.00000E+00     1   0.468E-10
 152 F= -.26958568E+02 E0= -.26946437E+02  d E =-.170985E-09
quench:  g(F)=  0.000E+00 g(S)=  0.000E+00 dE (1.order)= 0.000E+00
 bond charge predicted
       N       E                     dE             d eps       ncg     rms          rms(c)
DAV:   1    -0.269585681865E+02    0.35834E-09    0.27270E-11    84   0.547E-10    0.622E-04
RMM:   2    -0.269585681863E+02    0.20918E-09    0.00000E+00     1   0.447E-10
 153 F= -.26958568E+02 E0= -.26946437E+02  d E =0.120053E-09
quench:  g(F)=  0.000E+00 g(S)=  0.000E+00 dE (1.order)= 0.000E+00
 bond charge predicted
       N       E                     dE             d eps       ncg     rms          rms(c)
DAV:   1    -0.269585681860E+02    0.53478E-09    0.11527E-11    84   0.437E-10    0.622E-04
RMM:   2    -0.269585681862E+02   -0.18554E-09    0.00000E+00     1   0.235E-10
 154 F= -.26958568E+02 E0= -.26946437E+02  d E =0.140062E-09
quench:  g(F)=  0.000E+00 g(S)=  0.000E+00 dE (1.order)= 0.000E+00
 bond charge predicted
       N       E                     dE             d eps       ncg     rms          rms(c)
DAV:   1    -0.269585681865E+02   -0.51841E-09    0.60066E-12    84   0.270E-10    0.622E-04
RMM:   2    -0.269585681864E+02    0.98225E-10    0.00000E+00     1   0.433E-10
 155 F= -.26958568E+02 E0= -.26946437E+02  d E =-.234650E-09
quench:  g(F)=  0.000E+00 g(S)=  0.000E+00 dE (1.order)= 0.000E+00
 bond charge predicted
       N       E                     dE             d eps       ncg     rms          rms(c)
DAV:   1    -0.269585681866E+02   -0.14552E-09    0.76632E-11    84   0.292E-10    0.622E-04
RMM:   2    -0.269585681863E+02    0.37289E-09    0.00000E+00     1   0.258E-10
 156 F= -.26958568E+02 E0= -.26946437E+02  d E =0.129148E-09
quench:  g(F)=  0.000E+00 g(S)=  0.000E+00 dE (1.order)= 0.000E+00
 bond charge predicted
       N       E                     dE             d eps       ncg     rms          rms(c)
DAV:   1    -0.269585681857E+02    0.91859E-09    0.86243E-11    84   0.344E-10    0.622E-04
RMM:   2    -0.269585681864E+02   -0.72578E-09    0.00000E+00     1   0.363E-10
 157 F= -.26958568E+02 E0= -.26946437E+02  d E =-.180080E-09
quench:  g(F)=  0.000E+00 g(S)=  0.000E+00 dE (1.order)= 0.000E+00
 bond charge predicted
       N       E                     dE             d eps       ncg     rms          rms(c)
DAV:   1    -0.269585681862E+02   -0.49295E-09    0.33926E-11    84   0.361E-10    0.622E-04
RMM:   2    -0.269585681863E+02   -0.70941E-10    0.00000E+00     1   0.261E-10
 158 F= -.26958568E+02 E0= -.26946437E+02  d E =0.161890E-09
quench:  g(F)=  0.000E+00 g(S)=  0.000E+00 dE (1.order)= 0.000E+00
 bond charge predicted
       N       E                     dE             d eps       ncg     rms          rms(c)
DAV:   1    -0.269585681864E+02   -0.24011E-09   -0.59239E-12    84   0.318E-10    0.622E-04
RMM:   2    -0.269585681864E+02    0.80036E-10    0.00000E+00     1   0.269E-10
 159 F= -.26958568E+02 E0= -.26946437E+02  d E =-.891305E-10
quench:  g(F)=  0.000E+00 g(S)=  0.000E+00 dE (1.order)= 0.000E+00
 bond charge predicted
       N       E                     dE             d eps       ncg     rms          rms(c)
DAV:   1    -0.269585681859E+02    0.59299E-09    0.11962E-11    84   0.368E-10    0.622E-04
RMM:   2    -0.269585681863E+02   -0.47476E-09    0.00000E+00     1   0.288E-10
 160 F= -.26958568E+02 E0= -.26946437E+02  d E =0.381988E-10
quench:  g(F)=  0.000E+00 g(S)=  0.000E+00 dE (1.order)= 0.000E+00
 bond charge predicted
       N       E                     dE             d eps       ncg     rms          rms(c)
DAV:   1    -0.269585681863E+02   -0.43838E-09    0.43129E-11    84   0.290E-10    0.622E-04
RMM:   2    -0.269585681864E+02   -0.67303E-10    0.00000E+00     1   0.287E-10
 161 F= -.26958568E+02 E0= -.26946437E+02  d E =-.309228E-10
quench:  g(F)=  0.000E+00 g(S)=  0.000E+00 dE (1.order)= 0.000E+00
 bond charge predicted
       N       E                     dE             d eps       ncg     rms          rms(c)
DAV:   1    -0.269585681864E+02   -0.78217E-10   -0.17345E-11    84   0.480E-10    0.622E-04
RMM:   2    -0.269585681862E+02    0.14552E-09    0.00000E+00     1   0.329E-10
 162 F= -.26958568E+02 E0= -.26946437E+02  d E =0.134605E-09
quench:  g(F)=  0.000E+00 g(S)=  0.000E+00 dE (1.order)= 0.000E+00
 bond charge predicted
       N       E                     dE             d eps       ncg     rms          rms(c)
DAV:   1    -0.269585681863E+02    0.69122E-10    0.10389E-11    84   0.358E-10    0.622E-04
RMM:   2    -0.269585681863E+02    0.43656E-10    0.00000E+00     1   0.393E-10
 163 F= -.26958568E+02 E0= -.26946437E+02  d E =-.327418E-10
quench:  g(F)=  0.000E+00 g(S)=  0.000E+00 dE (1.order)= 0.000E+00
 bond charge predicted
       N       E                     dE             d eps       ncg     rms          rms(c)
DAV:   1    -0.269585681865E+02   -0.16007E-09    0.11038E-10    84   0.415E-10    0.622E-04
RMM:   2    -0.269585681862E+02    0.29104E-09    0.00000E+00     1   0.311E-10
 164 F= -.26958568E+02 E0= -.26946437E+02  d E =0.873115E-10
quench:  g(F)=  0.000E+00 g(S)=  0.000E+00 dE (1.order)= 0.000E+00
 bond charge predicted
       N       E                     dE             d eps       ncg     rms          rms(c)
DAV:   1    -0.269585681858E+02    0.61300E-09   -0.21348E-11    84   0.314E-10    0.622E-04
RMM:   2    -0.269585681865E+02   -0.61664E-09    0.00000E+00     1   0.438E-10
 165 F= -.26958568E+02 E0= -.26946437E+02  d E =-.294676E-09
quench:  g(F)=  0.000E+00 g(S)=  0.000E+00 dE (1.order)= 0.000E+00
 bond charge predicted
       N       E                     dE             d eps       ncg     rms          rms(c)
DAV:   1    -0.269585681864E+02   -0.50568E-09    0.50514E-11    84   0.506E-10    0.622E-04
RMM:   2    -0.269585681862E+02    0.11460E-09    0.00000E+00     1   0.392E-10
 166 F= -.26958568E+02 E0= -.26946437E+02  d E =0.225555E-09
quench:  g(F)=  0.000E+00 g(S)=  0.000E+00 dE (1.order)= 0.000E+00
 bond charge predicted
       N       E                     dE             d eps       ncg     rms          rms(c)
DAV:   1    -0.269585681864E+02   -0.50932E-10    0.15538E-11    84   0.428E-10    0.622E-04
RMM:   2    -0.269585681862E+02    0.18554E-09    0.00000E+00     1   0.260E-10
 167 F= -.26958568E+02 E0= -.26946437E+02  d E =0.200089E-10
quench:  g(F)=  0.000E+00 g(S)=  0.000E+00 dE (1.order)= 0.000E+00
 bond charge predicted
       N       E                     dE             d eps       ncg     rms          rms(c)
DAV:   1    -0.269585681863E+02    0.11642E-09    0.29632E-11    84   0.273E-10    0.622E-04
RMM:   2    -0.269585681862E+02    0.47294E-10    0.00000E+00     1   0.367E-10
 168 F= -.26958568E+02 E0= -.26946437E+02  d E =-.218279E-10
quench:  g(F)=  0.000E+00 g(S)=  0.000E+00 dE (1.order)= 0.000E+00
 bond charge predicted
       N       E                     dE             d eps       ncg     rms          rms(c)
DAV:   1    -0.269585681858E+02    0.45293E-09   -0.17750E-11    84   0.378E-10    0.622E-04
RMM:   2    -0.269585681863E+02   -0.42564E-09    0.00000E+00     1   0.400E-10
 169 F= -.26958568E+02 E0= -.26946437E+02  d E =-.200089E-10
quench:  g(F)=  0.000E+00 g(S)=  0.000E+00 dE (1.order)= 0.000E+00
 bond charge predicted
       N       E                     dE             d eps       ncg     rms          rms(c)
DAV:   1    -0.269585681858E+02    0.40018E-10    0.74595E-11    84   0.336E-10    0.622E-04
RMM:   2    -0.269585681864E+02   -0.56207E-09    0.00000E+00     1   0.218E-10
 170 F= -.26958568E+02 E0= -.26946437E+02  d E =-.964064E-10
quench:  g(F)=  0.000E+00 g(S)=  0.000E+00 dE (1.order)= 0.000E+00
 bond charge predicted
       N       E                     dE             d eps       ncg     rms          rms(c)
DAV:   1    -0.269585681863E+02   -0.52023E-09    0.59049E-11    84   0.328E-10    0.622E-04
RMM:   2    -0.269585681863E+02    0.36380E-11    0.00000E+00     1   0.318E-10
 171 F= -.26958568E+02 E0= -.26946437E+02  d E =0.454747E-10
quench:  g(F)=  0.000E+00 g(S)=  0.000E+00 dE (1.order)= 0.000E+00
 bond charge predicted
       N       E                     dE             d eps       ncg     rms          rms(c)
DAV:   1    -0.269585681864E+02   -0.52751E-10    0.29916E-11    84   0.302E-10    0.622E-04
RMM:   2    -0.269585681863E+02    0.38199E-10    0.00000E+00     1   0.259E-10
 172 F= -.26958568E+02 E0= -.26946437E+02  d E =-.181899E-10
quench:  g(F)=  0.000E+00 g(S)=  0.000E+00 dE (1.order)= 0.000E+00
 bond charge predicted
       N       E                     dE             d eps       ncg     rms          rms(c)
DAV:   1    -0.269585681865E+02   -0.94587E-10   -0.11065E-11    84   0.334E-10    0.622E-04
RMM:   2    -0.269585681862E+02    0.26739E-09    0.00000E+00     1   0.343E-10
 173 F= -.26958568E+02 E0= -.26946437E+02  d E =0.134605E-09
quench:  g(F)=  0.000E+00 g(S)=  0.000E+00 dE (1.order)= 0.000E+00
 bond charge predicted
       N       E                     dE             d eps       ncg     rms          rms(c)
DAV:   1    -0.269585681867E+02   -0.28376E-09    0.52411E-11    84   0.319E-10    0.622E-04
RMM:   2    -0.269585681862E+02    0.55297E-09    0.00000E+00     1   0.230E-10
 174 F= -.26958568E+02 E0= -.26946437E+02  d E =0.181899E-11
quench:  g(F)=  0.000E+00 g(S)=  0.000E+00 dE (1.order)= 0.000E+00
 bond charge predicted
       N       E                     dE             d eps       ncg     rms          rms(c)
DAV:   1    -0.269585681865E+02    0.28194E-09   -0.99648E-13    84   0.217E-10    0.622E-04
RMM:   2    -0.269585681863E+02    0.17462E-09    0.00000E+00     1   0.250E-10
 175 F= -.26958568E+02 E0= -.26946437E+02  d E =-.964064E-10
quench:  g(F)=  0.000E+00 g(S)=  0.000E+00 dE (1.order)= 0.000E+00
 bond charge predicted
       N       E                     dE             d eps       ncg     rms          rms(c)
DAV:   1    -0.269585681862E+02    0.26557E-09    0.37595E-11    84   0.245E-10    0.622E-04
RMM:   2    -0.269585681862E+02    0.00000E+00    0.00000E+00     1   0.230E-10
 176 F= -.26958568E+02 E0= -.26946437E+02  d E =0.909495E-10
quench:  g(F)=  0.000E+00 g(S)=  0.000E+00 dE (1.order)= 0.000E+00
 bond charge predicted
       N       E                     dE             d eps       ncg     rms          rms(c)
DAV:   1    -0.269585681861E+02    0.14188E-09   -0.29698E-12    84   0.344E-10    0.622E-04
RMM:   2    -0.269585681862E+02   -0.13097E-09    0.00000E+00     1   0.191E-10
 177 F= -.26958568E+02 E0= -.26946437E+02  d E =0.109139E-10
quench:  g(F)=  0.000E+00 g(S)=  0.000E+00 dE (1.order)= 0.000E+00
 bond charge predicted
       N       E                     dE             d eps       ncg     rms          rms(c)
DAV:   1    -0.269585681859E+02    0.19099E-09    0.55081E-11    84   0.241E-10    0.622E-04
RMM:   2    -0.269585681864E+02   -0.52933E-09    0.00000E+00     1   0.292E-10
 178 F= -.26958568E+02 E0= -.26946437E+02  d E =-.207365E-09
[...]
 bond charge predicted
       N       E                     dE             d eps       ncg     rms          rms(c)
DAV:   1    -0.269585681859E+02    0.45657E-09    0.51128E-11    84   0.370E-10    0.622E-04
RMM:   2    -0.269585681862E+02   -0.29286E-09    0.00000E+00     0   0.377E-10
 953 F= -.26958568E+02 E0= -.26946437E+02  d E =-.381988E-10
quench:  g(F)=  0.000E+00 g(S)=  0.000E+00 dE (1.order)= 0.000E+00
 bond charge predicted
       N       E                     dE             d eps       ncg     rms          rms(c)
DAV:   1    -0.269585681865E+02   -0.61118E-09    0.38948E-11    84   0.395E-10    0.622E-04
RMM:   2    -0.269585681862E+02    0.32014E-09    0.00000E+00     0   0.391E-10
 954 F= -.26958568E+02 E0= -.26946437E+02  d E =0.181899E-11
quench:  g(F)=  0.000E+00 g(S)=  0.000E+00 dE (1.order)= 0.000E+00
 bond charge predicted
       N       E                     dE             d eps       ncg     rms          rms(c)
DAV:   1    -0.269585681867E+02   -0.17462E-09    0.24242E-11    84   0.401E-10    0.622E-04
RMM:   2    -0.269585681862E+02    0.52023E-09    0.00000E+00     0   0.197E-10
 955 F= -.26958568E+02 E0= -.26946437E+02  d E =0.254659E-10
quench:  g(F)=  0.000E+00 g(S)=  0.000E+00 dE (1.order)= 0.000E+00
 bond charge predicted
       N       E                     dE             d eps       ncg     rms          rms(c)
DAV:   1    -0.269585681866E+02    0.10368E-09   -0.24089E-11    84   0.320E-10    0.622E-04
RMM:   2    -0.269585681864E+02    0.21464E-09    0.00000E+00     0   0.368E-10
 956 F= -.26958568E+02 E0= -.26946437E+02  d E =-.201908E-09
quench:  g(F)=  0.000E+00 g(S)=  0.000E+00 dE (1.order)= 0.000E+00
 bond charge predicted
       N       E                     dE             d eps       ncg     rms          rms(c)
DAV:   1    -0.269585681867E+02   -0.49113E-10    0.69117E-11    84   0.377E-10    0.622E-04
RMM:   2    -0.269585681863E+02    0.35470E-09    0.00000E+00     0   0.280E-10
 957 F= -.26958568E+02 E0= -.26946437E+02  d E =0.909495E-10
quench:  g(F)=  0.000E+00 g(S)=  0.000E+00 dE (1.order)= 0.000E+00
 bond charge predicted
       N       E                     dE             d eps       ncg     rms          rms(c)
DAV:   1    -0.269585681860E+02    0.68030E-09    0.55035E-11    84   0.350E-10    0.622E-04
RMM:   2    -0.269585681862E+02   -0.20555E-09    0.00000E+00     0   0.352E-10
 958 F= -.26958568E+02 E0= -.26946437E+02  d E =0.120053E-09
quench:  g(F)=  0.000E+00 g(S)=  0.000E+00 dE (1.order)= 0.000E+00
 bond charge predicted
       N       E                     dE             d eps       ncg     rms          rms(c)
DAV:   1    -0.269585681862E+02   -0.17462E-09   -0.97547E-12    84   0.370E-10    0.622E-04
RMM:   2    -0.269585681863E+02   -0.12187E-09    0.00000E+00     0   0.263E-10
 959 F= -.26958568E+02 E0= -.26946437E+02  d E =-.909495E-10
quench:  g(F)=  0.000E+00 g(S)=  0.000E+00 dE (1.order)= 0.000E+00
 bond charge predicted
       N       E                     dE             d eps       ncg     rms          rms(c)
DAV:   1    -0.269585681863E+02   -0.14006E-09    0.23709E-11    84   0.271E-10    0.622E-04
RMM:   2    -0.269585681863E+02    0.30923E-10    0.00000E+00     0   0.227E-10
 960 F= -.26958568E+02 E0= -.26946437E+02  d E =0.127329E-10
quench:  g(F)=  0.000E+00 g(S)=  0.000E+00 dE (1.order)= 0.000E+00
 bond charge predicted
       N       E                     dE             d eps       ncg     rms          rms(c)
DAV:   1    -0.269585681863E+02   -0.36380E-11    0.11423E-10    84   0.217E-10    0.622E-04
RMM:   2    -0.269585681862E+02    0.45475E-10    0.00000E+00     0   0.274E-10
 961 F= -.26958568E+02 E0= -.26946437E+02  d E =0.109139E-10
quench:  g(F)=  0.000E+00 g(S)=  0.000E+00 dE (1.order)= 0.000E+00
 bond charge predicted
       N       E                     dE             d eps       ncg     rms          rms(c)
DAV:   1    -0.269585681864E+02   -0.11642E-09    0.16139E-11    84   0.357E-10    0.622E-04
RMM:   2    -0.269585681863E+02    0.90949E-10    0.00000E+00     0   0.360E-10
 962 F= -.26958568E+02 E0= -.26946437E+02  d E =-.709406E-10
quench:  g(F)=  0.000E+00 g(S)=  0.000E+00 dE (1.order)= 0.000E+00
 bond charge predicted
       N       E                     dE             d eps       ncg     rms          rms(c)
DAV:   1    -0.269585681864E+02    0.61846E-10   -0.20910E-11    84   0.565E-10    0.622E-04
RMM:   2    -0.269585681863E+02    0.40018E-10    0.00000E+00     0   0.257E-10
 963 F= -.26958568E+02 E0= -.26946437E+02  d E =0.109139E-10
quench:  g(F)=  0.000E+00 g(S)=  0.000E+00 dE (1.order)= 0.000E+00
 bond charge predicted
       N       E                     dE             d eps       ncg     rms          rms(c)
DAV:   1    -0.269585681867E+02   -0.32742E-09    0.31435E-11    84   0.330E-10    0.622E-04
RMM:   2    -0.269585681862E+02    0.46930E-09    0.00000E+00     0   0.311E-10
 964 F= -.26958568E+02 E0= -.26946437E+02  d E =0.101863E-09
quench:  g(F)=  0.000E+00 g(S)=  0.000E+00 dE (1.order)= 0.000E+00
 bond charge predicted
       N       E                     dE             d eps       ncg     rms          rms(c)
DAV:   1    -0.269585681862E+02    0.43474E-09    0.65009E-11    84   0.314E-10    0.622E-04
RMM:   2    -0.269585681864E+02   -0.20373E-09    0.00000E+00     0   0.274E-10
 965 F= -.26958568E+02 E0= -.26946437E+02  d E =-.238288E-09
quench:  g(F)=  0.000E+00 g(S)=  0.000E+00 dE (1.order)= 0.000E+00
 bond charge predicted
       N       E                     dE             d eps       ncg     rms          rms(c)
DAV:   1    -0.269585681863E+02   -0.92768E-10   -0.11854E-11    84   0.338E-10    0.622E-04
RMM:   2    -0.269585681864E+02   -0.20009E-10    0.00000E+00     0   0.405E-10
 966 F= -.26958568E+02 E0= -.26946437E+02  d E =0.909495E-10
quench:  g(F)=  0.000E+00 g(S)=  0.000E+00 dE (1.order)= 0.000E+00
 bond charge predicted
       N       E                     dE             d eps       ncg     rms          rms(c)
DAV:   1    -0.269585681862E+02    0.10914E-09    0.35386E-12    84   0.288E-10    0.622E-04
RMM:   2    -0.269585681862E+02   -0.12733E-10    0.00000E+00     0   0.186E-10
 967 F= -.26958568E+02 E0= -.26946437E+02  d E =0.116415E-09
quench:  g(F)=  0.000E+00 g(S)=  0.000E+00 dE (1.order)= 0.000E+00
 bond charge predicted
       N       E                     dE             d eps       ncg     rms          rms(c)
DAV:   1    -0.269585681862E+02   -0.36380E-11    0.27816E-11    84   0.212E-10    0.622E-04
RMM:   2    -0.269585681862E+02    0.18190E-11    0.00000E+00     0   0.278E-10
 968 F= -.26958568E+02 E0= -.26946437E+02  d E =0.109139E-10
quench:  g(F)=  0.000E+00 g(S)=  0.000E+00 dE (1.order)= 0.000E+00
 bond charge predicted
       N       E                     dE             d eps       ncg     rms          rms(c)
DAV:   1    -0.269585681865E+02   -0.27649E-09    0.25411E-11    84   0.353E-10    0.622E-04
RMM:   2    -0.269585681862E+02    0.25830E-09    0.00000E+00     0   0.284E-10
 969 F= -.26958568E+02 E0= -.26946437E+02  d E =-.200089E-10
quench:  g(F)=  0.000E+00 g(S)=  0.000E+00 dE (1.order)= 0.000E+00
 bond charge predicted
       N       E                     dE             d eps       ncg     rms          rms(c)
DAV:   1    -0.269585681864E+02    0.83674E-10    0.10989E-11    84   0.464E-10    0.622E-04
RMM:   2    -0.269585681864E+02   -0.18190E-11    0.00000E+00     0   0.387E-10
 970 F= -.26958568E+02 E0= -.26946437E+02  d E =-.176442E-09
quench:  g(F)=  0.000E+00 g(S)=  0.000E+00 dE (1.order)= 0.000E+00
 bond charge predicted
       N       E                     dE             d eps       ncg     rms          rms(c)
DAV:   1    -0.269585681862E+02    0.20009E-09    0.73356E-12    84   0.429E-10    0.622E-04
RMM:   2    -0.269585681862E+02    0.50932E-10    0.00000E+00     0   0.234E-10
 971 F= -.26958568E+02 E0= -.26946437E+02  d E =0.252840E-09
quench:  g(F)=  0.000E+00 g(S)=  0.000E+00 dE (1.order)= 0.000E+00
 bond charge predicted
       N       E                     dE             d eps       ncg     rms          rms(c)
DAV:   1    -0.269585681861E+02    0.80036E-10    0.71540E-11    84   0.315E-10    0.622E-04
RMM:   2    -0.269585681863E+02   -0.20009E-09    0.00000E+00     0   0.283E-10
 972 F= -.26958568E+02 E0= -.26946437E+02  d E =-.170985E-09
quench:  g(F)=  0.000E+00 g(S)=  0.000E+00 dE (1.order)= 0.000E+00
 bond charge predicted
       N       E                     dE             d eps       ncg     rms          rms(c)
DAV:   1    -0.269585681864E+02   -0.28194E-09    0.87996E-11    84   0.345E-10    0.622E-04
RMM:   2    -0.269585681862E+02    0.21828E-09    0.00000E+00     0   0.293E-10
 973 F= -.26958568E+02 E0= -.26946437E+02  d E =0.136424E-09
quench:  g(F)=  0.000E+00 g(S)=  0.000E+00 dE (1.order)= 0.000E+00
 bond charge predicted
       N       E                     dE             d eps       ncg     rms          rms(c)
DAV:   1    -0.269585681864E+02    0.29104E-10    0.20812E-11    84   0.546E-10    0.622E-04
RMM:   2    -0.269585681863E+02    0.11096E-09    0.00000E+00     0   0.431E-10
 974 F= -.26958568E+02 E0= -.26946437E+02  d E =-.782165E-10
quench:  g(F)=  0.000E+00 g(S)=  0.000E+00 dE (1.order)= 0.000E+00
 bond charge predicted
       N       E                     dE             d eps       ncg     rms          rms(c)
DAV:   1    -0.269585681860E+02    0.35470E-09    0.35165E-11    84   0.433E-10    0.622E-04
RMM:   2    -0.269585681864E+02   -0.38381E-09    0.00000E+00     0   0.360E-10
 975 F= -.26958568E+02 E0= -.26946437E+02  d E =-.140062E-09
quench:  g(F)=  0.000E+00 g(S)=  0.000E+00 dE (1.order)= 0.000E+00
 bond charge predicted
       N       E                     dE             d eps       ncg     rms          rms(c)
DAV:   1    -0.269585681864E+02   -0.35652E-09    0.70120E-12    84   0.324E-10    0.622E-04
RMM:   2    -0.269585681863E+02    0.92768E-10    0.00000E+00     0   0.329E-10
 976 F= -.26958568E+02 E0= -.26946437E+02  d E =0.120053E-09
quench:  g(F)=  0.000E+00 g(S)=  0.000E+00 dE (1.order)= 0.000E+00
 bond charge predicted
       N       E                     dE             d eps       ncg     rms          rms(c)
DAV:   1    -0.269585681862E+02    0.14916E-09    0.84982E-11    84   0.293E-10    0.622E-04
RMM:   2    -0.269585681862E+02    0.58208E-10    0.00000E+00     0   0.252E-10
 977 F= -.26958568E+02 E0= -.26946437E+02  d E =0.114596E-09
quench:  g(F)=  0.000E+00 g(S)=  0.000E+00 dE (1.order)= 0.000E+00
 bond charge predicted
       N       E                     dE             d eps       ncg     rms          rms(c)
DAV:   1    -0.269585681860E+02    0.25284E-09    0.30483E-11    84   0.298E-10    0.622E-04
RMM:   2    -0.269585681863E+02   -0.31832E-09    0.00000E+00     0   0.226E-10
 978 F= -.26958568E+02 E0= -.26946437E+02  d E =-.123691E-09
quench:  g(F)=  0.000E+00 g(S)=  0.000E+00 dE (1.order)= 0.000E+00
 bond charge predicted
       N       E                     dE             d eps       ncg     rms          rms(c)
DAV:   1    -0.269585681862E+02   -0.15825E-09   -0.21508E-12    84   0.271E-10    0.622E-04
RMM:   2    -0.269585681864E+02   -0.26739E-09    0.00000E+00     0   0.348E-10
 979 F= -.26958568E+02 E0= -.26946437E+02  d E =-.107320E-09
quench:  g(F)=  0.000E+00 g(S)=  0.000E+00 dE (1.order)= 0.000E+00
 bond charge predicted
       N       E                     dE             d eps       ncg     rms          rms(c)
DAV:   1    -0.269585681862E+02   -0.87311E-10    0.19761E-11    84   0.307E-10    0.622E-04
RMM:   2    -0.269585681865E+02   -0.20918E-09    0.00000E+00     0   0.272E-10
 980 F= -.26958568E+02 E0= -.26946437E+02  d E =-.291038E-10
quench:  g(F)=  0.000E+00 g(S)=  0.000E+00 dE (1.order)= 0.000E+00
 bond charge predicted
       N       E                     dE             d eps       ncg     rms          rms(c)
DAV:   1    -0.269585681862E+02   -0.54570E-11    0.98160E-13    84   0.318E-10    0.622E-04
RMM:   2    -0.269585681863E+02   -0.10914E-10    0.00000E+00     0   0.287E-10
 981 F= -.26958568E+02 E0= -.26946437E+02  d E =0.192813E-09
quench:  g(F)=  0.000E+00 g(S)=  0.000E+00 dE (1.order)= 0.000E+00
 bond charge predicted
       N       E                     dE             d eps       ncg     rms          rms(c)
DAV:   1    -0.269585681860E+02    0.27103E-09    0.90042E-11    84   0.277E-10    0.622E-04
RMM:   2    -0.269585681863E+02   -0.28740E-09    0.00000E+00     0   0.239E-10
 982 F= -.26958568E+02 E0= -.26946437E+02  d E =-.545697E-11
quench:  g(F)=  0.000E+00 g(S)=  0.000E+00 dE (1.order)= 0.000E+00
 bond charge predicted
       N       E                     dE             d eps       ncg     rms          rms(c)
DAV:   1    -0.269585681862E+02   -0.19645E-09    0.86663E-11    84   0.246E-10    0.622E-04
RMM:   2    -0.269585681862E+02   -0.65484E-10    0.00000E+00     0   0.389E-10
 983 F= -.26958568E+02 E0= -.26946437E+02  d E =0.254659E-10
quench:  g(F)=  0.000E+00 g(S)=  0.000E+00 dE (1.order)= 0.000E+00
 bond charge predicted
       N       E                     dE             d eps       ncg     rms          rms(c)
DAV:   1    -0.269585681862E+02    0.36380E-11   -0.13120E-11    84   0.365E-10    0.622E-04
RMM:   2    -0.269585681863E+02   -0.12369E-09    0.00000E+00     0   0.325E-10
 984 F= -.26958568E+02 E0= -.26946437E+02  d E =-.545697E-10
quench:  g(F)=  0.000E+00 g(S)=  0.000E+00 dE (1.order)= 0.000E+00
 bond charge predicted
       N       E                     dE             d eps       ncg     rms          rms(c)
DAV:   1    -0.269585681862E+02   -0.49113E-10   -0.44220E-11    84   0.358E-10    0.622E-04
RMM:   2    -0.269585681863E+02   -0.11096E-09    0.00000E+00     0   0.295E-10
 985 F= -.26958568E+02 E0= -.26946437E+02  d E =-.363798E-10
quench:  g(F)=  0.000E+00 g(S)=  0.000E+00 dE (1.order)= 0.000E+00
 bond charge predicted
       N       E                     dE             d eps       ncg     rms          rms(c)
DAV:   1    -0.269585681865E+02   -0.28012E-09   -0.37130E-11    84   0.350E-10    0.622E-04
RMM:   2    -0.269585681862E+02    0.30741E-09    0.00000E+00     0   0.336E-10
 986 F= -.26958568E+02 E0= -.26946437E+02  d E =0.138243E-09
quench:  g(F)=  0.000E+00 g(S)=  0.000E+00 dE (1.order)= 0.000E+00
 bond charge predicted
       N       E                     dE             d eps       ncg     rms          rms(c)
DAV:   1    -0.269585681861E+02    0.40745E-09   -0.24142E-11    84   0.438E-10    0.622E-04
RMM:   2    -0.269585681864E+02   -0.32014E-09    0.00000E+00     0   0.246E-10
 987 F= -.26958568E+02 E0= -.26946437E+02  d E =-.220098E-09
quench:  g(F)=  0.000E+00 g(S)=  0.000E+00 dE (1.order)= 0.000E+00
 bond charge predicted
       N       E                     dE             d eps       ncg     rms          rms(c)
DAV:   1    -0.269585681861E+02    0.16371E-10    0.94774E-12    84   0.316E-10    0.622E-04
RMM:   2    -0.269585681863E+02   -0.20009E-09    0.00000E+00     0   0.334E-10
 988 F= -.26958568E+02 E0= -.26946437E+02  d E =0.136424E-09
quench:  g(F)=  0.000E+00 g(S)=  0.000E+00 dE (1.order)= 0.000E+00
 bond charge predicted
       N       E                     dE             d eps       ncg     rms          rms(c)
DAV:   1    -0.269585681869E+02   -0.82400E-09    0.94238E-12    84   0.334E-10    0.622E-04
RMM:   2    -0.269585681864E+02    0.45475E-09    0.00000E+00     0   0.248E-10
 989 F= -.26958568E+02 E0= -.26946437E+02  d E =-.169166E-09
quench:  g(F)=  0.000E+00 g(S)=  0.000E+00 dE (1.order)= 0.000E+00
 bond charge predicted
       N       E                     dE             d eps       ncg     rms          rms(c)
DAV:   1    -0.269585681862E+02    0.73669E-09    0.49811E-11    84   0.342E-10    0.622E-04
RMM:   2    -0.269585681862E+02   -0.54570E-10    0.00000E+00     0   0.269E-10
 990 F= -.26958568E+02 E0= -.26946437E+02  d E =0.227374E-09
quench:  g(F)=  0.000E+00 g(S)=  0.000E+00 dE (1.order)= 0.000E+00
 bond charge predicted
       N       E                     dE             d eps       ncg     rms          rms(c)
DAV:   1    -0.269585681863E+02   -0.18372E-09    0.78215E-11    84   0.281E-10    0.622E-04
RMM:   2    -0.269585681864E+02   -0.72760E-10    0.00000E+00     0   0.281E-10
 991 F= -.26958568E+02 E0= -.26946437E+02  d E =-.201908E-09
quench:  g(F)=  0.000E+00 g(S)=  0.000E+00 dE (1.order)= 0.000E+00
 bond charge predicted
       N       E                     dE             d eps       ncg     rms          rms(c)
DAV:   1    -0.269585681866E+02   -0.30377E-09   -0.88988E-12    84   0.242E-10    0.622E-04
RMM:   2    -0.269585681863E+02    0.35652E-09    0.00000E+00     0   0.281E-10
 992 F= -.26958568E+02 E0= -.26946437E+02  d E =0.125510E-09
quench:  g(F)=  0.000E+00 g(S)=  0.000E+00 dE (1.order)= 0.000E+00
 bond charge predicted
       N       E                     dE             d eps       ncg     rms          rms(c)
DAV:   1    -0.269585681861E+02    0.58390E-09    0.23033E-11    84   0.386E-10    0.622E-04
RMM:   2    -0.269585681863E+02   -0.24193E-09    0.00000E+00     0   0.305E-10
 993 F= -.26958568E+02 E0= -.26946437E+02  d E =-.145519E-10
quench:  g(F)=  0.000E+00 g(S)=  0.000E+00 dE (1.order)= 0.000E+00
 bond charge predicted
       N       E                     dE             d eps       ncg     rms          rms(c)
DAV:   1    -0.269585681861E+02    0.54570E-11   -0.23817E-11    84   0.330E-10    0.622E-04
RMM:   2    -0.269585681864E+02   -0.36744E-09    0.00000E+00     0   0.296E-10
 994 F= -.26958568E+02 E0= -.26946437E+02  d E =-.120053E-09
quench:  g(F)=  0.000E+00 g(S)=  0.000E+00 dE (1.order)= 0.000E+00
 bond charge predicted
       N       E                     dE             d eps       ncg     rms          rms(c)
DAV:   1    -0.269585681863E+02   -0.22192E-09    0.17426E-11    84   0.313E-10    0.622E-04
RMM:   2    -0.269585681864E+02   -0.14006E-09    0.00000E+00     0   0.350E-10
 995 F= -.26958568E+02 E0= -.26946437E+02  d E =0.545697E-11
quench:  g(F)=  0.000E+00 g(S)=  0.000E+00 dE (1.order)= 0.000E+00
 bond charge predicted
       N       E                     dE             d eps       ncg     rms          rms(c)
DAV:   1    -0.269585681863E+02   -0.40018E-10    0.73837E-11    84   0.299E-10    0.622E-04
RMM:   2    -0.269585681863E+02    0.16371E-10    0.00000E+00     0   0.388E-10
 996 F= -.26958568E+02 E0= -.26946437E+02  d E =0.116415E-09
quench:  g(F)=  0.000E+00 g(S)=  0.000E+00 dE (1.order)= 0.000E+00
 bond charge predicted
       N       E                     dE             d eps       ncg     rms          rms(c)
DAV:   1    -0.269585681865E+02   -0.15098E-09    0.18716E-11    84   0.261E-10    0.622E-04
RMM:   2    -0.269585681862E+02    0.30195E-09    0.00000E+00     0   0.286E-10
 997 F= -.26958568E+02 E0= -.26946437E+02  d E =0.134605E-09
quench:  g(F)=  0.000E+00 g(S)=  0.000E+00 dE (1.order)= 0.000E+00
 bond charge predicted
       N       E                     dE             d eps       ncg     rms          rms(c)
DAV:   1    -0.269585681867E+02   -0.21828E-09   -0.26462E-11    84   0.439E-10    0.622E-04
RMM:   2    -0.269585681862E+02    0.50750E-09    0.00000E+00     0   0.385E-10
 998 F= -.26958568E+02 E0= -.26946437E+02  d E =-.127329E-10
quench:  g(F)=  0.000E+00 g(S)=  0.000E+00 dE (1.order)= 0.000E+00
 bond charge predicted
       N       E                     dE             d eps       ncg     rms          rms(c)
DAV:   1    -0.269585681865E+02    0.17099E-09    0.10877E-11    84   0.469E-10    0.622E-04
RMM:   2    -0.269585681864E+02    0.10732E-09    0.00000E+00     0   0.350E-10
 999 F= -.26958568E+02 E0= -.26946437E+02  d E =-.229193E-09
quench:  g(F)=  0.000E+00 g(S)=  0.000E+00 dE (1.order)= 0.000E+00
 bond charge predicted
       N       E                     dE             d eps       ncg     rms          rms(c)
DAV:   1    -0.269585681865E+02   -0.36380E-11   -0.21651E-11    84   0.401E-10    0.622E-04
RMM:   2    -0.269585681863E+02    0.25466E-09    0.00000E+00     0   0.295E-10
1000 F= -.26958568E+02 E0= -.26946437E+02  d E =0.143700E-09
quench:  g(F)=  0.000E+00 g(S)=  0.000E+00 dE (1.order)= 0.000E+00
