   8   8   0   0
  0.2405370E+02  0.7014856E-09  0.7014856E-09  0.5942278E-09  0.5000000E-15
   1.0000000000000000E-004
  CAR 
 unknown system                          
     11.62111561    -20.54118319  301      3.70114953      1.00000000
    -20.541  0.0000E+00  0.0000E+00
    -20.434  0.0000E+00  0.0000E+00
    -20.327  0.0000E+00  0.0000E+00
    -20.220  0.0000E+00  0.0000E+00
    -20.112  0.0000E+00  0.0000E+00
    -20.005  0.0000E+00  0.0000E+00
    -19.898  0.0000E+00  0.0000E+00
    -19.791  0.0000E+00  0.0000E+00
    -19.684  0.0000E+00  0.0000E+00
    -19.576  0.0000E+00  0.0000E+00
    -19.469  0.0000E+00  0.0000E+00
    -19.362  0.1223E-15  0.1311E-16
    -19.255  0.8857E-07  0.9495E-08
    -19.147  0.1114E-01  0.1194E-02
    -19.040  0.7834E+00  0.8518E-01
    -18.933  0.3245E+00  0.1200E+00
    -18.826  0.2847E-03  0.1200E+00
    -18.719  0.6374E-10  0.1200E+00
    -18.611  0.0000E+00  0.1200E+00
    -18.504  0.0000E+00  0.1200E+00
    -18.397  0.0000E+00  0.1200E+00
    -18.290  0.0000E+00  0.1200E+00
    -18.183  0.0000E+00  0.1200E+00
    -18.075  0.0000E+00  0.1200E+00
    -17.968  0.0000E+00  0.1200E+00
    -17.861  0.0000E+00  0.1200E+00
    -17.754  0.0000E+00  0.1200E+00
    -17.647  0.0000E+00  0.1200E+00
    -17.539  0.0000E+00  0.1200E+00
    -17.432  0.0000E+00  0.1200E+00
    -17.325  0.0000E+00  0.1200E+00
    -17.218  0.0000E+00  0.1200E+00
    -17.111  0.0000E+00  0.1200E+00
    -17.003  0.0000E+00  0.1200E+00
    -16.896  0.0000E+00  0.1200E+00
    -16.789  0.0000E+00  0.1200E+00
    -16.682  0.0000E+00  0.1200E+00
    -16.574  0.0000E+00  0.1200E+00
    -16.467  0.0000E+00  0.1200E+00
    -16.360  0.0000E+00  0.1200E+00
    -16.253  0.0000E+00  0.1200E+00
    -16.146  0.0000E+00  0.1200E+00
    -16.038  0.0000E+00  0.1200E+00
    -15.931  0.0000E+00  0.1200E+00
    -15.824  0.0000E+00  0.1200E+00
    -15.717  0.0000E+00  0.1200E+00
    -15.610  0.0000E+00  0.1200E+00
    -15.502  0.0000E+00  0.1200E+00
    -15.395  0.0000E+00  0.1200E+00
    -15.288  0.0000E+00  0.1200E+00
    -15.181  0.0000E+00  0.1200E+00
    -15.074  0.0000E+00  0.1200E+00
    -14.966  0.0000E+00  0.1200E+00
    -14.859  0.0000E+00  0.1200E+00
    -14.752  0.0000E+00  0.1200E+00
    -14.645  0.0000E+00  0.1200E+00
    -14.538  0.0000E+00  0.1200E+00
    -14.430  0.0000E+00  0.1200E+00
    -14.323  0.0000E+00  0.1200E+00
    -14.216  0.0000E+00  0.1200E+00
    -14.109  0.0000E+00  0.1200E+00
    -14.002  0.0000E+00  0.1200E+00
    -13.894  0.0000E+00  0.1200E+00
    -13.787  0.0000E+00  0.1200E+00
    -13.680  0.0000E+00  0.1200E+00
    -13.573  0.0000E+00  0.1200E+00
    -13.465  0.0000E+00  0.1200E+00
    -13.358  0.0000E+00  0.1200E+00
    -13.251  0.0000E+00  0.1200E+00
    -13.144  0.0000E+00  0.1200E+00
    -13.037  0.0000E+00  0.1200E+00
    -12.929  0.0000E+00  0.1200E+00
    -12.822  0.0000E+00  0.1200E+00
    -12.715  0.0000E+00  0.1200E+00
    -12.608  0.0000E+00  0.1200E+00
    -12.501  0.0000E+00  0.1200E+00
    -12.393  0.0000E+00  0.1200E+00
    -12.286  0.0000E+00  0.1200E+00
    -12.179  0.0000E+00  0.1200E+00
    -12.072  0.0000E+00  0.1200E+00
    -11.965  0.0000E+00  0.1200E+00
    -11.857  0.0000E+00  0.1200E+00
    -11.750  0.0000E+00  0.1200E+00
    -11.643  0.0000E+00  0.1200E+00
    -11.536  0.0000E+00  0.1200E+00
    -11.429  0.0000E+00  0.1200E+00
    -11.321  0.0000E+00  0.1200E+00
    -11.214  0.0000E+00  0.1200E+00
    -11.107  0.0000E+00  0.1200E+00
    -11.000  0.0000E+00  0.1200E+00
    -10.892  0.0000E+00  0.1200E+00
    -10.785  0.0000E+00  0.1200E+00
    -10.678  0.0000E+00  0.1200E+00
    -10.571  0.0000E+00  0.1200E+00
    -10.464  0.0000E+00  0.1200E+00
    -10.356  0.0000E+00  0.1200E+00
    -10.249  0.0000E+00  0.1200E+00
    -10.142  0.0000E+00  0.1200E+00
    -10.035  0.0000E+00  0.1200E+00
     -9.928  0.1061E-09  0.1200E+00
     -9.820  0.3657E-04  0.1200E+00
     -9.713  0.3855E-02  0.1204E+00
     -9.606  0.9785E-02  0.1215E+00
     -9.499  0.7545E-02  0.1223E+00
     -9.392  0.2540E-01  0.1250E+00
     -9.284  0.5430E-01  0.1308E+00
     -9.177  0.3796E-01  0.1349E+00
     -9.070  0.8010E-02  0.1357E+00
     -8.963  0.2785E-01  0.1387E+00
     -8.856  0.1408E-01  0.1402E+00
     -8.748  0.4273E-01  0.1448E+00
     -8.641  0.3368E-01  0.1484E+00
     -8.534  0.4233E-02  0.1489E+00
     -8.427  0.2081E-02  0.1491E+00
     -8.320  0.5365E-01  0.1549E+00
     -8.212  0.2953E-01  0.1580E+00
     -8.105  0.4477E-01  0.1628E+00
     -7.998  0.1236E+00  0.1761E+00
     -7.891  0.1383E+00  0.1909E+00
     -7.783  0.6529E-01  0.1979E+00
     -7.676  0.1946E-01  0.2000E+00
     -7.569  0.6081E-04  0.2000E+00
     -7.462  0.7984E-10  0.2000E+00
     -7.355  0.0000E+00  0.2000E+00
     -7.247  0.0000E+00  0.2000E+00
     -7.140  0.0000E+00  0.2000E+00
     -7.033  0.0000E+00  0.2000E+00
     -6.926  0.0000E+00  0.2000E+00
     -6.819  0.0000E+00  0.2000E+00
     -6.711  0.0000E+00  0.2000E+00
     -6.604  0.0000E+00  0.2000E+00
     -6.497  0.0000E+00  0.2000E+00
     -6.390  0.0000E+00  0.2000E+00
     -6.283  0.0000E+00  0.2000E+00
     -6.175  0.0000E+00  0.2000E+00
     -6.068  0.0000E+00  0.2000E+00
     -5.961  0.0000E+00  0.2000E+00
     -5.854  0.0000E+00  0.2000E+00
     -5.747  0.0000E+00  0.2000E+00
     -5.639  0.7926E-09  0.2000E+00
     -5.532  0.1983E-03  0.2000E+00
     -5.425  0.1545E-01  0.2017E+00
     -5.318  0.7908E-02  0.2025E+00
     -5.210  0.3573E-01  0.2064E+00
     -5.103  0.4055E-02  0.2068E+00
     -4.996  0.2353E-01  0.2093E+00
     -4.889  0.1252E-01  0.2107E+00
     -4.782  0.2453E-01  0.2133E+00
     -4.674  0.1509E-01  0.2149E+00
     -4.567  0.1638E-01  0.2167E+00
     -4.460  0.1969E-01  0.2188E+00
     -4.353  0.2539E-01  0.2215E+00
     -4.246  0.2799E-01  0.2245E+00
     -4.138  0.3477E-01  0.2282E+00
     -4.031  0.2672E-01  0.2311E+00
     -3.924  0.1058E-01  0.2322E+00
     -3.817  0.1039E-01  0.2333E+00
     -3.710  0.6621E-02  0.2340E+00
     -3.602  0.4792E-02  0.2346E+00
     -3.495  0.1523E-01  0.2362E+00
     -3.388  0.5915E-02  0.2368E+00
     -3.281  0.1154E-01  0.2381E+00
     -3.174  0.1255E-01  0.2394E+00
     -3.066  0.2939E-02  0.2397E+00
     -2.959  0.2576E-02  0.2400E+00
     -2.852  0.6200E-05  0.2400E+00
     -2.745  0.3338E-11  0.2400E+00
     -2.638  0.0000E+00  0.2400E+00
     -2.530  0.0000E+00  0.2400E+00
     -2.423  0.0000E+00  0.2400E+00
     -2.316  0.0000E+00  0.2400E+00
     -2.209  0.0000E+00  0.2400E+00
     -2.101  0.0000E+00  0.2400E+00
     -1.994  0.0000E+00  0.2400E+00
     -1.887  0.0000E+00  0.2400E+00
     -1.780  0.0000E+00  0.2400E+00
     -1.673  0.0000E+00  0.2400E+00
     -1.565  0.6819E-13  0.2400E+00
     -1.458  0.1000E-05  0.2400E+00
     -1.351  0.3164E-02  0.2403E+00
     -1.244  0.2073E-01  0.2426E+00
     -1.137  0.1719E-01  0.2444E+00
     -1.029  0.1954E-01  0.2465E+00
     -0.922  0.8373E-02  0.2474E+00
     -0.815  0.1565E-01  0.2491E+00
     -0.708  0.1564E-01  0.2508E+00
     -0.601  0.3170E-01  0.2541E+00
     -0.493  0.4564E-01  0.2590E+00
     -0.386  0.4280E-01  0.2636E+00
     -0.279  0.4970E-01  0.2690E+00
     -0.172  0.3093E-01  0.2723E+00
     -0.065  0.3451E-01  0.2760E+00
      0.043  0.4968E-01  0.2813E+00
      0.150  0.8397E-01  0.2903E+00
      0.257  0.2364E-01  0.2928E+00
      0.364  0.5755E-01  0.2990E+00
      0.472  0.3055E-01  0.3023E+00
      0.579  0.2879E-01  0.3054E+00
      0.686  0.5300E-01  0.3110E+00
      0.793  0.7294E-01  0.3189E+00
      0.900  0.2725E-01  0.3218E+00
      1.008  0.3365E-01  0.3254E+00
      1.115  0.3966E-01  0.3297E+00
      1.222  0.6629E-01  0.3368E+00
      1.329  0.5584E-01  0.3427E+00
      1.436  0.6828E-01  0.3501E+00
      1.544  0.4979E-01  0.3554E+00
      1.651  0.5800E-01  0.3616E+00
      1.758  0.4394E-01  0.3663E+00
      1.865  0.4160E-01  0.3708E+00
      1.972  0.4928E-01  0.3761E+00
      2.080  0.1163E+00  0.3885E+00
      2.187  0.6292E-01  0.3953E+00
      2.294  0.7928E-01  0.4038E+00
      2.401  0.9161E-01  0.4136E+00
      2.508  0.1036E+00  0.4247E+00
      2.616  0.9272E-01  0.4346E+00
      2.723  0.9390E-01  0.4447E+00
      2.830  0.4791E-01  0.4499E+00
      2.937  0.2963E-01  0.4530E+00
      3.045  0.3332E-01  0.4566E+00
      3.152  0.4632E-01  0.4616E+00
      3.259  0.6553E-01  0.4686E+00
      3.366  0.5414E-01  0.4744E+00
      3.473  0.4531E-01  0.4793E+00
      3.581  0.6967E-02  0.4800E+00
      3.688  0.3434E-05  0.4800E+00
      3.795  0.3648E-12  0.4800E+00
      3.902  0.0000E+00  0.4800E+00
      4.009  0.0000E+00  0.4800E+00
      4.117  0.0000E+00  0.4800E+00
      4.224  0.0000E+00  0.4800E+00
      4.331  0.0000E+00  0.4800E+00
      4.438  0.0000E+00  0.4800E+00
      4.545  0.0000E+00  0.4800E+00
      4.653  0.0000E+00  0.4800E+00
      4.760  0.4726E-14  0.4800E+00
      4.867  0.2042E-06  0.4800E+00
      4.974  0.1456E-02  0.4802E+00
      5.081  0.1330E-01  0.4816E+00
      5.189  0.1610E-01  0.4833E+00
      5.296  0.5203E-03  0.4834E+00
      5.403  0.8699E-02  0.4843E+00
      5.510  0.2904E-02  0.4846E+00
      5.617  0.2071E-01  0.4868E+00
      5.725  0.1864E-01  0.4888E+00
      5.832  0.2942E-01  0.4920E+00
      5.939  0.5557E-01  0.4979E+00
      6.046  0.6295E-01  0.5047E+00
      6.154  0.6700E-01  0.5119E+00
      6.261  0.2611E-01  0.5147E+00
      6.368  0.2209E-01  0.5170E+00
      6.475  0.3922E-01  0.5212E+00
      6.582  0.1070E-01  0.5224E+00
      6.690  0.3630E-01  0.5263E+00
      6.797  0.9604E-01  0.5366E+00
      6.904  0.6992E-01  0.5441E+00
      7.011  0.2591E-01  0.5468E+00
      7.118  0.1986E-01  0.5490E+00
      7.226  0.4518E-01  0.5538E+00
      7.333  0.5272E-01  0.5595E+00
      7.440  0.4908E-01  0.5647E+00
      7.547  0.5133E-01  0.5702E+00
      7.654  0.1781E-01  0.5721E+00
      7.762  0.1489E-01  0.5737E+00
      7.869  0.3643E-01  0.5776E+00
      7.976  0.3712E-01  0.5816E+00
      8.083  0.2158E-01  0.5839E+00
      8.190  0.3429E-01  0.5876E+00
      8.298  0.1762E-01  0.5895E+00
      8.405  0.2060E-01  0.5917E+00
      8.512  0.2994E-01  0.5949E+00
      8.619  0.6015E-02  0.5956E+00
      8.727  0.1438E-01  0.5971E+00
      8.834  0.2738E-01  0.6000E+00
      8.941  0.2175E-01  0.6024E+00
      9.048  0.3646E-01  0.6063E+00
      9.155  0.4645E-01  0.6113E+00
      9.263  0.4699E-01  0.6163E+00
      9.370  0.4143E-01  0.6207E+00
      9.477  0.1002E-01  0.6218E+00
      9.584  0.2052E-01  0.6240E+00
      9.691  0.3525E-01  0.6278E+00
      9.799  0.5947E-01  0.6342E+00
      9.906  0.2310E-01  0.6367E+00
     10.013  0.3812E-03  0.6367E+00
     10.120  0.1717E-01  0.6385E+00
     10.227  0.1341E-01  0.6400E+00
     10.335  0.2797E-03  0.6400E+00
     10.442  0.3617E-08  0.6400E+00
     10.549  0.6904E-17  0.6400E+00
     10.656  0.0000E+00  0.6400E+00
     10.763  0.0000E+00  0.6400E+00
     10.871  0.0000E+00  0.6400E+00
     10.978  0.0000E+00  0.6400E+00
     11.085  0.0000E+00  0.6400E+00
     11.192  0.0000E+00  0.6400E+00
     11.299  0.0000E+00  0.6400E+00
     11.407  0.0000E+00  0.6400E+00
     11.514  0.0000E+00  0.6400E+00
     11.621  0.0000E+00  0.6400E+00
