       N       E                     dE             d eps       ncg     rms          rms(c)
DAV:   1     0.187750351123E+03    0.18775E+03   -0.20522E+04   896   0.114E+03
DAV:   2    -0.268815282592E+02   -0.21463E+03   -0.21353E+03  1376   0.173E+02
DAV:   3    -0.347339227009E+02   -0.78524E+01   -0.78524E+01  1120   0.436E+01
DAV:   4    -0.348247311179E+02   -0.90808E-01   -0.90808E-01  1696   0.543E+00
DAV:   5    -0.348247671005E+02   -0.35983E-04   -0.35983E-04  1248   0.111E-01    0.104E+01
DAV:   6    -0.329115833707E+02    0.19132E+01   -0.82919E+00  1152   0.755E+00    0.772E+00
DAV:   7    -0.328802065432E+02    0.31377E-01   -0.74052E-01  1792   0.294E+00    0.403E+00
DAV:   8    -0.328847738004E+02   -0.45673E-02   -0.67056E-02  1184   0.105E+00    0.550E-01
DAV:   9    -0.328861688560E+02   -0.13951E-02   -0.93676E-03  1760   0.390E-01    0.167E-01
DAV:  10    -0.328868537541E+02   -0.68490E-03   -0.77863E-04  1120   0.134E-01    0.716E-02
DAV:  11    -0.328871713972E+02   -0.31764E-03   -0.44461E-04  1600   0.977E-02    0.271E-02
DAV:  12    -0.328871746396E+02   -0.32424E-05   -0.12227E-05  1376   0.148E-02
   1 F= -.32887175E+02 E0= -.32887175E+02  d E =-.328872E+02
       N       E                     dE             d eps       ncg     rms          rms(c)
DAV:   1    -0.329181842828E+02   -0.31013E-01   -0.12354E+00  1120   0.599E+00    0.909E-01
DAV:   2    -0.329050869446E+02    0.13097E-01   -0.44965E-02  1632   0.117E+00    0.480E-01
DAV:   3    -0.328990908180E+02    0.59961E-02   -0.11223E-02  1376   0.529E-01    0.168E-01
DAV:   4    -0.328985889310E+02    0.50189E-03   -0.11358E-03  1472   0.171E-01    0.994E-02
DAV:   5    -0.328985494654E+02    0.39466E-04   -0.12714E-04  1536   0.582E-02    0.336E-02
DAV:   6    -0.328985514312E+02   -0.19658E-05   -0.11389E-05  1504   0.196E-02
   2 F= -.32898551E+02 E0= -.32898551E+02  d E =-.113768E-01
       N       E                     dE             d eps       ncg     rms          rms(c)
DAV:   1    -0.329027228920E+02   -0.41734E-02   -0.19363E-01  1216   0.238E+00    0.359E-01
DAV:   2    -0.329006061588E+02    0.21167E-02   -0.67544E-03  1600   0.458E-01    0.191E-01
DAV:   3    -0.328996723622E+02    0.93380E-03   -0.17571E-03  1536   0.216E-01    0.658E-02
DAV:   4    -0.328995983146E+02    0.74048E-04   -0.16784E-04  1312   0.629E-02    0.387E-02
DAV:   5    -0.328995943517E+02    0.39629E-05   -0.20990E-05  1568   0.222E-02
   3 F= -.32899594E+02 E0= -.32899594E+02  d E =-.124197E-01
       N       E                     dE             d eps       ncg     rms          rms(c)
DAV:   1    -0.329029345475E+02   -0.33362E-02   -0.29074E-01   992   0.250E+00    0.300E-01
DAV:   2    -0.329028124601E+02    0.12209E-03   -0.11119E-02  1696   0.553E-01    0.144E-01
DAV:   3    -0.329024456648E+02    0.36680E-03   -0.60599E-04  1440   0.120E-01    0.766E-02
DAV:   4    -0.329023278147E+02    0.11785E-03   -0.21917E-04  1664   0.663E-02    0.215E-02
DAV:   5    -0.329023197325E+02    0.80821E-05   -0.22778E-05  1248   0.225E-02
   4 F= -.32902320E+02 E0= -.32902320E+02  d E =-.272538E-02
       N       E                     dE             d eps       ncg     rms          rms(c)
DAV:   1    -0.329048931240E+02   -0.25653E-02   -0.49099E-01   992   0.325E+00    0.392E-01
DAV:   2    -0.329046887679E+02    0.20436E-03   -0.18785E-02  1664   0.716E-01    0.184E-01
DAV:   3    -0.329040726592E+02    0.61611E-03   -0.10218E-03  1536   0.158E-01    0.983E-02
DAV:   4    -0.329038751827E+02    0.19748E-03   -0.36890E-04  1728   0.872E-02    0.279E-02
DAV:   5    -0.329038625755E+02    0.12607E-04   -0.37693E-05  1472   0.291E-02    0.134E-02
DAV:   6    -0.329038621667E+02    0.40879E-06   -0.30302E-06  1440   0.871E-03
   5 F= -.32903862E+02 E0= -.32903862E+02  d E =-.426782E-02
       N       E                     dE             d eps       ncg     rms          rms(c)
DAV:   1    -0.329060602040E+02   -0.21976E-02   -0.16672E-01   896   0.200E+00    0.256E-01
DAV:   2    -0.329059856108E+02    0.74593E-04   -0.69123E-03  1696   0.449E-01    0.101E-01
DAV:   3    -0.329058114363E+02    0.17417E-03   -0.32227E-04  1472   0.106E-01    0.526E-02
DAV:   4    -0.329057703748E+02    0.41061E-04   -0.68833E-05  1600   0.451E-02    0.235E-02
DAV:   5    -0.329057680449E+02    0.23299E-05   -0.70983E-06  1216   0.134E-02
   6 F= -.32905768E+02 E0= -.32905768E+02  d E =-.190588E-02
       N       E                     dE             d eps       ncg     rms          rms(c)
DAV:   1    -0.329087511867E+02   -0.29808E-02   -0.74696E-01   896   0.423E+00    0.551E-01
DAV:   2    -0.329084060990E+02    0.34509E-03   -0.30859E-02  1696   0.948E-01    0.214E-01
DAV:   3    -0.329076208478E+02    0.78525E-03   -0.14402E-03  1472   0.224E-01    0.112E-01
DAV:   4    -0.329074277774E+02    0.19307E-03   -0.31053E-04  1664   0.960E-02    0.505E-02
DAV:   5    -0.329074121437E+02    0.15634E-04   -0.31893E-05  1568   0.282E-02    0.211E-02
DAV:   6    -0.329074135811E+02   -0.14374E-05   -0.32507E-06  1344   0.103E-02
   7 F= -.32907414E+02 E0= -.32907414E+02  d E =-.355141E-02
