 vasp.6.3.2 27Jun22 (build Jun 14 2024 17:29:11) complex                         
 executed on             LinuxGNU date 2026.03.29  20:45:43
 running on   32 total cores
 distrk:  each k-point on   32 cores,    1 groups
 distr:  one band on NCORE=   1 cores,   32 groups


--------------------------------------------------------------------------------------------------------


 INCAR:
   EDIFF = 1e-05
   EDIFFG = -0.05
   ENCUT = 400.0
   IBRION = 2
   ISIF = 3
   ISMEAR = 0
   LCHARG = False
   LREAL = Auto
   LWAVE = False
   NSW = 100
   SIGMA = 0.05

 POTCAR:    PAW_PBE Na_pv 19Sep2006               
 POTCAR:    PAW_PBE Sb 06Sep2000                  
 POTCAR:    PAW_PBE S 06Sep2000                   
 -----------------------------------------------------------------------------
|                                                                             |
|           W    W    AA    RRRRR   N    N  II  N    N   GGGG   !!!           |
|           W    W   A  A   R    R  NN   N  II  NN   N  G    G  !!!           |
|           W    W  A    A  R    R  N N  N  II  N N  N  G       !!!           |
|           W WW W  AAAAAA  RRRRR   N  N N  II  N  N N  G  GGG   !            |
|           WW  WW  A    A  R   R   N   NN  II  N   NN  G    G                |
|           W    W  A    A  R    R  N    N  II  N    N   GGGG   !!!           |
|                                                                             |
|     For optimal performance we recommend to set                             |
|       NCORE = 2 up to number-of-cores-per-socket                            |
|     NCORE specifies how many cores store one orbital (NPAR=cpu/NCORE).      |
|     This setting can greatly improve the performance of VASP for DFT.       |
|     The default, NCORE=1 might be grossly inefficient on modern             |
|     multi-core architectures or massively parallel machines. Do your        |
|     own testing! More info at https://www.vasp.at/wiki/index.php/NCORE      |
|     Unfortunately you need to use the default for GW and RPA                |
|     calculations (for HF NCORE is supported but not extensively tested      |
|     yet).                                                                   |
|                                                                             |
 -----------------------------------------------------------------------------

 POTCAR:    PAW_PBE Na_pv 19Sep2006               
   SHA256 =  6a2f546d9e11350984debacf3dc457d8cffc0868e817d445faca461816a32b94 Na_pv/POTCAR          
   COPYR  = (c) Copyright 19Sep2006 Georg Kresse                                                    
   COPYR  = This file is part of the software VASP. Any use, copying, and all other rights are regul
   COPYR  = If you do not have a valid VASP license, you may not use, copy or distribute this file. 
   VRHFIN =Na: p6s1                                                                                 
   LEXCH  = PE                                                                                      
   EATOM  =   766.0439 eV,   56.3026 Ry                                                             
                                                                                                    
   TITEL  = PAW_PBE Na_pv 19Sep2006                                                                 
   LULTRA =        F    use ultrasoft PP ?                                                          
   IUNSCR =        1    unscreen: 0-lin 1-nonlin 2-no                                               
   RPACOR =    1.800    partial core radius                                                         
   POMASS =   22.990; ZVAL   =    7.000    mass and valenz                                          
   RCORE  =    2.200    outmost cutoff radius                                                       
   RWIGS  =    2.200; RWIGS  =    1.164    wigner-seitz radius (au A)                               
   ENMAX  =  259.561; ENMIN  =  194.671 eV                                                          
   ICORE  =        2    local potential                                                             
   LCOR   =        T    correct aug charges                                                         
   LPAW   =        T    paw PP                                                                      
   EAUG   =  368.056                                                                                
   DEXC   =    0.000                                                                                
   RMAX   =    2.245    core radius for proj-oper                                                   
   RAUG   =    1.300    factor for augmentation sphere                                              
   RDEP   =    2.259    radius for radial grids                                                     
   RDEPT  =    1.738    core radius for aug-charge                                                  
                                                                                                    
   Atomic configuration                                                                             
    5 entries                                                                                       
     n  l   j            E        occ.                                                              
     1  0  0.50     -1033.6933   2.0000                                                             
     2  0  0.50       -56.7526   2.0000                                                             
     2  1  1.50       -28.6721   6.0000                                                             
     3  0  0.50        -2.7440   1.0000                                                             
     3  2  1.50        -1.3606   0.0000                                                             
   Description                                                                                      
     l       E           TYP  RCUT    TYP  RCUT                                                     
     1    -28.6720912     23  2.000                                                                 
     1      6.8029130     23  2.000                                                                 
     0     -2.7439560     23  2.200                                                                 
     0     34.0145650     23  2.200                                                                 
     2     -1.3605826     23  2.200                                                                 
  local pseudopotential read in
  partial core-charges read in
  partial kinetic energy density read in
  atomic valenz-charges read in
  non local Contribution for L=           1  read in
    real space projection operators read in
  non local Contribution for L=           1  read in
    real space projection operators read in
  non local Contribution for L=           0  read in
    real space projection operators read in
  non local Contribution for L=           0  read in
    real space projection operators read in
    PAW grid and wavefunctions read in

   number of l-projection  operators is LMAX  =           4
   number of lm-projection operators is LMMAX =           8

 POTCAR:    PAW_PBE Sb 06Sep2000                  
   SHA256 =  8a1325a3afd8ca988779475cff04188eb880a428d1acb53275fe456fa3b784fc Sb/POTCAR             
   COPYR  = (c) Copyright 06Sep2000 Georg Kresse                                                    
   COPYR  = This file is part of the software VASP. Any use, copying, and all other rights are regul
   COPYR  = If you do not have a valid VASP license, you may not use, copy or distribute this file. 
   VRHFIN =Sb: s2p3                                                                                 
   LEXCH  = PE                                                                                      
   EATOM  =   149.9515 eV,   11.0211 Ry                                                             
                                                                                                    
   TITEL  = PAW_PBE Sb 06Sep2000                                                                    
   LULTRA =        F    use ultrasoft PP ?                                                          
   IUNSCR =        1    unscreen: 0-lin 1-nonlin 2-no                                               
   RPACOR =    2.200    partial core radius                                                         
   POMASS =  121.750; ZVAL   =    5.000    mass and valenz                                          
   RCORE  =    2.300    outmost cutoff radius                                                       
   RWIGS  =    2.980; RWIGS  =    1.577    wigner-seitz radius (au A)                               
   ENMAX  =  172.069; ENMIN  =  129.052 eV                                                          
   ICORE  =        3    local potential                                                             
   LCOR   =        T    correct aug charges                                                         
   LPAW   =        T    paw PP                                                                      
   EAUG   =  380.513                                                                                
   DEXC   =    0.000                                                                                
   RMAX   =    2.346    core radius for proj-oper                                                   
   RAUG   =    1.300    factor for augmentation sphere                                              
   RDEP   =    2.360    radius for radial grids                                                     
   RDEPT  =    2.192    core radius for aug-charge                                                  
                                                                                                    
   Atomic configuration                                                                             
   13 entries                                                                                       
     n  l   j            E        occ.                                                              
     1  0  0.50    -30298.2797   2.0000                                                             
     2  0  0.50     -4610.2252   2.0000                                                             
     2  1  1.50     -4138.3407   6.0000                                                             
     3  0  0.50      -903.8815   2.0000                                                             
     3  1  1.50      -750.1337   6.0000                                                             
     3  2  2.50      -515.7092  10.0000                                                             
     4  0  0.50      -148.8034   2.0000                                                             
     4  1  1.50      -101.7581   6.0000                                                             
     4  2  2.50       -33.5048  10.0000                                                             
     5  0  0.50       -12.8298   2.0000                                                             
     5  1  0.50        -4.8276   3.0000                                                             
     5  2  1.50        -4.0817   0.0000                                                             
     4  3  2.50        -4.0817   0.0000                                                             
   Description                                                                                      
     l       E           TYP  RCUT    TYP  RCUT                                                     
     0    -12.8297861     23  2.300                                                                 
     0     13.6058260     23  2.300                                                                 
     1     -4.8275512     23  2.300                                                                 
     1     -0.7245443     23  2.300                                                                 
     2     -4.0817478     23  2.300                                                                 
     3     -1.3605826     23  2.300                                                                 
  local pseudopotential read in
  partial core-charges read in
  partial kinetic energy density read in
  atomic valenz-charges read in
  non local Contribution for L=           0  read in
    real space projection operators read in
  non local Contribution for L=           0  read in
    real space projection operators read in
  non local Contribution for L=           1  read in
    real space projection operators read in
  non local Contribution for L=           1  read in
    real space projection operators read in
  non local Contribution for L=           2  read in
    real space projection operators read in
    PAW grid and wavefunctions read in

   number of l-projection  operators is LMAX  =           5
   number of lm-projection operators is LMMAX =          13

 POTCAR:    PAW_PBE S 06Sep2000                   
   SHA256 =  0fc7481fb0695f01bdc6462160264c5c84044ae9ec85a907d398b887a2bc3132 S/POTCAR              
   COPYR  = (c) Copyright 06Sep2000 Georg Kresse                                                    
   COPYR  = This file is part of the software VASP. Any use, copying, and all other rights are regul
   COPYR  = If you do not have a valid VASP license, you may not use, copy or distribute this file. 
   VRHFIN =S : s2p4                                                                                 
   LEXCH  = PE                                                                                      
   EATOM  =   276.8230 eV,   20.3459 Ry                                                             
                                                                                                    
   TITEL  = PAW_PBE S 06Sep2000                                                                     
   LULTRA =        F    use ultrasoft PP ?                                                          
   IUNSCR =        1    unscreen: 0-lin 1-nonlin 2-no                                               
   RPACOR =    1.500    partial core radius                                                         
   POMASS =   32.066; ZVAL   =    6.000    mass and valenz                                          
   RCORE  =    1.900    outmost cutoff radius                                                       
   RWIGS  =    2.200; RWIGS  =    1.164    wigner-seitz radius (au A)                               
   ENMAX  =  258.689; ENMIN  =  194.016 eV                                                          
   ICORE  =        2    local potential                                                             
   LCOR   =        T    correct aug charges                                                         
   LPAW   =        T    paw PP                                                                      
   EAUG   =  335.092                                                                                
   DEXC   =    0.000                                                                                
   RMAX   =    1.942    core radius for proj-oper                                                   
   RAUG   =    1.300    factor for augmentation sphere                                              
   RDEP   =    1.954    radius for radial grids                                                     
   RDEPT  =    1.744    core radius for aug-charge                                                  
                                                                                                    
   Atomic configuration                                                                             
    6 entries                                                                                       
     n  l   j            E        occ.                                                              
     1  0  0.50     -2405.8406   2.0000                                                             
     2  0  0.50      -211.7007   2.0000                                                             
     2  1  1.50      -156.4958   6.0000                                                             
     3  0  0.50       -17.2562   2.0000                                                             
     3  1  0.50        -7.0085   4.0000                                                             
     3  2  1.50        -6.8029   0.0000                                                             
   Description                                                                                      
     l       E           TYP  RCUT    TYP  RCUT                                                     
     0    -17.2561641     23  1.900                                                                 
     0    -15.8743224     23  1.900                                                                 
     1     -7.0085400     23  1.900                                                                 
     1     -2.7779785     23  1.900                                                                 
     2     -6.8029130     23  1.900                                                                 
  local pseudopotential read in
  partial core-charges read in
  partial kinetic energy density read in
  atomic valenz-charges read in
  non local Contribution for L=           0  read in
    real space projection operators read in
  non local Contribution for L=           0  read in
    real space projection operators read in
  non local Contribution for L=           1  read in
    real space projection operators read in
  non local Contribution for L=           1  read in
    real space projection operators read in
    PAW grid and wavefunctions read in

   number of l-projection  operators is LMAX  =           4
   number of lm-projection operators is LMMAX =           8

 -----------------------------------------------------------------------------
|                                                                             |
|               ----> ADVICE to this user running VASP <----                  |
|                                                                             |
|     You have a (more or less) 'small supercell' and for smaller cells       |
|     it is recommended to use the reciprocal-space projection scheme!        |
|     The real-space optimization is not efficient for small cells and it     |
|     is also less accurate ...                                               |
|     Therefore, set LREAL=.FALSE. in the INCAR file.                         |
|                                                                             |
 -----------------------------------------------------------------------------

 Optimization of the real space projectors (new method)

 maximal supplied QI-value         = 17.01
 optimisation between [QCUT,QGAM] = [ 10.20, 20.41] = [ 29.16,116.64] Ry 
 Optimized for a Real-space Cutoff    1.30 Angstroem

   l    n(q)    QCUT    max X(q) W(low)/X(q) W(high)/X(q)  e(spline) 
   1      7    10.205     4.940    0.23E-03    0.84E-03    0.11E-06
   1      7    10.205     6.253    0.40E-03    0.13E-02    0.18E-06
   0      8    10.205    37.438    0.23E-03    0.37E-03    0.42E-07
   0      8    10.205     9.606    0.16E-03    0.26E-03    0.31E-07
 Optimization of the real space projectors (new method)

 maximal supplied QI-value         = 16.25
 optimisation between [QCUT,QGAM] = [ 10.24, 20.48] = [ 29.35,117.42] Ry 
 Optimized for a Real-space Cutoff    1.38 Angstroem

   l    n(q)    QCUT    max X(q) W(low)/X(q) W(high)/X(q)  e(spline) 
   0      8    10.239    19.000    0.74E-04    0.15E-03    0.61E-07
   0      8    10.239     9.057    0.91E-04    0.19E-03    0.74E-07
   1      8    10.239   125.345    0.50E-03    0.38E-03    0.74E-07
   1      8    10.239    79.963    0.49E-03    0.37E-03    0.73E-07
   2      7    10.239     6.963    0.74E-04    0.11E-03    0.40E-07
 Optimization of the real space projectors (new method)

 maximal supplied QI-value         = 19.84
 optimisation between [QCUT,QGAM] = [ 10.12, 20.44] = [ 28.68,116.96] Ry 
 Optimized for a Real-space Cutoff    1.23 Angstroem

   l    n(q)    QCUT    max X(q) W(low)/X(q) W(high)/X(q)  e(spline) 
   0      7    10.119   187.594    0.62E-04    0.28E-03    0.52E-07
   0      7    10.119   164.243    0.61E-04    0.28E-03    0.52E-07
   1      7    10.119    67.533    0.45E-03    0.63E-03    0.13E-06
   1      7    10.119    50.729    0.44E-03    0.62E-03    0.12E-06
  PAW_PBE Na_pv 19Sep2006               :
 energy of atom  1       EATOM= -766.0439
 kinetic energy error for atom=    0.0103 (will be added to EATOM!!)
  PAW_PBE Sb 06Sep2000                  :
 energy of atom  2       EATOM= -149.9515
 kinetic energy error for atom=    0.0008 (will be added to EATOM!!)
  PAW_PBE S 06Sep2000                   :
 energy of atom  3       EATOM= -276.8230
 kinetic energy error for atom=    0.0046 (will be added to EATOM!!)


 POSCAR: Na2 Sb2 S4
  positions in direct lattice
  No initial velocities read in
 exchange correlation table for  LEXCH =        8
   RHO(1)=    0.500       N(1)  =     2000
   RHO(2)=  100.500       N(2)  =     4000



--------------------------------------------------------------------------------------------------------


 ion  position               nearest neighbor table
   1  0.626  0.626  0.135-
   2  0.374  0.374  0.865-
   3  0.869  0.869  0.411-   7 2.45   6 2.68   8 2.81   8 2.81   5 2.89
   4  0.131  0.131  0.589-   5 2.45   8 2.68   6 2.81   6 2.81   7 2.89
   5  0.118  0.118  0.190-   4 2.45   3 2.89
   6  0.637  0.637  0.632-   3 2.68   4 2.81   4 2.81
   7  0.882  0.882  0.810-   3 2.45   4 2.89
   8  0.363  0.363  0.368-   4 2.68   3 2.81   3 2.81

  LATTYP: Found a base centered monoclinic cell.
 ALAT       =    12.8687860041
 B/A-ratio  =     0.4342389406
 C/A-ratio  =     0.4617589886
 COS(beta)  =    -0.4345924524
  
  Lattice vectors:
  
 A1 = (  -6.4334047895,   0.0000000000,  -2.7963386347)
 A2 = (  -4.0064492672,  -5.0335932945,  -2.7963386347)
 A3 = (   0.0000000000,   0.0000000000,   5.9422776100)


Analysis of symmetry for initial positions (statically):
=====================================================================
 Subroutine PRICEL returns:
 Original cell was already a primitive cell.
 

 Routine SETGRP: Setting up the symmetry group for a 
 base centered monoclinic supercell.


 Subroutine GETGRP returns: Found  4 space group operations
 (whereof  4 operations were pure point group operations)
 out of a pool of  4 trial point group operations.


The static configuration has the point symmetry C_2h.


Analysis of symmetry for dynamics (positions and initial velocities):
=====================================================================
 Subroutine PRICEL returns:
 Original cell was already a primitive cell.
 

 Routine SETGRP: Setting up the symmetry group for a 
 base centered monoclinic supercell.


 Subroutine GETGRP returns: Found  4 space group operations
 (whereof  4 operations were pure point group operations)
 out of a pool of  4 trial point group operations.


The dynamic configuration has the point symmetry C_2h.


 Subroutine INISYM returns: Found  4 space group operations
 (whereof  4 operations are pure point group operations),
 and found     1 'primitive' translations


----------------------------------------------------------------------------------------

                                     Primitive cell                                     

  volume of cell :     192.4296

  direct lattice vectors                    reciprocal lattice vectors
     6.433404789  0.000000000  2.796338635     0.155438688 -0.123720210  0.000000000
     4.006449267  5.033593295  2.796338635     0.000000000  0.198665236  0.000000000
     0.000000000  0.000000000  5.942277610    -0.073146904 -0.035267903  0.168285642

  length of vectors
     7.014856160  7.014856160  5.942277610     0.198665236  0.198665236  0.186853824

  position of ions in fractional coordinates (direct lattice)
     0.626328000  0.626328000  0.135444000
     0.373672000  0.373672000  0.864556000
     0.868626000  0.868626000  0.410560000
     0.131374000  0.131374000  0.589440000
     0.118299000  0.118299000  0.190124000
     0.637343000  0.637343000  0.632446000
     0.881701000  0.881701000  0.809876000
     0.362657000  0.362657000  0.367554000

  ion indices of the primitive-cell ions
   primitive index   ion index
                 1           1
                 2           2
                 3           3
                 4           4
                 5           5
                 6           6
                 7           7
                 8           8

----------------------------------------------------------------------------------------



 KPOINTS: pymatgen with grid density = 500 / numbe

Automatic generation of k-mesh.
 Grid dimensions read from file:
 generate k-points for:    3    3    4

 Generating k-lattice:

  Cartesian coordinates                     Fractional coordinates (reciprocal lattice)
     0.051812896 -0.041240070  0.000000000     0.333333333 -0.000000000  0.000000000
     0.000000000  0.066221745  0.000000000     0.000000000  0.333333333  0.000000000
    -0.018286726 -0.008816976  0.042071410     0.000000000  0.000000000  0.250000000

  Length of vectors
     0.066221745  0.066221745  0.046713456

  Shift w.r.t. Gamma in fractional coordinates (k-lattice)
     0.000000000  0.000000000  0.000000000

 
 Subroutine IBZKPT returns following result:
 ===========================================
 
 Found     14 irreducible k-points:
 
 Following reciprocal coordinates:
            Coordinates               Weight
  0.000000  0.000000  0.000000      1.000000
  0.333333  0.000000  0.000000      4.000000
  0.333333  0.333333  0.000000      2.000000
 -0.333333  0.333333  0.000000      2.000000
  0.000000  0.000000  0.250000      2.000000
  0.333333  0.000000  0.250000      4.000000
 -0.333333  0.000000  0.250000      4.000000
  0.333333  0.333333  0.250000      2.000000
 -0.333333  0.333333  0.250000      4.000000
 -0.333333 -0.333333  0.250000      2.000000
  0.000000  0.000000  0.500000      1.000000
  0.333333  0.000000  0.500000      4.000000
  0.333333  0.333333  0.500000      2.000000
 -0.333333  0.333333  0.500000      2.000000
 
 Following cartesian coordinates:
            Coordinates               Weight
  0.000000  0.000000  0.000000      1.000000
  0.051813 -0.041240  0.000000      4.000000
  0.051813  0.024982  0.000000      2.000000
 -0.051813  0.107462  0.000000      2.000000
 -0.018287 -0.008817  0.042071      2.000000
  0.033526 -0.050057  0.042071      4.000000
 -0.070100  0.032423  0.042071      4.000000
  0.033526  0.016165  0.042071      2.000000
 -0.070100  0.098645  0.042071      4.000000
 -0.070100 -0.033799  0.042071      2.000000
 -0.036573 -0.017634  0.084143      1.000000
  0.015239 -0.058874  0.084143      4.000000
  0.015239  0.007348  0.084143      2.000000
 -0.088386  0.089828  0.084143      2.000000
 


--------------------------------------------------------------------------------------------------------




 Dimension of arrays:
   k-points           NKPTS =     14   k-points in BZ     NKDIM =     14   number of bands    NBANDS=     32
   number of dos      NEDOS =    301   number of ions     NIONS =      8
   non local maximal  LDIM  =      5   non local SUM 2l+1 LMDIM =     13
   total plane-waves  NPLWV =  38880
   max r-space proj   IRMAX =   2276   max aug-charges    IRDMAX=  11411
   dimension x,y,z NGX =    36 NGY =   36 NGZ =   30
   dimension x,y,z NGXF=    72 NGYF=   72 NGZF=   60
   support grid    NGXF=    72 NGYF=   72 NGZF=   60
   ions per type =               2   2   4
   NGX,Y,Z   is equivalent  to a cutoff of   8.53,  8.53,  8.39 a.u.
   NGXF,Y,Z  is equivalent  to a cutoff of  17.06, 17.06, 16.79 a.u.

 SYSTEM =  unknown system                          
 POSCAR =  Na2 Sb2 S4                              

 Startparameter for this run:
   NWRITE =      2    write-flag & timer
   PREC   = normal    normal or accurate (medium, high low for compatibility)
   ISTART =      0    job   : 0-new  1-cont  2-samecut
   ICHARG =      2    charge: 1-file 2-atom 10-const
   ISPIN  =      1    spin polarized calculation?
   LNONCOLLINEAR =      F non collinear calculations
   LSORBIT =      F    spin-orbit coupling
   INIWAV =      1    electr: 0-lowe 1-rand  2-diag
   LASPH  =      F    aspherical Exc in radial PAW
 Electronic Relaxation 1
   ENCUT  =  400.0 eV  29.40 Ry    5.42 a.u.  11.44 11.44  9.69*2*pi/ulx,y,z
   ENINI  =  400.0     initial cutoff
   ENAUG  =  380.5 eV  augmentation charge cutoff
   NELM   =     60;   NELMIN=  2; NELMDL= -5     # of ELM steps 
   EDIFF  = 0.1E-04   stopping-criterion for ELM
   LREAL  =      T    real-space projection
   NLSPLINE    = F    spline interpolate recip. space projectors
   LCOMPAT=      F    compatible to vasp.4.4
   GGA_COMPAT  = T    GGA compatible to vasp.4.4-vasp.4.6
   LMAXPAW     = -100 max onsite density
   LMAXMIX     =    2 max onsite mixed and CHGCAR
   VOSKOWN=      0    Vosko Wilk Nusair interpolation
   ROPT   =   -0.00050  -0.00050  -0.00050
 Ionic relaxation
   EDIFFG = -.5E-01   stopping-criterion for IOM
   NSW    =    100    number of steps for IOM
   NBLOCK =      1;   KBLOCK =    100    inner block; outer block 
   IBRION =      2    ionic relax: 0-MD 1-quasi-New 2-CG
   NFREE  =      1    steps in history (QN), initial steepest desc. (CG)
   ISIF   =      3    stress and relaxation
   IWAVPR =     11    prediction:  0-non 1-charg 2-wave 3-comb
   ISYM   =      2    0-nonsym 1-usesym 2-fastsym
   LCORR  =      T    Harris-Foulkes like correction to forces

   POTIM  = 0.5000    time-step for ionic-motion
   TEIN   =    0.0    initial temperature
   TEBEG  =    0.0;   TEEND  =   0.0 temperature during run
   SMASS  =  -3.00    Nose mass-parameter (am)
   estimated Nose-frequenzy (Omega)   =  0.10E-29 period in steps = 0.13E+47 mass=  -0.112E-26a.u.
   SCALEE = 1.0000    scale energy and forces
   NPACO  =    256;   APACO  = 10.0  distance and # of slots for P.C.
   PSTRESS=    0.0 pullay stress

  Mass of Ions in am
   POMASS =  22.99121.75 32.07
  Ionic Valenz
   ZVAL   =   7.00  5.00  6.00
  Atomic Wigner-Seitz radii
   RWIGS  =  -1.00 -1.00 -1.00
  virtual crystal weights 
   VCA    =   1.00  1.00  1.00
   NELECT =      48.0000    total number of electrons
   NUPDOWN=      -1.0000    fix difference up-down

 DOS related values:
   EMIN   =  10.00;   EMAX   =-10.00  energy-range for DOS
   EFERMI =   0.00
   ISMEAR =     0;   SIGMA  =   0.05  broadening in eV -4-tet -1-fermi 0-gaus

 Electronic relaxation 2 (details)
   IALGO  =     38    algorithm
   LDIAG  =      T    sub-space diagonalisation (order eigenvalues)
   LSUBROT=      F    optimize rotation matrix (better conditioning)
   TURBO    =      0    0=normal 1=particle mesh
   IRESTART =      0    0=no restart 2=restart with 2 vectors
   NREBOOT  =      0    no. of reboots
   NMIN     =      0    reboot dimension
   EREF     =   0.00    reference energy to select bands
   IMIX   =      4    mixing-type and parameters
     AMIX     =   0.40;   BMIX     =  1.00
     AMIX_MAG =   1.60;   BMIX_MAG =  1.00
     AMIN     =   0.10
     WC   =   100.;   INIMIX=   1;  MIXPRE=   1;  MAXMIX= -45

 Intra band minimization:
   WEIMIN = 0.0010     energy-eigenvalue tresh-hold
   EBREAK =  0.78E-07  absolut break condition
   DEPER  =   0.30     relativ break condition  

   TIME   =   0.40     timestep for ELM

  volume/ion in A,a.u.               =      24.05       162.32
  Fermi-wavevector in a.u.,A,eV,Ry     =   1.030539  1.947437 14.449543  1.062011
  Thomas-Fermi vector in A             =   2.164643

 Write flags
   LWAVE        =      F    write WAVECAR
   LDOWNSAMPLE  =      F    k-point downsampling of WAVECAR
   LCHARG       =      F    write CHGCAR
   LVTOT        =      F    write LOCPOT, total local potential
   LVHAR        =      F    write LOCPOT, Hartree potential only
   LELF         =      F    write electronic localiz. function (ELF)
   LORBIT       =      0    0 simple, 1 ext, 2 COOP (PROOUT), +10 PAW based schemes


 Dipole corrections
   LMONO  =      F    monopole corrections only (constant potential shift)
   LDIPOL =      F    correct potential (dipole corrections)
   IDIPOL =      0    1-x, 2-y, 3-z, 4-all directions 
   EPSILON=  1.0000000 bulk dielectric constant

 Exchange correlation treatment:
   GGA     =    --    GGA type
   LEXCH   =     8    internal setting for exchange type
   LIBXC   =     F    Libxc                    
   VOSKOWN =     0    Vosko Wilk Nusair interpolation
   LHFCALC =     F    Hartree Fock is set to
   LHFONE  =     F    Hartree Fock one center treatment
   AEXX    =    0.0000 exact exchange contribution

 Linear response parameters
   LEPSILON=     F    determine dielectric tensor
   LRPA    =     F    only Hartree local field effects (RPA)
   LNABLA  =     F    use nabla operator in PAW spheres
   LVEL    =     F    velocity operator in full k-point grid
   CSHIFT  =0.1000    complex shift for real part using Kramers Kronig
   OMEGAMAX=  -1.0    maximum frequency
   DEG_THRESHOLD= 0.2000000E-02 threshold for treating states as degnerate
   RTIME   =   -0.100 relaxation time in fs
  (WPLASMAI=    0.000 imaginary part of plasma frequency in eV, 0.658/RTIME)
   DFIELD  = 0.0000000 0.0000000 0.0000000 field for delta impulse in time

  Optional k-point grid parameters
   LKPOINTS_OPT  =     F    use optional k-point grid
   KPOINTS_OPT_MODE=     1    mode for optional k-point grid

 Orbital magnetization related:
   ORBITALMAG=     F  switch on orbital magnetization
   LCHIMAG   =     F  perturbation theory with respect to B field
   DQ        =  0.001000  dq finite difference perturbation B field
   LLRAUG    =     F  two centre corrections for induced B field



--------------------------------------------------------------------------------------------------------


 conjugate gradient relaxation of ions
 charge density and potential will be updated during run
 non-spin polarized calculation
 Variant of blocked Davidson
 Davidson routine will perform the subspace rotation
 perform sub-space diagonalisation
    after iterative eigenvector-optimisation
 modified Broyden-mixing scheme, WC =      100.0
 initial mixing is a Kerker type mixing with AMIX =  0.4000 and BMIX =      1.0000
 Hartree-type preconditioning will be used
 using additional bands            8
 real space projection scheme for non local part
 use partial core corrections
 calculate Harris-corrections to forces   (improved forces if not selfconsistent)
 use gradient corrections 
 use of overlap-Matrix (Vanderbilt PP)
 Gauss-broadening in eV      SIGMA  =   0.05


--------------------------------------------------------------------------------------------------------


  energy-cutoff  :      400.00
  volume of cell :      192.43
      direct lattice vectors                 reciprocal lattice vectors
     6.433404789  0.000000000  2.796338635     0.155438688 -0.123720210  0.000000000
     4.006449267  5.033593295  2.796338635     0.000000000  0.198665236  0.000000000
     0.000000000  0.000000000  5.942277610    -0.073146904 -0.035267903  0.168285642

  length of vectors
     7.014856160  7.014856160  5.942277610     0.198665236  0.198665236  0.186853824



 k-points in units of 2pi/SCALE and weight: pymatgen with grid density = 500 / numbe
   0.00000000  0.00000000  0.00000000       0.028
   0.05181290 -0.04124007  0.00000000       0.111
   0.05181290  0.02498168  0.00000000       0.056
  -0.05181290  0.10746182  0.00000000       0.056
  -0.01828673 -0.00881698  0.04207141       0.056
   0.03352617 -0.05005705  0.04207141       0.111
  -0.07009962  0.03242309  0.04207141       0.111
   0.03352617  0.01616470  0.04207141       0.056
  -0.07009962  0.09864484  0.04207141       0.111
  -0.07009962 -0.03379865  0.04207141       0.056
  -0.03657345 -0.01763395  0.08414282       0.028
   0.01523944 -0.05887402  0.08414282       0.111
   0.01523944  0.00734772  0.08414282       0.056
  -0.08838635  0.08982786  0.08414282       0.056

 k-points in reciprocal lattice and weights: pymatgen with grid density = 500 / numbe
   0.00000000  0.00000000  0.00000000       0.028
   0.33333333  0.00000000  0.00000000       0.111
   0.33333333  0.33333333  0.00000000       0.056
  -0.33333333  0.33333333  0.00000000       0.056
   0.00000000  0.00000000  0.25000000       0.056
   0.33333333  0.00000000  0.25000000       0.111
  -0.33333333  0.00000000  0.25000000       0.111
   0.33333333  0.33333333  0.25000000       0.056
  -0.33333333  0.33333333  0.25000000       0.111
  -0.33333333 -0.33333333  0.25000000       0.056
   0.00000000  0.00000000  0.50000000       0.028
   0.33333333  0.00000000  0.50000000       0.111
   0.33333333  0.33333333  0.50000000       0.056
  -0.33333333  0.33333333  0.50000000       0.056

 position of ions in fractional coordinates (direct lattice) 
   0.62632800  0.62632800  0.13544400
   0.37367200  0.37367200  0.86455600
   0.86862600  0.86862600  0.41056000
   0.13137400  0.13137400  0.58944000
   0.11829900  0.11829900  0.19012400
   0.63734300  0.63734300  0.63244600
   0.88170100  0.88170100  0.80987600
   0.36265700  0.36265700  0.36755400

 position of ions in cartesian coordinates  (Angst):
   6.53877291  3.15268042  4.30769622
   3.90108115  1.88091287  7.22725866
   9.06832867  4.37231001  7.29760638
   1.37152539  0.66128329  4.23734850
   1.23502430  0.59546905  1.79137772
   6.65376790  3.20812545  7.32262341
   9.20482976  4.43812424  9.74357716
   3.78608615  1.82546784  4.21233147



--------------------------------------------------------------------------------------------------------


 k-point   1 :   0.0000 0.0000 0.0000  plane waves:    3511
 k-point   2 :   0.3333 0.0000 0.0000  plane waves:    3496
 k-point   3 :   0.3333 0.3333 0.0000  plane waves:    3489
 k-point   4 :  -0.3333 0.3333 0.0000  plane waves:    3495
 k-point   5 :   0.0000 0.0000 0.2500  plane waves:    3494
 k-point   6 :   0.3333 0.0000 0.2500  plane waves:    3494
 k-point   7 :  -0.3333 0.0000 0.2500  plane waves:    3508
 k-point   8 :   0.3333 0.3333 0.2500  plane waves:    3494
 k-point   9 :  -0.3333 0.3333 0.2500  plane waves:    3495
 k-point  10 :  -0.3333-0.3333 0.2500  plane waves:    3483
 k-point  11 :   0.0000 0.0000 0.5000  plane waves:    3480
 k-point  12 :   0.3333 0.0000 0.5000  plane waves:    3508
 k-point  13 :   0.3333 0.3333 0.5000  plane waves:    3482
 k-point  14 :  -0.3333 0.3333 0.5000  plane waves:    3506

 maximum and minimum number of plane-waves per node :      3511     3480

 maximum number of plane-waves:      3511
 maximum index in each direction: 
   IXMAX=   11   IYMAX=   11   IZMAX=    9
   IXMIN=  -11   IYMIN=  -11   IZMIN=  -10


 serial   3D FFT for wavefunctions
 parallel 3D FFT for charge:
    minimum data exchange during FFTs selected (reduces bandwidth)


 total amount of memory used by VASP MPI-rank0    35368. kBytes
=======================================================================

   base      :      30000. kBytes
   nonlr-proj:       1471. kBytes
   fftplans  :        598. kBytes
   grid      :       2426. kBytes
   one-center:         64. kBytes
   wavefun   :        809. kBytes

     INWAV:  cpu time      0.0000: real time      0.0002
 Broyden mixing: mesh for mixing (old mesh)
   NGX = 23   NGY = 23   NGZ = 19
  (NGX  = 72   NGY  = 72   NGZ  = 60)
  gives a total of  10051 points

 initial charge density was supplied:
 charge density of overlapping atoms calculated
 number of electron      48.0000000 magnetization 
 keeping initial charge density in first step


--------------------------------------------------------------------------------------------------------


 Maximum index for non-local projection operator         2151
 Maximum index for augmentation-charges          821 (set IRDMAX)


--------------------------------------------------------------------------------------------------------


 First call to EWALD:  gamma=   0.307
 Maximum number of real-space cells 3x 3x 3
 Maximum number of reciprocal cells 3x 3x 3

    FEWALD:  cpu time      0.0007: real time      0.0009


--------------------------------------- Iteration      1(   1)  ---------------------------------------


    POTLOK:  cpu time      0.0122: real time      0.0125
    SETDIJ:  cpu time      0.0025: real time      0.0027
     EDDAV:  cpu time      0.3097: real time      0.3106
       DOS:  cpu time      0.0006: real time      0.0008
    --------------------------------------------
      LOOP:  cpu time      0.3251: real time      0.3264

 eigenvalue-minimisations  :   896
 total energy-change (2. order) : 0.1877504E+03  (-0.2052186E+04)
 number of electron      48.0000000 magnetization 
 augmentation part       48.0000000 magnetization 

 Free energy of the ion-electron system (eV)
  ---------------------------------------------------
  alpha Z        PSCENC =        40.88477011
  Ewald energy   TEWEN  =     -2031.04294384
  -Hartree energ DENC   =      -632.45731760
  -exchange      EXHF   =         0.00000000
  -V(xc)+E(xc)   XCENC  =         5.91809345
  PAW double counting   =      2201.99118543    -2258.46358349
  entropy T*S    EENTRO =        -0.00545153
  eigenvalues    EBANDS =       -78.31655965
  atomic energy  EATOM  =      2939.24215825
  Solvation  Ediel_sol  =         0.00000000
  ---------------------------------------------------
  free energy    TOTEN  =       187.75035112 eV

  energy without entropy =      187.75580265  energy(sigma->0) =      187.75307689


--------------------------------------------------------------------------------------------------------




--------------------------------------- Iteration      1(   2)  ---------------------------------------


     EDDAV:  cpu time      0.5760: real time      0.5765
       DOS:  cpu time      0.0002: real time      0.0003
    --------------------------------------------
      LOOP:  cpu time      0.5762: real time      0.5768

 eigenvalue-minimisations  :  1376
 total energy-change (2. order) :-0.2146319E+03  (-0.2135280E+03)
 number of electron      48.0000000 magnetization 
 augmentation part       48.0000000 magnetization 

 Free energy of the ion-electron system (eV)
  ---------------------------------------------------
  alpha Z        PSCENC =        40.88477011
  Ewald energy   TEWEN  =     -2031.04294384
  -Hartree energ DENC   =      -632.45731760
  -exchange      EXHF   =         0.00000000
  -V(xc)+E(xc)   XCENC  =         5.91809345
  PAW double counting   =      2201.99118543    -2258.46358349
  entropy T*S    EENTRO =        -0.00000000
  eigenvalues    EBANDS =      -292.95389056
  atomic energy  EATOM  =      2939.24215825
  Solvation  Ediel_sol  =         0.00000000
  ---------------------------------------------------
  free energy    TOTEN  =       -26.88152826 eV

  energy without entropy =      -26.88152826  energy(sigma->0) =      -26.88152826


--------------------------------------------------------------------------------------------------------




--------------------------------------- Iteration      1(   3)  ---------------------------------------


     EDDAV:  cpu time      0.4948: real time      0.4960
       DOS:  cpu time      0.0003: real time      0.0004
    --------------------------------------------
      LOOP:  cpu time      0.4951: real time      0.4964

 eigenvalue-minimisations  :  1120
 total energy-change (2. order) :-0.7852394E+01  (-0.7852394E+01)
 number of electron      48.0000000 magnetization 
 augmentation part       48.0000000 magnetization 

 Free energy of the ion-electron system (eV)
  ---------------------------------------------------
  alpha Z        PSCENC =        40.88477011
  Ewald energy   TEWEN  =     -2031.04294384
  -Hartree energ DENC   =      -632.45731760
  -exchange      EXHF   =         0.00000000
  -V(xc)+E(xc)   XCENC  =         5.91809345
  PAW double counting   =      2201.99118543    -2258.46358349
  entropy T*S    EENTRO =        -0.00000000
  eigenvalues    EBANDS =      -300.80628500
  atomic energy  EATOM  =      2939.24215825
  Solvation  Ediel_sol  =         0.00000000
  ---------------------------------------------------
  free energy    TOTEN  =       -34.73392270 eV

  energy without entropy =      -34.73392270  energy(sigma->0) =      -34.73392270


--------------------------------------------------------------------------------------------------------




--------------------------------------- Iteration      1(   4)  ---------------------------------------


     EDDAV:  cpu time      0.8359: real time      0.8365
       DOS:  cpu time      0.0004: real time      0.0005
    --------------------------------------------
      LOOP:  cpu time      0.8362: real time      0.8370

 eigenvalue-minimisations  :  1696
 total energy-change (2. order) :-0.9080842E-01  (-0.9080842E-01)
 number of electron      48.0000000 magnetization 
 augmentation part       48.0000000 magnetization 

 Free energy of the ion-electron system (eV)
  ---------------------------------------------------
  alpha Z        PSCENC =        40.88477011
  Ewald energy   TEWEN  =     -2031.04294384
  -Hartree energ DENC   =      -632.45731760
  -exchange      EXHF   =         0.00000000
  -V(xc)+E(xc)   XCENC  =         5.91809345
  PAW double counting   =      2201.99118543    -2258.46358349
  entropy T*S    EENTRO =        -0.00000000
  eigenvalues    EBANDS =      -300.89709342
  atomic energy  EATOM  =      2939.24215825
  Solvation  Ediel_sol  =         0.00000000
  ---------------------------------------------------
  free energy    TOTEN  =       -34.82473112 eV

  energy without entropy =      -34.82473112  energy(sigma->0) =      -34.82473112


--------------------------------------------------------------------------------------------------------




--------------------------------------- Iteration      1(   5)  ---------------------------------------


     EDDAV:  cpu time      0.5276: real time      0.5278
       DOS:  cpu time      0.0002: real time      0.0003
    CHARGE:  cpu time      0.0152: real time      0.0155
    MIXING:  cpu time      0.0009: real time      0.0010
    --------------------------------------------
      LOOP:  cpu time      0.5440: real time      0.5446

 eigenvalue-minimisations  :  1248
 total energy-change (2. order) :-0.3598259E-04  (-0.3598254E-04)
 number of electron      48.0000089 magnetization 
 augmentation part        3.9368749 magnetization 

 Broyden mixing:
  rms(total) = 0.10375E+01    rms(broyden)= 0.10375E+01
  rms(prec ) = 0.16577E+01
  weight for this iteration     100.00

 Free energy of the ion-electron system (eV)
  ---------------------------------------------------
  alpha Z        PSCENC =        40.88477011
  Ewald energy   TEWEN  =     -2031.04294384
  -Hartree energ DENC   =      -632.45731760
  -exchange      EXHF   =         0.00000000
  -V(xc)+E(xc)   XCENC  =         5.91809345
  PAW double counting   =      2201.99118543    -2258.46358349
  entropy T*S    EENTRO =        -0.00000000
  eigenvalues    EBANDS =      -300.89712940
  atomic energy  EATOM  =      2939.24215825
  Solvation  Ediel_sol  =         0.00000000
  ---------------------------------------------------
  free energy    TOTEN  =       -34.82476710 eV

  energy without entropy =      -34.82476710  energy(sigma->0) =      -34.82476710


--------------------------------------------------------------------------------------------------------




--------------------------------------- Iteration      1(   6)  ---------------------------------------


    POTLOK:  cpu time      0.0098: real time      0.0099
    SETDIJ:  cpu time      0.0017: real time      0.0017
     EDDAV:  cpu time      0.4528: real time      0.4533
       DOS:  cpu time      0.0002: real time      0.0004
    CHARGE:  cpu time      0.0139: real time      0.0139
    MIXING:  cpu time      0.0005: real time      0.0005
    --------------------------------------------
      LOOP:  cpu time      0.4788: real time      0.4797

 eigenvalue-minimisations  :  1152
 total energy-change (2. order) : 0.1913184E+01  (-0.8291878E+00)
 number of electron      48.0000089 magnetization 
 augmentation part        4.0219027 magnetization 

 Broyden mixing:
  rms(total) = 0.77242E+00    rms(broyden)= 0.77242E+00
  rms(prec ) = 0.84606E+00
  weight for this iteration     100.00

 eigenvalues of (default mixing * dielectric matrix)
  average eigenvalue GAMMA=   1.6293
  1.6293

 Free energy of the ion-electron system (eV)
  ---------------------------------------------------
  alpha Z        PSCENC =        40.88477011
  Ewald energy   TEWEN  =     -2031.04294384
  -Hartree energ DENC   =      -646.06043238
  -exchange      EXHF   =         0.00000000
  -V(xc)+E(xc)   XCENC  =         7.22360136
  PAW double counting   =      2618.83770983    -2675.58585950
  entropy T*S    EENTRO =        -0.00000000
  eigenvalues    EBANDS =      -286.41058719
  atomic energy  EATOM  =      2939.24215825
  Solvation  Ediel_sol  =         0.00000000
  ---------------------------------------------------
  free energy    TOTEN  =       -32.91158337 eV

  energy without entropy =      -32.91158337  energy(sigma->0) =      -32.91158337


--------------------------------------------------------------------------------------------------------




--------------------------------------- Iteration      1(   7)  ---------------------------------------


    POTLOK:  cpu time      0.0093: real time      0.0095
    SETDIJ:  cpu time      0.0017: real time      0.0017
     EDDAV:  cpu time      0.9236: real time      0.9238
       DOS:  cpu time      0.0003: real time      0.0005
    CHARGE:  cpu time      0.0147: real time      0.0147
    MIXING:  cpu time      0.0004: real time      0.0004
    --------------------------------------------
      LOOP:  cpu time      0.9499: real time      0.9504

 eigenvalue-minimisations  :  1792
 total energy-change (2. order) : 0.3137683E-01  (-0.7405217E-01)
 number of electron      48.0000089 magnetization 
 augmentation part        4.0305118 magnetization 

 Broyden mixing:
  rms(total) = 0.40285E+00    rms(broyden)= 0.40285E+00
  rms(prec ) = 0.42917E+00
  weight for this iteration     100.00

 eigenvalues of (default mixing * dielectric matrix)
  average eigenvalue GAMMA=   1.5974
  1.2143  1.9804

 Free energy of the ion-electron system (eV)
  ---------------------------------------------------
  alpha Z        PSCENC =        40.88477011
  Ewald energy   TEWEN  =     -2031.04294384
  -Hartree energ DENC   =      -648.93169366
  -exchange      EXHF   =         0.00000000
  -V(xc)+E(xc)   XCENC  =         7.65460583
  PAW double counting   =      3135.63399196    -3192.66101834
  entropy T*S    EENTRO =        -0.00000000
  eigenvalues    EBANDS =      -283.66007685
  atomic energy  EATOM  =      2939.24215825
  Solvation  Ediel_sol  =         0.00000000
  ---------------------------------------------------
  free energy    TOTEN  =       -32.88020654 eV

  energy without entropy =      -32.88020654  energy(sigma->0) =      -32.88020654


--------------------------------------------------------------------------------------------------------




--------------------------------------- Iteration      1(   8)  ---------------------------------------


    POTLOK:  cpu time      0.0096: real time      0.0099
    SETDIJ:  cpu time      0.0016: real time      0.0017
     EDDAV:  cpu time      0.4754: real time      0.4759
       DOS:  cpu time      0.0002: real time      0.0004
    CHARGE:  cpu time      0.0139: real time      0.0139
    MIXING:  cpu time      0.0004: real time      0.0004
    --------------------------------------------
      LOOP:  cpu time      0.5010: real time      0.5021

 eigenvalue-minimisations  :  1184
 total energy-change (2. order) :-0.4567257E-02  (-0.6705563E-02)
 number of electron      48.0000089 magnetization 
 augmentation part        4.0181354 magnetization 

 Broyden mixing:
  rms(total) = 0.54956E-01    rms(broyden)= 0.54955E-01
  rms(prec ) = 0.74545E-01
  weight for this iteration     100.00

 eigenvalues of (default mixing * dielectric matrix)
  average eigenvalue GAMMA=   1.5134
  2.3034  1.1184  1.1184

 Free energy of the ion-electron system (eV)
  ---------------------------------------------------
  alpha Z        PSCENC =        40.88477011
  Ewald energy   TEWEN  =     -2031.04294384
  -Hartree energ DENC   =      -648.42156821
  -exchange      EXHF   =         0.00000000
  -V(xc)+E(xc)   XCENC  =         7.79205832
  PAW double counting   =      3566.16145360    -3623.39389521
  entropy T*S    EENTRO =        -0.00000000
  eigenvalues    EBANDS =      -284.10680681
  atomic energy  EATOM  =      2939.24215825
  Solvation  Ediel_sol  =         0.00000000
  ---------------------------------------------------
  free energy    TOTEN  =       -32.88477380 eV

  energy without entropy =      -32.88477380  energy(sigma->0) =      -32.88477380


--------------------------------------------------------------------------------------------------------




--------------------------------------- Iteration      1(   9)  ---------------------------------------


    POTLOK:  cpu time      0.0093: real time      0.0095
    SETDIJ:  cpu time      0.0017: real time      0.0017
     EDDAV:  cpu time      0.8751: real time      0.8756
       DOS:  cpu time      0.0002: real time      0.0004
    CHARGE:  cpu time      0.0138: real time      0.0138
    MIXING:  cpu time      0.0004: real time      0.0004
    --------------------------------------------
      LOOP:  cpu time      0.9005: real time      0.9014

 eigenvalue-minimisations  :  1760
 total energy-change (2. order) :-0.1395056E-02  (-0.9367576E-03)
 number of electron      48.0000089 magnetization 
 augmentation part        4.0191917 magnetization 

 Broyden mixing:
  rms(total) = 0.16735E-01    rms(broyden)= 0.16735E-01
  rms(prec ) = 0.23242E-01
  weight for this iteration     100.00

 eigenvalues of (default mixing * dielectric matrix)
  average eigenvalue GAMMA=   1.4552
  2.2222  1.0793  1.0793  1.4397

 Free energy of the ion-electron system (eV)
  ---------------------------------------------------
  alpha Z        PSCENC =        40.88477011
  Ewald energy   TEWEN  =     -2031.04294384
  -Hartree energ DENC   =      -648.96958698
  -exchange      EXHF   =         0.00000000
  -V(xc)+E(xc)   XCENC  =         7.87824919
  PAW double counting   =      3636.81725249    -3694.09076194
  entropy T*S    EENTRO =        -0.00000000
  eigenvalues    EBANDS =      -283.60530614
  atomic energy  EATOM  =      2939.24215825
  Solvation  Ediel_sol  =         0.00000000
  ---------------------------------------------------
  free energy    TOTEN  =       -32.88616886 eV

  energy without entropy =      -32.88616886  energy(sigma->0) =      -32.88616886


--------------------------------------------------------------------------------------------------------




--------------------------------------- Iteration      1(  10)  ---------------------------------------


    POTLOK:  cpu time      0.0091: real time      0.0094
    SETDIJ:  cpu time      0.0016: real time      0.0016
     EDDAV:  cpu time      0.4373: real time      0.4374
       DOS:  cpu time      0.0002: real time      0.0004
    CHARGE:  cpu time      0.0137: real time      0.0137
    MIXING:  cpu time      0.0004: real time      0.0004
    --------------------------------------------
      LOOP:  cpu time      0.4625: real time      0.4629

 eigenvalue-minimisations  :  1120
 total energy-change (2. order) :-0.6848982E-03  (-0.7786280E-04)
 number of electron      48.0000089 magnetization 
 augmentation part        4.0197620 magnetization 

 Broyden mixing:
  rms(total) = 0.71569E-02    rms(broyden)= 0.71569E-02
  rms(prec ) = 0.11205E-01
  weight for this iteration     100.00

 eigenvalues of (default mixing * dielectric matrix)
  average eigenvalue GAMMA=   1.6627
  2.6279  2.5231  1.0957  1.0957  0.9709

 Free energy of the ion-electron system (eV)
  ---------------------------------------------------
  alpha Z        PSCENC =        40.88477011
  Ewald energy   TEWEN  =     -2031.04294384
  -Hartree energ DENC   =      -649.07386262
  -exchange      EXHF   =         0.00000000
  -V(xc)+E(xc)   XCENC  =         7.89246757
  PAW double counting   =      3618.07521595    -3675.35833998
  entropy T*S    EENTRO =        -0.00000000
  eigenvalues    EBANDS =      -283.50631919
  atomic energy  EATOM  =      2939.24215825
  Solvation  Ediel_sol  =         0.00000000
  ---------------------------------------------------
  free energy    TOTEN  =       -32.88685375 eV

  energy without entropy =      -32.88685375  energy(sigma->0) =      -32.88685375


--------------------------------------------------------------------------------------------------------




--------------------------------------- Iteration      1(  11)  ---------------------------------------


    POTLOK:  cpu time      0.0093: real time      0.0095
    SETDIJ:  cpu time      0.0017: real time      0.0017
     EDDAV:  cpu time      0.7703: real time      0.7709
       DOS:  cpu time      0.0002: real time      0.0004
    CHARGE:  cpu time      0.0137: real time      0.0137
    MIXING:  cpu time      0.0004: real time      0.0004
    --------------------------------------------
      LOOP:  cpu time      0.7956: real time      0.7965

 eigenvalue-minimisations  :  1600
 total energy-change (2. order) :-0.3176430E-03  (-0.4446058E-04)
 number of electron      48.0000089 magnetization 
 augmentation part        4.0200005 magnetization 

 Broyden mixing:
  rms(total) = 0.27095E-02    rms(broyden)= 0.27095E-02
  rms(prec ) = 0.32121E-02
  weight for this iteration     100.00

 eigenvalues of (default mixing * dielectric matrix)
  average eigenvalue GAMMA=   1.5000
  2.5211  2.5211  1.0943  1.0943  1.0055  0.7637

 Free energy of the ion-electron system (eV)
  ---------------------------------------------------
  alpha Z        PSCENC =        40.88477011
  Ewald energy   TEWEN  =     -2031.04294384
  -Hartree energ DENC   =      -649.15405644
  -exchange      EXHF   =         0.00000000
  -V(xc)+E(xc)   XCENC  =         7.90709051
  PAW double counting   =      3611.17023000    -3668.46717270
  entropy T*S    EENTRO =        -0.00000000
  eigenvalues    EBANDS =      -283.42724728
  atomic energy  EATOM  =      2939.24215825
  Solvation  Ediel_sol  =         0.00000000
  ---------------------------------------------------
  free energy    TOTEN  =       -32.88717140 eV

  energy without entropy =      -32.88717140  energy(sigma->0) =      -32.88717140


--------------------------------------------------------------------------------------------------------




--------------------------------------- Iteration      1(  12)  ---------------------------------------


    POTLOK:  cpu time      0.0091: real time      0.0093
    SETDIJ:  cpu time      0.0016: real time      0.0016
     EDDAV:  cpu time      0.5976: real time      0.5981
       DOS:  cpu time      0.0002: real time      0.0003
    --------------------------------------------
      LOOP:  cpu time      0.6086: real time      0.6094

 eigenvalue-minimisations  :  1376
 total energy-change (2. order) :-0.3242423E-05  (-0.1222686E-05)
 number of electron      48.0000089 magnetization 
 augmentation part        4.0200005 magnetization 

 Free energy of the ion-electron system (eV)
  ---------------------------------------------------
  alpha Z        PSCENC =        40.88477011
  Ewald energy   TEWEN  =     -2031.04294384
  -Hartree energ DENC   =      -649.16581334
  -exchange      EXHF   =         0.00000000
  -V(xc)+E(xc)   XCENC  =         7.90767928
  PAW double counting   =      3610.80875221    -3668.10655168
  entropy T*S    EENTRO =        -0.00000000
  eigenvalues    EBANDS =      -283.41522563
  atomic energy  EATOM  =      2939.24215825
  Solvation  Ediel_sol  =         0.00000000
  ---------------------------------------------------
  free energy    TOTEN  =       -32.88717464 eV

  energy without entropy =      -32.88717464  energy(sigma->0) =      -32.88717464


--------------------------------------------------------------------------------------------------------




 average (electrostatic) potential at core
  the test charge radii are     0.9254  1.1712  0.9698
  (the norm of the test charge is              1.0000)
       1 -44.9832       2 -44.9832       3 -89.4017       4 -89.4017       5 -86.9754
       6 -87.1640       7 -86.9754       8 -87.1640



 E-fermi :   3.5801     XC(G=0):  -8.8746     alpha+bet : -9.7882

 Fermi energy:         3.5800650037

 k-point     1 :       0.0000    0.0000    0.0000
  band No.  band energies     occupation 
      1     -19.1972      2.00000
      2     -19.1903      2.00000
      3     -19.1773      2.00000
      4     -19.1750      2.00000
      5     -19.1676      2.00000
      6     -19.1639      2.00000
      7      -9.7914      2.00000
      8      -8.1587      2.00000
      9      -8.0468      2.00000
     10      -7.9658      2.00000
     11      -4.7479      2.00000
     12      -3.1781      2.00000
     13      -1.1381      2.00000
     14      -1.0755      2.00000
     15      -0.3346      2.00000
     16      -0.2876      2.00000
     17      -0.0880      2.00000
     18       1.9382      2.00000
     19       2.0111      2.00000
     20       2.0473      2.00000
     21       2.4259      2.00000
     22       2.4714      2.00000
     23       2.4815      2.00000
     24       2.9849      2.00000
     25       5.9979      0.00000
     26       7.6214      0.00000
     27       7.7340      0.00000
     28       7.9072      0.00000
     29       8.2906      0.00000
     30       8.8221      0.00000
     31       8.9645      0.00000
     32       9.0186      0.00000

 k-point     2 :       0.3333    0.0000    0.0000
  band No.  band energies     occupation 
      1     -19.1961      2.00000
      2     -19.1919      2.00000
      3     -19.1776      2.00000
      4     -19.1748      2.00000
      5     -19.1674      2.00000
      6     -19.1656      2.00000
      7      -9.4261      2.00000
      8      -8.4614      2.00000
      9      -8.1551      2.00000
     10      -7.9692      2.00000
     11      -5.0510      2.00000
     12      -3.9789      2.00000
     13      -0.6574      2.00000
     14      -0.6106      2.00000
     15      -0.0510      2.00000
     16       0.5710      2.00000
     17       1.2274      2.00000
     18       1.2599      2.00000
     19       1.7616      2.00000
     20       1.9414      2.00000
     21       2.2393      2.00000
     22       2.3095      2.00000
     23       2.9546      2.00000
     24       3.2106      2.00000
     25       5.7444      0.00000
     26       6.0043      0.00000
     27       6.6512      0.00000
     28       7.2787      0.00000
     29       7.9295      0.00000
     30       8.4254      0.00000
     31       9.0947      0.00000
     32       9.6158      0.00000

 k-point     3 :       0.3333    0.3333    0.0000
  band No.  band energies     occupation 
      1     -19.1955      2.00000
      2     -19.1918      2.00000
      3     -19.1779      2.00000
      4     -19.1744      2.00000
      5     -19.1681      2.00000
      6     -19.1633      2.00000
      7      -9.5256      2.00000
      8      -8.7841      2.00000
      9      -7.9652      2.00000
     10      -7.8865      2.00000
     11      -4.2356      2.00000
     12      -3.4120      2.00000
     13      -1.3889      2.00000
     14      -0.8164      2.00000
     15      -0.3837      2.00000
     16       0.0801      2.00000
     17       0.5423      2.00000
     18       0.9321      2.00000
     19       1.9929      2.00000
     20       2.0859      2.00000
     21       2.3538      2.00000
     22       2.3814      2.00000
     23       2.5452      2.00000
     24       2.6820      2.00000
     25       6.2948      0.00000
     26       7.4365      0.00000
     27       7.5822      0.00000
     28       8.1130      0.00000
     29       8.3072      0.00000
     30       8.4218      0.00000
     31       8.4900      0.00000
     32       8.8846      0.00000

 k-point     4 :      -0.3333    0.3333    0.0000
  band No.  band energies     occupation 
      1     -19.1943      2.00000
      2     -19.1937      2.00000
      3     -19.1779      2.00000
      4     -19.1745      2.00000
      5     -19.1680      2.00000
      6     -19.1651      2.00000
      7      -9.0250      2.00000
      8      -8.9852      2.00000
      9      -8.2342      2.00000
     10      -7.8978      2.00000
     11      -4.6072      2.00000
     12      -4.2641      2.00000
     13      -0.8643      2.00000
     14       0.0028      2.00000
     15       0.1379      2.00000
     16       0.2726      2.00000
     17       0.7888      2.00000
     18       1.5439      2.00000
     19       1.7852      2.00000
     20       1.8994      2.00000
     21       2.2738      2.00000
     22       2.4641      2.00000
     23       2.5557      2.00000
     24       3.0521      2.00000
     25       5.4330      0.00000
     26       6.6615      0.00000
     27       6.9557      0.00000
     28       7.0328      0.00000
     29       7.9598      0.00000
     30       7.9722      0.00000
     31       8.9650      0.00000
     32       9.4346      0.00000

 k-point     5 :       0.0000    0.0000    0.2500
  band No.  band energies     occupation 
      1     -19.1969      2.00000
      2     -19.1907      2.00000
      3     -19.1776      2.00000
      4     -19.1752      2.00000
      5     -19.1677      2.00000
      6     -19.1636      2.00000
      7      -9.6974      2.00000
      8      -8.1806      2.00000
      9      -8.0917      2.00000
     10      -8.0014      2.00000
     11      -4.9804      2.00000
     12      -3.3571      2.00000
     13      -1.1442      2.00000
     14      -0.9201      2.00000
     15      -0.2399      2.00000
     16       0.2567      2.00000
     17       0.6445      2.00000
     18       1.7576      2.00000
     19       1.9009      2.00000
     20       1.9031      2.00000
     21       2.0339      2.00000
     22       2.3697      2.00000
     23       2.7854      2.00000
     24       3.0009      2.00000
     25       5.8234      0.00000
     26       7.0199      0.00000
     27       7.4858      0.00000
     28       7.7187      0.00000
     29       7.8674      0.00000
     30       8.5802      0.00000
     31       8.7116      0.00000
     32       9.1810      0.00000

 k-point     6 :       0.3333    0.0000    0.2500
  band No.  band energies     occupation 
      1     -19.1960      2.00000
      2     -19.1922      2.00000
      3     -19.1774      2.00000
      4     -19.1754      2.00000
      5     -19.1673      2.00000
      6     -19.1657      2.00000
      7      -9.3761      2.00000
      8      -8.4080      2.00000
      9      -8.1726      2.00000
     10      -7.9820      2.00000
     11      -5.2891      2.00000
     12      -4.2339      2.00000
     13      -0.6271      2.00000
     14       0.0104      2.00000
     15       0.3523      2.00000
     16       0.6571      2.00000
     17       1.0308      2.00000
     18       1.2862      2.00000
     19       1.5422      2.00000
     20       2.0468      2.00000
     21       2.3563      2.00000
     22       2.4291      2.00000
     23       3.1305      2.00000
     24       3.2759      2.00000
     25       5.6185      0.00000
     26       6.0343      0.00000
     27       6.4115      0.00000
     28       6.6634      0.00000
     29       7.0775      0.00000
     30       7.4749      0.00000
     31       9.1968      0.00000
     32       9.6992      0.00000

 k-point     7 :      -0.3333    0.0000    0.2500
  band No.  band energies     occupation 
      1     -19.1957      2.00000
      2     -19.1925      2.00000
      3     -19.1778      2.00000
      4     -19.1751      2.00000
      5     -19.1678      2.00000
      6     -19.1653      2.00000
      7      -9.3163      2.00000
      8      -8.4809      2.00000
      9      -8.1940      2.00000
     10      -7.9865      2.00000
     11      -5.2828      2.00000
     12      -4.1790      2.00000
     13      -0.4843      2.00000
     14      -0.1654      2.00000
     15       0.3909      2.00000
     16       0.5246      2.00000
     17       1.1969      2.00000
     18       1.4081      2.00000
     19       1.5256      2.00000
     20       2.1748      2.00000
     21       2.3484      2.00000
     22       2.5282      2.00000
     23       2.8516      2.00000
     24       3.0860      2.00000
     25       5.6173      0.00000
     26       5.8269      0.00000
     27       6.5177      0.00000
     28       6.6798      0.00000
     29       7.2031      0.00000
     30       7.4322      0.00000
     31       9.1292      0.00000
     32       9.5709      0.00000

 k-point     8 :       0.3333    0.3333    0.2500
  band No.  band energies     occupation 
      1     -19.1961      2.00000
      2     -19.1918      2.00000
      3     -19.1772      2.00000
      4     -19.1752      2.00000
      5     -19.1678      2.00000
      6     -19.1636      2.00000
      7      -9.5176      2.00000
      8      -8.7033      2.00000
      9      -7.9544      2.00000
     10      -7.9296      2.00000
     11      -4.4916      2.00000
     12      -3.6803      2.00000
     13      -1.2887      2.00000
     14      -0.6708      2.00000
     15       0.0195      2.00000
     16       0.1044      2.00000
     17       0.7112      2.00000
     18       1.0690      2.00000
     19       1.8739      2.00000
     20       1.8857      2.00000
     21       2.2921      2.00000
     22       2.4615      2.00000
     23       2.7423      2.00000
     24       2.9965      2.00000
     25       6.0740      0.00000
     26       6.7448      0.00000
     27       7.3122      0.00000
     28       7.7472      0.00000
     29       7.7947      0.00000
     30       8.5876      0.00000
     31       8.9550      0.00000
     32       9.1712      0.00000

 k-point     9 :      -0.3333    0.3333    0.2500
  band No.  band energies     occupation 
      1     -19.1944      2.00000
      2     -19.1938      2.00000
      3     -19.1777      2.00000
      4     -19.1751      2.00000
      5     -19.1677      2.00000
      6     -19.1653      2.00000
      7      -9.0158      2.00000
      8      -8.9090      2.00000
      9      -8.2015      2.00000
     10      -7.9490      2.00000
     11      -4.8185      2.00000
     12      -4.5379      2.00000
     13      -0.3858      2.00000
     14       0.0032      2.00000
     15       0.1469      2.00000
     16       0.6166      2.00000
     17       1.0384      2.00000
     18       1.3538      2.00000
     19       1.5342      2.00000
     20       2.2049      2.00000
     21       2.4274      2.00000
     22       2.5652      2.00000
     23       2.6526      2.00000
     24       3.1572      2.00000
     25       5.3078      0.00000
     26       6.2807      0.00000
     27       6.6478      0.00000
     28       6.6952      0.00000
     29       7.0535      0.00000
     30       7.3274      0.00000
     31       9.0662      0.00000
     32       9.5599      0.00000

 k-point    10 :      -0.3333   -0.3333    0.2500
  band No.  band energies     occupation 
      1     -19.1953      2.00000
      2     -19.1923      2.00000
      3     -19.1780      2.00000
      4     -19.1748      2.00000
      5     -19.1681      2.00000
      6     -19.1632      2.00000
      7      -9.4008      2.00000
      8      -8.8257      2.00000
      9      -8.0644      2.00000
     10      -7.8765      2.00000
     11      -4.4613      2.00000
     12      -3.6227      2.00000
     13      -1.3595      2.00000
     14      -0.2415      2.00000
     15      -0.2213      2.00000
     16       0.1383      2.00000
     17       0.7641      2.00000
     18       1.3591      2.00000
     19       1.8796      2.00000
     20       1.9356      2.00000
     21       2.2007      2.00000
     22       2.2633      2.00000
     23       2.5327      2.00000
     24       2.6633      2.00000
     25       6.3333      0.00000
     26       6.9369      0.00000
     27       7.5227      0.00000
     28       7.7161      0.00000
     29       7.7349      0.00000
     30       8.2116      0.00000
     31       8.6634      0.00000
     32       8.7111      0.00000

 k-point    11 :       0.0000    0.0000    0.5000
  band No.  band energies     occupation 
      1     -19.1966      2.00000
      2     -19.1911      2.00000
      3     -19.1779      2.00000
      4     -19.1754      2.00000
      5     -19.1679      2.00000
      6     -19.1634      2.00000
      7      -9.5868      2.00000
      8      -8.2517      2.00000
      9      -8.1215      2.00000
     10      -8.0242      2.00000
     11      -5.1746      2.00000
     12      -3.4908      2.00000
     13      -1.1443      2.00000
     14      -0.7346      2.00000
     15      -0.1524      2.00000
     16       0.7385      2.00000
     17       1.2990      2.00000
     18       1.7512      2.00000
     19       1.8615      2.00000
     20       1.9197      2.00000
     21       1.9371      2.00000
     22       2.1978      2.00000
     23       2.8752      2.00000
     24       2.9641      2.00000
     25       5.6033      0.00000
     26       5.9836      0.00000
     27       6.1759      0.00000
     28       7.6879      0.00000
     29       7.9696      0.00000
     30       8.7635      0.00000
     31       9.2438      0.00000
     32       9.7828      0.00000

 k-point    12 :       0.3333    0.0000    0.5000
  band No.  band energies     occupation 
      1     -19.1957      2.00000
      2     -19.1927      2.00000
      3     -19.1776      2.00000
      4     -19.1758      2.00000
      5     -19.1677      2.00000
      6     -19.1654      2.00000
      7      -9.2561      2.00000
      8      -8.4327      2.00000
      9      -8.2120      2.00000
     10      -8.0057      2.00000
     11      -5.4877      2.00000
     12      -4.4022      2.00000
     13      -0.4457      2.00000
     14       0.1923      2.00000
     15       0.6527      2.00000
     16       0.9126      2.00000
     17       1.0437      2.00000
     18       1.1547      2.00000
     19       1.9553      2.00000
     20       2.1636      2.00000
     21       2.3873      2.00000
     22       2.5803      2.00000
     23       3.2103      2.00000
     24       3.3318      2.00000
     25       5.1054      0.00000
     26       5.4973      0.00000
     27       5.9529      0.00000
     28       6.0703      0.00000
     29       6.4962      0.00000
     30       7.2071      0.00000
     31       9.3745      0.00000
     32      10.0372      0.00000

 k-point    13 :       0.3333    0.3333    0.5000
  band No.  band energies     occupation 
      1     -19.1959      2.00000
      2     -19.1922      2.00000
      3     -19.1773      2.00000
      4     -19.1757      2.00000
      5     -19.1678      2.00000
      6     -19.1635      2.00000
      7      -9.3898      2.00000
      8      -8.7561      2.00000
      9      -8.0639      2.00000
     10      -7.8982      2.00000
     11      -4.6881      2.00000
     12      -3.8435      2.00000
     13      -1.2560      2.00000
     14      -0.4812      2.00000
     15       0.0773      2.00000
     16       0.4884      2.00000
     17       0.9708      2.00000
     18       1.5674      2.00000
     19       1.7381      2.00000
     20       1.9261      2.00000
     21       2.2072      2.00000
     22       2.3075      2.00000
     23       2.6969      2.00000
     24       3.1569      2.00000
     25       5.3234      0.00000
     26       6.3370      0.00000
     27       6.6235      0.00000
     28       7.3106      0.00000
     29       7.8376      0.00000
     30       8.7731      0.00000
     31       8.8942      0.00000
     32       9.5504      0.00000

 k-point    14 :      -0.3333    0.3333    0.5000
  band No.  band energies     occupation 
      1     -19.1947      2.00000
      2     -19.1939      2.00000
      3     -19.1771      2.00000
      4     -19.1760      2.00000
      5     -19.1674      2.00000
      6     -19.1656      2.00000
      7      -8.9311      2.00000
      8      -8.9102      2.00000
      9      -8.1687      2.00000
     10      -7.9934      2.00000
     11      -4.9915      2.00000
     12      -4.7906      2.00000
     13      -0.2399      2.00000
     14       0.0176      2.00000
     15       0.2827      2.00000
     16       1.1299      2.00000
     17       1.1317      2.00000
     18       1.4622      2.00000
     19       1.5215      2.00000
     20       2.3739      2.00000
     21       2.5006      2.00000
     22       2.5772      2.00000
     23       2.9980      2.00000
     24       3.2990      2.00000
     25       5.0217      0.00000
     26       5.2240      0.00000
     27       6.1066      0.00000
     28       6.5488      0.00000
     29       6.6862      0.00000
     30       6.7410      0.00000
     31       9.6567      0.00000
     32      10.0339      0.00000


--------------------------------------------------------------------------------------------------------


 soft charge-density along one line, spin component           1
         0         1         2         3         4         5         6         7         8         9
 total charge-density along one line

 pseudopotential strength for first ion, spin component:           1
-23.797  -0.001  -0.008   1.808   0.000   0.003  -0.001  -0.002
 -0.001 -23.804  -0.002   0.000   1.811   0.001   0.001   0.004
 -0.008  -0.002 -23.810   0.003   0.001   1.814  -0.001  -0.005
  1.808   0.000   0.003   6.840  -0.000  -0.001   0.000  -0.000
  0.000   1.811   0.001  -0.000   6.840  -0.000  -0.000   0.000
  0.003   0.001   1.814  -0.001  -0.000   6.839   0.000  -0.000
 -0.001   0.001  -0.001   0.000  -0.000   0.000   1.436   6.977
 -0.002   0.004  -0.005  -0.000   0.000  -0.000   6.977  33.721
 total augmentation occupancy for first ion, spin component:           1
  2.001   0.000   0.000  -0.003   0.000   0.001   0.002  -0.001
  0.000   2.001   0.000   0.000  -0.002   0.000  -0.004   0.001
  0.000   0.000   2.001   0.001   0.000  -0.001   0.005  -0.002
 -0.003   0.000   0.001   0.021  -0.000  -0.004   0.001  -0.000
  0.000  -0.002   0.000  -0.000   0.016  -0.001  -0.001  -0.000
  0.001   0.000  -0.001  -0.004  -0.001   0.015   0.002  -0.000
  0.002  -0.004   0.005   0.001  -0.001   0.002   0.450  -0.001
 -0.001   0.001  -0.002  -0.000  -0.000  -0.000  -0.001   0.000


------------------------ aborting loop because EDIFF is reached ----------------------------------------


    CHARGE:  cpu time      0.0139: real time      0.0139
    FORLOC:  cpu time      0.0008: real time      0.0008
    FORNL :  cpu time      0.0684: real time      0.0687
    STRESS:  cpu time      0.2042: real time      0.2043
    FORCOR:  cpu time      0.0084: real time      0.0084
    FORHAR:  cpu time      0.0026: real time      0.0026
    MIXING:  cpu time      0.0004: real time      0.0004
    OFIELD:  cpu time      0.0000: real time      0.0000

  FORCE on cell =-STRESS in cart. coord.  units (eV):
  Direction    XX          YY          ZZ          XY          YZ          ZX
  --------------------------------------------------------------------------------------
  Alpha Z    40.88477    40.88477    40.88477
[...]
      8      -8.1357      2.00000
      9      -8.0059      2.00000
     10      -7.9050      2.00000
     11      -4.8412      2.00000
     12      -3.2385      2.00000
     13      -1.0561      2.00000
     14      -0.8863      2.00000
     15      -0.2927      2.00000
     16       0.2993      2.00000
     17       0.7341      2.00000
     18       1.8119      2.00000
     19       1.9496      2.00000
     20       1.9968      2.00000
     21       2.2295      2.00000
     22       2.4076      2.00000
     23       2.8463      2.00000
     24       3.0892      2.00000
     25       5.9059      0.00000
     26       7.0279      0.00000
     27       7.5412      0.00000
     28       7.7738      0.00000
     29       8.1583      0.00000
     30       8.7312      0.00000
     31       8.9998      0.00000
     32       9.3522      0.00000

 k-point     6 :       0.3333    0.0000    0.2500
  band No.  band energies     occupation 
      1     -19.0781      2.00000
      2     -19.0739      2.00000
      3     -19.0585      2.00000
      4     -19.0567      2.00000
      5     -19.0504      2.00000
      6     -19.0486      2.00000
      7      -9.3182      2.00000
      8      -8.3008      2.00000
      9      -8.0668      2.00000
     10      -7.9191      2.00000
     11      -5.2713      2.00000
     12      -4.1725      2.00000
     13      -0.5742      2.00000
     14       0.0543      2.00000
     15       0.4522      2.00000
     16       0.7322      2.00000
     17       1.1357      2.00000
     18       1.4472      2.00000
     19       1.5972      2.00000
     20       2.0710      2.00000
     21       2.4370      2.00000
     22       2.5378      2.00000
     23       3.2151      2.00000
     24       3.4092      2.00000
     25       5.8988      0.00000
     26       6.0821      0.00000
     27       6.4635      0.00000
     28       6.7933      0.00000
     29       7.1560      0.00000
     30       7.5099      0.00000
     31       9.3075      0.00000
     32       9.7907      0.00000

 k-point     7 :      -0.3333    0.0000    0.2500
  band No.  band energies     occupation 
      1     -19.0778      2.00000
      2     -19.0742      2.00000
      3     -19.0589      2.00000
      4     -19.0564      2.00000
      5     -19.0508      2.00000
      6     -19.0482      2.00000
      7      -9.2589      2.00000
      8      -8.3767      2.00000
      9      -8.0813      2.00000
     10      -7.9308      2.00000
     11      -5.2564      2.00000
     12      -4.1205      2.00000
     13      -0.4435      2.00000
     14      -0.1127      2.00000
     15       0.4883      2.00000
     16       0.6353      2.00000
     17       1.3164      2.00000
     18       1.4720      2.00000
     19       1.6097      2.00000
     20       2.2047      2.00000
     21       2.4373      2.00000
     22       2.6323      2.00000
     23       2.9429      2.00000
     24       3.2105      2.00000
     25       5.8576      0.00000
     26       5.9367      0.00000
     27       6.6333      0.00000
     28       6.7625      0.00000
     29       7.2592      0.00000
     30       7.4801      0.00000
     31       9.1965      0.00000
     32       9.7108      0.00000

 k-point     8 :       0.3333    0.3333    0.2500
  band No.  band energies     occupation 
      1     -19.0781      2.00000
      2     -19.0735      2.00000
      3     -19.0583      2.00000
      4     -19.0564      2.00000
      5     -19.0509      2.00000
      6     -19.0462      2.00000
      7      -9.4466      2.00000
      8      -8.6520      2.00000
      9      -7.9221      2.00000
     10      -7.7995      2.00000
     11      -4.3548      2.00000
     12      -3.5570      2.00000
     13      -1.2256      2.00000
     14      -0.5971      2.00000
     15      -0.0098      2.00000
     16       0.1288      2.00000
     17       0.8187      2.00000
     18       1.1494      2.00000
     19       1.9232      2.00000
     20       1.9898      2.00000
     21       2.3436      2.00000
     22       2.5275      2.00000
     23       2.8452      2.00000
     24       3.0814      2.00000
     25       6.1520      0.00000
     26       6.7432      0.00000
     27       7.3644      0.00000
     28       7.8598      0.00000
     29       8.0986      0.00000
     30       8.7879      0.00000
     31       9.0585      0.00000
     32       9.3216      0.00000

 k-point     9 :      -0.3333    0.3333    0.2500
  band No.  band energies     occupation 
      1     -19.0763      2.00000
      2     -19.0758      2.00000
      3     -19.0588      2.00000
      4     -19.0564      2.00000
      5     -19.0508      2.00000
      6     -19.0482      2.00000
      7      -8.9966      2.00000
      8      -8.7708      2.00000
      9      -8.0708      2.00000
     10      -7.9173      2.00000
     11      -4.8047      2.00000
     12      -4.4565      2.00000
     13      -0.3211      2.00000
     14       0.0478      2.00000
     15       0.2687      2.00000
     16       0.6859      2.00000
     17       1.1052      2.00000
     18       1.4290      2.00000
     19       1.6831      2.00000
     20       2.2359      2.00000
     21       2.5147      2.00000
     22       2.6479      2.00000
     23       2.7516      2.00000
     24       3.2594      2.00000
     25       5.6105      0.00000
     26       6.2860      0.00000
     27       6.7154      0.00000
     28       6.8487      0.00000
     29       7.1280      0.00000
     30       7.3786      0.00000
     31       9.1356      0.00000
     32       9.7416      0.00000

 k-point    10 :      -0.3333   -0.3333    0.2500
  band No.  band energies     occupation 
      1     -19.0774      2.00000
      2     -19.0739      2.00000
      3     -19.0591      2.00000
      4     -19.0559      2.00000
      5     -19.0512      2.00000
      6     -19.0458      2.00000
      7      -9.3189      2.00000
      8      -8.7881      2.00000
      9      -8.0080      2.00000
     10      -7.7695      2.00000
     11      -4.3112      2.00000
     12      -3.5052      2.00000
     13      -1.2972      2.00000
     14      -0.2179      2.00000
     15      -0.1425      2.00000
     16       0.1039      2.00000
     17       0.9035      2.00000
     18       1.3476      2.00000
     19       2.0015      2.00000
     20       2.0147      2.00000
     21       2.2860      2.00000
     22       2.3036      2.00000
     23       2.6329      2.00000
     24       2.7344      2.00000
     25       6.4187      0.00000
     26       6.9514      0.00000
     27       7.6025      0.00000
     28       7.7640      0.00000
     29       8.1006      0.00000
     30       8.3148      0.00000
     31       8.7671      0.00000
     32       8.8711      0.00000

 k-point    11 :       0.0000    0.0000    0.5000
  band No.  band energies     occupation 
      1     -19.0788      2.00000
      2     -19.0724      2.00000
      3     -19.0591      2.00000
      4     -19.0566      2.00000
      5     -19.0510      2.00000
      6     -19.0460      2.00000
      7      -9.5238      2.00000
      8      -8.2061      2.00000
      9      -8.0406      2.00000
     10      -7.9409      2.00000
     11      -5.0138      2.00000
     12      -3.3672      2.00000
     13      -1.0592      2.00000
     14      -0.6979      2.00000
     15      -0.2103      2.00000
     16       0.8614      2.00000
     17       1.2920      2.00000
     18       1.8034      2.00000
     19       1.9355      2.00000
     20       2.0497      2.00000
     21       2.0619      2.00000
     22       2.2176      2.00000
     23       2.9172      2.00000
     24       3.0510      2.00000
     25       5.6871      0.00000
     26       6.0342      0.00000
     27       6.2641      0.00000
     28       7.7414      0.00000
     29       8.3231      0.00000
     30       9.0706      0.00000
     31       9.3875      0.00000
     32       9.8296      0.00000

 k-point    12 :       0.3333    0.0000    0.5000
  band No.  band energies     occupation 
      1     -19.0778      2.00000
      2     -19.0744      2.00000
      3     -19.0587      2.00000
      4     -19.0570      2.00000
      5     -19.0507      2.00000
      6     -19.0483      2.00000
      7      -9.1968      2.00000
      8      -8.3300      2.00000
      9      -8.1157      2.00000
     10      -7.9392      2.00000
     11      -5.4493      2.00000
     12      -4.3395      2.00000
     13      -0.3988      2.00000
     14       0.2967      2.00000
     15       0.7396      2.00000
     16       0.9695      2.00000
     17       1.1572      2.00000
     18       1.2557      2.00000
     19       2.0260      2.00000
     20       2.1457      2.00000
     21       2.4957      2.00000
     22       2.6692      2.00000
     23       3.2939      2.00000
     24       3.4536      2.00000
     25       5.1082      0.00000
     26       5.7922      0.00000
     27       6.0192      0.00000
     28       6.1376      0.00000
     29       6.7149      0.00000
     30       7.2570      0.00000
     31       9.5291      0.00000
     32      10.0939      0.00000

 k-point    13 :       0.3333    0.3333    0.5000
  band No.  band energies     occupation 
      1     -19.0779      2.00000
      2     -19.0738      2.00000
      3     -19.0584      2.00000
      4     -19.0569      2.00000
      5     -19.0509      2.00000
      6     -19.0461      2.00000
      7      -9.3108      2.00000
      8      -8.7102      2.00000
      9      -8.0264      2.00000
     10      -7.7874      2.00000
     11      -4.5275      2.00000
     12      -3.7223      2.00000
     13      -1.1934      2.00000
     14      -0.4112      2.00000
     15       0.0399      2.00000
     16       0.5618      2.00000
     17       1.0775      2.00000
     18       1.6803      2.00000
     19       1.7908      2.00000
     20       1.9736      2.00000
     21       2.2560      2.00000
     22       2.2952      2.00000
     23       2.8063      2.00000
     24       3.2316      2.00000
     25       5.3638      0.00000
     26       6.4239      0.00000
     27       6.7172      0.00000
     28       7.3583      0.00000
     29       8.2398      0.00000
     30       8.9025      0.00000
     31       9.1060      0.00000
     32       9.7694      0.00000

 k-point    14 :      -0.3333    0.3333    0.5000
  band No.  band energies     occupation 
      1     -19.0765      2.00000
      2     -19.0759      2.00000
      3     -19.0582      2.00000
      4     -19.0573      2.00000
      5     -19.0505      2.00000
      6     -19.0485      2.00000
      7      -8.9362      2.00000
      8      -8.7458      2.00000
      9      -8.0363      2.00000
     10      -7.9700      2.00000
     11      -4.9649      2.00000
     12      -4.7073      2.00000
     13      -0.1640      2.00000
     14       0.1336      2.00000
     15       0.3393      2.00000
     16       1.1485      2.00000
     17       1.2365      2.00000
     18       1.5451      2.00000
     19       1.6715      2.00000
     20       2.3451      2.00000
     21       2.5982      2.00000
     22       2.6642      2.00000
     23       3.0839      2.00000
     24       3.4046      2.00000
     25       5.0124      0.00000
     26       5.5481      0.00000
     27       6.1658      0.00000
     28       6.6913      0.00000
     29       6.7620      0.00000
     30       6.8510      0.00000
     31       9.8161      0.00000
     32      10.1592      0.00000


--------------------------------------------------------------------------------------------------------


 soft charge-density along one line, spin component           1
         0         1         2         3         4         5         6         7         8         9
 total charge-density along one line

 pseudopotential strength for first ion, spin component:           1
-23.706  -0.001  -0.009   1.764   0.000   0.004   0.000   0.000
 -0.001 -23.715  -0.002   0.000   1.767   0.001   0.001   0.002
 -0.009  -0.002 -23.720   0.004   0.001   1.770   0.000   0.000
  1.764   0.000   0.004   6.857  -0.000  -0.001  -0.000   0.000
  0.000   1.767   0.001  -0.000   6.856  -0.000  -0.000   0.000
  0.004   0.001   1.770  -0.001  -0.000   6.855  -0.000   0.000
  0.000   0.001   0.000  -0.000  -0.000  -0.000   1.437   6.975
  0.000   0.002   0.000   0.000   0.000   0.000   6.975  33.703
 total augmentation occupancy for first ion, spin component:           1
  2.001   0.000   0.000  -0.003   0.000   0.001  -0.000   0.000
  0.000   2.001   0.000   0.000  -0.001   0.000  -0.003   0.001
  0.000   0.000   2.001   0.001   0.000  -0.001  -0.000   0.000
 -0.003   0.000   0.001   0.023  -0.000  -0.005  -0.000  -0.000
  0.000  -0.001   0.000  -0.000   0.016  -0.001   0.000  -0.000
  0.001   0.000  -0.001  -0.005  -0.001   0.016  -0.000  -0.000
 -0.000  -0.003  -0.000  -0.000   0.000  -0.000   0.462  -0.001
  0.000   0.001   0.000  -0.000  -0.000  -0.000  -0.001   0.000


------------------------ aborting loop because EDIFF is reached ----------------------------------------


    CHARGE:  cpu time      0.0139: real time      0.0139
    FORLOC:  cpu time      0.0007: real time      0.0007
    FORNL :  cpu time      0.0687: real time      0.0687
    STRESS:  cpu time      0.2054: real time      0.2058
    FORCOR:  cpu time      0.0082: real time      0.0082
    FORHAR:  cpu time      0.0026: real time      0.0026
    MIXING:  cpu time      0.0003: real time      0.0003
    OFIELD:  cpu time      0.0000: real time      0.0000

  FORCE on cell =-STRESS in cart. coord.  units (eV):
  Direction    XX          YY          ZZ          XY          YZ          ZX
  --------------------------------------------------------------------------------------
  Alpha Z    41.33448    41.33448    41.33448
  Ewald    -682.78009  -630.13431  -725.99661   -33.07136    -4.81420    -9.98483
  Hartree   214.51935   244.18441   187.30731   -18.63518    -8.04933   -16.69459
  E(xc)    -199.73076  -199.72779  -200.90506    -0.00186     0.01599     0.03317
  Local    -248.13553  -331.00785  -180.80004    52.05926    13.85282    28.73125
  n-local   406.73492   408.48234   415.40422    -1.10024    -0.00848    -0.21323
  augment   -20.14666   -20.25542   -21.50479     0.06832     0.10108     0.20915
  Kinetic   488.74940   486.80669   485.20591     0.43543    -0.57928    -2.34473
  Fock        0.00000     0.00000     0.00000     0.00000     0.00000     0.00000
  -------------------------------------------------------------------------------------
  Total       0.16141     0.06625     0.04542     0.05978    -0.00529    -0.01097
  in kB       1.35872     0.55771     0.38231     0.50319    -0.04451    -0.09232
  external pressure =        0.77 kB  Pullay stress =        0.00 kB


 VOLUME and BASIS-vectors are now :
 -----------------------------------------------------------------------------
  energy-cutoff  :      400.00
  volume of cell :      190.34
      direct lattice vectors                 reciprocal lattice vectors
     6.394005511  0.018229986  2.783007759     0.156597910 -0.125574482  0.000359798
     3.996176499  4.991413848  2.783007759    -0.000728897  0.200726991  0.000359798
    -0.022345943 -0.010774134  5.965491646    -0.072715662 -0.035059979  0.167295073

  length of vectors
     6.973433229  6.973433229  5.965543228     0.200728636  0.200728636  0.185753630


 FORCES acting on ions
    electron-ion (+dipol)            ewald-force                    non-local-force                 convergence-correction
 -----------------------------------------------------------------------------------------------
   0.252E+01 0.121E+01 0.844E+01   -.256E+01 -.123E+01 -.864E+01   0.409E-01 0.197E-01 0.157E+00   0.220E-02 0.106E-02 -.773E-03
   -.252E+01 -.121E+01 -.844E+01   0.256E+01 0.123E+01 0.864E+01   -.409E-01 -.197E-01 -.157E+00   -.220E-02 -.106E-02 0.773E-03
   -.275E+01 -.132E+01 0.295E+02   0.375E+01 0.181E+01 -.375E+02   -.101E+01 -.488E+00 0.800E+01   -.495E-03 -.239E-03 -.141E-03
   0.275E+01 0.132E+01 -.295E+02   -.375E+01 -.181E+01 0.375E+02   0.101E+01 0.488E+00 -.800E+01   0.495E-03 0.239E-03 0.141E-03
   0.716E+01 0.345E+01 0.333E+02   -.611E+01 -.294E+01 -.363E+02   -.105E+01 -.507E+00 0.298E+01   0.489E-03 0.236E-03 -.841E-04
   0.193E+01 0.929E+00 -.697E+01   -.386E+01 -.186E+01 0.757E+01   0.190E+01 0.918E+00 -.620E+00   0.146E-02 0.702E-03 0.545E-03
   -.716E+01 -.345E+01 -.333E+02   0.611E+01 0.294E+01 0.363E+02   0.105E+01 0.507E+00 -.298E+01   -.489E-03 -.236E-03 0.841E-04
   -.193E+01 -.929E+00 0.697E+01   0.386E+01 0.186E+01 -.757E+01   -.190E+01 -.918E+00 0.620E+00   -.146E-02 -.702E-03 -.545E-03
 -----------------------------------------------------------------------------------------------
   0.584E-11 0.165E-11 0.142E-10   0.355E-14 0.266E-14 0.888E-14   0.888E-15 0.000E+00 0.167E-14   -.130E-12 0.328E-14 -.210E-12


 POSITION                                       TOTAL-FORCE (eV/Angst)
 -----------------------------------------------------------------------------------
      6.51097      3.13927      4.27853         0.003406      0.001642     -0.040947
      3.85687      1.85960      7.25298        -0.003406     -0.001642      0.040947
      9.04119      4.35922      7.28959        -0.012286     -0.005924     -0.032623
      1.32665      0.63965      4.24191         0.012286      0.005924      0.032623
      1.20859      0.58273      1.78608         0.000689      0.000332     -0.017655
      6.57785      3.17152      7.30013        -0.022289     -0.010747     -0.018762
      9.15924      4.41614      9.74543        -0.000689     -0.000332      0.017655
      3.78999      1.82735      4.23137         0.022289      0.010747      0.018762
 -----------------------------------------------------------------------------------
    total drift:                                0.000000      0.000000      0.000000


--------------------------------------------------------------------------------------------------------



  FREE ENERGIE OF THE ION-ELECTRON SYSTEM (eV)
  ---------------------------------------------------
  free  energy   TOTEN  =       -32.90741358 eV

  energy  without entropy=      -32.90741358  energy(sigma->0) =      -32.90741358

 d Force = 0.1500499E-02[ 0.544E-03, 0.246E-02]  d Energy = 0.1645536E-02-0.145E-03
 d Force =-0.9346027E-01[-0.123E+00,-0.637E-01]  d Ewald  = 0.2442160E+01-0.254E+01


--------------------------------------------------------------------------------------------------------


    POTLOK:  cpu time      0.0106: real time      0.0106


--------------------------------------------------------------------------------------------------------




--------------------------------------------------------------------------------------------------------


  
 reached required accuracy - stopping structural energy minimisation
     LOOP+:  cpu time      4.4727: real time      4.5148
    4ORBIT:  cpu time      0.0000: real time      0.0000

 total amount of memory used by VASP MPI-rank0    35368. kBytes
=======================================================================

   base      :      30000. kBytes
   nonlr-proj:       1471. kBytes
   fftplans  :        598. kBytes
   grid      :       2426. kBytes
   one-center:         64. kBytes
   wavefun   :        809. kBytes

  
  
 General timing and accounting informations for this job:
 ========================================================
  
                  Total CPU time used (sec):       35.156
                            User time (sec):       33.734
                          System time (sec):        1.422
                         Elapsed time (sec):       35.865
  
                   Maximum memory used (kb):      129304.
                   Average memory used (kb):          N/A
  
                          Minor page faults:        33357
                          Major page faults:          126
                 Voluntary context switches:         1112
