  19  19   0   0
  0.2504161E+02  0.6834254E-09  0.8835925E-09  0.7880486E-09  0.0000000E+00
   1.0000000000000000E-004
  CAR 
 NEB_bottleneck                          
      9.58006095    -23.86306382  301      1.05261917      1.00000000
    -23.863  0.0000E+00  0.0000E+00
    -23.752  0.0000E+00  0.0000E+00
    -23.640  0.0000E+00  0.0000E+00
    -23.529 -0.4843E-31 -0.5398E-32
    -23.417 -0.3673E-27 -0.4095E-28
    -23.306 -0.1477E-23 -0.1647E-24
    -23.194 -0.3179E-20 -0.3546E-21
    -23.083 -0.3666E-17 -0.4090E-18
    -22.971 -0.2191E-14 -0.2446E-15
    -22.860 -0.7195E-12 -0.8045E-13
    -22.748 -0.1262E-09 -0.1415E-10
    -22.637 -0.1181E-07 -0.1330E-08
    -22.525 -0.5872E-06 -0.6679E-07
    -22.414 -0.1540E-04 -0.1783E-05
    -22.302 -0.2083E-03 -0.2500E-04
    -22.191 -0.1364E-02 -0.1771E-03
    -22.079 -0.3306E-02 -0.5456E-03
    -21.968  0.4731E-02 -0.1820E-04
    -21.856  0.3907E-01  0.4337E-02
    -21.745  0.7639E-01  0.1285E-01
    -21.634  0.8216E-01  0.2201E-01
    -21.522  0.8756E-01  0.3177E-01
    -21.411  0.9973E-01  0.4289E-01
    -21.299  0.7473E-01  0.5122E-01
    -21.188  0.2773E-01  0.5431E-01
    -21.076  0.1182E-02  0.5444E-01
    -20.965 -0.2821E-02  0.5413E-01
    -20.853 -0.1004E-02  0.5402E-01
    -20.742 -0.1499E-03  0.5400E-01
    -20.630 -0.1118E-04  0.5400E-01
    -20.519 -0.4347E-06  0.5400E-01
    -20.407 -0.8941E-08  0.5400E-01
    -20.296 -0.9789E-10  0.5400E-01
    -20.184 -0.5720E-12  0.5400E-01
    -20.073 -0.1785E-14  0.5400E-01
    -19.961 -0.3984E-17  0.5400E-01
    -19.850  0.0000E+00  0.5400E-01
    -19.738  0.0000E+00  0.5400E-01
    -19.627  0.0000E+00  0.5400E-01
    -19.515  0.0000E+00  0.5400E-01
    -19.404  0.0000E+00  0.5400E-01
    -19.293  0.0000E+00  0.5400E-01
    -19.181  0.0000E+00  0.5400E-01
    -19.070  0.0000E+00  0.5400E-01
    -18.958  0.0000E+00  0.5400E-01
    -18.847  0.0000E+00  0.5400E-01
    -18.735  0.0000E+00  0.5400E-01
    -18.624  0.0000E+00  0.5400E-01
    -18.512  0.0000E+00  0.5400E-01
    -18.401  0.0000E+00  0.5400E-01
    -18.289  0.0000E+00  0.5400E-01
    -18.178  0.0000E+00  0.5400E-01
    -18.066  0.0000E+00  0.5400E-01
    -17.955  0.0000E+00  0.5400E-01
    -17.843  0.0000E+00  0.5400E-01
    -17.732  0.0000E+00  0.5400E-01
    -17.620  0.0000E+00  0.5400E-01
    -17.509  0.0000E+00  0.5400E-01
    -17.397  0.0000E+00  0.5400E-01
    -17.286  0.0000E+00  0.5400E-01
    -17.174  0.0000E+00  0.5400E-01
    -17.063  0.0000E+00  0.5400E-01
    -16.951  0.0000E+00  0.5400E-01
    -16.840  0.0000E+00  0.5400E-01
    -16.729  0.0000E+00  0.5400E-01
    -16.617  0.0000E+00  0.5400E-01
    -16.506  0.0000E+00  0.5400E-01
    -16.394  0.0000E+00  0.5400E-01
    -16.283  0.0000E+00  0.5400E-01
    -16.171  0.0000E+00  0.5400E-01
    -16.060  0.0000E+00  0.5400E-01
    -15.948  0.0000E+00  0.5400E-01
    -15.837  0.0000E+00  0.5400E-01
    -15.725  0.0000E+00  0.5400E-01
    -15.614  0.0000E+00  0.5400E-01
    -15.502  0.0000E+00  0.5400E-01
    -15.391  0.0000E+00  0.5400E-01
    -15.279  0.0000E+00  0.5400E-01
    -15.168  0.0000E+00  0.5400E-01
    -15.056  0.0000E+00  0.5400E-01
    -14.945  0.0000E+00  0.5400E-01
    -14.833  0.0000E+00  0.5400E-01
    -14.722  0.0000E+00  0.5400E-01
    -14.610  0.0000E+00  0.5400E-01
    -14.499  0.0000E+00  0.5400E-01
    -14.388  0.0000E+00  0.5400E-01
    -14.276 -0.7258E-32  0.5400E-01
    -14.165 -0.6273E-28  0.5400E-01
    -14.053 -0.2848E-24  0.5400E-01
    -13.942 -0.6925E-21  0.5400E-01
    -13.830 -0.9017E-18  0.5400E-01
    -13.719 -0.6093E-15  0.5400E-01
    -13.607 -0.2252E-12  0.5400E-01
    -13.496 -0.4434E-10  0.5400E-01
    -13.384 -0.4631E-08  0.5400E-01
    -13.273 -0.2550E-06  0.5400E-01
    -13.161 -0.7320E-05  0.5400E-01
    -13.050 -0.1069E-03  0.5399E-01
    -12.938 -0.7451E-03  0.5390E-01
    -12.827 -0.1930E-02  0.5369E-01
    -12.715  0.2313E-02  0.5395E-01
    -12.604  0.2175E-01  0.5637E-01
    -12.492  0.4482E-01  0.6137E-01
    -12.381  0.4917E-01  0.6685E-01
    -12.269  0.3876E-01  0.7117E-01
    -12.158  0.2207E-01  0.7363E-01
    -12.046  0.5569E-02  0.7425E-01
    -11.935 -0.1108E-02  0.7413E-01
    -11.824 -0.9328E-03  0.7402E-01
    -11.712 -0.1934E-03  0.7400E-01
    -11.601 -0.1795E-04  0.7400E-01
    -11.489 -0.8266E-06  0.7400E-01
    -11.378 -0.1955E-07  0.7400E-01
    -11.266 -0.2469E-09  0.7400E-01
    -11.155 -0.6645E-09  0.7400E-01
    -11.043 -0.4170E-07  0.7400E-01
    -10.932 -0.1349E-05  0.7400E-01
    -10.820 -0.2177E-04  0.7400E-01
    -10.709 -0.1625E-03  0.7398E-01
    -10.597 -0.4188E-03  0.7393E-01
    -10.486  0.6608E-03  0.7401E-01
    -10.374  0.4830E-02  0.7454E-01
    -10.263  0.8165E-02  0.7545E-01
    -10.151  0.8186E-02  0.7637E-01
    -10.040  0.8248E-02  0.7729E-01
     -9.928  0.5349E-02  0.7788E-01
     -9.817  0.6048E-03  0.7795E-01
     -9.705  0.1311E-02  0.7810E-01
     -9.594  0.9291E-02  0.7913E-01
     -9.483  0.1988E-01  0.8135E-01
     -9.371  0.2456E-01  0.8409E-01
     -9.260  0.2125E-01  0.8646E-01
     -9.148  0.1702E-01  0.8835E-01
     -9.037  0.1165E-01  0.8965E-01
     -8.925  0.4011E-02  0.9010E-01
     -8.814 -0.2148E-03  0.9008E-01
     -8.702 -0.5248E-03  0.9002E-01
     -8.591 -0.1337E-03  0.9000E-01
     -8.479 -0.1444E-04  0.9000E-01
     -8.368 -0.7604E-06  0.9000E-01
     -8.256 -0.2041E-07  0.9000E-01
     -8.145 -0.2846E-09  0.9000E-01
     -8.033 -0.2084E-11  0.9000E-01
     -7.922 -0.8063E-14  0.9000E-01
     -7.810 -0.1593E-16  0.9000E-01
     -7.699  0.0000E+00  0.9000E-01
     -7.587  0.0000E+00  0.9000E-01
     -7.476  0.0000E+00  0.9000E-01
     -7.364  0.0000E+00  0.9000E-01
     -7.253  0.0000E+00  0.9000E-01
     -7.142  0.0000E+00  0.9000E-01
     -7.030  0.0000E+00  0.9000E-01
     -6.919  0.0000E+00  0.9000E-01
     -6.807  0.0000E+00  0.9000E-01
     -6.696  0.0000E+00  0.9000E-01
     -6.584  0.0000E+00  0.9000E-01
     -6.473  0.0000E+00  0.9000E-01
     -6.361  0.0000E+00  0.9000E-01
     -6.250  0.0000E+00  0.9000E-01
     -6.138  0.0000E+00  0.9000E-01
     -6.027  0.0000E+00  0.9000E-01
     -5.915  0.0000E+00  0.9000E-01
     -5.804  0.0000E+00  0.9000E-01
     -5.692  0.0000E+00  0.9000E-01
     -5.581  0.0000E+00  0.9000E-01
     -5.469  0.0000E+00  0.9000E-01
     -5.358  0.0000E+00  0.9000E-01
     -5.246  0.0000E+00  0.9000E-01
     -5.135  0.0000E+00  0.9000E-01
     -5.023 -0.6424E-29  0.9000E-01
     -4.912 -0.3272E-25  0.9000E-01
     -4.800 -0.8905E-22  0.9000E-01
     -4.689 -0.1293E-18  0.9000E-01
     -4.578 -0.9709E-16  0.9000E-01
     -4.466 -0.3970E-13  0.9000E-01
     -4.355 -0.8589E-11  0.9000E-01
     -4.243 -0.9780E-09  0.9000E-01
     -4.132 -0.5809E-07  0.9000E-01
     -4.020 -0.1771E-05  0.9000E-01
     -3.909 -0.2680E-04  0.9000E-01
     -3.797 -0.1853E-03  0.8998E-01
     -3.686 -0.4094E-03  0.8993E-01
     -3.574  0.9575E-03  0.9004E-01
     -3.463  0.5333E-02  0.9063E-01
     -3.351  0.7817E-02  0.9150E-01
     -3.240  0.6695E-02  0.9225E-01
     -3.128  0.7563E-02  0.9309E-01
     -3.017  0.6653E-02  0.9383E-01
     -2.905  0.2111E-02  0.9407E-01
     -2.794 -0.2861E-03  0.9404E-01
     -2.682 -0.2801E-03  0.9401E-01
     -2.571 -0.5419E-04  0.9400E-01
     -2.459 -0.4527E-05  0.9400E-01
     -2.348 -0.1851E-06  0.9400E-01
     -2.237 -0.4602E-07  0.9400E-01
     -2.125 -0.1365E-05  0.9400E-01
     -2.014 -0.2213E-04  0.9400E-01
     -1.902 -0.1684E-03  0.9398E-01
     -1.791 -0.4834E-03  0.9392E-01
     -1.679  0.3076E-03  0.9396E-01
     -1.568  0.4276E-02  0.9444E-01
     -1.456  0.1039E-01  0.9559E-01
     -1.345  0.1813E-01  0.9761E-01
     -1.233  0.2267E-01  0.1001E+00
     -1.122  0.1437E-01  0.1017E+00
     -1.010  0.5003E-02  0.1023E+00
     -0.899  0.8617E-02  0.1033E+00
     -0.787  0.1376E-01  0.1048E+00
     -0.676  0.9172E-02  0.1058E+00
     -0.564  0.4301E-02  0.1063E+00
     -0.453  0.6524E-02  0.1070E+00
     -0.341  0.1090E-01  0.1082E+00
     -0.230  0.1647E-01  0.1101E+00
     -0.118  0.2156E-01  0.1125E+00
     -0.007  0.2343E-01  0.1151E+00
      0.105  0.2121E-01  0.1175E+00
      0.216  0.1907E-01  0.1196E+00
      0.327  0.2342E-01  0.1222E+00
      0.439  0.2565E-01  0.1251E+00
      0.550  0.2069E-01  0.1274E+00
      0.662  0.1865E-01  0.1294E+00
      0.773  0.1953E-01  0.1316E+00
      0.885  0.2064E-01  0.1339E+00
      0.996  0.1989E-01  0.1361E+00
      1.108  0.1310E-01  0.1376E+00
      1.219  0.4434E-02  0.1381E+00
      1.331 -0.6280E-04  0.1381E+00
      1.442 -0.5531E-03  0.1380E+00
      1.554 -0.1617E-03  0.1380E+00
      1.665 -0.1958E-04  0.1380E+00
      1.777 -0.1143E-05  0.1380E+00
      1.888 -0.3376E-07  0.1380E+00
      2.000 -0.5156E-09  0.1380E+00
      2.111 -0.4134E-11  0.1380E+00
      2.223 -0.3254E-11  0.1380E+00
      2.334 -0.4168E-09  0.1380E+00
      2.446 -0.2805E-07  0.1380E+00
      2.557 -0.9728E-06  0.1380E+00
      2.668 -0.1689E-04  0.1380E+00
      2.780 -0.1371E-03  0.1380E+00
      2.891 -0.4026E-03  0.1379E+00
      3.003  0.4852E-03  0.1380E+00
      3.114  0.4661E-02  0.1385E+00
      3.226  0.8101E-02  0.1394E+00
      3.337  0.5123E-02  0.1400E+00
      3.449  0.7176E-03  0.1401E+00
      3.560 -0.4086E-03  0.1400E+00
      3.672 -0.1585E-03  0.1400E+00
      3.783 -0.2155E-04  0.1400E+00
      3.895 -0.1150E-04  0.1400E+00
      4.006 -0.9721E-04  0.1400E+00
      4.118 -0.3657E-03  0.1399E+00
      4.229  0.8315E-04  0.1400E+00
      4.341  0.3645E-02  0.1404E+00
      4.452  0.7884E-02  0.1412E+00
      4.564  0.6094E-02  0.1419E+00
      4.675  0.1340E-02  0.1421E+00
      4.787 -0.4131E-03  0.1420E+00
      4.898 -0.4014E-03  0.1420E+00
      5.010 -0.4466E-03  0.1419E+00
      5.121  0.9607E-03  0.1420E+00
      5.232  0.5320E-02  0.1426E+00
      5.344  0.8033E-02  0.1435E+00
      5.455  0.7397E-02  0.1444E+00
      5.567  0.7988E-02  0.1452E+00
      5.678  0.9606E-02  0.1463E+00
      5.790  0.1266E-01  0.1477E+00
      5.901  0.1350E-01  0.1492E+00
      6.013  0.1045E-01  0.1504E+00
      6.124  0.8843E-02  0.1514E+00
      6.236  0.8795E-02  0.1524E+00
      6.347  0.8501E-02  0.1533E+00
      6.459  0.5045E-02  0.1539E+00
      6.570  0.2021E-02  0.1541E+00
      6.682  0.5469E-02  0.1547E+00
      6.793  0.1157E-01  0.1560E+00
      6.905  0.1709E-01  0.1579E+00
      7.016  0.1980E-01  0.1601E+00
      7.128  0.1361E-01  0.1616E+00
      7.239  0.3193E-02  0.1620E+00
      7.351  0.1308E-02  0.1621E+00
      7.462  0.1179E-01  0.1634E+00
      7.573  0.2196E-01  0.1659E+00
      7.685  0.1646E-01  0.1677E+00
      7.796  0.4082E-02  0.1682E+00
      7.908 -0.8586E-03  0.1681E+00
      8.019 -0.6085E-03  0.1680E+00
      8.131 -0.1111E-03  0.1680E+00
      8.242 -0.9114E-05  0.1680E+00
      8.354 -0.3714E-06  0.1680E+00
      8.465 -0.7796E-08  0.1680E+00
      8.577 -0.8568E-10  0.1680E+00
      8.688 -0.4973E-12  0.1680E+00
      8.800 -0.1534E-14  0.1680E+00
      8.911 -0.3984E-17  0.1680E+00
      9.023  0.0000E+00  0.1680E+00
      9.134  0.0000E+00  0.1680E+00
      9.246  0.0000E+00  0.1680E+00
      9.357  0.0000E+00  0.1680E+00
      9.469  0.0000E+00  0.1680E+00
      9.580  0.0000E+00  0.1680E+00
