  19  19   0   0
  0.2504161E+02  0.6834254E-09  0.8835925E-09  0.7880486E-09  0.0000000E+00
   1.0000000000000000E-004
  CAR 
 NEB_bottleneck                          
      9.70316623    -23.78376044  301      1.01121678      1.00000000
    -23.784  0.0000E+00  0.0000E+00
    -23.672  0.0000E+00  0.0000E+00
    -23.561  0.0000E+00  0.0000E+00
    -23.449 -0.4656E-31 -0.5197E-32
    -23.337 -0.3553E-27 -0.3967E-28
    -23.226 -0.1450E-23 -0.1619E-24
    -23.114 -0.3164E-20 -0.3534E-21
    -23.002 -0.3688E-17 -0.4121E-18
    -22.891 -0.2222E-14 -0.2485E-15
    -22.779 -0.7313E-12 -0.8188E-13
    -22.668 -0.1277E-09 -0.1434E-10
    -22.556 -0.1178E-07 -0.1329E-08
    -22.444 -0.5693E-06 -0.6487E-07
    -22.333 -0.1423E-04 -0.1653E-05
    -22.221 -0.1785E-03 -0.2158E-04
    -22.109 -0.1039E-02 -0.1375E-03
    -21.998 -0.1955E-02 -0.3557E-03
    -21.886  0.4573E-02  0.1548E-03
    -21.775  0.2517E-01  0.2964E-02
    -21.663  0.4736E-01  0.8251E-02
    -21.551  0.6910E-01  0.1596E-01
    -21.440  0.1052E+00  0.2770E-01
    -21.328  0.1267E+00  0.4185E-01
    -21.216  0.8972E-01  0.5186E-01
    -21.105  0.2657E-01  0.5483E-01
    -20.993 -0.2898E-02  0.5450E-01
    -20.882 -0.3608E-02  0.5410E-01
    -20.770 -0.8203E-03  0.5401E-01
    -20.658 -0.8281E-04  0.5400E-01
    -20.547 -0.4190E-05  0.5400E-01
    -20.435 -0.1106E-06  0.5400E-01
    -20.323 -0.1550E-08  0.5400E-01
    -20.212 -0.1160E-10  0.5400E-01
    -20.100 -0.4662E-13  0.5400E-01
    -19.989 -0.9946E-16  0.5400E-01
    -19.877  0.0000E+00  0.5400E-01
    -19.765  0.0000E+00  0.5400E-01
    -19.654  0.0000E+00  0.5400E-01
    -19.542  0.0000E+00  0.5400E-01
    -19.430  0.0000E+00  0.5400E-01
    -19.319  0.0000E+00  0.5400E-01
    -19.207  0.0000E+00  0.5400E-01
    -19.096  0.0000E+00  0.5400E-01
    -18.984  0.0000E+00  0.5400E-01
    -18.872  0.0000E+00  0.5400E-01
    -18.761  0.0000E+00  0.5400E-01
    -18.649  0.0000E+00  0.5400E-01
    -18.537  0.0000E+00  0.5400E-01
    -18.426  0.0000E+00  0.5400E-01
    -18.314  0.0000E+00  0.5400E-01
    -18.203  0.0000E+00  0.5400E-01
    -18.091  0.0000E+00  0.5400E-01
    -17.979  0.0000E+00  0.5400E-01
    -17.868  0.0000E+00  0.5400E-01
    -17.756  0.0000E+00  0.5400E-01
    -17.644  0.0000E+00  0.5400E-01
    -17.533  0.0000E+00  0.5400E-01
    -17.421  0.0000E+00  0.5400E-01
    -17.310  0.0000E+00  0.5400E-01
    -17.198  0.0000E+00  0.5400E-01
    -17.086  0.0000E+00  0.5400E-01
    -16.975  0.0000E+00  0.5400E-01
    -16.863  0.0000E+00  0.5400E-01
    -16.752  0.0000E+00  0.5400E-01
    -16.640  0.0000E+00  0.5400E-01
    -16.528  0.0000E+00  0.5400E-01
    -16.417  0.0000E+00  0.5400E-01
    -16.305  0.0000E+00  0.5400E-01
    -16.193  0.0000E+00  0.5400E-01
    -16.082  0.0000E+00  0.5400E-01
    -15.970  0.0000E+00  0.5400E-01
    -15.859  0.0000E+00  0.5400E-01
    -15.747  0.0000E+00  0.5400E-01
    -15.635  0.0000E+00  0.5400E-01
    -15.524  0.0000E+00  0.5400E-01
    -15.412  0.0000E+00  0.5400E-01
    -15.300  0.0000E+00  0.5400E-01
    -15.189  0.0000E+00  0.5400E-01
    -15.077  0.0000E+00  0.5400E-01
    -14.966  0.0000E+00  0.5400E-01
    -14.854  0.0000E+00  0.5400E-01
    -14.742  0.0000E+00  0.5400E-01
    -14.631  0.0000E+00  0.5400E-01
    -14.519  0.0000E+00  0.5400E-01
    -14.407  0.0000E+00  0.5400E-01
    -14.296 -0.7540E-32  0.5400E-01
    -14.184 -0.6682E-28  0.5400E-01
    -14.073 -0.2977E-24  0.5400E-01
    -13.961 -0.7097E-21  0.5400E-01
    -13.849 -0.9054E-18  0.5400E-01
    -13.738 -0.5990E-15  0.5400E-01
    -13.626 -0.2169E-12  0.5400E-01
    -13.514 -0.4183E-10  0.5400E-01
    -13.403 -0.4280E-08  0.5400E-01
    -13.291 -0.2307E-06  0.5400E-01
    -13.180 -0.6471E-05  0.5400E-01
    -13.068 -0.9192E-04  0.5399E-01
    -12.956 -0.6185E-03  0.5392E-01
    -12.845 -0.1518E-02  0.5375E-01
    -12.733  0.1947E-02  0.5397E-01
    -12.621  0.1698E-01  0.5586E-01
    -12.510  0.3670E-01  0.5996E-01
    -12.398  0.4593E-01  0.6509E-01
    -12.287  0.4069E-01  0.6963E-01
    -12.175  0.2713E-01  0.7266E-01
    -12.063  0.1209E-01  0.7401E-01
    -11.952  0.1610E-02  0.7419E-01
    -11.840 -0.1095E-02  0.7406E-01
    -11.728 -0.4885E-03  0.7401E-01
    -11.617 -0.7613E-04  0.7400E-01
    -11.505 -0.5502E-05  0.7400E-01
    -11.394 -0.1982E-06  0.7400E-01
    -11.282 -0.3670E-08  0.7400E-01
    -11.170 -0.1738E-09  0.7400E-01
    -11.059 -0.1094E-07  0.7400E-01
    -10.947 -0.4471E-06  0.7400E-01
    -10.835 -0.9215E-05  0.7400E-01
    -10.724 -0.9078E-04  0.7399E-01
    -10.612 -0.3612E-03  0.7395E-01
    -10.501 -0.3139E-04  0.7394E-01
    -10.389  0.3184E-02  0.7430E-01
    -10.277  0.7572E-02  0.7515E-01
    -10.166  0.8615E-02  0.7611E-01
    -10.054  0.8612E-02  0.7707E-01
     -9.942  0.6715E-02  0.7782E-01
     -9.831  0.1614E-02  0.7800E-01
     -9.719 -0.1551E-02  0.7783E-01
     -9.608  0.1867E-02  0.7803E-01
     -9.496  0.1606E-01  0.7983E-01
     -9.384  0.3159E-01  0.8335E-01
     -9.273  0.3191E-01  0.8691E-01
     -9.161  0.2030E-01  0.8918E-01
     -9.050  0.7877E-02  0.9006E-01
     -8.938  0.6247E-03  0.9013E-01
     -8.826 -0.8044E-03  0.9004E-01
     -8.715 -0.3083E-03  0.9001E-01
     -8.603 -0.4535E-04  0.9000E-01
     -8.491 -0.3181E-05  0.9000E-01
     -8.380 -0.1128E-06  0.9000E-01
     -8.268 -0.2070E-08  0.9000E-01
     -8.157 -0.1990E-10  0.9000E-01
     -8.045 -0.1008E-12  0.9000E-01
     -7.933 -0.2705E-15  0.9000E-01
     -7.822  0.0000E+00  0.9000E-01
     -7.710  0.0000E+00  0.9000E-01
     -7.598  0.0000E+00  0.9000E-01
     -7.487  0.0000E+00  0.9000E-01
     -7.375  0.0000E+00  0.9000E-01
     -7.264  0.0000E+00  0.9000E-01
     -7.152  0.0000E+00  0.9000E-01
     -7.040  0.0000E+00  0.9000E-01
     -6.929  0.0000E+00  0.9000E-01
     -6.817  0.0000E+00  0.9000E-01
     -6.705  0.0000E+00  0.9000E-01
     -6.594  0.0000E+00  0.9000E-01
     -6.482  0.0000E+00  0.9000E-01
     -6.371  0.0000E+00  0.9000E-01
     -6.259  0.0000E+00  0.9000E-01
     -6.147  0.0000E+00  0.9000E-01
     -6.036  0.0000E+00  0.9000E-01
     -5.924  0.0000E+00  0.9000E-01
     -5.812  0.0000E+00  0.9000E-01
     -5.701  0.0000E+00  0.9000E-01
     -5.589  0.0000E+00  0.9000E-01
     -5.478  0.0000E+00  0.9000E-01
     -5.366  0.0000E+00  0.9000E-01
     -5.254  0.0000E+00  0.9000E-01
     -5.143  0.0000E+00  0.9000E-01
     -5.031 -0.1525E-29  0.9000E-01
     -4.919 -0.8692E-26  0.9000E-01
     -4.808 -0.2642E-22  0.9000E-01
     -4.696 -0.4279E-19  0.9000E-01
     -4.585 -0.3588E-16  0.9000E-01
     -4.473 -0.1629E-13  0.9000E-01
     -4.361 -0.3917E-11  0.9000E-01
     -4.250 -0.4953E-09  0.9000E-01
     -4.138 -0.3267E-07  0.9000E-01
     -4.026 -0.1108E-05  0.9000E-01
     -3.915 -0.1875E-04  0.9000E-01
     -3.803 -0.1473E-03  0.8998E-01
     -3.692 -0.4089E-03  0.8994E-01
     -3.580  0.5677E-03  0.9000E-01
     -3.468  0.4695E-02  0.9052E-01
     -3.357  0.7722E-02  0.9139E-01
     -3.245  0.6196E-02  0.9208E-01
     -3.133  0.6664E-02  0.9282E-01
     -3.022  0.7479E-02  0.9366E-01
     -2.910  0.3498E-02  0.9405E-01
     -2.799  0.6245E-04  0.9405E-01
     -2.687 -0.3661E-03  0.9401E-01
     -2.575 -0.9648E-04  0.9400E-01
     -2.464 -0.1007E-04  0.9400E-01
     -2.352 -0.5008E-06  0.9400E-01
     -2.241 -0.2462E-07  0.9400E-01
     -2.129 -0.4864E-06  0.9400E-01
     -2.017 -0.9891E-05  0.9400E-01
     -1.906 -0.9692E-04  0.9399E-01
     -1.794 -0.3984E-03  0.9394E-01
     -1.682 -0.2259E-03  0.9392E-01
     -1.571  0.2662E-02  0.9422E-01
     -1.459  0.8410E-02  0.9515E-01
     -1.348  0.1597E-01  0.9694E-01
     -1.236  0.2254E-01  0.9945E-01
     -1.124  0.1755E-01  0.1014E+00
     -1.013  0.6322E-02  0.1021E+00
     -0.901  0.6943E-02  0.1029E+00
     -0.789  0.1426E-01  0.1045E+00
     -0.678  0.1118E-01  0.1057E+00
     -0.566  0.2263E-02  0.1060E+00
     -0.455  0.1698E-02  0.1062E+00
     -0.343  0.1053E-01  0.1073E+00
     -0.231  0.2014E-01  0.1096E+00
     -0.120  0.2590E-01  0.1125E+00
     -0.008  0.2709E-01  0.1155E+00
      0.104  0.2255E-01  0.1180E+00
      0.215  0.1681E-01  0.1199E+00
      0.327  0.1869E-01  0.1220E+00
      0.438  0.2357E-01  0.1246E+00
      0.550  0.2218E-01  0.1271E+00
      0.662  0.2198E-01  0.1296E+00
      0.773  0.2573E-01  0.1324E+00
      0.885  0.2378E-01  0.1351E+00
      0.997  0.1574E-01  0.1368E+00
      1.108  0.8493E-02  0.1378E+00
      1.220  0.2713E-02  0.1381E+00
      1.331 -0.2381E-03  0.1381E+00
      1.443 -0.4101E-03  0.1380E+00
      1.555 -0.1001E-03  0.1380E+00
      1.666 -0.1027E-04  0.1380E+00
      1.778 -0.5089E-06  0.1380E+00
      1.890 -0.1275E-07  0.1380E+00
      2.001 -0.1651E-09  0.1380E+00
      2.113 -0.1119E-11  0.1380E+00
      2.224 -0.1626E-12  0.1380E+00
      2.336 -0.2950E-10  0.1380E+00
      2.448 -0.2877E-08  0.1380E+00
      2.559 -0.1457E-06  0.1380E+00
      2.671 -0.3755E-05  0.1380E+00
      2.783 -0.4732E-04  0.1380E+00
      2.894 -0.2599E-03  0.1380E+00
      3.006 -0.3150E-03  0.1379E+00
      3.117  0.1970E-02  0.1382E+00
      3.229  0.6811E-02  0.1389E+00
      3.341  0.7484E-02  0.1397E+00
      3.452  0.2825E-02  0.1401E+00
      3.564 -0.1507E-03  0.1400E+00
      3.676 -0.3188E-03  0.1400E+00
      3.787 -0.7023E-04  0.1400E+00
      3.899 -0.7510E-05  0.1400E+00
      4.010 -0.1853E-04  0.1400E+00
      4.122 -0.1446E-03  0.1400E+00
      4.234 -0.4057E-03  0.1399E+00
      4.345  0.5720E-03  0.1400E+00
      4.457  0.4848E-02  0.1405E+00
      4.569  0.8108E-02  0.1414E+00
      4.680  0.4924E-02  0.1420E+00
      4.792  0.6003E-03  0.1421E+00
      4.903 -0.5032E-03  0.1420E+00
      5.015 -0.5132E-03  0.1419E+00
      5.127  0.5763E-04  0.1420E+00
      5.238  0.3590E-02  0.1424E+00
      5.350  0.7584E-02  0.1432E+00
      5.461  0.5510E-02  0.1438E+00
      5.573  0.2643E-02  0.1441E+00
      5.685  0.7383E-02  0.1449E+00
      5.796  0.1538E-01  0.1467E+00
      5.908  0.1817E-01  0.1487E+00
      6.020  0.1456E-01  0.1503E+00
      6.131  0.1124E-01  0.1516E+00
      6.243  0.1060E-01  0.1527E+00
      6.354  0.8411E-02  0.1537E+00
      6.466  0.3095E-02  0.1540E+00
      6.578 -0.9629E-03  0.1539E+00
      6.689 -0.6273E-03  0.1539E+00
      6.801  0.8088E-02  0.1548E+00
      6.913  0.2381E-01  0.1574E+00
      7.024  0.2794E-01  0.1605E+00
      7.136  0.1358E-01  0.1620E+00
      7.247  0.4419E-03  0.1621E+00
      7.359 -0.1391E-02  0.1619E+00
      7.471  0.5276E-02  0.1625E+00
      7.582  0.1608E-01  0.1643E+00
      7.694  0.1981E-01  0.1665E+00
      7.806  0.1185E-01  0.1679E+00
      7.917  0.2467E-02  0.1681E+00
      8.029 -0.6874E-03  0.1681E+00
      8.140 -0.4345E-03  0.1680E+00
      8.252 -0.8018E-04  0.1680E+00
      8.364 -0.6785E-05  0.1680E+00
      8.475 -0.2868E-06  0.1680E+00
      8.587 -0.6245E-08  0.1680E+00
      8.699 -0.7104E-10  0.1680E+00
      8.810 -0.4252E-12  0.1680E+00
      8.922 -0.1345E-14  0.1680E+00
      9.033 -0.3978E-17  0.1680E+00
      9.145  0.0000E+00  0.1680E+00
      9.257  0.0000E+00  0.1680E+00
      9.368  0.0000E+00  0.1680E+00
      9.480  0.0000E+00  0.1680E+00
      9.592  0.0000E+00  0.1680E+00
      9.703  0.0000E+00  0.1680E+00
