       N       E                     dE             d eps       ncg     rms          rms(c)
DAV:   1     0.145026904747E+04    0.14503E+04   -0.62803E+04   168   0.166E+03
DAV:   2     0.171398840985E+03   -0.12789E+04   -0.12420E+04   168   0.458E+02
DAV:   3    -0.529264843913E+02   -0.22433E+03   -0.21904E+03   198   0.196E+02
DAV:   4    -0.705741299702E+02   -0.17648E+02   -0.17495E+02   192   0.493E+01
DAV:   5    -0.714521556797E+02   -0.87803E+00   -0.87475E+00   237   0.115E+01    0.140E+01
RMM:   6    -0.670480571618E+02    0.44041E+01   -0.82462E+00   190   0.697E+00    0.888E+00
RMM:   7    -0.669548986473E+02    0.93159E-01   -0.59653E+00   203   0.501E+00    0.625E+00
RMM:   8    -0.667883852081E+02    0.16651E+00   -0.67798E-01   212   0.263E+00    0.405E+00
RMM:   9    -0.668980923377E+02   -0.10971E+00   -0.62405E-01   201   0.212E+00    0.216E+00
RMM:  10    -0.667869739427E+02    0.11112E+00   -0.75071E-02   200   0.114E+00    0.121E+00
RMM:  11    -0.667704253347E+02    0.16549E-01   -0.36736E-02   206   0.577E-01    0.702E-01
RMM:  12    -0.667723307928E+02   -0.19055E-02   -0.20805E-02   233   0.391E-01    0.396E-01
RMM:  13    -0.667775831150E+02   -0.52523E-02   -0.62522E-03   179   0.274E-01    0.273E-01
RMM:  14    -0.667765693188E+02    0.10138E-02   -0.23833E-03   205   0.177E-01    0.105E-01
RMM:  15    -0.667764570195E+02    0.11230E-03   -0.74393E-04   241   0.934E-02    0.116E-01
RMM:  16    -0.667765027590E+02   -0.45740E-04   -0.16586E-04   233   0.388E-02    0.100E-01
RMM:  17    -0.667765315302E+02   -0.28771E-04   -0.50423E-05   180   0.201E-02    0.940E-02
RMM:  18    -0.667765662250E+02   -0.34695E-04   -0.35980E-05   150   0.184E-02    0.760E-02
RMM:  19    -0.667765594097E+02    0.68153E-05   -0.54549E-05   179   0.182E-02    0.571E-02
RMM:  20    -0.667765595159E+02   -0.10613E-06   -0.51992E-06   157   0.768E-03
   1 F= -.66776560E+02 E0= -.66780666E+02  d E =-.667766E+02
       N       E                     dE             d eps       ncg     rms          rms(c)
DAV:   1    -0.667765592624E+02    0.14727E-06   -0.11416E-06   114   0.466E-03    0.442E-02
RMM:   2    -0.667765567857E+02    0.24767E-05   -0.89946E-06   146   0.783E-03    0.256E-02
RMM:   3    -0.667765582916E+02   -0.15059E-05   -0.79141E-06   153   0.606E-03    0.954E-03
RMM:   4    -0.667765576910E+02    0.60059E-06   -0.20227E-06   132   0.419E-03
   2 F= -.66776558E+02 E0= -.66780671E+02  d E =0.182482E-05
       N       E                     dE             d eps       ncg     rms          rms(c)
DAV:   1    -0.667765571699E+02    0.11217E-05   -0.28598E-06   111   0.382E-03    0.348E-03
RMM:   2    -0.667765569550E+02    0.21491E-06   -0.24715E-07    94   0.170E-03
   3 F= -.66776557E+02 E0= -.66780680E+02  d E =0.736056E-06
       N       E                     dE             d eps       ncg     rms          rms(c)
DAV:   1    -0.667765569130E+02    0.25689E-06   -0.67308E-07   129   0.172E-03    0.163E-03
RMM:   2    -0.667765569251E+02   -0.12058E-07   -0.72838E-08    58   0.979E-04
   4 F= -.66776557E+02 E0= -.66780680E+02  d E =0.299224E-07
       N       E                     dE             d eps       ncg     rms          rms(c)
DAV:   1    -0.667765568628E+02    0.50159E-07   -0.54460E-07   120   0.126E-03    0.645E-04
RMM:   2    -0.667765568641E+02   -0.12733E-08   -0.68784E-09    19   0.568E-04
   5 F= -.66776557E+02 E0= -.66780684E+02  d E =0.609434E-07
       N       E                     dE             d eps       ncg     rms          rms(c)
DAV:   1    -0.667765568696E+02   -0.67885E-08   -0.43960E-08   111   0.587E-04    0.396E-04
RMM:   2    -0.667765568740E+02   -0.43492E-08   -0.19943E-09    16   0.436E-04
   6 F= -.66776557E+02 E0= -.66780683E+02  d E =-.986438E-08
       N       E                     dE             d eps       ncg     rms          rms(c)
DAV:   1    -0.667765568708E+02   -0.11696E-08   -0.34774E-08    93   0.475E-04    0.188E-04
RMM:   2    -0.667765568717E+02   -0.90404E-09    0.00000E+00    10   0.213E-04
   7 F= -.66776557E+02 E0= -.66780684E+02  d E =0.227556E-08
       N       E                     dE             d eps       ncg     rms          rms(c)
DAV:   1    -0.667765568729E+02   -0.20573E-08   -0.26877E-09    93   0.221E-04    0.145E-04
RMM:   2    -0.667765568708E+02    0.20318E-08    0.15648-210     9   0.152E-04
   8 F= -.66776557E+02 E0= -.66780684E+02  d E =0.878572E-09
       N       E                     dE             d eps       ncg     rms          rms(c)
DAV:   1    -0.667765568705E+02    0.23992E-08   -0.26290E-09    93   0.163E-04    0.103E-04
RMM:   2    -0.667765568696E+02    0.82582E-09    0.00000E+00    10   0.107E-04
   9 F= -.66776557E+02 E0= -.66780684E+02  d E =0.119326E-08
       N       E                     dE             d eps       ncg     rms          rms(c)
DAV:   1    -0.667765568692E+02    0.12515E-08   -0.83834E-10    93   0.115E-04    0.715E-05
RMM:   2    -0.667765568689E+02    0.35288E-09    0.00000E+00     7   0.901E-05
  10 F= -.66776557E+02 E0= -.66780684E+02  d E =0.778527E-09
       N       E                     dE             d eps       ncg     rms          rms(c)
DAV:   1    -0.667765568694E+02   -0.22374E-09   -0.66914E-10    93   0.955E-05    0.488E-05
RMM:   2    -0.667765568685E+02    0.91495E-09    0.00000E+00     9   0.654E-05
  11 F= -.66776557E+02 E0= -.66780684E+02  d E =0.338332E-09
       N       E                     dE             d eps       ncg     rms          rms(c)
DAV:   1    -0.667765568681E+02    0.13242E-08   -0.34481E-10    93   0.691E-05    0.377E-05
RMM:   2    -0.667765568683E+02   -0.19827E-09    0.00000E+00     6   0.528E-05
  12 F= -.66776557E+02 E0= -.66780684E+02  d E =0.211003E-09
       N       E                     dE             d eps       ncg     rms          rms(c)
DAV:   1    -0.667765568684E+02   -0.32196E-09   -0.10977E-10    93   0.557E-05    0.268E-05
RMM:   2    -0.667765568682E+02    0.19645E-09    0.00000E+00     6   0.385E-05
  13 F= -.66776557E+02 E0= -.66780684E+02  d E =0.727596E-10
       N       E                     dE             d eps       ncg     rms          rms(c)
DAV:   1    -0.667765568680E+02    0.47294E-09   -0.10592E-10    93   0.408E-05    0.251E-05
RMM:   2    -0.667765568680E+02   -0.76398E-10    0.00000E+00     6   0.320E-05
  14 F= -.66776557E+02 E0= -.66780684E+02  d E =0.200089E-09
       N       E                     dE             d eps       ncg     rms          rms(c)
DAV:   1    -0.667765568677E+02    0.25466E-09    0.80497E-11    93   0.341E-05    0.165E-05
RMM:   2    -0.667765568680E+02   -0.35106E-09    0.00000E+00     6   0.240E-05
  15 F= -.66776557E+02 E0= -.66780684E+02  d E =-.200089E-10
       N       E                     dE             d eps       ncg     rms          rms(c)
DAV:   1    -0.667765568679E+02   -0.17280E-09    0.34269E-11    93   0.253E-05    0.144E-05
RMM:   2    -0.667765568678E+02    0.74579E-10    0.00000E+00     6   0.195E-05
  16 F= -.66776557E+02 E0= -.66780684E+02  d E =0.252840E-09
       N       E                     dE             d eps       ncg     rms          rms(c)
DAV:   1    -0.667765568678E+02    0.32742E-10    0.13078E-12    93   0.207E-05    0.103E-05
RMM:   2    -0.667765568679E+02   -0.14552E-10    0.00000E+00     6   0.151E-05
  17 F= -.66776557E+02 E0= -.66780684E+02  d E =-.563887E-10
       N       E                     dE             d eps       ncg     rms          rms(c)
DAV:   1    -0.667765568679E+02   -0.85493E-10    0.60763E-11    93   0.161E-05    0.869E-06
RMM:   2    -0.667765568678E+02    0.17280E-09    0.00000E+00     6   0.124E-05
  18 F= -.66776557E+02 E0= -.66780684E+02  d E =0.101863E-09
       N       E                     dE             d eps       ncg     rms          rms(c)
DAV:   1    -0.667765568678E+02    0.10550E-09   -0.11747E-10    93   0.132E-05    0.622E-06
RMM:   2    -0.667765568678E+02    0.12733E-10    0.00000E+00     6   0.975E-06
  19 F= -.66776557E+02 E0= -.66780684E+02  d E =-.545697E-10
       N       E                     dE             d eps       ncg     rms          rms(c)
DAV:   1    -0.667765568676E+02    0.17099E-09   -0.49876E-11    93   0.104E-05    0.486E-06
RMM:   2    -0.667765568677E+02   -0.78217E-10    0.00000E+00     6   0.785E-06
  20 F= -.66776557E+02 E0= -.66780684E+02  d E =0.800355E-10
       N       E                     dE             d eps       ncg     rms          rms(c)
DAV:   1    -0.667765568676E+02    0.20009E-10   -0.93797E-12    93   0.829E-06    0.391E-06
RMM:   2    -0.667765568677E+02   -0.58208E-10    0.00000E+00     6   0.653E-06
  21 F= -.66776557E+02 E0= -.66780684E+02  d E =0.400178E-10
       N       E                     dE             d eps       ncg     rms          rms(c)
DAV:   1    -0.667765568677E+02   -0.10186E-09    0.91646E-11    93   0.689E-06    0.281E-06
RMM:   2    -0.667765568676E+02    0.14552E-09    0.00000E+00     5   0.492E-06
  22 F= -.66776557E+02 E0= -.66780684E+02  d E =0.101863E-09
       N       E                     dE             d eps       ncg     rms          rms(c)
DAV:   1    -0.667765568679E+02   -0.18736E-09   -0.14104E-11    93   0.518E-06    0.239E-06
RMM:   2    -0.667765568677E+02    0.22737E-09    0.00000E+00     5   0.413E-06
  23 F= -.66776557E+02 E0= -.66780684E+02  d E =-.105501E-09
       N       E                     dE             d eps       ncg     rms          rms(c)
DAV:   1    -0.667765568672E+02    0.68940E-09   -0.50132E-11    93   0.435E-06    0.170E-06
RMM:   2    -0.667765568678E+02   -0.55297E-09    0.00000E+00     5   0.311E-06
  24 F= -.66776557E+02 E0= -.66780684E+02  d E =-.909495E-10
       N       E                     dE             d eps       ncg     rms          rms(c)
DAV:   1    -0.667765568676E+02   -0.39290E-09    0.14510E-11    93   0.327E-06    0.160E-06
RMM:   2    -0.667765568676E+02   -0.27285E-10    0.00000E+00     5   0.257E-06
  25 F= -.66776557E+02 E0= -.66780684E+02  d E =0.132786E-09
       N       E                     dE             d eps       ncg     rms          rms(c)
DAV:   1    -0.667765568681E+02   -0.50204E-09   -0.26474E-12    93   0.273E-06    0.105E-06
RMM:   2    -0.667765568678E+02    0.36562E-09    0.00000E+00     4   0.200E-06
  26 F= -.66776557E+02 E0= -.66780684E+02  d E =-.109139E-09
       N       E                     dE             d eps       ncg     rms          rms(c)
DAV:   1    -0.667765568679E+02    0.23465E-09   -0.29478E-11    93   0.211E-06    0.806E-07
RMM:   2    -0.667765568676E+02    0.28558E-09    0.00000E+00     4   0.163E-06
  27 F= -.66776557E+02 E0= -.66780684E+02  d E =0.154614E-09
       N       E                     dE             d eps       ncg     rms          rms(c)
DAV:   1    -0.667765568671E+02    0.81127E-09    0.41091E-11    93   0.172E-06    0.597E-07
RMM:   2    -0.667765568678E+02   -0.69667E-09    0.00000E+00     3   0.133E-06
  28 F= -.66776557E+02 E0= -.66780684E+02  d E =-.170985E-09
       N       E                     dE             d eps       ncg     rms          rms(c)
DAV:   1    -0.667765568675E+02   -0.42928E-09    0.22037E-11    93   0.140E-06    0.453E-07
RMM:   2    -0.667765568677E+02   -0.15098E-09    0.00000E+00     3   0.104E-06
  29 F= -.66776557E+02 E0= -.66780684E+02  d E =0.116415E-09
       N       E                     dE             d eps       ncg     rms          rms(c)
DAV:   1    -0.667765568677E+02   -0.23283E-09    0.32491E-11    93   0.109E-06    0.429E-07
RMM:   2    -0.667765568677E+02   -0.36380E-11    0.00000E+00     3   0.858E-07
  30 F= -.66776557E+02 E0= -.66780684E+02  d E =-.854925E-10
       N       E                     dE             d eps       ncg     rms          rms(c)
DAV:   1    -0.667765568676E+02    0.12369E-09    0.26172E-11    93   0.902E-07    0.283E-07
RMM:   2    -0.667765568676E+02   -0.90949E-11    0.00000E+00     3   0.664E-07
  31 F= -.66776557E+02 E0= -.66780684E+02  d E =0.118234E-09
       N       E                     dE             d eps       ncg     rms          rms(c)
DAV:   1    -0.667765568676E+02   -0.21828E-10    0.61655E-12    93   0.695E-07    0.216E-07
RMM:   2    -0.667765568676E+02    0.16371E-10    0.00000E+00     3   0.541E-07
  32 F= -.66776557E+02 E0= -.66780684E+02  d E =0.363798E-11
       N       E                     dE             d eps       ncg     rms          rms(c)
DAV:   1    -0.667765568674E+02    0.27649E-09    0.70548E-11    93   0.565E-07    0.168E-07
RMM:   2    -0.667765568676E+02   -0.23829E-09    0.00000E+00     3   0.433E-07
  33 F= -.66776557E+02 E0= -.66780684E+02  d E =0.218279E-10
       N       E                     dE             d eps       ncg     rms          rms(c)
DAV:   1    -0.667765568676E+02   -0.26739E-09    0.41785E-12    90   0.454E-07    0.125E-07
RMM:   2    -0.667765568676E+02    0.29104E-10    0.00000E+00     2   0.350E-07
  34 F= -.66776557E+02 E0= -.66780684E+02  d E =0.000000E+00
       N       E                     dE             d eps       ncg     rms          rms(c)
DAV:   1    -0.667765568673E+02    0.33469E-09    0.37957E-11    93   0.365E-07    0.102E-07
RMM:   2    -0.667765568677E+02   -0.37289E-09    0.00000E+00     2   0.283E-07
  35 F= -.66776557E+02 E0= -.66780684E+02  d E =-.673026E-10
       N       E                     dE             d eps       ncg     rms          rms(c)
DAV:   1    -0.667765568674E+02   -0.90949E-10    0.33399E-11    93   0.296E-07    0.800E-08
RMM:   2    -0.667765568676E+02   -0.18190E-09    0.00000E+00     2   0.229E-07
  36 F= -.66776557E+02 E0= -.66780684E+02  d E =0.100044E-09
       N       E                     dE             d eps       ncg     rms          rms(c)
DAV:   1    -0.667765568675E+02   -0.12005E-09   -0.24540E-11    93   0.239E-07    0.645E-08
RMM:   2    -0.667765568676E+02   -0.11096E-09    0.00000E+00     2   0.184E-07
  37 F= -.66776557E+02 E0= -.66780684E+02  d E =-.491127E-10
       N       E                     dE             d eps       ncg     rms          rms(c)
DAV:   1    -0.667765568682E+02   -0.69122E-09   -0.86885E-12    93   0.192E-07    0.510E-08
RMM:   2    -0.667765568677E+02    0.54024E-09    0.00000E+00     2   0.151E-07
  38 F= -.66776557E+02 E0= -.66780684E+02  d E =-.400178E-10
       N       E                     dE             d eps       ncg     rms          rms(c)
DAV:   1    -0.667765568684E+02   -0.20373E-09   -0.36713E-11    93   0.157E-07    0.404E-08
RMM:   2    -0.667765568677E+02    0.65484E-09    0.00000E+00     2   0.119E-07
  39 F= -.66776557E+02 E0= -.66780684E+02  d E =-.891305E-10
       N       E                     dE             d eps       ncg     rms          rms(c)
DAV:   1    -0.667765568674E+02    0.97680E-09    0.48176E-11    93   0.124E-07    0.388E-08
RMM:   2    -0.667765568676E+02   -0.18917E-09    0.00000E+00     2   0.981E-08
  40 F= -.66776557E+02 E0= -.66780684E+02  d E =0.132786E-09
       N       E                     dE             d eps       ncg     rms          rms(c)
DAV:   1    -0.667765568677E+02   -0.22919E-09    0.75397E-12    93   0.103E-07    0.264E-08
RMM:   2    -0.667765568677E+02   -0.70941E-10    0.00000E+00     2   0.760E-08
  41 F= -.66776557E+02 E0= -.66780684E+02  d E =-.110958E-09
       N       E                     dE             d eps       ncg     rms          rms(c)
DAV:   1    -0.667765568681E+02   -0.45657E-09    0.40842E-12    93   0.795E-08    0.190E-08
RMM:   2    -0.667765568677E+02    0.43292E-09    0.00000E+00     2   0.622E-08
  42 F= -.66776557E+02 E0= -.66780684E+02  d E =0.472937E-10
       N       E                     dE             d eps       ncg     rms          rms(c)
DAV:   1    -0.667765568669E+02    0.12169E-08   -0.28404E-11    87   0.647E-08    0.160E-08
RMM:   2    -0.667765568677E+02   -0.76216E-09    0.00000E+00     2   0.502E-08
  43 F= -.66776557E+02 E0= -.66780684E+02  d E =0.218279E-10
       N       E                     dE             d eps       ncg     rms          rms(c)
DAV:   1    -0.667765568680E+02   -0.11169E-08   -0.28045E-11    93   0.525E-08    0.115E-08
RMM:   2    -0.667765568677E+02    0.25830E-09    0.00000E+00     2   0.397E-08
  44 F= -.66776557E+02 E0= -.66780684E+02  d E =-.964064E-10
       N       E                     dE             d eps       ncg     rms          rms(c)
DAV:   1    -0.667765568675E+02    0.49295E-09    0.25962E-12    90   0.413E-08    0.989E-09
RMM:   2    -0.667765568677E+02   -0.18008E-09    0.00000E+00     2   0.327E-08
  45 F= -.66776557E+02 E0= -.66780684E+02  d E =0.545697E-10
       N       E                     dE             d eps       ncg     rms          rms(c)
DAV:   1    -0.667765568677E+02   -0.14006E-09   -0.53324E-11    93   0.341E-08    0.727E-09
RMM:   2    -0.667765568677E+02   -0.36380E-11    0.00000E+00     2   0.259E-08
  46 F= -.66776557E+02 E0= -.66780684E+02  d E =0.363798E-10
       N       E                     dE             d eps       ncg     rms          rms(c)
DAV:   1    -0.667765568674E+02    0.28740E-09   -0.10013E-11    90   0.270E-08    0.627E-09
RMM:   2    -0.667765568676E+02   -0.27467E-09    0.00000E+00     2   0.211E-08
  47 F= -.66776557E+02 E0= -.66780684E+02  d E =0.163709E-10
       N       E                     dE             d eps       ncg     rms          rms(c)
DAV:   1    -0.667765568676E+02   -0.25830E-09   -0.22921E-11    93   0.221E-08    0.469E-09
RMM:   2    -0.667765568676E+02    0.74579E-10    0.00000E+00     2   0.171E-08
  48 F= -.66776557E+02 E0= -.66780684E+02  d E =0.909495E-10
       N       E                     dE             d eps       ncg     rms          rms(c)
DAV:   1    -0.667765568678E+02   -0.14006E-09   -0.38903E-12    90   0.178E-08    0.391E-09
RMM:   2    -0.667765568676E+02    0.17644E-09    0.00000E+00     2   0.137E-08
  49 F= -.66776557E+02 E0= -.66780684E+02  d E =-.381988E-10
       N       E                     dE             d eps       ncg     rms          rms(c)
DAV:   1    -0.667765568677E+02    0.72760E-10   -0.59116E-11    93   0.144E-08    0.345E-09
RMM:   2    -0.667765568677E+02   -0.54570E-11    0.00000E+00     2   0.113E-08
  50 F= -.66776557E+02 E0= -.66780684E+02  d E =-.109139E-09
       N       E                     dE             d eps       ncg     rms          rms(c)
DAV:   1    -0.667765568676E+02    0.54570E-10    0.80586E-12    93   0.118E-08    0.257E-09
RMM:   2    -0.667765568676E+02    0.52751E-10    0.00000E+00     2   0.890E-09
  51 F= -.66776557E+02 E0= -.66780684E+02  d E =0.112777E-09
       N       E                     dE             d eps       ncg     rms          rms(c)
DAV:   1    -0.667765568680E+02   -0.34379E-09    0.17361E-12    87   0.935E-09    0.184E-09
RMM:   2    -0.667765568677E+02    0.29650E-09    0.00000E+00     2   0.735E-09
  52 F= -.66776557E+02 E0= -.66780684E+02  d E =-.100044E-09
       N       E                     dE             d eps       ncg     rms          rms(c)
DAV:   1    -0.667765568669E+02    0.11059E-08   -0.11993E-11    84   0.764E-09    0.165E-09
RMM:   2    -0.667765568676E+02   -0.67848E-09    0.00000E+00     1   0.584E-09
  53 F= -.66776557E+02 E0= -.66780684E+02  d E =0.130967E-09
       N       E                     dE             d eps       ncg     rms          rms(c)
DAV:   1    -0.667765568673E+02   -0.45475E-09   -0.36040E-11    84   0.614E-09    0.115E-09
RMM:   2    -0.667765568676E+02   -0.22010E-09    0.00000E+00     1   0.479E-09
  54 F= -.66776557E+02 E0= -.66780684E+02  d E =0.363798E-11
       N       E                     dE             d eps       ncg     rms          rms(c)
DAV:   1    -0.667765568670E+02    0.33469E-09   -0.80507E-11    84   0.499E-09    0.104E-09
RMM:   2    -0.667765568676E+02   -0.57116E-09    0.00000E+00     1   0.382E-09
  55 F= -.66776557E+02 E0= -.66780684E+02  d E =-.163709E-10
       N       E                     dE             d eps       ncg     rms          rms(c)
DAV:   1    -0.667765568678E+02   -0.78944E-09   -0.27430E-12    84   0.402E-09    0.767E-10
RMM:   2    -0.667765568676E+02    0.15461E-09    0.00000E+00     1   0.315E-09
  56 F= -.66776557E+02 E0= -.66780684E+02  d E =-.636646E-10
       N       E                     dE             d eps       ncg     rms          rms(c)
DAV:   1    -0.667765568672E+02    0.55661E-09   -0.29943E-11    84   0.327E-09    0.663E-10
RMM:   2    -0.667765568676E+02   -0.37107E-09    0.00000E+00     1   0.252E-09
  57 F= -.66776557E+02 E0= -.66780684E+02  d E =0.309228E-10
       N       E                     dE             d eps       ncg     rms          rms(c)
DAV:   1    -0.667765568681E+02   -0.90040E-09   -0.64334E-11    84   0.262E-09    0.579E-10
RMM:   2    -0.667765568676E+02    0.48385E-09    0.00000E+00     1   0.209E-09
  58 F= -.66776557E+02 E0= -.66780684E+02  d E =-.454747E-10
       N       E                     dE             d eps       ncg     rms          rms(c)
DAV:   1    -0.667765568681E+02    0.78217E-10   -0.45564E-12    84   0.219E-09    0.460E-10
RMM:   2    -0.667765568676E+02    0.44383E-09    0.00000E+00     1   0.167E-09
  59 F= -.66776557E+02 E0= -.66780684E+02  d E =0.381988E-10
       N       E                     dE             d eps       ncg     rms          rms(c)
DAV:   1    -0.667765568683E+02   -0.21828E-09    0.15972E-11    84   0.172E-09    0.338E-10
RMM:   2    -0.667765568676E+02    0.66029E-09    0.00000E+00     1   0.135E-09
  60 F= -.66776557E+02 E0= -.66780684E+02  d E =-.181899E-11
       N       E                     dE             d eps       ncg     rms          rms(c)
DAV:   1    -0.667765568676E+02    0.68212E-09   -0.41944E-11    84   0.139E-09    0.375E-10
RMM:   2    -0.667765568676E+02   -0.40018E-10    0.00000E+00     1   0.111E-09
  61 F= -.66776557E+02 E0= -.66780684E+02  d E =-.181899E-10
       N       E                     dE             d eps       ncg     rms          rms(c)
DAV:   1    -0.667765568670E+02    0.63301E-09   -0.83007E-12    84   0.116E-09    0.440E-10
RMM:   2    -0.667765568677E+02   -0.74760E-09    0.00000E+00     1   0.958E-10
  62 F= -.66776557E+02 E0= -.66780684E+02  d E =-.745786E-10
       N       E                     dE             d eps       ncg     rms          rms(c)
DAV:   1    -0.667765568676E+02   -0.63119E-09    0.56444E-11    84   0.100E-09    0.350E-10
RMM:   2    -0.667765568676E+02   -0.43656E-10    0.00000E+00     1   0.773E-10
  63 F= -.66776557E+02 E0= -.66780684E+02  d E =0.727596E-10
       N       E                     dE             d eps       ncg     rms          rms(c)
DAV:   1    -0.667765568677E+02   -0.11823E-09   -0.56010E-11    84   0.791E-10    0.319E-10
RMM:   2    -0.667765568677E+02   -0.30923E-10    0.00000E+00     1   0.640E-10
  64 F= -.66776557E+02 E0= -.66780684E+02  d E =-.105501E-09
       N       E                     dE             d eps       ncg     rms          rms(c)
DAV:   1    -0.667765568673E+02    0.42019E-09    0.47370E-11    84   0.687E-10    0.411E-10
RMM:   2    -0.667765568676E+02   -0.28012E-09    0.00000E+00     1   0.559E-10
  65 F= -.66776557E+02 E0= -.66780684E+02  d E =0.170985E-09
       N       E                     dE             d eps       ncg     rms          rms(c)
DAV:   1    -0.667765568673E+02   -0.47294E-10   -0.44238E-11    84   0.599E-10    0.379E-10
RMM:   2    -0.667765568676E+02   -0.29468E-09    0.00000E+00     1   0.503E-10
  66 F= -.66776557E+02 E0= -.66780684E+02  d E =-.618456E-10
       N       E                     dE             d eps       ncg     rms          rms(c)
DAV:   1    -0.667765568676E+02   -0.23283E-09    0.77698E-13    84   0.536E-10    0.262E-10
RMM:   2    -0.667765568676E+02   -0.45475E-10    0.00000E+00     1   0.382E-10
  67 F= -.66776557E+02 E0= -.66780684E+02  d E =0.163709E-10
       N       E                     dE             d eps       ncg     rms          rms(c)
DAV:   1    -0.667765568685E+02   -0.96406E-09   -0.34631E-11    84   0.403E-10    0.173E-10
RMM:   2    -0.667765568677E+02    0.85493E-09    0.00000E+00     1   0.326E-10
  68 F= -.66776557E+02 E0= -.66780684E+02  d E =-.636646E-10
       N       E                     dE             d eps       ncg     rms          rms(c)
DAV:   1    -0.667765568675E+02    0.99681E-09   -0.74218E-11    84   0.331E-10    0.226E-10
RMM:   2    -0.667765568677E+02   -0.16553E-09    0.00000E+00     1   0.313E-10
  69 F= -.66776557E+02 E0= -.66780684E+02  d E =-.236469E-10
       N       E                     dE             d eps       ncg     rms          rms(c)
DAV:   1    -0.667765568677E+02   -0.12005E-09   -0.16452E-11    84   0.316E-10    0.200E-10
RMM:   2    -0.667765568676E+02    0.30923E-10    0.00000E+00     1   0.256E-10
  70 F= -.66776557E+02 E0= -.66780684E+02  d E =0.763976E-10
       N       E                     dE             d eps       ncg     rms          rms(c)
DAV:   1    -0.667765568680E+02   -0.30377E-09   -0.18983E-11    84   0.272E-10    0.163E-10
RMM:   2    -0.667765568676E+02    0.33651E-09    0.00000E+00     1   0.224E-10
  71 F= -.66776557E+02 E0= -.66780684E+02  d E =0.181899E-11
       N       E                     dE             d eps       ncg     rms          rms(c)
DAV:   1    -0.667765568676E+02    0.35288E-09   -0.62265E-11    84   0.218E-10    0.200E-10
RMM:   2    -0.667765568675E+02    0.76398E-10    0.00000E+00     1   0.172E-10
  72 F= -.66776557E+02 E0= -.66780684E+02  d E =0.927685E-10
       N       E                     dE             d eps       ncg     rms          rms(c)
DAV:   1    -0.667765568671E+02    0.46020E-09   -0.21500E-11    84   0.202E-10    0.149E-10
RMM:   2    -0.667765568677E+02   -0.56934E-09    0.00000E+00     1   0.164E-10
  73 F= -.66776557E+02 E0= -.66780684E+02  d E =-.185537E-09
       N       E                     dE             d eps       ncg     rms          rms(c)
DAV:   1    -0.667765568678E+02   -0.62755E-09   -0.35490E-11    84   0.193E-10    0.317E-10
RMM:   2    -0.667765568676E+02    0.14916E-09    0.00000E+00     1   0.223E-10
  74 F= -.66776557E+02 E0= -.66780684E+02  d E =0.909495E-10
       N       E                     dE             d eps       ncg     rms          rms(c)
DAV:   1    -0.667765568675E+02    0.24920E-09   -0.15435E-12    84   0.221E-10    0.283E-10
RMM:   2    -0.667765568676E+02   -0.36380E-10    0.00000E+00     1   0.177E-10
  75 F= -.66776557E+02 E0= -.66780684E+02  d E =0.636646E-10
       N       E                     dE             d eps       ncg     rms          rms(c)
DAV:   1    -0.667765568670E+02    0.48203E-09   -0.69530E-12    84   0.239E-10    0.162E-10
RMM:   2    -0.667765568677E+02   -0.66393E-09    0.00000E+00     1   0.146E-10
  76 F= -.66776557E+02 E0= -.66780684E+02  d E =-.145519E-09
       N       E                     dE             d eps       ncg     rms          rms(c)
DAV:   1    -0.667765568673E+02   -0.29650E-09   -0.97458E-11    84   0.181E-10    0.390E-10
RMM:   2    -0.667765568676E+02   -0.25648E-09    0.00000E+00     1   0.200E-10
  77 F= -.66776557E+02 E0= -.66780684E+02  d E =0.110958E-09
       N       E                     dE             d eps       ncg     rms          rms(c)
DAV:   1    -0.667765568673E+02    0.70941E-10    0.16534E-11    84   0.256E-10    0.243E-10
RMM:   2    -0.667765568676E+02   -0.33288E-09    0.00000E+00     1   0.207E-10
  78 F= -.66776557E+02 E0= -.66780684E+02  d E =-.545697E-11
       N       E                     dE             d eps       ncg     rms          rms(c)
DAV:   1    -0.667765568676E+02   -0.29468E-09   -0.38013E-11    84   0.224E-10    0.281E-10
RMM:   2    -0.667765568676E+02   -0.47294E-10    0.00000E+00     1   0.174E-10
  79 F= -.66776557E+02 E0= -.66780684E+02  d E =-.909495E-11
       N       E                     dE             d eps       ncg     rms          rms(c)
DAV:   1    -0.667765568679E+02   -0.34561E-09   -0.32920E-11    84   0.178E-10    0.239E-10
RMM:   2    -0.667765568676E+02    0.31469E-09    0.00000E+00     1   0.168E-10
  80 F= -.66776557E+02 E0= -.66780684E+02  d E =0.163709E-10
       N       E                     dE             d eps       ncg     rms          rms(c)
DAV:   1    -0.667765568671E+02    0.78035E-09   -0.10794E-11    84   0.192E-10    0.112E-10
RMM:   2    -0.667765568677E+02   -0.52933E-09    0.00000E+00     1   0.122E-10
  81 F= -.66776557E+02 E0= -.66780684E+02  d E =-.636646E-10
       N       E                     dE             d eps       ncg     rms          rms(c)
DAV:   1    -0.667765568676E+02   -0.48021E-09   -0.53265E-11    84   0.124E-10    0.179E-10
RMM:   2    -0.667765568676E+02   -0.16371E-10    0.00000E+00     1   0.133E-10
  82 F= -.66776557E+02 E0= -.66780684E+02  d E =0.327418E-10
       N       E                     dE             d eps       ncg     rms          rms(c)
DAV:   1    -0.667765568677E+02   -0.94587E-10    0.15832E-11    84   0.128E-10    0.271E-10
RMM:   2    -0.667765568677E+02   -0.20009E-10    0.00000E+00     1   0.156E-10
  83 F= -.66776557E+02 E0= -.66780684E+02  d E =-.982254E-10
       N       E                     dE             d eps       ncg     rms          rms(c)
DAV:   1    -0.667765568680E+02   -0.26921E-09   -0.33015E-11    84   0.161E-10    0.210E-10
RMM:   2    -0.667765568677E+02    0.27285E-09    0.00000E+00     1   0.147E-10
  84 F= -.66776557E+02 E0= -.66780684E+02  d E =0.236469E-10
       N       E                     dE             d eps       ncg     rms          rms(c)
DAV:   1    -0.667765568681E+02   -0.15825E-09   -0.31036E-11    84   0.155E-10    0.282E-10
RMM:   2    -0.667765568677E+02    0.42201E-09    0.00000E+00     1   0.149E-10
  85 F= -.66776557E+02 E0= -.66780684E+02  d E =-.909495E-11
       N       E                     dE             d eps       ncg     rms          rms(c)
DAV:   1    -0.667765568682E+02   -0.76398E-10    0.12730E-11    84   0.159E-10    0.116E-10
RMM:   2    -0.667765568677E+02    0.54388E-09    0.00000E+00     1   0.111E-10
  86 F= -.66776557E+02 E0= -.66780684E+02  d E =0.454747E-10
       N       E                     dE             d eps       ncg     rms          rms(c)
DAV:   1    -0.667765568674E+02    0.79672E-09   -0.45552E-11    84   0.104E-10    0.308E-10
RMM:   2    -0.667765568676E+02   -0.22010E-09    0.00000E+00     1   0.166E-10
  87 F= -.66776557E+02 E0= -.66780684E+02  d E =0.327418E-10
       N       E                     dE             d eps       ncg     rms          rms(c)
DAV:   1    -0.667765568673E+02    0.70941E-10   -0.43831E-11    84   0.181E-10    0.152E-10
RMM:   2    -0.667765568676E+02   -0.28376E-09    0.00000E+00     1   0.110E-10
  88 F= -.66776557E+02 E0= -.66780684E+02  d E =0.727596E-11
       N       E                     dE             d eps       ncg     rms          rms(c)
DAV:   1    -0.667765568671E+02    0.23283E-09    0.27505E-12    84   0.142E-10    0.199E-10
RMM:   2    -0.667765568677E+02   -0.58026E-09    0.00000E+00     1   0.128E-10
  89 F= -.66776557E+02 E0= -.66780684E+02  d E =-.636646E-10
       N       E                     dE             d eps       ncg     rms          rms(c)
DAV:   1    -0.667765568675E+02   -0.38017E-09   -0.15322E-11    84   0.129E-10    0.321E-10
RMM:   2    -0.667765568677E+02   -0.19827E-09    0.00000E+00     1   0.177E-10
  90 F= -.66776557E+02 E0= -.66780684E+02  d E =0.181899E-11
       N       E                     dE             d eps       ncg     rms          rms(c)
DAV:   1    -0.667765568676E+02   -0.83674E-10   -0.51905E-11    84   0.187E-10    0.194E-10
RMM:   2    -0.667765568677E+02   -0.15280E-09    0.00000E+00     1   0.189E-10
  91 F= -.66776557E+02 E0= -.66780684E+02  d E =-.381988E-10
       N       E                     dE             d eps       ncg     rms          rms(c)
DAV:   1    -0.667765568673E+02    0.26012E-09   -0.92743E-11    84   0.148E-10    0.216E-10
RMM:   2    -0.667765568677E+02   -0.35834E-09    0.00000E+00     1   0.112E-10
  92 F= -.66776557E+02 E0= -.66780684E+02  d E =0.545697E-10
       N       E                     dE             d eps       ncg     rms          rms(c)
DAV:   1    -0.667765568678E+02   -0.46748E-09    0.22748E-11    84   0.139E-10    0.182E-10
RMM:   2    -0.667765568675E+02    0.25284E-09    0.00000E+00     1   0.106E-10
  93 F= -.66776557E+02 E0= -.66780684E+02  d E =0.143700E-09
       N       E                     dE             d eps       ncg     rms          rms(c)
DAV:   1    -0.667765568676E+02    0.21100E-09   -0.24444E-11    84   0.142E-10    0.135E-10
RMM:   2    -0.667765568676E+02   -0.21828E-10    0.00000E+00     1   0.123E-10
  94 F= -.66776557E+02 E0= -.66780684E+02  d E =-.636646E-10
       N       E                     dE             d eps       ncg     rms          rms(c)
DAV:   1    -0.667765568674E+02    0.13642E-09    0.86084E-12    84   0.136E-10    0.186E-10
RMM:   2    -0.667765568677E+02   -0.25102E-09    0.00000E+00     1   0.120E-10
  95 F= -.66776557E+02 E0= -.66780684E+02  d E =-.927685E-10
       N       E                     dE             d eps       ncg     rms          rms(c)
DAV:   1    -0.667765568675E+02   -0.94587E-10   -0.16695E-11    84   0.157E-10    0.335E-10
RMM:   2    -0.667765568676E+02   -0.90949E-10    0.00000E+00     1   0.191E-10
  96 F= -.66776557E+02 E0= -.66780684E+02  d E =0.654836E-10
       N       E                     dE             d eps       ncg     rms          rms(c)
DAV:   1    -0.667765568678E+02   -0.23647E-09    0.12636E-11    84   0.234E-10    0.171E-10
RMM:   2    -0.667765568676E+02    0.17826E-09    0.00000E+00     1   0.133E-10
  97 F= -.66776557E+02 E0= -.66780684E+02  d E =0.327418E-10
       N       E                     dE             d eps       ncg     rms          rms(c)
DAV:   1    -0.667765568675E+02    0.20918E-09   -0.45558E-11    84   0.161E-10    0.143E-10
RMM:   2    -0.667765568676E+02   -0.76398E-10    0.00000E+00     1   0.120E-10
  98 F= -.66776557E+02 E0= -.66780684E+02  d E =-.454747E-10
       N       E                     dE             d eps       ncg     rms          rms(c)
DAV:   1    -0.667765568668E+02    0.70577E-09    0.10794E-11    84   0.135E-10    0.309E-10
RMM:   2    -0.667765568675E+02   -0.69303E-09    0.00000E+00     1   0.166E-10
  99 F= -.66776557E+02 E0= -.66780684E+02  d E =0.891305E-10
       N       E                     dE             d eps       ncg     rms          rms(c)
DAV:   1    -0.667765568675E+02   -0.66575E-09   -0.94687E-12    84   0.200E-10    0.182E-10
RMM:   2    -0.667765568676E+02   -0.96406E-10    0.00000E+00     1   0.149E-10
 100 F= -.66776557E+02 E0= -.66780684E+02  d E =-.691216E-10
       N       E                     dE             d eps       ncg     rms          rms(c)
DAV:   1    -0.667765568684E+02   -0.93860E-09   -0.17924E-11    84   0.152E-10    0.221E-10
RMM:   2    -0.667765568676E+02    0.81673E-09    0.00000E+00     1   0.145E-10
 101 F= -.66776557E+02 E0= -.66780684E+02  d E =-.254659E-10
       N       E                     dE             d eps       ncg     rms          rms(c)
DAV:   1    -0.667765568680E+02    0.42201E-09   -0.76071E-11    84   0.166E-10    0.193E-10
RMM:   2    -0.667765568675E+02    0.47658E-09    0.00000E+00     1   0.155E-10
 102 F= -.66776557E+02 E0= -.66780684E+02  d E =0.818545E-10
       N       E                     dE             d eps       ncg     rms          rms(c)
DAV:   1    -0.667765568672E+02    0.84947E-09   -0.49313E-12    84   0.189E-10    0.159E-10
RMM:   2    -0.667765568676E+02   -0.42201E-09    0.00000E+00     1   0.155E-10
 103 F= -.66776557E+02 E0= -.66780684E+02  d E =-.491127E-10
       N       E                     dE             d eps       ncg     rms          rms(c)
DAV:   1    -0.667765568678E+02   -0.58935E-09   -0.36102E-11    84   0.159E-10    0.129E-10
RMM:   2    -0.667765568677E+02    0.78217E-10    0.00000E+00     1   0.124E-10
 104 F= -.66776557E+02 E0= -.66780684E+02  d E =-.891305E-10
       N       E                     dE             d eps       ncg     rms          rms(c)
DAV:   1    -0.667765568670E+02    0.71486E-09   -0.39596E-11    84   0.138E-10    0.286E-10
RMM:   2    -0.667765568675E+02   -0.47476E-09    0.00000E+00     1   0.216E-10
 105 F= -.66776557E+02 E0= -.66780684E+02  d E =0.161890E-09
       N       E                     dE             d eps       ncg     rms          rms(c)
DAV:   1    -0.667765568678E+02   -0.78398E-09   -0.60123E-11    84   0.239E-10    0.337E-10
RMM:   2    -0.667765568675E+02    0.30923E-09    0.00000E+00     1   0.265E-10
 106 F= -.66776557E+02 E0= -.66780684E+02  d E =0.000000E+00
       N       E                     dE             d eps       ncg     rms          rms(c)
DAV:   1    -0.667765568679E+02   -0.74579E-10   -0.15855E-11    84   0.269E-10    0.133E-10
RMM:   2    -0.667765568677E+02    0.25284E-09    0.00000E+00     1   0.130E-10
 107 F= -.66776557E+02 E0= -.66780684E+02  d E =-.130967E-09
       N       E                     dE             d eps       ncg     rms          rms(c)
DAV:   1    -0.667765568676E+02    0.27103E-09   -0.84160E-11    84   0.147E-10    0.174E-10
RMM:   2    -0.667765568676E+02    0.21828E-10    0.00000E+00     1   0.135E-10
 108 F= -.66776557E+02 E0= -.66780684E+02  d E =0.400178E-10
       N       E                     dE             d eps       ncg     rms          rms(c)
DAV:   1    -0.667765568674E+02    0.20191E-09    0.89143E-12    84   0.149E-10    0.150E-10
RMM:   2    -0.667765568677E+02   -0.25648E-09    0.00000E+00     1   0.134E-10
 109 F= -.66776557E+02 E0= -.66780684E+02  d E =-.763976E-10
       N       E                     dE             d eps       ncg     rms          rms(c)
DAV:   1    -0.667765568676E+02   -0.17462E-09   -0.64774E-11    84   0.128E-10    0.167E-10
RMM:   2    -0.667765568677E+02   -0.10914E-09    0.00000E+00     1   0.112E-10
 110 F= -.66776557E+02 E0= -.66780684E+02  d E =-.272848E-10
       N       E                     dE             d eps       ncg     rms          rms(c)
DAV:   1    -0.667765568677E+02   -0.13279E-09   -0.42128E-12    84   0.132E-10    0.257E-10
RMM:   2    -0.667765568676E+02    0.10914E-09    0.00000E+00     1   0.157E-10
 111 F= -.66776557E+02 E0= -.66780684E+02  d E =0.854925E-10
       N       E                     dE             d eps       ncg     rms          rms(c)
DAV:   1    -0.667765568675E+02    0.27831E-09    0.16670E-11    84   0.188E-10    0.432E-10
RMM:   2    -0.667765568676E+02   -0.16553E-09    0.00000E+00     1   0.227E-10
 112 F= -.66776557E+02 E0= -.66780684E+02  d E =0.363798E-11
       N       E                     dE             d eps       ncg     rms          rms(c)
DAV:   1    -0.667765568674E+02    0.76398E-10    0.43728E-11    84   0.277E-10    0.369E-10
RMM:   2    -0.667765568676E+02   -0.16735E-09    0.00000E+00     1   0.208E-10
 113 F= -.66776557E+02 E0= -.66780684E+02  d E =0.745786E-10
       N       E                     dE             d eps       ncg     rms          rms(c)
DAV:   1    -0.667765568674E+02    0.25466E-10    0.78519E-12    84   0.249E-10    0.267E-10
RMM:   2    -0.667765568677E+02   -0.29468E-09    0.00000E+00     1   0.209E-10
 114 F= -.66776557E+02 E0= -.66780684E+02  d E =-.101863E-09
       N       E                     dE             d eps       ncg     rms          rms(c)
DAV:   1    -0.667765568669E+02    0.48385E-09   -0.71478E-11    84   0.216E-10    0.289E-10
RMM:   2    -0.667765568677E+02   -0.85493E-09    0.00000E+00     1   0.229E-10
 115 F= -.66776557E+02 E0= -.66780684E+02  d E =-.763976E-10
       N       E                     dE             d eps       ncg     rms          rms(c)
DAV:   1    -0.667765568670E+02   -0.15461E-09   -0.23294E-11    84   0.258E-10    0.170E-10
RMM:   2    -0.667765568677E+02   -0.64392E-09    0.00000E+00     1   0.152E-10
 116 F= -.66776557E+02 E0= -.66780684E+02  d E =0.563887E-10
       N       E                     dE             d eps       ncg     rms          rms(c)
DAV:   1    -0.667765568675E+02   -0.48203E-09   -0.36482E-12    84   0.144E-10    0.281E-10
RMM:   2    -0.667765568676E+02   -0.11278E-09    0.00000E+00     1   0.174E-10
 117 F= -.66776557E+02 E0= -.66780684E+02  d E =0.491127E-10
       N       E                     dE             d eps       ncg     rms          rms(c)
DAV:   1    -0.667765568677E+02   -0.16371E-09   -0.11709E-11    84   0.185E-10    0.167E-10
RMM:   2    -0.667765568676E+02    0.65484E-10    0.00000E+00     1   0.112E-10
 118 F= -.66776557E+02 E0= -.66780684E+02  d E =0.145519E-10
       N       E                     dE             d eps       ncg     rms          rms(c)
DAV:   1    -0.667765568673E+02    0.34197E-09   -0.55254E-11    84   0.143E-10    0.171E-10
RMM:   2    -0.667765568675E+02   -0.18190E-09    0.00000E+00     1   0.118E-10
 119 F= -.66776557E+02 E0= -.66780684E+02  d E =0.945874E-10
       N       E                     dE             d eps       ncg     rms          rms(c)
DAV:   1    -0.667765568676E+02   -0.30195E-09   -0.51169E-11    84   0.138E-10    0.315E-10
RMM:   2    -0.667765568676E+02    0.47294E-10    0.00000E+00     1   0.185E-10
 120 F= -.66776557E+02 E0= -.66780684E+02  d E =-.727596E-10
       N       E                     dE             d eps       ncg     rms          rms(c)
DAV:   1    -0.667765568679E+02   -0.31105E-09   -0.22994E-11    84   0.159E-10    0.294E-10
RMM:   2    -0.667765568675E+02    0.42201E-09    0.00000E+00     1   0.182E-10
 121 F= -.66776557E+02 E0= -.66780684E+02  d E =0.636646E-10
       N       E                     dE             d eps       ncg     rms          rms(c)
DAV:   1    -0.667765568684E+02   -0.42928E-09   -0.22164E-11    84   0.230E-10    0.178E-10
RMM:   2    -0.667765568676E+02    0.72941E-09    0.00000E+00     1   0.132E-10
 122 F= -.66776557E+02 E0= -.66780684E+02  d E =-.121872E-09
       N       E                     dE             d eps       ncg     rms          rms(c)
DAV:   1    -0.667765568675E+02    0.92587E-09   -0.72218E-11    84   0.163E-10    0.182E-10
RMM:   2    -0.667765568676E+02   -0.12551E-09    0.00000E+00     1   0.106E-10
 123 F= -.66776557E+02 E0= -.66780684E+02  d E =0.709406E-10
       N       E                     dE             d eps       ncg     rms          rms(c)
DAV:   1    -0.667765568678E+02   -0.32560E-09   -0.10581E-11    84   0.139E-10    0.241E-10
RMM:   2    -0.667765568675E+02    0.23465E-09    0.00000E+00     1   0.111E-10
 124 F= -.66776557E+02 E0= -.66780684E+02  d E =0.345608E-10
       N       E                     dE             d eps       ncg     rms          rms(c)
DAV:   1    -0.667765568680E+02   -0.19281E-09   -0.25975E-11    84   0.144E-10    0.208E-10
RMM:   2    -0.667765568676E+02    0.37289E-09    0.00000E+00     1   0.148E-10
 125 F= -.66776557E+02 E0= -.66780684E+02  d E =-.545697E-10
       N       E                     dE             d eps       ncg     rms          rms(c)
DAV:   1    -0.667765568678E+02    0.14370E-09    0.14058E-11    84   0.143E-10    0.141E-10
RMM:   2    -0.667765568676E+02    0.19645E-09    0.00000E+00     1   0.113E-10
 126 F= -.66776557E+02 E0= -.66780684E+02  d E =-.327418E-10
       N       E                     dE             d eps       ncg     rms          rms(c)
DAV:   1    -0.667765568677E+02    0.12915E-09   -0.42300E-11    84   0.135E-10    0.154E-10
RMM:   2    -0.667765568676E+02    0.58208E-10    0.00000E+00     1   0.117E-10
 127 F= -.66776557E+02 E0= -.66780684E+02  d E =-.909495E-11
       N       E                     dE             d eps       ncg     rms          rms(c)
DAV:   1    -0.667765568672E+02    0.51477E-09   -0.95322E-12    84   0.127E-10    0.146E-10
RMM:   2    -0.667765568676E+02   -0.42201E-09    0.00000E+00     1   0.108E-10
 128 F= -.66776557E+02 E0= -.66780684E+02  d E =0.345608E-10
       N       E                     dE             d eps       ncg     rms          rms(c)
DAV:   1    -0.667765568675E+02   -0.30741E-09   -0.14006E-11    84   0.122E-10    0.265E-10
RMM:   2    -0.667765568676E+02   -0.15825E-09    0.00000E+00     1   0.178E-10
 129 F= -.66776557E+02 E0= -.66780684E+02  d E =-.436557E-10
       N       E                     dE             d eps       ncg     rms          rms(c)
DAV:   1    -0.667765568682E+02   -0.67303E-09   -0.84094E-11    84   0.176E-10    0.175E-10
RMM:   2    -0.667765568677E+02    0.48021E-09    0.00000E+00     1   0.104E-10
 130 F= -.66776557E+02 E0= -.66780684E+02  d E =-.345608E-10
       N       E                     dE             d eps       ncg     rms          rms(c)
DAV:   1    -0.667765568680E+02    0.15098E-09    0.52054E-12    84   0.120E-10    0.185E-10
RMM:   2    -0.667765568676E+02    0.41291E-09    0.00000E+00     1   0.141E-10
 131 F= -.66776557E+02 E0= -.66780684E+02  d E =0.836735E-10
       N       E                     dE             d eps       ncg     rms          rms(c)
DAV:   1    -0.667765568671E+02    0.86584E-09   -0.20721E-11    84   0.157E-10    0.281E-10
RMM:   2    -0.667765568675E+02   -0.39472E-09    0.00000E+00     1   0.146E-10
 132 F= -.66776557E+02 E0= -.66780684E+02  d E =0.582077E-10
       N       E                     dE             d eps       ncg     rms          rms(c)
DAV:   1    -0.667765568676E+02   -0.40927E-09    0.21974E-11    84   0.176E-10    0.224E-10
RMM:   2    -0.667765568676E+02    0.36380E-11    0.00000E+00     1   0.156E-10
 133 F= -.66776557E+02 E0= -.66780684E+02  d E =-.109139E-10
       N       E                     dE             d eps       ncg     rms          rms(c)
DAV:   1    -0.667765568674E+02    0.15643E-09   -0.16594E-11    84   0.149E-10    0.131E-10
RMM:   2    -0.667765568677E+02   -0.26921E-09    0.00000E+00     1   0.114E-10
 134 F= -.66776557E+02 E0= -.66780684E+02  d E =-.116415E-09
       N       E                     dE             d eps       ncg     rms          rms(c)
DAV:   1    -0.667765568675E+02   -0.58208E-10   -0.32725E-11    84   0.110E-10    0.170E-10
RMM:   2    -0.667765568676E+02   -0.14916E-09    0.00000E+00     1   0.122E-10
 135 F= -.66776557E+02 E0= -.66780684E+02  d E =0.618456E-10
       N       E                     dE             d eps       ncg     rms          rms(c)
DAV:   1    -0.667765568673E+02    0.17280E-09   -0.81958E-11    84   0.133E-10    0.205E-10
RMM:   2    -0.667765568676E+02   -0.34743E-09    0.00000E+00     1   0.109E-10
 136 F= -.66776557E+02 E0= -.66780684E+02  d E =-.254659E-10
       N       E                     dE             d eps       ncg     rms          rms(c)
DAV:   1    -0.667765568679E+02   -0.64392E-09    0.83853E-13    84   0.134E-10    0.157E-10
RMM:   2    -0.667765568676E+02    0.31469E-09    0.00000E+00     1   0.121E-10
 137 F= -.66776557E+02 E0= -.66780684E+02  d E =0.181899E-10
       N       E                     dE             d eps       ncg     rms          rms(c)
DAV:   1    -0.667765568683E+02   -0.32924E-09   -0.96308E-12    84   0.115E-10    0.213E-10
RMM:   2    -0.667765568676E+02    0.62028E-09    0.00000E+00     1   0.124E-10
 138 F= -.66776557E+02 E0= -.66780684E+02  d E =-.236469E-10
       N       E                     dE             d eps       ncg     rms          rms(c)
DAV:   1    -0.667765568671E+02    0.11696E-08   -0.63336E-11    84   0.154E-10    0.215E-10
RMM:   2    -0.667765568677E+02   -0.60390E-09    0.00000E+00     0   0.132E-10
 139 F= -.66776557E+02 E0= -.66780684E+02  d E =-.545697E-10
       N       E                     dE             d eps       ncg     rms          rms(c)
DAV:   1    -0.667765568679E+02   -0.85129E-09   -0.45821E-11    84   0.160E-10    0.270E-10
RMM:   2    -0.667765568676E+02    0.34379E-09    0.00000E+00     0   0.161E-10
 140 F= -.66776557E+02 E0= -.66780684E+02  d E =0.964064E-10
       N       E                     dE             d eps       ncg     rms          rms(c)
DAV:   1    -0.667765568676E+02    0.30559E-09    0.27164E-11    84   0.165E-10    0.220E-10
RMM:   2    -0.667765568677E+02   -0.41837E-10    0.00000E+00     1   0.148E-10
 141 F= -.66776557E+02 E0= -.66780684E+02  d E =-.800355E-10
       N       E                     dE             d eps       ncg     rms          rms(c)
DAV:   1    -0.667765568677E+02   -0.74579E-10   -0.26594E-11    84   0.179E-10    0.135E-10
RMM:   2    -0.667765568676E+02    0.98225E-10    0.00000E+00     1   0.150E-10
 142 F= -.66776557E+02 E0= -.66780684E+02  d E =0.654836E-10
       N       E                     dE             d eps       ncg     rms          rms(c)
DAV:   1    -0.667765568675E+02    0.21828E-09   -0.23554E-11    84   0.146E-10    0.131E-10
RMM:   2    -0.667765568676E+02   -0.94587E-10    0.00000E+00     0   0.117E-10
 143 F= -.66776557E+02 E0= -.66780684E+02  d E =0.254659E-10
       N       E                     dE             d eps       ncg     rms          rms(c)
DAV:   1    -0.667765568673E+02    0.21464E-09    0.71423E-12    84   0.103E-10    0.184E-10
RMM:   2    -0.667765568677E+02   -0.37653E-09    0.00000E+00     0   0.132E-10
 144 F= -.66776557E+02 E0= -.66780684E+02  d E =-.673026E-10
       N       E                     dE             d eps       ncg     rms          rms(c)
DAV:   1    -0.667765568679E+02   -0.63483E-09   -0.28511E-11    84   0.165E-10    0.161E-10
RMM:   2    -0.667765568677E+02    0.22374E-09    0.00000E+00     0   0.128E-10
 145 F= -.66776557E+02 E0= -.66780684E+02  d E =-.345608E-10
       N       E                     dE             d eps       ncg     rms          rms(c)
DAV:   1    -0.667765568676E+02    0.33469E-09   -0.29188E-11    84   0.130E-10    0.267E-10
RMM:   2    -0.667765568677E+02   -0.14188E-09    0.00000E+00     0   0.145E-10
 146 F= -.66776557E+02 E0= -.66780684E+02  d E =-.309228E-10
       N       E                     dE             d eps       ncg     rms          rms(c)
DAV:   1    -0.667765568676E+02    0.18190E-10    0.37023E-12    84   0.124E-10    0.361E-10
RMM:   2    -0.667765568677E+02   -0.96406E-10    0.00000E+00     0   0.168E-10
 147 F= -.66776557E+02 E0= -.66780684E+02  d E =0.636646E-10
       N       E                     dE             d eps       ncg     rms          rms(c)
DAV:   1    -0.667765568678E+02   -0.19281E-09   -0.31732E-12    84   0.198E-10    0.261E-10
RMM:   2    -0.667765568675E+02    0.22919E-09    0.00000E+00     0   0.137E-10
 148 F= -.66776557E+02 E0= -.66780684E+02  d E =0.132786E-09
       N       E                     dE             d eps       ncg     rms          rms(c)
DAV:   1    -0.667765568674E+02    0.33106E-09   -0.46010E-11    84   0.190E-10    0.288E-10
RMM:   2    -0.667765568676E+02   -0.16189E-09    0.00000E+00     0   0.174E-10
 149 F= -.66776557E+02 E0= -.66780684E+02  d E =-.600267E-10
       N       E                     dE             d eps       ncg     rms          rms(c)
DAV:   1    -0.667765568677E+02   -0.30195E-09    0.10192E-11    84   0.201E-10    0.125E-10
RMM:   2    -0.667765568676E+02    0.10186E-09    0.00000E+00     0   0.131E-10
 150 F= -.66776557E+02 E0= -.66780684E+02  d E =-.381988E-10
       N       E                     dE             d eps       ncg     rms          rms(c)
DAV:   1    -0.667765568681E+02   -0.38926E-09   -0.26450E-11    84   0.152E-10    0.201E-10
RMM:   2    -0.667765568677E+02    0.44929E-09    0.00000E+00     0   0.114E-10
 151 F= -.66776557E+02 E0= -.66780684E+02  d E =-.418368E-10
       N       E                     dE             d eps       ncg     rms          rms(c)
DAV:   1    -0.667765568679E+02    0.25466E-09   -0.28578E-11    84   0.127E-10    0.266E-10
RMM:   2    -0.667765568677E+02    0.18190E-09    0.00000E+00     0   0.172E-10
 152 F= -.66776557E+02 E0= -.66780684E+02  d E =-.127329E-10
       N       E                     dE             d eps       ncg     rms          rms(c)
DAV:   1    -0.667765568676E+02    0.30377E-09    0.29097E-12    84   0.177E-10    0.129E-10
RMM:   2    -0.667765568676E+02   -0.80036E-10    0.00000E+00     0   0.115E-10
 153 F= -.66776557E+02 E0= -.66780684E+02  d E =0.418368E-10
       N       E                     dE             d eps       ncg     rms          rms(c)
DAV:   1    -0.667765568679E+02   -0.32742E-09   -0.47959E-11    84   0.104E-10    0.281E-10
RMM:   2    -0.667765568677E+02    0.20009E-09    0.00000E+00     0   0.175E-10
 154 F= -.66776557E+02 E0= -.66780684E+02  d E =-.472937E-10
       N       E                     dE             d eps       ncg     rms          rms(c)
DAV:   1    -0.667765568679E+02    0.54570E-11   -0.10428E-10    84   0.194E-10    0.136E-10
RMM:   2    -0.667765568677E+02    0.19281E-09    0.00000E+00     0   0.123E-10
 155 F= -.66776557E+02 E0= -.66780684E+02  d E =-.181899E-11
       N       E                     dE             d eps       ncg     rms          rms(c)
DAV:   1    -0.667765568673E+02    0.54206E-09   -0.59777E-11    84   0.130E-10    0.197E-10
RMM:   2    -0.667765568677E+02   -0.33469E-09    0.00000E+00     0   0.143E-10
 156 F= -.66776557E+02 E0= -.66780684E+02  d E =0.145519E-10
       N       E                     dE             d eps       ncg     rms          rms(c)
DAV:   1    -0.667765568678E+02   -0.43292E-09   -0.54627E-11    84   0.152E-10    0.208E-10
RMM:   2    -0.667765568677E+02    0.76398E-10    0.00000E+00     0   0.158E-10
 157 F= -.66776557E+02 E0= -.66780684E+02  d E =-.218279E-10
       N       E                     dE             d eps       ncg     rms          rms(c)
DAV:   1    -0.667765568672E+02    0.56752E-09   -0.31607E-11    84   0.148E-10    0.222E-10
RMM:   2    -0.667765568676E+02   -0.44747E-09    0.00000E+00     0   0.165E-10
 158 F= -.66776557E+02 E0= -.66780684E+02  d E =0.436557E-10
       N       E                     dE             d eps       ncg     rms          rms(c)
DAV:   1    -0.667765568677E+02   -0.46566E-09    0.95416E-12    84   0.160E-10    0.179E-10
RMM:   2    -0.667765568675E+02    0.12005E-09    0.00000E+00     0   0.170E-10
 159 F= -.66776557E+02 E0= -.66780684E+02  d E =0.101863E-09
       N       E                     dE             d eps       ncg     rms          rms(c)
DAV:   1    -0.667765568678E+02   -0.15098E-09   -0.11164E-11    84   0.165E-10    0.288E-10
RMM:   2    -0.667765568677E+02    0.12915E-09    0.00000E+00     0   0.207E-10
 160 F= -.66776557E+02 E0= -.66780684E+02  d E =-.141881E-09
       N       E                     dE             d eps       ncg     rms          rms(c)
DAV:   1    -0.667765568673E+02    0.53114E-09   -0.48582E-11    84   0.248E-10    0.200E-10
RMM:   2    -0.667765568676E+02   -0.32196E-09    0.00000E+00     0   0.221E-10
 161 F= -.66776557E+02 E0= -.66780684E+02  d E =0.800355E-10
       N       E                     dE             d eps       ncg     rms          rms(c)
DAV:   1    -0.667765568674E+02   -0.12369E-09   -0.12985E-11    84   0.235E-10    0.204E-10
RMM:   2    -0.667765568677E+02   -0.26557E-09    0.00000E+00     0   0.138E-10
 162 F= -.66776557E+02 E0= -.66780684E+02  d E =-.673026E-10
       N       E                     dE             d eps       ncg     rms          rms(c)
DAV:   1    -0.667765568682E+02   -0.74579E-09    0.26136E-11    84   0.169E-10    0.185E-10
RMM:   2    -0.667765568676E+02    0.54570E-09    0.00000E+00     0   0.148E-10
 163 F= -.66776557E+02 E0= -.66780684E+02  d E =0.654836E-10
       N       E                     dE             d eps       ncg     rms          rms(c)
DAV:   1    -0.667765568671E+02    0.10386E-08   -0.62551E-11    84   0.150E-10    0.222E-10
RMM:   2    -0.667765568676E+02   -0.50750E-09    0.00000E+00     0   0.134E-10
 164 F= -.66776557E+02 E0= -.66780684E+02  d E =-.145519E-10
       N       E                     dE             d eps       ncg     rms          rms(c)
DAV:   1    -0.667765568675E+02   -0.36198E-09   -0.51454E-11    84   0.145E-10    0.342E-10
RMM:   2    -0.667765568675E+02   -0.67303E-10    0.00000E+00     0   0.167E-10
 165 F= -.66776557E+02 E0= -.66780684E+02  d E =0.782165E-10
       N       E                     dE             d eps       ncg     rms          rms(c)
DAV:   1    -0.667765568688E+02   -0.13024E-08   -0.27267E-11    84   0.204E-10    0.182E-10
RMM:   2    -0.667765568676E+02    0.11569E-08    0.00000E+00     0   0.147E-10
 166 F= -.66776557E+02 E0= -.66780684E+02  d E =-.782165E-10
       N       E                     dE             d eps       ncg     rms          rms(c)
DAV:   1    -0.667765568675E+02    0.13169E-08   -0.95177E-12    84   0.144E-10    0.182E-10
RMM:   2    -0.667765568675E+02   -0.74579E-10    0.00000E+00     0   0.141E-10
 167 F= -.66776557E+02 E0= -.66780684E+02  d E =0.854925E-10
       N       E                     dE             d eps       ncg     rms          rms(c)
DAV:   1    -0.667765568669E+02    0.54024E-09   -0.68148E-11    84   0.175E-10    0.174E-10
RMM:   2    -0.667765568676E+02   -0.72578E-09    0.00000E+00     0   0.165E-10
 168 F= -.66776557E+02 E0= -.66780684E+02  d E =-.110958E-09
       N       E                     dE             d eps       ncg     rms          rms(c)
DAV:   1    -0.667765568678E+02   -0.86948E-09    0.12659E-11    84   0.194E-10    0.197E-10
RMM:   2    -0.667765568677E+02    0.92768E-10    0.00000E+00     0   0.190E-10
 169 F= -.66776557E+02 E0= -.66780684E+02  d E =-.509317E-10
       N       E                     dE             d eps       ncg     rms          rms(c)
DAV:   1    -0.667765568677E+02    0.13097E-09    0.35560E-11    84   0.208E-10    0.111E-10
RMM:   2    -0.667765568676E+02    0.54570E-10    0.00000E+00     0   0.109E-10
 170 F= -.66776557E+02 E0= -.66780684E+02  d E =0.927685E-10
       N       E                     dE             d eps       ncg     rms          rms(c)
DAV:   1    -0.667765568669E+02    0.79490E-09    0.14749E-11    84   0.115E-10    0.161E-10
RMM:   2    -0.667765568677E+02   -0.79308E-09    0.00000E+00     0   0.888E-11
 171 F= -.66776557E+02 E0= -.66780684E+02  d E =-.527507E-10
       N       E                     dE             d eps       ncg     rms          rms(c)
DAV:   1    -0.667765568672E+02   -0.38017E-09   -0.60315E-11    84   0.113E-10    0.178E-10
RMM:   2    -0.667765568676E+02   -0.39472E-09    0.00000E+00     0   0.918E-11
 172 F= -.66776557E+02 E0= -.66780684E+02  d E =0.181899E-10
       N       E                     dE             d eps       ncg     rms          rms(c)
DAV:   1    -0.667765568680E+02   -0.76761E-09   -0.20309E-11    84   0.109E-10    0.168E-10
RMM:   2    -0.667765568675E+02    0.46566E-09    0.00000E+00     0   0.101E-10
 173 F= -.66776557E+02 E0= -.66780684E+02  d E =0.927685E-10
       N       E                     dE             d eps       ncg     rms          rms(c)
DAV:   1    -0.667765568678E+02    0.19281E-09   -0.11275E-11    84   0.135E-10    0.180E-10
RMM:   2    -0.667765568676E+02    0.20555E-09    0.00000E+00     0   0.122E-10
 174 F= -.66776557E+02 E0= -.66780684E+02  d E =-.673026E-10
       N       E                     dE             d eps       ncg     rms          rms(c)
DAV:   1    -0.667765568672E+02    0.62209E-09   -0.14805E-12    84   0.147E-10    0.261E-10
RMM:   2    -0.667765568677E+02   -0.52387E-09    0.00000E+00     0   0.158E-10
 175 F= -.66776557E+02 E0= -.66780684E+02  d E =-.107320E-09
       N       E                     dE             d eps       ncg     rms          rms(c)
DAV:   1    -0.667765568675E+02   -0.31287E-09   -0.93351E-12    84   0.202E-10    0.238E-10
RMM:   2    -0.667765568676E+02   -0.49113E-10    0.00000E+00     0   0.170E-10
 176 F= -.66776557E+02 E0= -.66780684E+02  d E =0.161890E-09
       N       E                     dE             d eps       ncg     rms          rms(c)
DAV:   1    -0.667765568671E+02    0.38926E-09   -0.21455E-11    84   0.187E-10    0.145E-10
RMM:   2    -0.667765568676E+02   -0.49840E-09    0.00000E+00     0   0.119E-10
 177 F= -.66776557E+02 E0= -.66780684E+02  d E =-.600267E-10
       N       E                     dE             d eps       ncg     rms          rms(c)
DAV:   1    -0.667765568680E+02   -0.91131E-09   -0.34253E-11    84   0.176E-10    0.280E-10
RMM:   2    -0.667765568676E+02    0.40745E-09    0.00000E+00     0   0.170E-10
 178 F= -.66776557E+02 E0= -.66780684E+02  d E =-.545697E-11
       N       E                     dE             d eps       ncg     rms          rms(c)
DAV:   1    -0.667765568683E+02   -0.28740E-09   -0.58324E-12    84   0.190E-10    0.185E-10
RMM:   2    -0.667765568676E+02    0.76034E-09    0.00000E+00     0   0.132E-10
 179 F= -.66776557E+02 E0= -.66780684E+02  d E =0.654836E-10
       N       E                     dE             d eps       ncg     rms          rms(c)
DAV:   1    -0.667765568680E+02    0.27649E-09   -0.46589E-11    84   0.163E-10    0.202E-10
RMM:   2    -0.667765568676E+02    0.39836E-09    0.00000E+00     0   0.138E-10
 180 F= -.66776557E+02 E0= -.66780684E+02  d E =-.854925E-10
       N       E                     dE             d eps       ncg     rms          rms(c)
DAV:   1    -0.667765568673E+02    0.72396E-09   -0.39281E-11    84   0.147E-10    0.124E-10
RMM:   2    -0.667765568676E+02   -0.29831E-09    0.00000E+00     0   0.102E-10
 181 F= -.66776557E+02 E0= -.66780684E+02  d E =0.272848E-10
       N       E                     dE             d eps       ncg     rms          rms(c)
DAV:   1    -0.667765568681E+02   -0.81491E-09   -0.39859E-12    84   0.101E-10    0.127E-10
RMM:   2    -0.667765568675E+02    0.59663E-09    0.00000E+00     0   0.998E-11
 182 F= -.66776557E+02 E0= -.66780684E+02  d E =0.800355E-10
       N       E                     dE             d eps       ncg     rms          rms(c)
DAV:   1    -0.667765568681E+02    0.69122E-10   -0.30194E-11    84   0.113E-10    0.234E-10
RMM:   2    -0.667765568676E+02    0.48203E-09    0.00000E+00     0   0.171E-10
 183 F= -.66776557E+02 E0= -.66780684E+02  d E =-.454747E-10
       N       E                     dE             d eps       ncg     rms          rms(c)
DAV:   1    -0.667765568677E+02    0.33469E-09    0.16466E-11    84   0.154E-10    0.191E-10
RMM:   2    -0.667765568676E+02    0.14188E-09    0.00000E+00     0   0.150E-10
 184 F= -.66776557E+02 E0= -.66780684E+02  d E =-.545697E-11
       N       E                     dE             d eps       ncg     rms          rms(c)
DAV:   1    -0.667765568672E+02    0.56571E-09   -0.23999E-12    84   0.153E-10    0.204E-10
RMM:   2    -0.667765568676E+02   -0.43110E-09    0.00000E+00     0   0.127E-10
 185 F= -.66776557E+02 E0= -.66780684E+02  d E =-.727596E-11
       N       E                     dE             d eps       ncg     rms          rms(c)
DAV:   1    -0.667765568679E+02   -0.75124E-09   -0.55269E-11    84   0.157E-10    0.156E-10
RMM:   2    -0.667765568677E+02    0.24193E-09    0.00000E+00     0   0.139E-10
 186 F= -.66776557E+02 E0= -.66780684E+02  d E =-.782165E-10
       N       E                     dE             d eps       ncg     rms          rms(c)
DAV:   1    -0.667765568678E+02    0.10914E-09   -0.25442E-11    84   0.141E-10    0.152E-10
RMM:   2    -0.667765568676E+02    0.19827E-09    0.00000E+00     0   0.136E-10
 187 F= -.66776557E+02 E0= -.66780684E+02  d E =0.654836E-10
       N       E                     dE             d eps       ncg     rms          rms(c)
DAV:   1    -0.667765568672E+02    0.56025E-09   -0.74427E-11    84   0.164E-10    0.256E-10
RMM:   2    -0.667765568676E+02   -0.31650E-09    0.00000E+00     0   0.160E-10
 188 F= -.66776557E+02 E0= -.66780684E+02  d E =0.454747E-10
       N       E                     dE             d eps       ncg     rms          rms(c)
DAV:   1    -0.667765568680E+02   -0.74033E-09    0.60620E-12    84   0.172E-10    0.228E-10
RMM:   2    -0.667765568676E+02    0.38017E-09    0.00000E+00     0   0.185E-10
 189 F= -.66776557E+02 E0= -.66780684E+02  d E =-.436557E-10
       N       E                     dE             d eps       ncg     rms          rms(c)
DAV:   1    -0.667765568682E+02   -0.21100E-09    0.23386E-11    84   0.204E-10    0.278E-10
RMM:   2    -0.667765568676E+02    0.61664E-09    0.00000E+00     0   0.197E-10
 190 F= -.66776557E+02 E0= -.66780684E+02  d E =0.254659E-10
       N       E                     dE             d eps       ncg     rms          rms(c)
DAV:   1    -0.667765568675E+02    0.71122E-09   -0.58558E-11    84   0.193E-10    0.263E-10
RMM:   2    -0.667765568675E+02   -0.43656E-10    0.00000E+00     0   0.142E-10
 191 F= -.66776557E+02 E0= -.66780684E+02  d E =0.509317E-10
       N       E                     dE             d eps       ncg     rms          rms(c)
DAV:   1    -0.667765568671E+02    0.38017E-09    0.11665E-11    84   0.151E-10    0.138E-10
RMM:   2    -0.667765568676E+02   -0.48385E-09    0.00000E+00     0   0.113E-10
 192 F= -.66776557E+02 E0= -.66780684E+02  d E =-.600267E-10
       N       E                     dE             d eps       ncg     rms          rms(c)
DAV:   1    -0.667765568677E+02   -0.57844E-09   -0.72668E-12    84   0.126E-10    0.114E-10
RMM:   2    -0.667765568675E+02    0.17280E-09    0.00000E+00     0   0.741E-11
 193 F= -.66776557E+02 E0= -.66780684E+02  d E =0.782165E-10
       N       E                     dE             d eps       ncg     rms          rms(c)
DAV:   1    -0.667765568678E+02   -0.70941E-10   -0.56535E-11    84   0.102E-10    0.144E-10
RMM:   2    -0.667765568676E+02    0.11460E-09    0.00000E+00     0   0.118E-10
 194 F= -.66776557E+02 E0= -.66780684E+02  d E =-.129148E-09
       N       E                     dE             d eps       ncg     rms          rms(c)
DAV:   1    -0.667765568682E+02   -0.48021E-09   -0.56418E-11    84   0.135E-10    0.180E-10
RMM:   2    -0.667765568675E+02    0.70941E-09    0.00000E+00     0   0.120E-10
 195 F= -.66776557E+02 E0= -.66780684E+02  d E =0.114596E-09
       N       E                     dE             d eps       ncg     rms          rms(c)
DAV:   1    -0.667765568670E+02    0.12078E-08    0.11422E-11    84   0.163E-10    0.124E-10
RMM:   2    -0.667765568676E+02   -0.62028E-09    0.00000E+00     0   0.123E-10
 196 F= -.66776557E+02 E0= -.66780684E+02  d E =-.121872E-09
       N       E                     dE             d eps       ncg     rms          rms(c)
DAV:   1    -0.667765568680E+02   -0.10023E-08   -0.10562E-10    84   0.124E-10    0.950E-11
RMM:   2    -0.667765568677E+02    0.37289E-09    0.00000E+00     0   0.109E-10
 197 F= -.66776557E+02 E0= -.66780684E+02  d E =-.909495E-11
       N       E                     dE             d eps       ncg     rms          rms(c)
DAV:   1    -0.667765568676E+02    0.42201E-09   -0.42730E-11    84   0.114E-10    0.223E-10
RMM:   2    -0.667765568676E+02    0.00000E+00    0.00000E+00     0   0.120E-10
 198 F= -.66776557E+02 E0= -.66780684E+02  d E =0.491127E-10
       N       E                     dE             d eps       ncg     rms          rms(c)
DAV:   1    -0.667765568682E+02   -0.56389E-09   -0.70708E-11    84   0.150E-10    0.212E-10
RMM:   2    -0.667765568676E+02    0.56934E-09    0.00000E+00     0   0.142E-10
 199 F= -.66776557E+02 E0= -.66780684E+02  d E =0.545697E-11
       N       E                     dE             d eps       ncg     rms          rms(c)
DAV:   1    -0.667765568678E+02    0.40927E-09   -0.45748E-11    84   0.146E-10    0.215E-10
RMM:   2    -0.667765568676E+02    0.12187E-09    0.00000E+00     0   0.136E-10
 200 F= -.66776557E+02 E0= -.66780684E+02  d E =-.381988E-10
       N       E                     dE             d eps       ncg     rms          rms(c)
DAV:   1    -0.667765568679E+02   -0.10914E-09   -0.59862E-11    84   0.136E-10    0.108E-10
RMM:   2    -0.667765568677E+02    0.18736E-09    0.00000E+00     0   0.105E-10
 201 F= -.66776557E+02 E0= -.66780684E+02  d E =-.436557E-10
       N       E                     dE             d eps       ncg     rms          rms(c)
DAV:   1    -0.667765568670E+02    0.83128E-09    0.33915E-11    84   0.112E-10    0.238E-10
RMM:   2    -0.667765568677E+02   -0.60936E-09    0.00000E+00     0   0.138E-10
 202 F= -.66776557E+02 E0= -.66780684E+02  d E =0.345608E-10
       N       E                     dE             d eps       ncg     rms          rms(c)
DAV:   1    -0.667765568677E+02   -0.62209E-09   -0.14334E-11    84   0.135E-10    0.171E-10
RMM:   2    -0.667765568677E+02   -0.47294E-10    0.00000E+00     0   0.110E-10
 203 F= -.66776557E+02 E0= -.66780684E+02  d E =-.600267E-10
       N       E                     dE             d eps       ncg     rms          rms(c)
DAV:   1    -0.667765568675E+02    0.11460E-09   -0.42822E-12    84   0.137E-10    0.101E-10
RMM:   2    -0.667765568676E+02   -0.87311E-10    0.00000E+00     0   0.811E-11
 204 F= -.66776557E+02 E0= -.66780684E+02  d E =0.745786E-10
       N       E                     dE             d eps       ncg     rms          rms(c)
DAV:   1    -0.667765568677E+02   -0.11096E-09    0.33568E-12    84   0.103E-10    0.238E-10
RMM:   2    -0.667765568676E+02    0.20009E-10    0.00000E+00     0   0.139E-10
 205 F= -.66776557E+02 E0= -.66780684E+02  d E =-.363798E-11
       N       E                     dE             d eps       ncg     rms          rms(c)
DAV:   1    -0.667765568680E+02   -0.29104E-09   -0.66971E-11    84   0.162E-10    0.126E-10
RMM:   2    -0.667765568676E+02    0.37471E-09    0.00000E+00     0   0.114E-10
 206 F= -.66776557E+02 E0= -.66780684E+02  d E =0.636646E-10
       N       E                     dE             d eps       ncg     rms          rms(c)
DAV:   1    -0.667765568678E+02    0.14188E-09   -0.38731E-12    84   0.130E-10    0.166E-10
RMM:   2    -0.667765568676E+02    0.16189E-09    0.00000E+00     0   0.156E-10
 207 F= -.66776557E+02 E0= -.66780684E+02  d E =-.709406E-10
       N       E                     dE             d eps       ncg     rms          rms(c)
DAV:   1    -0.667765568683E+02   -0.44201E-09   -0.17974E-11    84   0.135E-10    0.297E-10
RMM:   2    -0.667765568676E+02    0.67485E-09    0.00000E+00     0   0.154E-10
 208 F= -.66776557E+02 E0= -.66780684E+02  d E =0.709406E-10
       N       E                     dE             d eps       ncg     rms          rms(c)
DAV:   1    -0.667765568675E+02    0.75488E-09   -0.67794E-11    84   0.185E-10    0.147E-10
RMM:   2    -0.667765568676E+02   -0.80036E-10    0.00000E+00     0   0.154E-10
 209 F= -.66776557E+02 E0= -.66780684E+02  d E =0.000000E+00
       N       E                     dE             d eps       ncg     rms          rms(c)
DAV:   1    -0.667765568672E+02    0.27467E-09   -0.55391E-11    84   0.151E-10    0.330E-10
RMM:   2    -0.667765568675E+02   -0.32378E-09    0.00000E+00     0   0.167E-10
 210 F= -.66776557E+02 E0= -.66780684E+02  d E =0.309228E-10
       N       E                     dE             d eps       ncg     rms          rms(c)
DAV:   1    -0.667765568679E+02   -0.67303E-09   -0.15259E-12    84   0.190E-10    0.182E-10
RMM:   2    -0.667765568677E+02    0.22192E-09    0.00000E+00     0   0.133E-10
 211 F= -.66776557E+02 E0= -.66780684E+02  d E =-.127329E-09
       N       E                     dE             d eps       ncg     rms          rms(c)
DAV:   1    -0.667765568676E+02    0.28558E-09    0.24489E-12    84   0.161E-10    0.170E-10
RMM:   2    -0.667765568676E+02   -0.30923E-10    0.00000E+00     0   0.140E-10
 212 F= -.66776557E+02 E0= -.66780684E+02  d E =0.327418E-10
       N       E                     dE             d eps       ncg     rms          rms(c)
DAV:   1    -0.667765568681E+02   -0.49113E-09   -0.42938E-11    84   0.163E-10    0.156E-10
RMM:   2    -0.667765568676E+02    0.50750E-09    0.00000E+00     0   0.130E-10
 213 F= -.66776557E+02 E0= -.66780684E+02  d E =0.472937E-10
       N       E                     dE             d eps       ncg     rms          rms(c)
DAV:   1    -0.667765568682E+02   -0.50932E-10   -0.83581E-11    84   0.144E-10    0.187E-10
RMM:   2    -0.667765568675E+02    0.62937E-09    0.00000E+00     0   0.119E-10
 214 F= -.66776557E+02 E0= -.66780684E+02  d E =0.709406E-10
       N       E                     dE             d eps       ncg     rms          rms(c)
DAV:   1    -0.667765568672E+02    0.95679E-09   -0.37156E-12    84   0.129E-10    0.334E-10
RMM:   2    -0.667765568677E+02   -0.51841E-09    0.00000E+00     0   0.159E-10
 215 F= -.66776557E+02 E0= -.66780684E+02  d E =-.190994E-09
       N       E                     dE             d eps       ncg     rms          rms(c)
DAV:   1    -0.667765568676E+02   -0.37471E-09    0.26859E-11    84   0.222E-10    0.317E-10
RMM:   2    -0.667765568675E+02    0.32742E-10    0.00000E+00     0   0.185E-10
 216 F= -.66776557E+02 E0= -.66780684E+02  d E =0.176442E-09
       N       E                     dE             d eps       ncg     rms          rms(c)
DAV:   1    -0.667765568675E+02    0.36380E-10   -0.53292E-11    84   0.245E-10    0.154E-10
RMM:   2    -0.667765568676E+02   -0.65484E-10    0.00000E+00     0   0.126E-10
 217 F= -.66776557E+02 E0= -.66780684E+02  d E =-.618456E-10
       N       E                     dE             d eps       ncg     rms          rms(c)
DAV:   1    -0.667765568668E+02    0.69485E-09   -0.57948E-11    84   0.175E-10    0.192E-10
RMM:   2    -0.667765568676E+02   -0.77125E-09    0.00000E+00     0   0.113E-10
 218 F= -.66776557E+02 E0= -.66780684E+02  d E =-.109139E-10
       N       E                     dE             d eps       ncg     rms          rms(c)
DAV:   1    -0.667765568681E+02   -0.13079E-08   -0.35385E-11    84   0.108E-10    0.160E-10
RMM:   2    -0.667765568676E+02    0.50022E-09    0.00000E+00     0   0.107E-10
 219 F= -.66776557E+02 E0= -.66780684E+02  d E =-.363798E-10
       N       E                     dE             d eps       ncg     rms          rms(c)
DAV:   1    -0.667765568673E+02    0.82946E-09   -0.19441E-11    84   0.148E-10    0.168E-10
RMM:   2    -0.667765568677E+02   -0.40563E-09    0.00000E+00     0   0.134E-10
 220 F= -.66776557E+02 E0= -.66780684E+02  d E =-.763976E-10
       N       E                     dE             d eps       ncg     rms          rms(c)
DAV:   1    -0.667765568677E+02   -0.42201E-09    0.29120E-11    84   0.145E-10    0.180E-10
RMM:   2    -0.667765568675E+02    0.20009E-09    0.00000E+00     0   0.169E-10
 221 F= -.66776557E+02 E0= -.66780684E+02  d E =0.183718E-09
       N       E                     dE             d eps       ncg     rms          rms(c)
DAV:   1    -0.667765568679E+02   -0.11823E-09    0.52983E-13    84   0.183E-10    0.167E-10
RMM:   2    -0.667765568676E+02    0.24011E-09    0.00000E+00     0   0.108E-10
 222 F= -.66776557E+02 E0= -.66780684E+02  d E =-.782165E-10
       N       E                     dE             d eps       ncg     rms          rms(c)
DAV:   1    -0.667765568678E+02    0.90949E-10   -0.34942E-11    84   0.121E-10    0.135E-10
RMM:   2    -0.667765568676E+02    0.18008E-09    0.00000E+00     0   0.893E-11
 223 F= -.66776557E+02 E0= -.66780684E+02  d E =0.309228E-10
       N       E                     dE             d eps       ncg     rms          rms(c)
DAV:   1    -0.667765568676E+02    0.14916E-09   -0.39124E-12    84   0.929E-11    0.182E-10
RMM:   2    -0.667765568676E+02   -0.18190E-11    0.00000E+00     0   0.113E-10
 224 F= -.66776557E+02 E0= -.66780684E+02  d E =-.327418E-10
       N       E                     dE             d eps       ncg     rms          rms(c)
DAV:   1    -0.667765568674E+02    0.18008E-09   -0.72844E-12    84   0.135E-10    0.265E-10
RMM:   2    -0.667765568677E+02   -0.23283E-09    0.00000E+00     0   0.120E-10
 225 F= -.66776557E+02 E0= -.66780684E+02  d E =-.509317E-10
       N       E                     dE             d eps       ncg     rms          rms(c)
DAV:   1    -0.667765568677E+02   -0.31105E-09    0.39370E-11    84   0.164E-10    0.219E-10
RMM:   2    -0.667765568675E+02    0.20009E-09    0.00000E+00     0   0.133E-10
 226 F= -.66776557E+02 E0= -.66780684E+02  d E =0.121872E-09
       N       E                     dE             d eps       ncg     rms          rms(c)
DAV:   1    -0.667765568674E+02    0.31469E-09    0.86283E-12    84   0.173E-10    0.281E-10
RMM:   2    -0.667765568675E+02   -0.10732E-09    0.00000E+00     0   0.151E-10
 227 F= -.66776557E+02 E0= -.66780684E+02  d E =0.727596E-11
       N       E                     dE             d eps       ncg     rms          rms(c)
DAV:   1    -0.667765568671E+02    0.34197E-09    0.26030E-11    84   0.163E-10    0.144E-10
RMM:   2    -0.667765568676E+02   -0.47112E-09    0.00000E+00     0   0.942E-11
 228 F= -.66776557E+02 E0= -.66780684E+02  d E =-.218279E-10
       N       E                     dE             d eps       ncg     rms          rms(c)
DAV:   1    -0.667765568683E+02   -0.12460E-08   -0.37486E-11    84   0.120E-10    0.188E-10
RMM:   2    -0.667765568676E+02    0.78398E-09    0.00000E+00     0   0.147E-10
 229 F= -.66776557E+02 E0= -.66780684E+02  d E =0.909495E-11
       N       E                     dE             d eps       ncg     rms          rms(c)
DAV:   1    -0.667765568669E+02    0.14188E-08   -0.66274E-11    84   0.154E-10    0.132E-10
RMM:   2    -0.667765568676E+02   -0.69667E-09    0.00000E+00     0   0.106E-10
 230 F= -.66776557E+02 E0= -.66780684E+02  d E =-.618456E-10
       N       E                     dE             d eps       ncg     rms          rms(c)
DAV:   1    -0.667765568676E+02   -0.70395E-09   -0.52605E-11    84   0.108E-10    0.108E-10
RMM:   2    -0.667765568676E+02    0.52751E-10    0.00000E+00     0   0.110E-10
 231 F= -.66776557E+02 E0= -.66780684E+02  d E =0.454747E-10
       N       E                     dE             d eps       ncg     rms          rms(c)
DAV:   1    -0.667765568669E+02    0.74397E-09   -0.50717E-11    84   0.114E-10    0.363E-10
RMM:   2    -0.667765568677E+02   -0.81127E-09    0.00000E+00     0   0.151E-10
 232 F= -.66776557E+02 E0= -.66780684E+02  d E =-.120053E-09
       N       E                     dE             d eps       ncg     rms          rms(c)
DAV:   1    -0.667765568675E+02   -0.61846E-09    0.25959E-11    84   0.213E-10    0.154E-10
RMM:   2    -0.667765568675E+02   -0.47294E-10    0.00000E+00     0   0.135E-10
 233 F= -.66776557E+02 E0= -.66780684E+02  d E =0.145519E-09
       N       E                     dE             d eps       ncg     rms          rms(c)
DAV:   1    -0.667765568676E+02   -0.13642E-09   -0.28455E-11    84   0.148E-10    0.168E-10
RMM:   2    -0.667765568676E+02    0.00000E+00    0.00000E+00     0   0.150E-10
 234 F= -.66776557E+02 E0= -.66780684E+02  d E =-.891305E-10
       N       E                     dE             d eps       ncg     rms          rms(c)
DAV:   1    -0.667765568671E+02    0.52205E-09    0.26856E-12    84   0.151E-10    0.436E-10
RMM:   2    -0.667765568676E+02   -0.48021E-09    0.00000E+00     0   0.203E-10
 235 F= -.66776557E+02 E0= -.66780684E+02  d E =0.418368E-10
       N       E                     dE             d eps       ncg     rms          rms(c)
DAV:   1    -0.667765568675E+02   -0.42746E-09   -0.10447E-11    84   0.242E-10    0.209E-10
RMM:   2    -0.667765568677E+02   -0.15280E-09    0.00000E+00     0   0.162E-10
 236 F= -.66776557E+02 E0= -.66780684E+02  d E =-.100044E-09
       N       E                     dE             d eps       ncg     rms          rms(c)
DAV:   1    -0.667765568674E+02    0.16735E-09   -0.84376E-11    84   0.200E-10    0.307E-10
RMM:   2    -0.667765568675E+02   -0.16189E-09    0.00000E+00     0   0.187E-10
 237 F= -.66776557E+02 E0= -.66780684E+02  d E =0.158252E-09
       N       E                     dE             d eps       ncg     rms          rms(c)
DAV:   1    -0.667765568675E+02   -0.16553E-09    0.22193E-11    84   0.241E-10    0.202E-10
RMM:   2    -0.667765568676E+02   -0.10186E-09    0.00000E+00     0   0.158E-10
 238 F= -.66776557E+02 E0= -.66780684E+02  d E =-.105501E-09
       N       E                     dE             d eps       ncg     rms          rms(c)
DAV:   1    -0.667765568683E+02   -0.77671E-09   -0.27695E-11    84   0.186E-10    0.150E-10
RMM:   2    -0.667765568676E+02    0.69485E-09    0.00000E+00     0   0.152E-10
 239 F= -.66776557E+02 E0= -.66780684E+02  d E =0.200089E-10
       N       E                     dE             d eps       ncg     rms          rms(c)
DAV:   1    -0.667765568678E+02    0.49295E-09   -0.83039E-11    84   0.146E-10    0.210E-10
RMM:   2    -0.667765568677E+02    0.12915E-09    0.00000E+00     0   0.146E-10
[...]
 939 F= -.66776557E+02 E0= -.66780684E+02  d E =-.527507E-10
       N       E                     dE             d eps       ncg     rms          rms(c)
DAV:   1    -0.667765568672E+02    0.34379E-09   -0.10672E-11    84   0.176E-10    0.277E-10
RMM:   2    -0.667765568675E+02   -0.30377E-09    0.00000E+00     0   0.178E-10
 940 F= -.66776557E+02 E0= -.66780684E+02  d E =0.964064E-10
       N       E                     dE             d eps       ncg     rms          rms(c)
DAV:   1    -0.667765568679E+02   -0.65484E-09   -0.48287E-11    84   0.213E-10    0.277E-10
RMM:   2    -0.667765568676E+02    0.25284E-09    0.00000E+00     0   0.155E-10
 941 F= -.66776557E+02 E0= -.66780684E+02  d E =-.982254E-10
       N       E                     dE             d eps       ncg     rms          rms(c)
DAV:   1    -0.667765568677E+02    0.18008E-09   -0.11140E-11    84   0.215E-10    0.226E-10
RMM:   2    -0.667765568675E+02    0.15098E-09    0.00000E+00     0   0.159E-10
 942 F= -.66776557E+02 E0= -.66780684E+02  d E =0.782165E-10
       N       E                     dE             d eps       ncg     rms          rms(c)
DAV:   1    -0.667765568682E+02   -0.48203E-09   -0.18010E-11    84   0.174E-10    0.220E-10
RMM:   2    -0.667765568677E+02    0.47839E-09    0.00000E+00     0   0.117E-10
 943 F= -.66776557E+02 E0= -.66780684E+02  d E =-.154614E-09
       N       E                     dE             d eps       ncg     rms          rms(c)
DAV:   1    -0.667765568680E+02    0.14916E-09   -0.55285E-11    84   0.157E-10    0.139E-10
RMM:   2    -0.667765568677E+02    0.36198E-09    0.00000E+00     0   0.155E-10
 944 F= -.66776557E+02 E0= -.66780684E+02  d E =0.327418E-10
       N       E                     dE             d eps       ncg     rms          rms(c)
DAV:   1    -0.667765568672E+02    0.77853E-09   -0.44382E-11    84   0.165E-10    0.313E-10
RMM:   2    -0.667765568675E+02   -0.28012E-09    0.00000E+00     0   0.206E-10
 945 F= -.66776557E+02 E0= -.66780684E+02  d E =0.136424E-09
       N       E                     dE             d eps       ncg     rms          rms(c)
DAV:   1    -0.667765568678E+02   -0.58390E-09   -0.20050E-11    84   0.262E-10    0.168E-10
RMM:   2    -0.667765568676E+02    0.20736E-09    0.00000E+00     0   0.219E-10
 946 F= -.66776557E+02 E0= -.66780684E+02  d E =-.964064E-10
       N       E                     dE             d eps       ncg     rms          rms(c)
DAV:   1    -0.667765568673E+02    0.57662E-09   -0.54386E-11    84   0.222E-10    0.167E-10
RMM:   2    -0.667765568676E+02   -0.36380E-09    0.00000E+00     0   0.115E-10
 947 F= -.66776557E+02 E0= -.66780684E+02  d E =0.545697E-11
       N       E                     dE             d eps       ncg     rms          rms(c)
DAV:   1    -0.667765568678E+02   -0.50932E-09   -0.95672E-12    84   0.150E-10    0.158E-10
RMM:   2    -0.667765568676E+02    0.20191E-09    0.00000E+00     0   0.115E-10
 948 F= -.66776557E+02 E0= -.66780684E+02  d E =0.563887E-10
       N       E                     dE             d eps       ncg     rms          rms(c)
DAV:   1    -0.667765568677E+02    0.50932E-10   -0.33086E-11    84   0.133E-10    0.305E-10
RMM:   2    -0.667765568675E+02    0.17462E-09    0.00000E+00     0   0.176E-10
 949 F= -.66776557E+02 E0= -.66780684E+02  d E =0.236469E-10
       N       E                     dE             d eps       ncg     rms          rms(c)
DAV:   1    -0.667765568675E+02    0.23465E-09   -0.52989E-11    84   0.194E-10    0.161E-10
RMM:   2    -0.667765568676E+02   -0.11278E-09    0.00000E+00     0   0.125E-10
 950 F= -.66776557E+02 E0= -.66780684E+02  d E =-.527507E-10
       N       E                     dE             d eps       ncg     rms          rms(c)
DAV:   1    -0.667765568678E+02   -0.32742E-09   -0.30479E-11    84   0.158E-10    0.141E-10
RMM:   2    -0.667765568675E+02    0.26921E-09    0.00000E+00     0   0.113E-10
 951 F= -.66776557E+02 E0= -.66780684E+02  d E =0.545697E-10
       N       E                     dE             d eps       ncg     rms          rms(c)
DAV:   1    -0.667765568673E+02    0.53114E-09   -0.69927E-11    84   0.117E-10    0.144E-10
RMM:   2    -0.667765568675E+02   -0.26193E-09    0.00000E+00     0   0.862E-11
 952 F= -.66776557E+02 E0= -.66780684E+02  d E =0.000000E+00
       N       E                     dE             d eps       ncg     rms          rms(c)
DAV:   1    -0.667765568679E+02   -0.63665E-09   -0.64842E-12    84   0.972E-11    0.251E-10
RMM:   2    -0.667765568675E+02    0.39108E-09    0.00000E+00     0   0.147E-10
 953 F= -.66776557E+02 E0= -.66780684E+02  d E =0.163709E-10
       N       E                     dE             d eps       ncg     rms          rms(c)
DAV:   1    -0.667765568675E+02    0.42201E-09   -0.32649E-11    84   0.132E-10    0.210E-10
RMM:   2    -0.667765568676E+02   -0.12369E-09    0.00000E+00     0   0.166E-10
 954 F= -.66776557E+02 E0= -.66780684E+02  d E =-.927685E-10
       N       E                     dE             d eps       ncg     rms          rms(c)
DAV:   1    -0.667765568679E+02   -0.39472E-09   -0.54053E-12    84   0.170E-10    0.150E-10
RMM:   2    -0.667765568675E+02    0.35834E-09    0.00000E+00     0   0.135E-10
 955 F= -.66776557E+02 E0= -.66780684E+02  d E =0.873115E-10
       N       E                     dE             d eps       ncg     rms          rms(c)
DAV:   1    -0.667765568674E+02    0.50568E-09   -0.64174E-11    84   0.190E-10    0.243E-10
RMM:   2    -0.667765568676E+02   -0.24011E-09    0.00000E+00     0   0.167E-10
 956 F= -.66776557E+02 E0= -.66780684E+02  d E =-.927685E-10
       N       E                     dE             d eps       ncg     rms          rms(c)
DAV:   1    -0.667765568673E+02    0.63665E-10    0.91608E-12    84   0.178E-10    0.252E-10
RMM:   2    -0.667765568677E+02   -0.37835E-09    0.00000E+00     0   0.137E-10
 957 F= -.66776557E+02 E0= -.66780684E+02  d E =-.745786E-10
       N       E                     dE             d eps       ncg     rms          rms(c)
DAV:   1    -0.667765568673E+02    0.25466E-10   -0.60357E-11    84   0.163E-10    0.171E-10
RMM:   2    -0.667765568675E+02   -0.23647E-09    0.00000E+00     0   0.151E-10
 958 F= -.66776557E+02 E0= -.66780684E+02  d E =0.167347E-09
       N       E                     dE             d eps       ncg     rms          rms(c)
DAV:   1    -0.667765568666E+02    0.72578E-09   -0.31550E-11    84   0.181E-10    0.145E-10
RMM:   2    -0.667765568676E+02   -0.10004E-08    0.00000E+00     0   0.150E-10
 959 F= -.66776557E+02 E0= -.66780684E+02  d E =-.381988E-10
       N       E                     dE             d eps       ncg     rms          rms(c)
DAV:   1    -0.667765568669E+02   -0.36925E-09   -0.75854E-11    84   0.165E-10    0.254E-10
RMM:   2    -0.667765568677E+02   -0.80036E-09    0.00000E+00     0   0.179E-10
 960 F= -.66776557E+02 E0= -.66780684E+02  d E =-.169166E-09
       N       E                     dE             d eps       ncg     rms          rms(c)
DAV:   1    -0.667765568673E+02   -0.38926E-09   -0.83217E-12    84   0.178E-10    0.171E-10
RMM:   2    -0.667765568675E+02   -0.22555E-09    0.00000E+00     0   0.155E-10
 961 F= -.66776557E+02 E0= -.66780684E+02  d E =0.185537E-09
       N       E                     dE             d eps       ncg     rms          rms(c)
DAV:   1    -0.667765568673E+02    0.36380E-11   -0.35302E-11    84   0.176E-10    0.256E-10
RMM:   2    -0.667765568677E+02   -0.38563E-09    0.00000E+00     0   0.160E-10
 962 F= -.66776557E+02 E0= -.66780684E+02  d E =-.156433E-09
       N       E                     dE             d eps       ncg     rms          rms(c)
DAV:   1    -0.667765568679E+02   -0.59663E-09   -0.70774E-11    84   0.202E-10    0.386E-10
RMM:   2    -0.667765568676E+02    0.30013E-09    0.00000E+00     0   0.202E-10
 963 F= -.66776557E+02 E0= -.66780684E+02  d E =0.891305E-10
       N       E                     dE             d eps       ncg     rms          rms(c)
DAV:   1    -0.667765568681E+02   -0.13642E-09   -0.43203E-11    84   0.248E-10    0.207E-10
RMM:   2    -0.667765568676E+02    0.44929E-09    0.00000E+00     0   0.170E-10
 964 F= -.66776557E+02 E0= -.66780684E+02  d E =0.127329E-10
       N       E                     dE             d eps       ncg     rms          rms(c)
DAV:   1    -0.667765568675E+02    0.59663E-09   -0.37615E-11    84   0.174E-10    0.114E-10
RMM:   2    -0.667765568677E+02   -0.23283E-09    0.00000E+00     0   0.112E-10
 965 F= -.66776557E+02 E0= -.66780684E+02  d E =-.854925E-10
       N       E                     dE             d eps       ncg     rms          rms(c)
DAV:   1    -0.667765568675E+02   -0.80036E-10   -0.67502E-11    84   0.154E-10    0.236E-10
RMM:   2    -0.667765568677E+02   -0.15461E-09    0.00000E+00     0   0.131E-10
 966 F= -.66776557E+02 E0= -.66780684E+02  d E =-.181899E-11
       N       E                     dE             d eps       ncg     rms          rms(c)
DAV:   1    -0.667765568679E+02   -0.32014E-09   -0.62448E-11    84   0.161E-10    0.143E-10
RMM:   2    -0.667765568675E+02    0.33651E-09    0.00000E+00     0   0.135E-10
 967 F= -.66776557E+02 E0= -.66780684E+02  d E =0.170985E-09
       N       E                     dE             d eps       ncg     rms          rms(c)
DAV:   1    -0.667765568676E+02    0.30377E-09   -0.41160E-11    84   0.186E-10    0.264E-10
RMM:   2    -0.667765568676E+02   -0.92768E-10    0.00000E+00     0   0.183E-10
 968 F= -.66776557E+02 E0= -.66780684E+02  d E =-.125510E-09
       N       E                     dE             d eps       ncg     rms          rms(c)
DAV:   1    -0.667765568681E+02   -0.54024E-09   -0.53885E-11    84   0.216E-10    0.184E-10
RMM:   2    -0.667765568676E+02    0.48749E-09    0.00000E+00     0   0.147E-10
 969 F= -.66776557E+02 E0= -.66780684E+02  d E =0.400178E-10
       N       E                     dE             d eps       ncg     rms          rms(c)
DAV:   1    -0.667765568680E+02    0.14006E-09    0.98974E-12    84   0.176E-10    0.103E-10
RMM:   2    -0.667765568675E+02    0.40745E-09    0.00000E+00     0   0.109E-10
 970 F= -.66776557E+02 E0= -.66780684E+02  d E =0.600267E-10
       N       E                     dE             d eps       ncg     rms          rms(c)
DAV:   1    -0.667765568673E+02    0.68940E-09   -0.25235E-11    84   0.125E-10    0.139E-10
RMM:   2    -0.667765568676E+02   -0.37653E-09    0.00000E+00     0   0.106E-10
 971 F= -.66776557E+02 E0= -.66780684E+02  d E =-.945874E-10
       N       E                     dE             d eps       ncg     rms          rms(c)
DAV:   1    -0.667765568674E+02   -0.12005E-09   -0.20735E-12    84   0.109E-10    0.322E-10
RMM:   2    -0.667765568675E+02   -0.15825E-09    0.00000E+00     0   0.179E-10
 972 F= -.66776557E+02 E0= -.66780684E+02  d E =0.982254E-10
       N       E                     dE             d eps       ncg     rms          rms(c)
DAV:   1    -0.667765568670E+02    0.40927E-09   -0.83448E-11    84   0.210E-10    0.230E-10
RMM:   2    -0.667765568677E+02   -0.69849E-09    0.00000E+00     0   0.137E-10
 973 F= -.66776557E+02 E0= -.66780684E+02  d E =-.130967E-09
       N       E                     dE             d eps       ncg     rms          rms(c)
DAV:   1    -0.667765568677E+02   -0.73669E-09   -0.79244E-12    84   0.175E-10    0.218E-10
RMM:   2    -0.667765568676E+02    0.90949E-10    0.00000E+00     0   0.159E-10
 974 F= -.66776557E+02 E0= -.66780684E+02  d E =0.527507E-10
       N       E                     dE             d eps       ncg     rms          rms(c)
DAV:   1    -0.667765568676E+02    0.10368E-09   -0.20199E-11    84   0.165E-10    0.229E-10
RMM:   2    -0.667765568676E+02    0.54570E-11    0.00000E+00     0   0.130E-10
 975 F= -.66776557E+02 E0= -.66780684E+02  d E =0.181899E-10
       N       E                     dE             d eps       ncg     rms          rms(c)
DAV:   1    -0.667765568676E+02   -0.23647E-10   -0.22621E-11    84   0.153E-10    0.139E-10
RMM:   2    -0.667765568676E+02    0.30923E-10    0.00000E+00     0   0.118E-10
 976 F= -.66776557E+02 E0= -.66780684E+02  d E =0.181899E-11
       N       E                     dE             d eps       ncg     rms          rms(c)
DAV:   1    -0.667765568681E+02   -0.42564E-09   -0.14518E-11    84   0.131E-10    0.304E-10
RMM:   2    -0.667765568677E+02    0.40200E-09    0.00000E+00     0   0.126E-10
 977 F= -.66776557E+02 E0= -.66780684E+02  d E =-.545697E-10
       N       E                     dE             d eps       ncg     rms          rms(c)
DAV:   1    -0.667765568677E+02    0.31105E-09   -0.81449E-12    84   0.148E-10    0.118E-10
RMM:   2    -0.667765568677E+02    0.50932E-10    0.00000E+00     0   0.109E-10
 978 F= -.66776557E+02 E0= -.66780684E+02  d E =-.400178E-10
       N       E                     dE             d eps       ncg     rms          rms(c)
DAV:   1    -0.667765568685E+02   -0.77853E-09   -0.66253E-12    84   0.110E-10    0.171E-10
RMM:   2    -0.667765568675E+02    0.10004E-08    0.00000E+00     0   0.119E-10
 979 F= -.66776557E+02 E0= -.66780684E+02  d E =0.170985E-09
       N       E                     dE             d eps       ncg     rms          rms(c)
DAV:   1    -0.667765568677E+02    0.82764E-09   -0.37620E-11    84   0.138E-10    0.301E-10
RMM:   2    -0.667765568675E+02    0.17826E-09    0.00000E+00     0   0.181E-10
 980 F= -.66776557E+02 E0= -.66780684E+02  d E =0.545697E-11
       N       E                     dE             d eps       ncg     rms          rms(c)
DAV:   1    -0.667765568681E+02   -0.36198E-09   -0.73990E-11    84   0.211E-10    0.247E-10
RMM:   2    -0.667765568676E+02    0.43656E-09    0.00000E+00     0   0.144E-10
 981 F= -.66776557E+02 E0= -.66780684E+02  d E =-.103682E-09
       N       E                     dE             d eps       ncg     rms          rms(c)
DAV:   1    -0.667765568673E+02    0.73487E-09   -0.46937E-11    84   0.183E-10    0.125E-10
RMM:   2    -0.667765568677E+02   -0.38017E-09    0.00000E+00     0   0.108E-10
 982 F= -.66776557E+02 E0= -.66780684E+02  d E =-.818545E-10
       N       E                     dE             d eps       ncg     rms          rms(c)
DAV:   1    -0.667765568678E+02   -0.45657E-09   -0.46121E-11    84   0.134E-10    0.125E-10
RMM:   2    -0.667765568675E+02    0.25648E-09    0.00000E+00     0   0.119E-10
 983 F= -.66776557E+02 E0= -.66780684E+02  d E =0.180080E-09
       N       E                     dE             d eps       ncg     rms          rms(c)
DAV:   1    -0.667765568682E+02   -0.42746E-09   -0.22191E-11    84   0.157E-10    0.146E-10
RMM:   2    -0.667765568676E+02    0.61846E-09    0.00000E+00     0   0.122E-10
 984 F= -.66776557E+02 E0= -.66780684E+02  d E =-.654836E-10
       N       E                     dE             d eps       ncg     rms          rms(c)
DAV:   1    -0.667765568681E+02    0.14370E-09   -0.22868E-11    84   0.128E-10    0.106E-10
RMM:   2    -0.667765568676E+02    0.48021E-09    0.00000E+00     0   0.967E-11
 985 F= -.66776557E+02 E0= -.66780684E+02  d E =0.545697E-11
       N       E                     dE             d eps       ncg     rms          rms(c)
DAV:   1    -0.667765568674E+02    0.62209E-09   -0.10792E-10    84   0.134E-10    0.283E-10
RMM:   2    -0.667765568677E+02   -0.25648E-09    0.00000E+00     0   0.175E-10
 986 F= -.66776557E+02 E0= -.66780684E+02  d E =-.114596E-09
       N       E                     dE             d eps       ncg     rms          rms(c)
DAV:   1    -0.667765568678E+02   -0.31105E-09   -0.19643E-11    84   0.207E-10    0.143E-10
RMM:   2    -0.667765568677E+02    0.92768E-10    0.00000E+00     0   0.144E-10
 987 F= -.66776557E+02 E0= -.66780684E+02  d E =0.381988E-10
       N       E                     dE             d eps       ncg     rms          rms(c)
DAV:   1    -0.667765568678E+02    0.00000E+00    0.32410E-11    84   0.161E-10    0.275E-10
RMM:   2    -0.667765568675E+02    0.21828E-09    0.00000E+00     0   0.168E-10
 988 F= -.66776557E+02 E0= -.66780684E+02  d E =0.125510E-09
       N       E                     dE             d eps       ncg     rms          rms(c)
DAV:   1    -0.667765568673E+02    0.45293E-09   -0.45194E-12    84   0.214E-10    0.432E-10
RMM:   2    -0.667765568675E+02   -0.22737E-09    0.00000E+00     0   0.254E-10
 989 F= -.66776557E+02 E0= -.66780684E+02  d E =0.727596E-11
       N       E                     dE             d eps       ncg     rms          rms(c)
DAV:   1    -0.667765568677E+02   -0.42382E-09   -0.76730E-11    84   0.296E-10    0.273E-10
RMM:   2    -0.667765568676E+02    0.13097E-09    0.00000E+00     0   0.162E-10
 990 F= -.66776557E+02 E0= -.66780684E+02  d E =-.654836E-10
       N       E                     dE             d eps       ncg     rms          rms(c)
DAV:   1    -0.667765568678E+02   -0.72760E-10   -0.69171E-11    84   0.189E-10    0.146E-10
RMM:   2    -0.667765568677E+02    0.12733E-09    0.00000E+00     0   0.116E-10
 991 F= -.66776557E+02 E0= -.66780684E+02  d E =-.763976E-10
       N       E                     dE             d eps       ncg     rms          rms(c)
DAV:   1    -0.667765568678E+02   -0.18190E-11   -0.29189E-12    84   0.127E-10    0.209E-10
RMM:   2    -0.667765568676E+02    0.22737E-09    0.00000E+00     0   0.159E-10
 992 F= -.66776557E+02 E0= -.66780684E+02  d E =0.982254E-10
       N       E                     dE             d eps       ncg     rms          rms(c)
DAV:   1    -0.667765568669E+02    0.85493E-09    0.21676E-11    84   0.162E-10    0.197E-10
RMM:   2    -0.667765568676E+02   -0.68758E-09    0.00000E+00     0   0.130E-10
 993 F= -.66776557E+02 E0= -.66780684E+02  d E =-.600267E-10
       N       E                     dE             d eps       ncg     rms          rms(c)
DAV:   1    -0.667765568682E+02   -0.13060E-08   -0.14025E-11    84   0.142E-10    0.295E-10
RMM:   2    -0.667765568677E+02    0.56571E-09    0.00000E+00     0   0.138E-10
 994 F= -.66776557E+02 E0= -.66780684E+02  d E =-.527507E-10
       N       E                     dE             d eps       ncg     rms          rms(c)
DAV:   1    -0.667765568679E+02    0.32014E-09   -0.29486E-12    84   0.153E-10    0.154E-10
RMM:   2    -0.667765568677E+02    0.27649E-09    0.00000E+00     0   0.111E-10
 995 F= -.66776557E+02 E0= -.66780684E+02  d E =0.309228E-10
       N       E                     dE             d eps       ncg     rms          rms(c)
DAV:   1    -0.667765568677E+02    0.21282E-09   -0.38022E-11    84   0.119E-10    0.201E-10
RMM:   2    -0.667765568676E+02    0.78217E-10    0.00000E+00     0   0.123E-10
 996 F= -.66776557E+02 E0= -.66780684E+02  d E =0.145519E-10
       N       E                     dE             d eps       ncg     rms          rms(c)
DAV:   1    -0.667765568674E+02    0.32196E-09   -0.81365E-11    84   0.135E-10    0.217E-10
RMM:   2    -0.667765568675E+02   -0.15461E-09    0.00000E+00     0   0.138E-10
 997 F= -.66776557E+02 E0= -.66780684E+02  d E =0.891305E-10
       N       E                     dE             d eps       ncg     rms          rms(c)
DAV:   1    -0.667765568673E+02    0.58208E-10   -0.51416E-11    84   0.172E-10    0.249E-10
RMM:   2    -0.667765568675E+02   -0.17826E-09    0.00000E+00     0   0.167E-10
 998 F= -.66776557E+02 E0= -.66780684E+02  d E =0.345608E-10
       N       E                     dE             d eps       ncg     rms          rms(c)
DAV:   1    -0.667765568678E+02   -0.46202E-09   -0.61539E-11    84   0.191E-10    0.367E-10
RMM:   2    -0.667765568676E+02    0.22919E-09    0.00000E+00     0   0.194E-10
 999 F= -.66776557E+02 E0= -.66780684E+02  d E =-.545697E-10
       N       E                     dE             d eps       ncg     rms          rms(c)
DAV:   1    -0.667765568679E+02   -0.11460E-09   -0.37394E-11    84   0.212E-10    0.195E-10
RMM:   2    -0.667765568676E+02    0.34561E-09    0.00000E+00     0   0.147E-10
1000 F= -.66776557E+02 E0= -.66780684E+02  d E =0.181899E-11
