  39  39   0   0
  0.2439952E+02  0.6834254E-09  0.1767185E-08  0.7880486E-09  0.0000000E+00
   1.0000000000000000E-004
  CAR 
 NEB                                     
      9.53176025    -23.88032332  301      1.07624817      1.00000000
    -23.880  0.0000E+00  0.0000E+00
    -23.769  0.0000E+00  0.0000E+00
    -23.658  0.0000E+00  0.0000E+00
    -23.546 -0.1572E-30 -0.1751E-31
    -23.435 -0.1186E-26 -0.1321E-27
    -23.323 -0.4780E-23 -0.5325E-24
    -23.212 -0.1033E-19 -0.1151E-20
    -23.101 -0.1197E-16 -0.1335E-17
    -22.989 -0.7200E-14 -0.8033E-15
    -22.878 -0.2377E-11 -0.2656E-12
    -22.767 -0.4187E-09 -0.4689E-10
    -22.655 -0.3918E-07 -0.4410E-08
    -22.544 -0.1935E-05 -0.2200E-06
    -22.432 -0.4980E-04 -0.5767E-05
    -22.321 -0.6487E-03 -0.7801E-04
    -22.210 -0.3959E-02 -0.5190E-03
    -22.098 -0.8078E-02 -0.1419E-02
    -21.987  0.1739E-01  0.5176E-03
    -21.876  0.1053E+00  0.1225E-01
    -21.764  0.1920E+00  0.3363E-01
    -21.653  0.1950E+00  0.5534E-01
    -21.541  0.1910E+00  0.7662E-01
    -21.430  0.3701E+00  0.1178E+00
    -21.319  0.6932E+00  0.1950E+00
    -21.207  0.8166E+00  0.2860E+00
    -21.096  0.5916E+00  0.3519E+00
    -20.985  0.2462E+00  0.3793E+00
    -20.873  0.3511E-01  0.3832E+00
    -20.762 -0.1694E-01  0.3813E+00
    -20.650 -0.9613E-02  0.3802E+00
    -20.539 -0.2006E-02  0.3800E+00
    -20.428 -0.2072E-03  0.3800E+00
    -20.316 -0.1116E-04  0.3800E+00
    -20.205 -0.3179E-06  0.3800E+00
    -20.094 -0.4810E-08  0.3800E+00
    -19.982 -0.3879E-10  0.3800E+00
    -19.871 -0.1669E-12  0.3800E+00
    -19.759 -0.3987E-15  0.3800E+00
    -19.648  0.0000E+00  0.3800E+00
    -19.537  0.0000E+00  0.3800E+00
    -19.425  0.0000E+00  0.3800E+00
    -19.314  0.0000E+00  0.3800E+00
    -19.203  0.0000E+00  0.3800E+00
    -19.091  0.0000E+00  0.3800E+00
    -18.980  0.0000E+00  0.3800E+00
    -18.869  0.0000E+00  0.3800E+00
    -18.757  0.0000E+00  0.3800E+00
    -18.646  0.0000E+00  0.3800E+00
    -18.534  0.0000E+00  0.3800E+00
    -18.423  0.0000E+00  0.3800E+00
    -18.312  0.0000E+00  0.3800E+00
    -18.200  0.0000E+00  0.3800E+00
    -18.089  0.0000E+00  0.3800E+00
    -17.978  0.0000E+00  0.3800E+00
    -17.866  0.0000E+00  0.3800E+00
    -17.755  0.0000E+00  0.3800E+00
    -17.643  0.0000E+00  0.3800E+00
    -17.532  0.0000E+00  0.3800E+00
    -17.421  0.0000E+00  0.3800E+00
    -17.309  0.0000E+00  0.3800E+00
    -17.198  0.0000E+00  0.3800E+00
    -17.087  0.0000E+00  0.3800E+00
    -16.975  0.0000E+00  0.3800E+00
    -16.864  0.0000E+00  0.3800E+00
    -16.752  0.0000E+00  0.3800E+00
    -16.641  0.0000E+00  0.3800E+00
    -16.530  0.0000E+00  0.3800E+00
    -16.418  0.0000E+00  0.3800E+00
    -16.307  0.0000E+00  0.3800E+00
    -16.196  0.0000E+00  0.3800E+00
    -16.084  0.0000E+00  0.3800E+00
    -15.973  0.0000E+00  0.3800E+00
    -15.861  0.0000E+00  0.3800E+00
    -15.750  0.0000E+00  0.3800E+00
    -15.639  0.0000E+00  0.3800E+00
    -15.527  0.0000E+00  0.3800E+00
    -15.416  0.0000E+00  0.3800E+00
    -15.305  0.0000E+00  0.3800E+00
    -15.193  0.0000E+00  0.3800E+00
    -15.082  0.0000E+00  0.3800E+00
    -14.970  0.0000E+00  0.3800E+00
    -14.859  0.0000E+00  0.3800E+00
    -14.748  0.0000E+00  0.3800E+00
    -14.636  0.0000E+00  0.3800E+00
    -14.525  0.0000E+00  0.3800E+00
    -14.414  0.0000E+00  0.3800E+00
    -14.302  0.0000E+00  0.3800E+00
    -14.191 -0.3420E-31  0.3800E+00
    -14.079 -0.2903E-27  0.3800E+00
    -13.968 -0.1318E-23  0.3800E+00
    -13.857 -0.3201E-20  0.3800E+00
    -13.745 -0.4161E-17  0.3800E+00
    -13.634 -0.2802E-14  0.3800E+00
    -13.523 -0.1034E-11  0.3800E+00
    -13.411 -0.2029E-09  0.3800E+00
    -13.300 -0.2117E-07  0.3800E+00
    -13.188 -0.1170E-05  0.3800E+00
    -13.077 -0.3404E-04  0.3800E+00
    -12.966 -0.5135E-03  0.3799E+00
    -12.854 -0.3843E-02  0.3795E+00
    -12.743 -0.1194E-01  0.3782E+00
    -12.632  0.4072E-02  0.3786E+00
    -12.520  0.1162E+00  0.3916E+00
    -12.409  0.2900E+00  0.4239E+00
    -12.297  0.3518E+00  0.4631E+00
    -12.186  0.2786E+00  0.4941E+00
    -12.075  0.1531E+00  0.5111E+00
    -11.963  0.3636E-01  0.5152E+00
    -11.852 -0.8722E-02  0.5142E+00
    -11.741 -0.6455E-02  0.5135E+00
    -11.629 -0.1261E-02  0.5133E+00
    -11.518 -0.1105E-03  0.5133E+00
    -11.406 -0.4810E-05  0.5133E+00
    -11.295 -0.1078E-06  0.5133E+00
    -11.184 -0.1267E-08  0.5133E+00
    -11.072 -0.1263E-09  0.5133E+00
    -10.961 -0.1120E-07  0.5133E+00
    -10.850 -0.5542E-06  0.5133E+00
    -10.738 -0.1413E-04  0.5133E+00
    -10.627 -0.1808E-03  0.5133E+00
    -10.515 -0.1088E-02  0.5132E+00
    -10.404 -0.2331E-02  0.5129E+00
    -10.293  0.3731E-02  0.5133E+00
    -10.181  0.2877E-01  0.5166E+00
    -10.070  0.6490E-01  0.5238E+00
     -9.959  0.7937E-01  0.5326E+00
     -9.847  0.5340E-01  0.5386E+00
     -9.736  0.1294E-01  0.5400E+00
     -9.625 -0.1088E-01  0.5388E+00
     -9.513  0.6300E-02  0.5395E+00
     -9.402  0.1032E+00  0.5510E+00
     -9.290  0.2204E+00  0.5755E+00
     -9.179  0.2278E+00  0.6009E+00
     -9.068  0.1375E+00  0.6162E+00
     -8.956  0.4295E-01  0.6210E+00
     -8.845 -0.1647E-02  0.6208E+00
     -8.734 -0.5612E-02  0.6202E+00
     -8.622 -0.1586E-02  0.6200E+00
     -8.511 -0.1920E-03  0.6200E+00
     -8.399 -0.1148E-04  0.6200E+00
     -8.288 -0.3540E-06  0.6200E+00
     -8.177 -0.5745E-08  0.6200E+00
     -8.065 -0.4950E-10  0.6200E+00
     -7.954 -0.2275E-12  0.6200E+00
     -7.843 -0.5582E-15  0.6200E+00
     -7.731  0.0000E+00  0.6200E+00
     -7.620  0.0000E+00  0.6200E+00
     -7.508  0.0000E+00  0.6200E+00
     -7.397  0.0000E+00  0.6200E+00
     -7.286  0.0000E+00  0.6200E+00
     -7.174  0.0000E+00  0.6200E+00
     -7.063  0.0000E+00  0.6200E+00
     -6.952  0.0000E+00  0.6200E+00
     -6.840  0.0000E+00  0.6200E+00
     -6.729  0.0000E+00  0.6200E+00
     -6.617  0.0000E+00  0.6200E+00
     -6.506  0.0000E+00  0.6200E+00
     -6.395  0.0000E+00  0.6200E+00
     -6.283  0.0000E+00  0.6200E+00
     -6.172  0.0000E+00  0.6200E+00
     -6.061  0.0000E+00  0.6200E+00
     -5.949  0.0000E+00  0.6200E+00
     -5.838  0.0000E+00  0.6200E+00
     -5.726  0.0000E+00  0.6200E+00
     -5.615  0.0000E+00  0.6200E+00
     -5.504  0.0000E+00  0.6200E+00
     -5.392  0.0000E+00  0.6200E+00
     -5.281  0.0000E+00  0.6200E+00
     -5.170  0.0000E+00  0.6200E+00
     -5.058  0.0000E+00  0.6200E+00
     -4.947 -0.3467E-30  0.6200E+00
     -4.835 -0.2336E-26  0.6200E+00
     -4.724 -0.8418E-23  0.6200E+00
     -4.613 -0.1622E-19  0.6200E+00
     -4.501 -0.1668E-16  0.6200E+00
     -4.390 -0.8841E-14  0.6200E+00
     -4.279 -0.2558E-11  0.6200E+00
     -4.167 -0.3911E-09  0.6200E+00
     -4.056 -0.3140E-07  0.6200E+00
     -3.944 -0.1309E-05  0.6200E+00
     -3.833 -0.2778E-04  0.6200E+00
     -3.722 -0.2880E-03  0.6200E+00
     -3.610 -0.1307E-02  0.6198E+00
     -3.499 -0.1348E-02  0.6197E+00
     -3.388  0.7460E-02  0.6205E+00
     -3.276  0.2971E-01  0.6238E+00
     -3.165  0.5976E-01  0.6305E+00
     -3.053  0.7783E-01  0.6391E+00
     -2.942  0.5601E-01  0.6454E+00
     -2.831  0.1625E-01  0.6472E+00
     -2.719 -0.1845E-02  0.6470E+00
     -2.608 -0.2208E-02  0.6467E+00
     -2.497 -0.5042E-03  0.6467E+00
     -2.385 -0.5143E-04  0.6467E+00
     -2.274 -0.2629E-05  0.6467E+00
     -2.162 -0.4837E-06  0.6467E+00
     -2.051 -0.1101E-04  0.6467E+00
     -1.940 -0.1452E-03  0.6466E+00
     -1.828 -0.8817E-03  0.6466E+00
     -1.717 -0.1841E-02  0.6463E+00
     -1.606  0.2621E-02  0.6466E+00
     -1.494  0.1855E-01  0.6487E+00
     -1.383  0.4597E-01  0.6538E+00
     -1.271  0.8826E-01  0.6637E+00
     -1.160  0.1293E+00  0.6780E+00
     -1.049  0.1357E+00  0.6932E+00
     -0.937  0.9145E-01  0.7033E+00
     -0.826  0.3844E-01  0.7076E+00
     -0.715  0.4088E-01  0.7122E+00
     -0.603  0.6473E-01  0.7194E+00
     -0.492  0.4622E-01  0.7245E+00
     -0.380  0.1843E-01  0.7266E+00
     -0.269  0.4599E-01  0.7317E+00
     -0.158  0.1098E+00  0.7439E+00
     -0.046  0.1522E+00  0.7609E+00
      0.065  0.1758E+00  0.7805E+00
      0.176  0.1903E+00  0.8017E+00
      0.288  0.1962E+00  0.8235E+00
      0.399  0.2004E+00  0.8458E+00
      0.510  0.1839E+00  0.8663E+00
      0.622  0.1398E+00  0.8819E+00
      0.733  0.1131E+00  0.8945E+00
      0.845  0.1338E+00  0.9094E+00
      0.956  0.1443E+00  0.9255E+00
      1.067  0.9576E-01  0.9361E+00
      1.179  0.3540E-01  0.9401E+00
      1.290  0.4054E-02  0.9405E+00
      1.401 -0.2959E-02  0.9402E+00
      1.513 -0.1504E-02  0.9400E+00
      1.624 -0.2818E-03  0.9400E+00
      1.736 -0.2497E-04  0.9400E+00
      1.847 -0.1112E-05  0.9400E+00
      1.958 -0.2549E-07  0.9400E+00
      2.070 -0.3053E-09  0.9400E+00
      2.181 -0.9081E-11  0.9400E+00
      2.292 -0.9654E-09  0.9400E+00
      2.404 -0.6821E-07  0.9400E+00
      2.515 -0.2490E-05  0.9400E+00
      2.627 -0.4574E-04  0.9400E+00
      2.738 -0.3966E-03  0.9400E+00
      2.849 -0.1301E-02  0.9398E+00
      2.961  0.9754E-03  0.9399E+00
      3.072  0.1404E-01  0.9415E+00
      3.183  0.2681E-01  0.9445E+00
      3.295  0.1856E-01  0.9465E+00
      3.406  0.3268E-02  0.9469E+00
      3.518 -0.1352E-02  0.9467E+00
      3.629 -0.6422E-03  0.9467E+00
      3.740 -0.4908E-03  0.9466E+00
      3.852 -0.2003E-02  0.9464E+00
      3.963 -0.1926E-02  0.9462E+00
      4.074  0.1483E-01  0.9478E+00
      4.186  0.4885E-01  0.9533E+00
      4.297  0.6197E-01  0.9602E+00
      4.409  0.4286E-01  0.9649E+00
      4.520  0.1674E-01  0.9668E+00
      4.631  0.1158E-02  0.9669E+00
      4.743 -0.1753E-02  0.9667E+00
      4.854 -0.6287E-03  0.9667E+00
      4.965 -0.1228E-03  0.9667E+00
      5.077 -0.4497E-03  0.9666E+00
      5.188 -0.2411E-02  0.9663E+00
      5.300 -0.3613E-02  0.9659E+00
      5.411  0.1463E-01  0.9676E+00
      5.522  0.6273E-01  0.9746E+00
      5.634  0.9322E-01  0.9849E+00
      5.745  0.8193E-01  0.9941E+00
      5.856  0.7850E-01  0.1003E+01
      5.968  0.9174E-01  0.1013E+01
      6.079  0.8992E-01  0.1023E+01
      6.191  0.6245E-01  0.1030E+01
      6.302  0.2580E-01  0.1033E+01
      6.413  0.1370E-01  0.1034E+01
      6.525  0.3577E-01  0.1038E+01
      6.636  0.4981E-01  0.1044E+01
      6.747  0.4802E-01  0.1049E+01
      6.859  0.6710E-01  0.1057E+01
      6.970  0.8663E-01  0.1066E+01
      7.082  0.8671E-01  0.1076E+01
      7.193  0.8919E-01  0.1086E+01
      7.304  0.8535E-01  0.1095E+01
      7.416  0.8153E-01  0.1105E+01
      7.527  0.8256E-01  0.1114E+01
      7.638  0.5157E-01  0.1120E+01
      7.750  0.1022E-01  0.1121E+01
      7.861 -0.3539E-02  0.1120E+01
      7.973 -0.1930E-02  0.1120E+01
      8.084 -0.3269E-03  0.1120E+01
      8.195 -0.2574E-04  0.1120E+01
      8.307 -0.1025E-05  0.1120E+01
      8.418 -0.2130E-07  0.1120E+01
      8.529 -0.2339E-09  0.1120E+01
      8.641 -0.1365E-11  0.1120E+01
      8.752 -0.4240E-14  0.1120E+01
      8.864 -0.1329E-16  0.1120E+01
      8.975  0.0000E+00  0.1120E+01
      9.086  0.0000E+00  0.1120E+01
      9.198  0.0000E+00  0.1120E+01
      9.309  0.0000E+00  0.1120E+01
      9.420  0.0000E+00  0.1120E+01
      9.532  0.0000E+00  0.1120E+01
