       N       E                     dE             d eps       ncg     rms          rms(c)
DAV:   1     0.291529955832E+04    0.29153E+04   -0.11501E+05   348   0.150E+03
DAV:   2     0.317801829759E+03   -0.25975E+04   -0.25126E+04   360   0.435E+02
DAV:   3    -0.113558115965E+03   -0.43136E+03   -0.42286E+03   396   0.193E+02
DAV:   4    -0.146236688408E+03   -0.32679E+02   -0.32375E+02   384   0.489E+01
DAV:   5    -0.148025397631E+03   -0.17887E+01   -0.17857E+01   516   0.115E+01    0.190E+01
RMM:   6    -0.139103244443E+03    0.89222E+01   -0.17207E+01   382   0.743E+00    0.119E+01
RMM:   7    -0.138970960627E+03    0.13228E+00   -0.14487E+01   406   0.516E+00    0.778E+00
RMM:   8    -0.138897486203E+03    0.73474E-01   -0.11243E+00   407   0.290E+00    0.435E+00
RMM:   9    -0.138903538681E+03   -0.60525E-02   -0.87892E-01   390   0.190E+00    0.212E+00
RMM:  10    -0.138809872418E+03    0.93666E-01   -0.13601E-01   420   0.120E+00    0.143E+00
RMM:  11    -0.138769805118E+03    0.40067E-01   -0.80708E-02   456   0.531E-01    0.827E-01
RMM:  12    -0.138768916529E+03    0.88859E-03   -0.19541E-02   498   0.289E-01    0.590E-01
RMM:  13    -0.138773978015E+03   -0.50615E-02   -0.55070E-03   377   0.172E-01    0.254E-01
RMM:  14    -0.138774815526E+03   -0.83751E-03   -0.61321E-03   393   0.155E-01    0.163E-01
RMM:  15    -0.138774270479E+03    0.54505E-03   -0.14233E-03   450   0.797E-02    0.103E-01
RMM:  16    -0.138774388209E+03   -0.11773E-03   -0.29810E-04   364   0.385E-02    0.649E-02
RMM:  17    -0.138774530443E+03   -0.14223E-03   -0.15441E-04   285   0.297E-02    0.420E-02
RMM:  18    -0.138774533698E+03   -0.32554E-05   -0.11543E-04   320   0.236E-02    0.138E-02
RMM:  19    -0.138774538489E+03   -0.47909E-05   -0.39066E-05   285   0.136E-02
   1 F= -.13877454E+03 E0= -.13878708E+03  d E =-.138775E+03
       N       E                     dE             d eps       ncg     rms          rms(c)
DAV:   1    -0.138774538588E+03   -0.48894E-05   -0.56255E-06   216   0.982E-03    0.848E-03
RMM:   2    -0.138774539359E+03   -0.77086E-06   -0.29408E-06   194   0.700E-03
   2 F= -.13877454E+03 E0= -.13878709E+03  d E =-.869310E-06
       N       E                     dE             d eps       ncg     rms          rms(c)
DAV:   1    -0.138774539796E+03   -0.12084E-05   -0.85841E-06   228   0.720E-03    0.562E-03
RMM:   2    -0.138774541107E+03   -0.13105E-05   -0.13430E-06   190   0.386E-03
   3 F= -.13877454E+03 E0= -.13878711E+03  d E =-.174795E-05
       N       E                     dE             d eps       ncg     rms          rms(c)
DAV:   1    -0.138774539720E+03    0.76157E-07   -0.13570E-05   240   0.638E-03    0.382E-03
RMM:   2    -0.138774539885E+03   -0.16464E-06   -0.70044E-07   165   0.260E-03
   4 F= -.13877454E+03 E0= -.13878709E+03  d E =0.122198E-05
       N       E                     dE             d eps       ncg     rms          rms(c)
DAV:   1    -0.138774539946E+03   -0.22633E-06   -0.12786E-06   228   0.301E-03    0.269E-03
RMM:   2    -0.138774540107E+03   -0.16050E-06   -0.27817E-08    53   0.158E-03
   5 F= -.13877454E+03 E0= -.13878709E+03  d E =-.222197E-06
       N       E                     dE             d eps       ncg     rms          rms(c)
DAV:   1    -0.138774539936E+03    0.99717E-08   -0.20733E-06   204   0.253E-03    0.171E-03
RMM:   2    -0.138774539958E+03   -0.21631E-07    0.41710-251    28   0.118E-03
   6 F= -.13877454E+03 E0= -.13878709E+03  d E =0.148841E-06
       N       E                     dE             d eps       ncg     rms          rms(c)
DAV:   1    -0.138774539953E+03   -0.16626E-07   -0.62720E-07   204   0.153E-03    0.121E-03
RMM:   2    -0.138774539983E+03   -0.29664E-07    0.47625-114    25   0.892E-04
   7 F= -.13877454E+03 E0= -.13878709E+03  d E =-.246582E-07
       N       E                     dE             d eps       ncg     rms          rms(c)
DAV:   1    -0.138774539945E+03    0.83055E-08   -0.49105E-07   204   0.125E-03    0.781E-04
RMM:   2    -0.138774539947E+03   -0.20555E-08    0.00000E+00    18   0.751E-04
   8 F= -.13877454E+03 E0= -.13878709E+03  d E =0.359141E-07
       N       E                     dE             d eps       ncg     rms          rms(c)
DAV:   1    -0.138774539948E+03   -0.34270E-08   -0.17003E-07   204   0.818E-04    0.662E-04
RMM:   2    -0.138774539951E+03   -0.30013E-08    0.00000E+00    16   0.637E-04
   9 F= -.13877454E+03 E0= -.13878709E+03  d E =-.437285E-08
       N       E                     dE             d eps       ncg     rms          rms(c)
DAV:   1    -0.138774539941E+03    0.69376E-08   -0.13180E-07   204   0.794E-04    0.386E-04
RMM:   2    -0.138774539938E+03    0.27321E-08    0.16965-251    15   0.394E-04
  10 F= -.13877454E+03 E0= -.13878709E+03  d E =0.126711E-07
       N       E                     dE             d eps       ncg     rms          rms(c)
DAV:   1    -0.138774539938E+03    0.31869E-08   -0.38478E-08   204   0.420E-04    0.418E-04
RMM:   2    -0.138774539938E+03   -0.33106E-09    0.00000E+00    13   0.334E-04
  11 F= -.13877454E+03 E0= -.13878709E+03  d E =0.123691E-09
       N       E                     dE             d eps       ncg     rms          rms(c)
DAV:   1    -0.138774539936E+03    0.17390E-08   -0.36520E-08   204   0.399E-04    0.245E-04
RMM:   2    -0.138774539936E+03    0.34925E-09    0.00000E+00    11   0.228E-04
  12 F= -.13877454E+03 E0= -.13878709E+03  d E =0.241926E-08
       N       E                     dE             d eps       ncg     rms          rms(c)
DAV:   1    -0.138774539933E+03    0.28194E-08   -0.19691E-08   204   0.264E-04    0.175E-04
RMM:   2    -0.138774539934E+03   -0.23647E-09    0.00000E+00    11   0.191E-04
  13 F= -.13877454E+03 E0= -.13878709E+03  d E =0.223372E-08
       N       E                     dE             d eps       ncg     rms          rms(c)
DAV:   1    -0.138774539934E+03   -0.64392E-09   -0.76213E-09   204   0.201E-04    0.169E-04
RMM:   2    -0.138774539932E+03    0.18990E-08    0.00000E+00     7   0.152E-04
  14 F= -.13877454E+03 E0= -.13878709E+03  d E =0.149157E-08
       N       E                     dE             d eps       ncg     rms          rms(c)
DAV:   1    -0.138774539931E+03    0.35725E-08   -0.79117E-09   204   0.193E-04    0.942E-05
RMM:   2    -0.138774539931E+03   -0.40018E-09    0.00000E+00     7   0.105E-04
  15 F= -.13877454E+03 E0= -.13878709E+03  d E =0.127329E-08
       N       E                     dE             d eps       ncg     rms          rms(c)
DAV:   1    -0.138774539931E+03   -0.85129E-09   -0.23683E-09   204   0.113E-04    0.948E-05
RMM:   2    -0.138774539930E+03    0.13424E-08    0.00000E+00     7   0.862E-05
  16 F= -.13877454E+03 E0= -.13878709E+03  d E =0.891305E-09
       N       E                     dE             d eps       ncg     rms          rms(c)
DAV:   1    -0.138774539930E+03    0.91677E-09   -0.18892E-09   204   0.974E-05    0.624E-05
RMM:   2    -0.138774539930E+03    0.58208E-09    0.00000E+00     7   0.634E-05
  17 F= -.13877454E+03 E0= -.13878709E+03  d E =0.156433E-09
       N       E                     dE             d eps       ncg     rms          rms(c)
DAV:   1    -0.138774539929E+03    0.11205E-08   -0.13575E-09   204   0.770E-05    0.410E-05
RMM:   2    -0.138774539929E+03   -0.58208E-10    0.00000E+00     6   0.526E-05
  18 F= -.13877454E+03 E0= -.13878709E+03  d E =0.480213E-09
       N       E                     dE             d eps       ncg     rms          rms(c)
DAV:   1    -0.138774539929E+03    0.44020E-09   -0.43541E-10   204   0.541E-05    0.470E-05
RMM:   2    -0.138774539929E+03   -0.29468E-09    0.00000E+00     6   0.431E-05
  19 F= -.13877454E+03 E0= -.13878709E+03  d E =0.203727E-09
       N       E                     dE             d eps       ncg     rms          rms(c)
DAV:   1    -0.138774539930E+03   -0.14843E-08   -0.49813E-10   204   0.526E-05    0.249E-05
RMM:   2    -0.138774539929E+03    0.12551E-08    0.00000E+00     6   0.288E-05
  20 F= -.13877454E+03 E0= -.13878709E+03  d E =0.654836E-10
       N       E                     dE             d eps       ncg     rms          rms(c)
DAV:   1    -0.138774539928E+03    0.23356E-08   -0.14851E-10   204   0.327E-05    0.215E-05
RMM:   2    -0.138774539929E+03   -0.90949E-09    0.00000E+00     5   0.236E-05
  21 F= -.13877454E+03 E0= -.13878709E+03  d E =0.170985E-09
       N       E                     dE             d eps       ncg     rms          rms(c)
DAV:   1    -0.138774539929E+03   -0.79308E-09   -0.20518E-10   204   0.255E-05    0.161E-05
RMM:   2    -0.138774539929E+03   -0.15280E-09    0.00000E+00     5   0.182E-05
  22 F= -.13877454E+03 E0= -.13878709E+03  d E =-.363798E-10
       N       E                     dE             d eps       ncg     rms          rms(c)
DAV:   1    -0.138774539929E+03   -0.65484E-09   -0.79899E-11   204   0.226E-05    0.900E-06
RMM:   2    -0.138774539929E+03    0.48749E-09    0.00000E+00     5   0.145E-05
  23 F= -.13877454E+03 E0= -.13878709E+03  d E =-.145519E-10
       N       E                     dE             d eps       ncg     rms          rms(c)
DAV:   1    -0.138774539929E+03    0.81491E-09   -0.18739E-11   204   0.149E-05    0.104E-05
RMM:   2    -0.138774539929E+03   -0.17462E-09    0.00000E+00     5   0.115E-05
  24 F= -.13877454E+03 E0= -.13878709E+03  d E =0.152795E-09
       N       E                     dE             d eps       ncg     rms          rms(c)
DAV:   1    -0.138774539929E+03   -0.42201E-09   -0.25281E-11   204   0.133E-05    0.599E-06
RMM:   2    -0.138774539929E+03    0.31650E-09    0.00000E+00     5   0.841E-06
  25 F= -.13877454E+03 E0= -.13878709E+03  d E =0.691216E-10
       N       E                     dE             d eps       ncg     rms          rms(c)
DAV:   1    -0.138774539929E+03    0.40018E-09   -0.30446E-11   204   0.928E-06    0.496E-06
RMM:   2    -0.138774539929E+03   -0.40018E-10    0.00000E+00     5   0.702E-06
  26 F= -.13877454E+03 E0= -.13878709E+03  d E =0.436557E-10
       N       E                     dE             d eps       ncg     rms          rms(c)
DAV:   1    -0.138774539928E+03    0.57116E-09   -0.10510E-10   204   0.741E-06    0.465E-06
RMM:   2    -0.138774539929E+03   -0.56752E-09    0.00000E+00     4   0.566E-06
  27 F= -.13877454E+03 E0= -.13878709E+03  d E =0.436557E-10
       N       E                     dE             d eps       ncg     rms          rms(c)
DAV:   1    -0.138774539929E+03   -0.65484E-09   -0.76098E-11   204   0.672E-06    0.250E-06
RMM:   2    -0.138774539929E+03   -0.10914E-10    0.00000E+00     4   0.422E-06
  28 F= -.13877454E+03 E0= -.13878709E+03  d E =-.982254E-10
       N       E                     dE             d eps       ncg     rms          rms(c)
DAV:   1    -0.138774539928E+03    0.78217E-09   -0.12083E-11   204   0.442E-06    0.274E-06
RMM:   2    -0.138774539929E+03   -0.60027E-09    0.00000E+00     3   0.353E-06
  29 F= -.13877454E+03 E0= -.13878709E+03  d E =0.192813E-09
       N       E                     dE             d eps       ncg     rms          rms(c)
DAV:   1    -0.138774539928E+03    0.22192E-09    0.94195E-11   204   0.388E-06    0.163E-06
RMM:   2    -0.138774539929E+03   -0.85856E-09    0.00000E+00     3   0.254E-06
  30 F= -.13877454E+03 E0= -.13878709E+03  d E =-.363798E-10
       N       E                     dE             d eps       ncg     rms          rms(c)
DAV:   1    -0.138774539929E+03   -0.10805E-08   -0.21551E-11   204   0.288E-06    0.116E-06
RMM:   2    -0.138774539929E+03    0.20373E-09    0.00000E+00     3   0.212E-06
  31 F= -.13877454E+03 E0= -.13878709E+03  d E =-.181899E-10
       N       E                     dE             d eps       ncg     rms          rms(c)
DAV:   1    -0.138774539929E+03   -0.90949E-10    0.11151E-10   204   0.219E-06    0.120E-06
RMM:   2    -0.138774539929E+03    0.24374E-09    0.00000E+00     3   0.172E-06
  32 F= -.13877454E+03 E0= -.13878709E+03  d E =-.509317E-10
       N       E                     dE             d eps       ncg     rms          rms(c)
DAV:   1    -0.138774539929E+03   -0.16007E-09    0.11087E-10   204   0.204E-06    0.638E-07
RMM:   2    -0.138774539929E+03    0.34197E-09    0.00000E+00     3   0.124E-06
  33 F= -.13877454E+03 E0= -.13878709E+03  d E =-.618456E-10
       N       E                     dE             d eps       ncg     rms          rms(c)
DAV:   1    -0.138774539929E+03    0.10914E-09    0.98533E-12   204   0.131E-06    0.681E-07
RMM:   2    -0.138774539929E+03    0.28012E-09    0.00000E+00     3   0.101E-06
  34 F= -.13877454E+03 E0= -.13878709E+03  d E =0.472937E-10
       N       E                     dE             d eps       ncg     rms          rms(c)
DAV:   1    -0.138774539929E+03    0.46566E-09    0.49731E-11   204   0.110E-06    0.431E-07
RMM:   2    -0.138774539929E+03   -0.12005E-09    0.00000E+00     3   0.791E-07
  35 F= -.13877454E+03 E0= -.13878709E+03  d E =0.654836E-10
       N       E                     dE             d eps       ncg     rms          rms(c)
DAV:   1    -0.138774539929E+03   -0.48749E-09   -0.95653E-12   204   0.865E-07    0.292E-07
RMM:   2    -0.138774539929E+03    0.34561E-09    0.00000E+00     3   0.651E-07
  36 F= -.13877454E+03 E0= -.13878709E+03  d E =-.218279E-10
       N       E                     dE             d eps       ncg     rms          rms(c)
DAV:   1    -0.138774539929E+03    0.36016E-09   -0.20824E-11   204   0.668E-07    0.354E-07
RMM:   2    -0.138774539929E+03    0.61846E-10    0.00000E+00     3   0.533E-07
  37 F= -.13877454E+03 E0= -.13878709E+03  d E =0.763976E-10
       N       E                     dE             d eps       ncg     rms          rms(c)
DAV:   1    -0.138774539929E+03   -0.21464E-09   -0.34552E-11   204   0.601E-07    0.192E-07
RMM:   2    -0.138774539929E+03    0.24374E-09    0.00000E+00     3   0.388E-07
  38 F= -.13877454E+03 E0= -.13878709E+03  d E =-.327418E-10
       N       E                     dE             d eps       ncg     rms          rms(c)
DAV:   1    -0.138774539929E+03   -0.38563E-09    0.89248E-11   204   0.423E-07    0.174E-07
RMM:   2    -0.138774539929E+03    0.68394E-09    0.00000E+00     3   0.324E-07
  39 F= -.13877454E+03 E0= -.13878709E+03  d E =0.545697E-10
       N       E                     dE             d eps       ncg     rms          rms(c)
DAV:   1    -0.138774539929E+03    0.73123E-09   -0.23912E-11   204   0.341E-07    0.131E-07
RMM:   2    -0.138774539929E+03   -0.13461E-09    0.00000E+00     2   0.257E-07
  40 F= -.13877454E+03 E0= -.13878709E+03  d E =-.873115E-10
       N       E                     dE             d eps       ncg     rms          rms(c)
DAV:   1    -0.138774539929E+03   -0.82582E-09    0.12652E-10   204   0.295E-07    0.733E-08
RMM:   2    -0.138774539929E+03    0.70213E-09    0.00000E+00     2   0.203E-07
  41 F= -.13877454E+03 E0= -.13878709E+03  d E =0.109139E-10
       N       E                     dE             d eps       ncg     rms          rms(c)
DAV:   1    -0.138774539928E+03    0.11023E-08   -0.19784E-11   180   0.208E-07    0.828E-08
RMM:   2    -0.138774539929E+03   -0.37835E-09    0.00000E+00     1   0.164E-07
  42 F= -.13877454E+03 E0= -.13878709E+03  d E =0.218279E-10
       N       E                     dE             d eps       ncg     rms          rms(c)
DAV:   1    -0.138774539928E+03    0.80036E-10    0.36694E-11   168   0.178E-07    0.487E-08
RMM:   2    -0.138774539929E+03   -0.35652E-09    0.00000E+00     1   0.126E-07
  43 F= -.13877454E+03 E0= -.13878709E+03  d E =0.101863E-09
       N       E                     dE             d eps       ncg     rms          rms(c)
DAV:   1    -0.138774539929E+03   -0.75670E-09   -0.69098E-12   168   0.131E-07    0.405E-08
RMM:   2    -0.138774539929E+03    0.26557E-09    0.00000E+00     1   0.103E-07
  44 F= -.13877454E+03 E0= -.13878709E+03  d E =-.134605E-09
       N       E                     dE             d eps       ncg     rms          rms(c)
DAV:   1    -0.138774539929E+03    0.69122E-10    0.44474E-11   168   0.108E-07    0.354E-08
RMM:   2    -0.138774539929E+03    0.26557E-09    0.00000E+00     1   0.812E-08
  45 F= -.13877454E+03 E0= -.13878709E+03  d E =0.691216E-10
       N       E                     dE             d eps       ncg     rms          rms(c)
DAV:   1    -0.138774539929E+03   -0.53842E-09   -0.46102E-11   168   0.862E-08    0.239E-08
RMM:   2    -0.138774539929E+03    0.65847E-09    0.00000E+00     1   0.647E-08
  46 F= -.13877454E+03 E0= -.13878709E+03  d E =-.145519E-09
       N       E                     dE             d eps       ncg     rms          rms(c)
DAV:   1    -0.138774539929E+03    0.82218E-09    0.74795E-11   168   0.689E-08    0.241E-08
RMM:   2    -0.138774539929E+03   -0.12369E-09    0.00000E+00     1   0.535E-08
  47 F= -.13877454E+03 E0= -.13878709E+03  d E =0.400178E-10
       N       E                     dE             d eps       ncg     rms          rms(c)
DAV:   1    -0.138774539929E+03   -0.18190E-09   -0.19259E-11   168   0.563E-08    0.157E-08
RMM:   2    -0.138774539929E+03    0.12005E-09    0.00000E+00     1   0.416E-08
  48 F= -.13877454E+03 E0= -.13878709E+03  d E =0.618456E-10
       N       E                     dE             d eps       ncg     rms          rms(c)
DAV:   1    -0.138774539928E+03    0.58935E-09    0.16969E-11   168   0.458E-08    0.106E-08
RMM:   2    -0.138774539929E+03   -0.52023E-09    0.00000E+00     1   0.333E-08
  49 F= -.13877454E+03 E0= -.13878709E+03  d E =-.509317E-10
       N       E                     dE             d eps       ncg     rms          rms(c)
DAV:   1    -0.138774539929E+03   -0.12442E-08    0.13304E-11   168   0.341E-08    0.118E-08
RMM:   2    -0.138774539929E+03    0.81855E-09    0.00000E+00     1   0.266E-08
  50 F= -.13877454E+03 E0= -.13878709E+03  d E =0.945874E-10
       N       E                     dE             d eps       ncg     rms          rms(c)
DAV:   1    -0.138774539930E+03   -0.16371E-09   -0.62484E-11   168   0.292E-08    0.636E-09
RMM:   2    -0.138774539929E+03    0.85493E-09    0.00000E+00     1   0.206E-08
  51 F= -.13877454E+03 E0= -.13878709E+03  d E =-.127329E-09
       N       E                     dE             d eps       ncg     rms          rms(c)
DAV:   1    -0.138774539929E+03    0.10150E-08   -0.12782E-11   168   0.213E-08    0.539E-09
RMM:   2    -0.138774539929E+03   -0.58208E-10    0.00000E+00     1   0.161E-08
  52 F= -.13877454E+03 E0= -.13878709E+03  d E =0.101863E-09
       N       E                     dE             d eps       ncg     rms          rms(c)
DAV:   1    -0.138774539928E+03    0.13824E-09    0.27077E-11   168   0.170E-08    0.415E-09
RMM:   2    -0.138774539929E+03   -0.23647E-09    0.00000E+00     1   0.132E-08
  53 F= -.13877454E+03 E0= -.13878709E+03  d E =-.400178E-10
       N       E                     dE             d eps       ncg     rms          rms(c)
DAV:   1    -0.138774539929E+03   -0.30195E-09   -0.53757E-11   168   0.137E-08    0.287E-09
RMM:   2    -0.138774539929E+03    0.13824E-09    0.00000E+00     1   0.105E-08
  54 F= -.13877454E+03 E0= -.13878709E+03  d E =0.727596E-10
       N       E                     dE             d eps       ncg     rms          rms(c)
DAV:   1    -0.138774539929E+03    0.20009E-09   -0.50424E-11   168   0.109E-08    0.278E-09
RMM:   2    -0.138774539929E+03   -0.76398E-10    0.00000E+00     1   0.869E-09
  55 F= -.13877454E+03 E0= -.13878709E+03  d E =-.145519E-10
       N       E                     dE             d eps       ncg     rms          rms(c)
DAV:   1    -0.138774539928E+03    0.26557E-09   -0.41258E-11   168   0.906E-09    0.186E-09
RMM:   2    -0.138774539929E+03   -0.38563E-09    0.00000E+00     1   0.674E-09
  56 F= -.13877454E+03 E0= -.13878709E+03  d E =-.436557E-10
       N       E                     dE             d eps       ncg     rms          rms(c)
DAV:   1    -0.138774539929E+03   -0.98225E-09   -0.23217E-11   168   0.713E-09    0.158E-09
RMM:   2    -0.138774539929E+03    0.62573E-09    0.00000E+00     1   0.560E-09
  57 F= -.13877454E+03 E0= -.13878709E+03  d E =0.291038E-10
       N       E                     dE             d eps       ncg     rms          rms(c)
DAV:   1    -0.138774539929E+03    0.58571E-09    0.38710E-12   168   0.574E-09    0.139E-09
RMM:   2    -0.138774539929E+03    0.13097E-09    0.00000E+00     1   0.450E-09
  58 F= -.13877454E+03 E0= -.13878709E+03  d E =0.909495E-10
       N       E                     dE             d eps       ncg     rms          rms(c)
DAV:   1    -0.138774539929E+03   -0.48749E-09   -0.60201E-11   168   0.487E-09    0.822E-10
RMM:   2    -0.138774539929E+03    0.54933E-09    0.00000E+00     1   0.348E-09
  59 F= -.13877454E+03 E0= -.13878709E+03  d E =-.691216E-10
       N       E                     dE             d eps       ncg     rms          rms(c)
DAV:   1    -0.138774539930E+03   -0.52387E-09   -0.85477E-11   168   0.358E-09    0.104E-09
RMM:   2    -0.138774539929E+03    0.10623E-08    0.00000E+00     1   0.283E-09
  60 F= -.13877454E+03 E0= -.13878709E+03  d E =-.109139E-10
       N       E                     dE             d eps       ncg     rms          rms(c)
DAV:   1    -0.138774539928E+03    0.13388E-08    0.19840E-11   168   0.300E-09    0.648E-10
RMM:   2    -0.138774539929E+03   -0.27649E-09    0.00000E+00     1   0.225E-09
  61 F= -.13877454E+03 E0= -.13878709E+03  d E =0.000000E+00
       N       E                     dE             d eps       ncg     rms          rms(c)
DAV:   1    -0.138774539929E+03   -0.54206E-09    0.51814E-12   168   0.239E-09    0.432E-10
RMM:   2    -0.138774539929E+03    0.20009E-09    0.00000E+00     1   0.182E-09
  62 F= -.13877454E+03 E0= -.13878709E+03  d E =-.654836E-10
       N       E                     dE             d eps       ncg     rms          rms(c)
DAV:   1    -0.138774539929E+03   -0.26557E-09   -0.11091E-10   168   0.187E-09    0.534E-10
RMM:   2    -0.138774539929E+03    0.50204E-09    0.00000E+00     1   0.151E-09
  63 F= -.13877454E+03 E0= -.13878709E+03  d E =0.363798E-10
       N       E                     dE             d eps       ncg     rms          rms(c)
DAV:   1    -0.138774539929E+03    0.23647E-09   -0.80757E-11   168   0.161E-09    0.390E-10
RMM:   2    -0.138774539929E+03    0.34197E-09    0.00000E+00     1   0.118E-09
  64 F= -.13877454E+03 E0= -.13878709E+03  d E =0.763976E-10
       N       E                     dE             d eps       ncg     rms          rms(c)
DAV:   1    -0.138774539929E+03    0.21828E-10   -0.11794E-10   168   0.126E-09    0.358E-10
RMM:   2    -0.138774539929E+03    0.24374E-09    0.00000E+00     1   0.974E-10
  65 F= -.13877454E+03 E0= -.13878709E+03  d E =-.763976E-10
       N       E                     dE             d eps       ncg     rms          rms(c)
DAV:   1    -0.138774539929E+03    0.12733E-09   -0.65031E-11   168   0.104E-09    0.357E-10
RMM:   2    -0.138774539929E+03    0.80036E-10    0.00000E+00     1   0.795E-10
  66 F= -.13877454E+03 E0= -.13878709E+03  d E =-.363798E-10
       N       E                     dE             d eps       ncg     rms          rms(c)
DAV:   1    -0.138774539929E+03    0.12733E-09   -0.99441E-12   168   0.889E-10    0.337E-10
RMM:   2    -0.138774539929E+03   -0.61846E-10    0.00000E+00     1   0.653E-10
  67 F= -.13877454E+03 E0= -.13878709E+03  d E =-.145519E-10
       N       E                     dE             d eps       ncg     rms          rms(c)
DAV:   1    -0.138774539929E+03    0.90949E-10   -0.45133E-11   168   0.734E-10    0.252E-10
RMM:   2    -0.138774539929E+03   -0.36380E-10    0.00000E+00     1   0.528E-10
  68 F= -.13877454E+03 E0= -.13878709E+03  d E =0.116415E-09
       N       E                     dE             d eps       ncg     rms          rms(c)
DAV:   1    -0.138774539929E+03   -0.78217E-09   -0.26173E-11   168   0.585E-10    0.223E-10
RMM:   2    -0.138774539929E+03    0.61846E-09    0.00000E+00     1   0.436E-10
  69 F= -.13877454E+03 E0= -.13878709E+03  d E =-.127329E-09
       N       E                     dE             d eps       ncg     rms          rms(c)
DAV:   1    -0.138774539928E+03    0.97134E-09   -0.39586E-11   168   0.481E-10    0.257E-10
RMM:   2    -0.138774539929E+03   -0.26921E-09    0.00000E+00     1   0.375E-10
  70 F= -.13877454E+03 E0= -.13878709E+03  d E =0.836735E-10
       N       E                     dE             d eps       ncg     rms          rms(c)
DAV:   1    -0.138774539929E+03   -0.19281E-09   -0.77172E-11   168   0.463E-10    0.221E-10
RMM:   2    -0.138774539929E+03   -0.18917E-09    0.00000E+00     1   0.329E-10
  71 F= -.13877454E+03 E0= -.13878709E+03  d E =-.112777E-09
       N       E                     dE             d eps       ncg     rms          rms(c)
DAV:   1    -0.138774539929E+03   -0.40018E-10   -0.17807E-11   168   0.336E-10    0.201E-10
RMM:   2    -0.138774539929E+03   -0.72760E-11    0.00000E+00     1   0.257E-10
  72 F= -.13877454E+03 E0= -.13878709E+03  d E =0.141881E-09
       N       E                     dE             d eps       ncg     rms          rms(c)
DAV:   1    -0.138774539928E+03    0.63665E-09   -0.31111E-11   168   0.310E-10    0.307E-10
RMM:   2    -0.138774539929E+03   -0.71304E-09    0.00000E+00     1   0.242E-10
  73 F= -.13877454E+03 E0= -.13878709E+03  d E =-.691216E-10
       N       E                     dE             d eps       ncg     rms          rms(c)
DAV:   1    -0.138774539929E+03   -0.14406E-08   -0.66006E-11   168   0.299E-10    0.267E-10
RMM:   2    -0.138774539929E+03    0.72396E-09    0.00000E+00     1   0.214E-10
  74 F= -.13877454E+03 E0= -.13878709E+03  d E =-.363798E-11
       N       E                     dE             d eps       ncg     rms          rms(c)
DAV:   1    -0.138774539928E+03    0.10368E-08   -0.12298E-12   168   0.289E-10    0.250E-10
RMM:   2    -0.138774539929E+03   -0.31287E-09    0.00000E+00     1   0.184E-10
  75 F= -.13877454E+03 E0= -.13878709E+03  d E =0.000000E+00
       N       E                     dE             d eps       ncg     rms          rms(c)
DAV:   1    -0.138774539928E+03    0.28740E-09   -0.37102E-11   168   0.273E-10    0.309E-10
RMM:   2    -0.138774539929E+03   -0.61118E-09    0.00000E+00     1   0.198E-10
  76 F= -.13877454E+03 E0= -.13878709E+03  d E =-.109139E-10
       N       E                     dE             d eps       ncg     rms          rms(c)
DAV:   1    -0.138774539929E+03   -0.80763E-09    0.13128E-11   168   0.314E-10    0.332E-10
RMM:   2    -0.138774539929E+03    0.28376E-09    0.00000E+00     1   0.171E-10
  77 F= -.13877454E+03 E0= -.13878709E+03  d E =0.873115E-10
       N       E                     dE             d eps       ncg     rms          rms(c)
DAV:   1    -0.138774539929E+03   -0.46930E-09   -0.57475E-11   168   0.327E-10    0.232E-10
RMM:   2    -0.138774539929E+03    0.72396E-09    0.00000E+00     1   0.155E-10
  78 F= -.13877454E+03 E0= -.13878709E+03  d E =-.291038E-10
       N       E                     dE             d eps       ncg     rms          rms(c)
DAV:   1    -0.138774539928E+03    0.89130E-09    0.58580E-12   168   0.300E-10    0.176E-10
RMM:   2    -0.138774539929E+03   -0.22192E-09    0.00000E+00     1   0.136E-10
  79 F= -.13877454E+03 E0= -.13878709E+03  d E =-.545697E-10
       N       E                     dE             d eps       ncg     rms          rms(c)
DAV:   1    -0.138774539929E+03   -0.31287E-09   -0.28185E-11   168   0.186E-10    0.188E-10
RMM:   2    -0.138774539929E+03    0.14188E-09    0.00000E+00     1   0.127E-10
  80 F= -.13877454E+03 E0= -.13878709E+03  d E =0.509317E-10
       N       E                     dE             d eps       ncg     rms          rms(c)
DAV:   1    -0.138774539928E+03    0.46930E-09   -0.57730E-11   168   0.168E-10    0.248E-10
RMM:   2    -0.138774539929E+03   -0.29831E-09    0.00000E+00     1   0.134E-10
  81 F= -.13877454E+03 E0= -.13878709E+03  d E =0.291038E-10
       N       E                     dE             d eps       ncg     rms          rms(c)
DAV:   1    -0.138774539928E+03    0.55297E-09   -0.30641E-11   168   0.211E-10    0.301E-10
RMM:   2    -0.138774539929E+03   -0.97498E-09    0.00000E+00     1   0.132E-10
  82 F= -.13877454E+03 E0= -.13878709E+03  d E =-.123691E-09
       N       E                     dE             d eps       ncg     rms          rms(c)
DAV:   1    -0.138774539929E+03   -0.13424E-08    0.23129E-11   168   0.166E-10    0.269E-10
RMM:   2    -0.138774539929E+03    0.38926E-09    0.00000E+00     1   0.117E-10
  83 F= -.13877454E+03 E0= -.13878709E+03  d E =0.218279E-10
       N       E                     dE             d eps       ncg     rms          rms(c)
DAV:   1    -0.138774539929E+03    0.90949E-10   -0.17790E-11   168   0.200E-10    0.317E-10
RMM:   2    -0.138774539929E+03    0.38563E-09    0.00000E+00     1   0.137E-10
  84 F= -.13877454E+03 E0= -.13878709E+03  d E =0.873115E-10
       N       E                     dE             d eps       ncg     rms          rms(c)
DAV:   1    -0.138774539928E+03    0.70213E-09   -0.17621E-11   168   0.271E-10    0.228E-10
RMM:   2    -0.138774539929E+03   -0.40018E-09    0.00000E+00     1   0.126E-10
  85 F= -.13877454E+03 E0= -.13878709E+03  d E =-.836735E-10
       N       E                     dE             d eps       ncg     rms          rms(c)
DAV:   1    -0.138774539928E+03   -0.12005E-09   -0.82712E-11   168   0.196E-10    0.355E-10
RMM:   2    -0.138774539929E+03   -0.16007E-09    0.00000E+00     1   0.133E-10
  86 F= -.13877454E+03 E0= -.13878709E+03  d E =0.120053E-09
       N       E                     dE             d eps       ncg     rms          rms(c)
DAV:   1    -0.138774539928E+03    0.45839E-09   -0.15480E-11   168   0.147E-10    0.307E-10
RMM:   2    -0.138774539929E+03   -0.73487E-09    0.00000E+00     1   0.131E-10
  87 F= -.13877454E+03 E0= -.13878709E+03  d E =-.116415E-09
       N       E                     dE             d eps       ncg     rms          rms(c)
DAV:   1    -0.138774539929E+03   -0.12114E-08   -0.75834E-11   168   0.136E-10    0.197E-10
RMM:   2    -0.138774539929E+03    0.46566E-09    0.00000E+00     1   0.126E-10
  88 F= -.13877454E+03 E0= -.13878709E+03  d E =-.109139E-10
       N       E                     dE             d eps       ncg     rms          rms(c)
DAV:   1    -0.138774539928E+03    0.13752E-08   -0.32728E-11   168   0.255E-10    0.154E-10
RMM:   2    -0.138774539929E+03   -0.86584E-09    0.00000E+00     1   0.951E-11
  89 F= -.13877454E+03 E0= -.13878709E+03  d E =0.436557E-10
       N       E                     dE             d eps       ncg     rms          rms(c)
DAV:   1    -0.138774539928E+03   -0.54933E-09   -0.12261E-10   168   0.123E-10    0.209E-10
RMM:   2    -0.138774539929E+03   -0.26193E-09    0.00000E+00     1   0.106E-10
  90 F= -.13877454E+03 E0= -.13878709E+03  d E =0.545697E-10
       N       E                     dE             d eps       ncg     rms          rms(c)
DAV:   1    -0.138774539930E+03   -0.12951E-08   -0.14465E-11   168   0.208E-10    0.321E-10
RMM:   2    -0.138774539929E+03    0.96770E-09    0.00000E+00     1   0.126E-10
  91 F= -.13877454E+03 E0= -.13878709E+03  d E =-.654836E-10
       N       E                     dE             d eps       ncg     rms          rms(c)
DAV:   1    -0.138774539928E+03    0.13279E-08   -0.25504E-11   168   0.226E-10    0.226E-10
RMM:   2    -0.138774539929E+03   -0.42564E-09    0.00000E+00     1   0.107E-10
  92 F= -.13877454E+03 E0= -.13878709E+03  d E =-.654836E-10
       N       E                     dE             d eps       ncg     rms          rms(c)
DAV:   1    -0.138774539929E+03   -0.73123E-09   -0.11216E-10   168   0.209E-10    0.110E-10
RMM:   2    -0.138774539929E+03    0.33469E-09    0.00000E+00     1   0.108E-10
  93 F= -.13877454E+03 E0= -.13878709E+03  d E =0.291038E-10
       N       E                     dE             d eps       ncg     rms          rms(c)
DAV:   1    -0.138774539928E+03    0.69122E-09   -0.47759E-12   168   0.109E-10    0.275E-10
RMM:   2    -0.138774539929E+03   -0.23647E-09    0.00000E+00     1   0.111E-10
  94 F= -.13877454E+03 E0= -.13878709E+03  d E =0.120053E-09
       N       E                     dE             d eps       ncg     rms          rms(c)
DAV:   1    -0.138774539928E+03    0.16735E-09   -0.12345E-10   168   0.245E-10    0.199E-10
RMM:   2    -0.138774539929E+03   -0.51659E-09    0.00000E+00     1   0.101E-10
  95 F= -.13877454E+03 E0= -.13878709E+03  d E =-.112777E-09
       N       E                     dE             d eps       ncg     rms          rms(c)
DAV:   1    -0.138774539928E+03    0.17826E-09   -0.28623E-11   168   0.149E-10    0.306E-10
RMM:   2    -0.138774539929E+03   -0.57116E-09    0.00000E+00     1   0.120E-10
  96 F= -.13877454E+03 E0= -.13878709E+03  d E =0.123691E-09
       N       E                     dE             d eps       ncg     rms          rms(c)
DAV:   1    -0.138774539929E+03   -0.10150E-08    0.21813E-11   168   0.212E-10    0.452E-10
RMM:   2    -0.138774539929E+03    0.36380E-09    0.00000E+00     1   0.161E-10
  97 F= -.13877454E+03 E0= -.13878709E+03  d E =-.800355E-10
       N       E                     dE             d eps       ncg     rms          rms(c)
DAV:   1    -0.138774539929E+03    0.12005E-09   -0.80018E-11   168   0.199E-10    0.221E-10
RMM:   2    -0.138774539929E+03    0.21100E-09    0.00000E+00     1   0.121E-10
  98 F= -.13877454E+03 E0= -.13878709E+03  d E =-.327418E-10
       N       E                     dE             d eps       ncg     rms          rms(c)
DAV:   1    -0.138774539929E+03    0.15643E-09   -0.45854E-11   168   0.195E-10    0.162E-10
RMM:   2    -0.138774539929E+03    0.90949E-10    0.00000E+00     1   0.898E-11
  99 F= -.13877454E+03 E0= -.13878709E+03  d E =0.363798E-10
       N       E                     dE             d eps       ncg     rms          rms(c)
DAV:   1    -0.138774539930E+03   -0.80399E-09   -0.36327E-11   168   0.115E-10    0.237E-10
RMM:   2    -0.138774539929E+03    0.93496E-09    0.00000E+00     1   0.959E-11
 100 F= -.13877454E+03 E0= -.13878709E+03  d E =0.400178E-10
       N       E                     dE             d eps       ncg     rms          rms(c)
DAV:   1    -0.138774539929E+03    0.58571E-09   -0.75909E-11   168   0.123E-10    0.153E-10
RMM:   2    -0.138774539929E+03    0.36744E-09    0.00000E+00     1   0.954E-11
 101 F= -.13877454E+03 E0= -.13878709E+03  d E =0.181899E-10
       N       E                     dE             d eps       ncg     rms          rms(c)
DAV:   1    -0.138774539929E+03   -0.42564E-09   -0.78060E-11   168   0.160E-10    0.169E-10
RMM:   2    -0.138774539929E+03    0.72396E-09    0.00000E+00     1   0.125E-10
 102 F= -.13877454E+03 E0= -.13878709E+03  d E =-.691216E-10
       N       E                     dE             d eps       ncg     rms          rms(c)
DAV:   1    -0.138774539929E+03    0.53478E-09   -0.19784E-11   168   0.176E-10    0.166E-10
RMM:   2    -0.138774539929E+03    0.18190E-09    0.00000E+00     1   0.116E-10
 103 F= -.13877454E+03 E0= -.13878709E+03  d E =-.727596E-11
       N       E                     dE             d eps       ncg     rms          rms(c)
DAV:   1    -0.138774539928E+03    0.10514E-08   -0.79986E-11   168   0.197E-10    0.171E-10
RMM:   2    -0.138774539929E+03   -0.75306E-09    0.00000E+00     1   0.974E-11
 104 F= -.13877454E+03 E0= -.13878709E+03  d E =0.116415E-09
       N       E                     dE             d eps       ncg     rms          rms(c)
DAV:   1    -0.138774539928E+03   -0.35288E-09   -0.10448E-11   168   0.148E-10    0.184E-10
RMM:   2    -0.138774539929E+03   -0.58935E-09    0.00000E+00     1   0.897E-11
 105 F= -.13877454E+03 E0= -.13878709E+03  d E =-.189175E-09
       N       E                     dE             d eps       ncg     rms          rms(c)
DAV:   1    -0.138774539929E+03   -0.11350E-08   -0.70623E-11   168   0.184E-10    0.895E-11
RMM:   2    -0.138774539929E+03    0.67303E-09    0.00000E+00     1   0.103E-10
 106 F= -.13877454E+03 E0= -.13878709E+03  d E =0.127329E-09
       N       E                     dE             d eps       ncg     rms          rms(c)
DAV:   1    -0.138774539928E+03    0.12515E-08   -0.64147E-11   168   0.104E-10    0.148E-10
RMM:   2    -0.138774539929E+03   -0.61118E-09    0.00000E+00     1   0.872E-11
 107 F= -.13877454E+03 E0= -.13878709E+03  d E =-.327418E-10
       N       E                     dE             d eps       ncg     rms          rms(c)
DAV:   1    -0.138774539928E+03    0.50932E-10   -0.21587E-11   168   0.991E-11    0.269E-10
RMM:   2    -0.138774539929E+03   -0.67303E-09    0.00000E+00     1   0.992E-11
 108 F= -.13877454E+03 E0= -.13878709E+03  d E =-.109139E-10
       N       E                     dE             d eps       ncg     rms          rms(c)
DAV:   1    -0.138774539928E+03   -0.44747E-09   -0.51782E-11   168   0.177E-10    0.156E-10
RMM:   2    -0.138774539929E+03   -0.13824E-09    0.00000E+00     1   0.970E-11
 109 F= -.13877454E+03 E0= -.13878709E+03  d E =0.873115E-10
       N       E                     dE             d eps       ncg     rms          rms(c)
DAV:   1    -0.138774539929E+03   -0.27285E-09   -0.51872E-13   168   0.156E-10    0.265E-10
RMM:   2    -0.138774539929E+03    0.13461E-09    0.00000E+00     1   0.122E-10
 110 F= -.13877454E+03 E0= -.13878709E+03  d E =0.000000E+00
       N       E                     dE             d eps       ncg     rms          rms(c)
DAV:   1    -0.138774539929E+03   -0.38199E-09    0.78996E-11   168   0.264E-10    0.135E-10
RMM:   2    -0.138774539929E+03    0.49113E-09    0.00000E+00     1   0.117E-10
 111 F= -.13877454E+03 E0= -.13878709E+03  d E =-.254659E-10
       N       E                     dE             d eps       ncg     rms          rms(c)
DAV:   1    -0.138774539929E+03   -0.26193E-09    0.69824E-13   168   0.121E-10    0.279E-10
RMM:   2    -0.138774539929E+03    0.72760E-09    0.00000E+00     1   0.105E-10
 112 F= -.13877454E+03 E0= -.13878709E+03  d E =-.254659E-10
       N       E                     dE             d eps       ncg     rms          rms(c)
DAV:   1    -0.138774539929E+03    0.73487E-09   -0.47231E-11   168   0.156E-10    0.161E-10
RMM:   2    -0.138774539929E+03   -0.72760E-11    0.00000E+00     1   0.887E-11
 113 F= -.13877454E+03 E0= -.13878709E+03  d E =0.000000E+00
       N       E                     dE             d eps       ncg     rms          rms(c)
DAV:   1    -0.138774539928E+03    0.10550E-08    0.20102E-11   168   0.145E-10    0.188E-10
RMM:   2    -0.138774539929E+03   -0.11278E-08    0.00000E+00     1   0.962E-11
 114 F= -.13877454E+03 E0= -.13878709E+03  d E =-.654836E-10
       N       E                     dE             d eps       ncg     rms          rms(c)
DAV:   1    -0.138774539928E+03   -0.77489E-09   -0.24833E-11   168   0.133E-10    0.211E-10
RMM:   2    -0.138774539929E+03   -0.36744E-09    0.00000E+00     1   0.106E-10
 115 F= -.13877454E+03 E0= -.13878709E+03  d E =-.145519E-10
       N       E                     dE             d eps       ncg     rms          rms(c)
DAV:   1    -0.138774539929E+03   -0.26921E-09   -0.10670E-10   168   0.173E-10    0.336E-10
RMM:   2    -0.138774539929E+03   -0.72760E-10    0.00000E+00     1   0.121E-10
 116 F= -.13877454E+03 E0= -.13878709E+03  d E =0.254659E-10
       N       E                     dE             d eps       ncg     rms          rms(c)
DAV:   1    -0.138774539929E+03   -0.72396E-09    0.78240E-11   168   0.293E-10    0.174E-10
RMM:   2    -0.138774539929E+03    0.62209E-09    0.00000E+00     1   0.925E-11
 117 F= -.13877454E+03 E0= -.13878709E+03  d E =-.291038E-10
       N       E                     dE             d eps       ncg     rms          rms(c)
DAV:   1    -0.138774539929E+03    0.44383E-09   -0.23510E-11   168   0.172E-10    0.319E-10
RMM:   2    -0.138774539929E+03    0.32014E-09    0.00000E+00     1   0.123E-10
 118 F= -.13877454E+03 E0= -.13878709E+03  d E =0.141881E-09
       N       E                     dE             d eps       ncg     rms          rms(c)
DAV:   1    -0.138774539930E+03   -0.74579E-09   -0.38258E-11   168   0.209E-10    0.318E-10
RMM:   2    -0.138774539929E+03    0.10186E-08    0.00000E+00     1   0.127E-10
 119 F= -.13877454E+03 E0= -.13878709E+03  d E =-.472937E-10
       N       E                     dE             d eps       ncg     rms          rms(c)
DAV:   1    -0.138774539929E+03    0.10223E-08   -0.12360E-10   168   0.229E-10    0.211E-10
RMM:   2    -0.138774539929E+03   -0.58208E-10    0.00000E+00     1   0.134E-10
 120 F= -.13877454E+03 E0= -.13878709E+03  d E =-.545697E-10
       N       E                     dE             d eps       ncg     rms          rms(c)
DAV:   1    -0.138774539929E+03   -0.42564E-09   -0.72532E-11   168   0.170E-10    0.262E-10
RMM:   2    -0.138774539929E+03    0.32014E-09    0.00000E+00     1   0.119E-10
 121 F= -.13877454E+03 E0= -.13878709E+03  d E =-.472937E-10
       N       E                     dE             d eps       ncg     rms          rms(c)
DAV:   1    -0.138774539930E+03   -0.57844E-09   -0.39653E-11   168   0.161E-10    0.148E-10
RMM:   2    -0.138774539929E+03    0.89130E-09    0.00000E+00     1   0.106E-10
 122 F= -.13877454E+03 E0= -.13878709E+03  d E =-.727596E-11
       N       E                     dE             d eps       ncg     rms          rms(c)
DAV:   1    -0.138774539928E+03    0.11350E-08   -0.19420E-11   168   0.119E-10    0.226E-10
RMM:   2    -0.138774539929E+03   -0.16371E-09    0.00000E+00     1   0.121E-10
 123 F= -.13877454E+03 E0= -.13878709E+03  d E =0.800355E-10
       N       E                     dE             d eps       ncg     rms          rms(c)
DAV:   1    -0.138774539929E+03   -0.36744E-09   -0.26478E-11   168   0.179E-10    0.179E-10
RMM:   2    -0.138774539929E+03    0.20373E-09    0.00000E+00     1   0.910E-11
 124 F= -.13877454E+03 E0= -.13878709E+03  d E =0.000000E+00
       N       E                     dE             d eps       ncg     rms          rms(c)
DAV:   1    -0.138774539928E+03    0.40745E-09    0.38047E-11   168   0.189E-10    0.207E-10
RMM:   2    -0.138774539929E+03   -0.26193E-09    0.00000E+00     1   0.115E-10
 125 F= -.13877454E+03 E0= -.13878709E+03  d E =-.582077E-10
       N       E                     dE             d eps       ncg     rms          rms(c)
DAV:   1    -0.138774539928E+03    0.16007E-09   -0.51589E-11   168   0.119E-10    0.163E-10
RMM:   2    -0.138774539929E+03   -0.40382E-09    0.00000E+00     1   0.103E-10
 126 F= -.13877454E+03 E0= -.13878709E+03  d E =0.181899E-10
       N       E                     dE             d eps       ncg     rms          rms(c)
DAV:   1    -0.138774539929E+03   -0.71304E-09   -0.55958E-11   168   0.165E-10    0.239E-10
RMM:   2    -0.138774539929E+03    0.27285E-09    0.00000E+00     1   0.111E-10
 127 F= -.13877454E+03 E0= -.13878709E+03  d E =-.363798E-10
       N       E                     dE             d eps       ncg     rms          rms(c)
DAV:   1    -0.138774539929E+03   -0.83674E-10   -0.97843E-11   168   0.140E-10    0.390E-10
RMM:   2    -0.138774539929E+03    0.42928E-09    0.00000E+00     1   0.138E-10
 128 F= -.13877454E+03 E0= -.13878709E+03  d E =0.727596E-10
       N       E                     dE             d eps       ncg     rms          rms(c)
DAV:   1    -0.138774539929E+03    0.36380E-09    0.18163E-11   168   0.303E-10    0.195E-10
RMM:   2    -0.138774539929E+03   -0.72760E-11    0.00000E+00     1   0.893E-11
 129 F= -.13877454E+03 E0= -.13878709E+03  d E =-.727596E-10
       N       E                     dE             d eps       ncg     rms          rms(c)
DAV:   1    -0.138774539928E+03    0.23647E-09   -0.54571E-11   168   0.203E-10    0.217E-10
RMM:   2    -0.138774539929E+03   -0.24738E-09    0.00000E+00     1   0.114E-10
 130 F= -.13877454E+03 E0= -.13878709E+03  d E =-.363798E-11
       N       E                     dE             d eps       ncg     rms          rms(c)
DAV:   1    -0.138774539929E+03   -0.13824E-09   -0.30237E-11   168   0.171E-10    0.211E-10
RMM:   2    -0.138774539929E+03   -0.61846E-10    0.00000E+00     1   0.991E-11
 131 F= -.13877454E+03 E0= -.13878709E+03  d E =0.472937E-10
       N       E                     dE             d eps       ncg     rms          rms(c)
DAV:   1    -0.138774539929E+03   -0.34561E-09   -0.89733E-11   168   0.114E-10    0.275E-10
RMM:   2    -0.138774539929E+03    0.31287E-09    0.00000E+00     1   0.123E-10
 132 F= -.13877454E+03 E0= -.13878709E+03  d E =0.291038E-10
       N       E                     dE             d eps       ncg     rms          rms(c)
DAV:   1    -0.138774539928E+03    0.77125E-09   -0.22288E-11   168   0.277E-10    0.177E-10
RMM:   2    -0.138774539929E+03   -0.49477E-09    0.00000E+00     1   0.100E-10
 133 F= -.13877454E+03 E0= -.13878709E+03  d E =-.363798E-10
       N       E                     dE             d eps       ncg     rms          rms(c)
DAV:   1    -0.138774539929E+03   -0.78580E-09   -0.61309E-11   168   0.138E-10    0.278E-10
RMM:   2    -0.138774539929E+03    0.27285E-09    0.00000E+00     1   0.112E-10
 134 F= -.13877454E+03 E0= -.13878709E+03  d E =-.181899E-10
       N       E                     dE             d eps       ncg     rms          rms(c)
DAV:   1    -0.138774539929E+03    0.21100E-09   -0.43130E-12   168   0.159E-10    0.186E-10
RMM:   2    -0.138774539929E+03    0.14552E-09    0.00000E+00     1   0.117E-10
 135 F= -.13877454E+03 E0= -.13878709E+03  d E =0.836735E-10
       N       E                     dE             d eps       ncg     rms          rms(c)
DAV:   1    -0.138774539929E+03   -0.90949E-10    0.77325E-12   168   0.212E-10    0.133E-10
RMM:   2    -0.138774539929E+03    0.20373E-09    0.00000E+00     1   0.113E-10
 136 F= -.13877454E+03 E0= -.13878709E+03  d E =-.327418E-10
       N       E                     dE             d eps       ncg     rms          rms(c)
DAV:   1    -0.138774539929E+03   -0.35288E-09   -0.61299E-12   168   0.186E-10    0.157E-10
RMM:   2    -0.138774539929E+03    0.48021E-09    0.00000E+00     1   0.100E-10
 137 F= -.13877454E+03 E0= -.13878709E+03  d E =-.763976E-10
       N       E                     dE             d eps       ncg     rms          rms(c)
DAV:   1    -0.138774539930E+03   -0.52387E-09    0.21902E-11   168   0.129E-10    0.118E-10
RMM:   2    -0.138774539929E+03    0.10987E-08    0.00000E+00     1   0.882E-11
 138 F= -.13877454E+03 E0= -.13878709E+03  d E =0.945874E-10
       N       E                     dE             d eps       ncg     rms          rms(c)
DAV:   1    -0.138774539929E+03    0.50204E-09   -0.85317E-12   168   0.136E-10    0.167E-10
RMM:   2    -0.138774539929E+03    0.61482E-09    0.00000E+00     1   0.101E-10
 139 F= -.13877454E+03 E0= -.13878709E+03  d E =0.181899E-10
       N       E                     dE             d eps       ncg     rms          rms(c)
DAV:   1    -0.138774539929E+03    0.37471E-09   -0.19089E-11   168   0.166E-10    0.224E-10
RMM:   2    -0.138774539929E+03    0.22192E-09    0.00000E+00     1   0.887E-11
 140 F= -.13877454E+03 E0= -.13878709E+03  d E =-.181899E-10
       N       E                     dE             d eps       ncg     rms          rms(c)
DAV:   1    -0.138774539930E+03   -0.73851E-09   -0.11232E-10   168   0.161E-10    0.165E-10
RMM:   2    -0.138774539929E+03    0.83674E-09    0.00000E+00     1   0.997E-11
 141 F= -.13877454E+03 E0= -.13878709E+03  d E =-.123691E-09
       N       E                     dE             d eps       ncg     rms          rms(c)
DAV:   1    -0.138774539929E+03    0.85856E-09   -0.58106E-11   168   0.107E-10    0.182E-10
RMM:   2    -0.138774539929E+03    0.25466E-10    0.00000E+00     1   0.954E-11
 142 F= -.13877454E+03 E0= -.13878709E+03  d E =0.472937E-10
       N       E                     dE             d eps       ncg     rms          rms(c)
DAV:   1    -0.138774539929E+03   -0.77489E-09   -0.59415E-11   168   0.130E-10    0.235E-10
RMM:   2    -0.138774539929E+03    0.77853E-09    0.00000E+00     1   0.968E-11
 143 F= -.13877454E+03 E0= -.13878709E+03  d E =-.218279E-10
       N       E                     dE             d eps       ncg     rms          rms(c)
DAV:   1    -0.138774539930E+03   -0.65484E-10   -0.28676E-12   168   0.192E-10    0.325E-10
RMM:   2    -0.138774539929E+03    0.81127E-09    0.00000E+00     1   0.140E-10
 144 F= -.13877454E+03 E0= -.13878709E+03  d E =-.327418E-10
       N       E                     dE             d eps       ncg     rms          rms(c)
DAV:   1    -0.138774539929E+03    0.36016E-09   -0.11377E-11   168   0.274E-10    0.204E-10
RMM:   2    -0.138774539929E+03    0.64756E-09    0.00000E+00     1   0.139E-10
 145 F= -.13877454E+03 E0= -.13878709E+03  d E =0.196451E-09
       N       E                     dE             d eps       ncg     rms          rms(c)
DAV:   1    -0.138774539928E+03    0.88767E-09   -0.74259E-11   168   0.189E-10    0.297E-10
RMM:   2    -0.138774539929E+03   -0.24374E-09    0.00000E+00     1   0.133E-10
 146 F= -.13877454E+03 E0= -.13878709E+03  d E =-.363798E-11
       N       E                     dE             d eps       ncg     rms          rms(c)
DAV:   1    -0.138774539929E+03   -0.91313E-09    0.29581E-11   168   0.239E-10    0.394E-10
RMM:   2    -0.138774539929E+03    0.52387E-09    0.00000E+00     1   0.163E-10
 147 F= -.13877454E+03 E0= -.13878709E+03  d E =-.145519E-09
       N       E                     dE             d eps       ncg     rms          rms(c)
DAV:   1    -0.138774539928E+03    0.86948E-09   -0.11376E-10   168   0.380E-10    0.294E-10
RMM:   2    -0.138774539929E+03   -0.27649E-09    0.00000E+00     1   0.138E-10
 148 F= -.13877454E+03 E0= -.13878709E+03  d E =0.691216E-10
       N       E                     dE             d eps       ncg     rms          rms(c)
DAV:   1    -0.138774539930E+03   -0.17208E-08   -0.75388E-11   168   0.189E-10    0.184E-10
RMM:   2    -0.138774539929E+03    0.13752E-08    0.00000E+00     1   0.114E-10
 149 F= -.13877454E+03 E0= -.13878709E+03  d E =-.691216E-10
       N       E                     dE             d eps       ncg     rms          rms(c)
DAV:   1    -0.138774539929E+03    0.11823E-08   -0.73846E-11   168   0.184E-10    0.165E-10
RMM:   2    -0.138774539929E+03    0.18190E-09    0.00000E+00     1   0.118E-10
 150 F= -.13877454E+03 E0= -.13878709E+03  d E =-.109139E-10
       N       E                     dE             d eps       ncg     rms          rms(c)
DAV:   1    -0.138774539928E+03    0.95315E-09   -0.42514E-11   168   0.151E-10    0.212E-10
RMM:   2    -0.138774539929E+03   -0.68758E-09    0.00000E+00     1   0.108E-10
 151 F= -.13877454E+03 E0= -.13878709E+03  d E =0.836735E-10
       N       E                     dE             d eps       ncg     rms          rms(c)
DAV:   1    -0.138774539928E+03   -0.41837E-09   -0.58567E-11   168   0.159E-10    0.206E-10
RMM:   2    -0.138774539929E+03   -0.19645E-09    0.00000E+00     1   0.112E-10
 152 F= -.13877454E+03 E0= -.13878709E+03  d E =0.727596E-10
       N       E                     dE             d eps       ncg     rms          rms(c)
DAV:   1    -0.138774539928E+03   -0.32742E-10    0.26567E-11   168   0.178E-10    0.277E-10
RMM:   2    -0.138774539929E+03   -0.24738E-09    0.00000E+00     1   0.126E-10
 153 F= -.13877454E+03 E0= -.13878709E+03  d E =-.836735E-10
       N       E                     dE             d eps       ncg     rms          rms(c)
DAV:   1    -0.138774539929E+03   -0.95315E-09    0.18078E-11   168   0.234E-10    0.272E-10
RMM:   2    -0.138774539929E+03    0.73851E-09    0.00000E+00     1   0.143E-10
 154 F= -.13877454E+03 E0= -.13878709E+03  d E =0.327418E-10
       N       E                     dE             d eps       ncg     rms          rms(c)
DAV:   1    -0.138774539929E+03    0.41109E-09    0.78935E-11   168   0.234E-10    0.251E-10
RMM:   2    -0.138774539929E+03    0.29104E-09    0.00000E+00     1   0.139E-10
 155 F= -.13877454E+03 E0= -.13878709E+03  d E =-.363798E-10
       N       E                     dE             d eps       ncg     rms          rms(c)
DAV:   1    -0.138774539927E+03    0.15425E-08   -0.84179E-11   168   0.175E-10    0.196E-10
RMM:   2    -0.138774539929E+03   -0.13097E-08    0.00000E+00     1   0.111E-10
 156 F= -.13877454E+03 E0= -.13878709E+03  d E =-.582077E-10
       N       E                     dE             d eps       ncg     rms          rms(c)
DAV:   1    -0.138774539929E+03   -0.12697E-08   -0.47626E-11   168   0.159E-10    0.285E-10
RMM:   2    -0.138774539929E+03    0.18190E-10    0.00000E+00     1   0.135E-10
 157 F= -.13877454E+03 E0= -.13878709E+03  d E =0.582077E-10
       N       E                     dE             d eps       ncg     rms          rms(c)
DAV:   1    -0.138774539929E+03   -0.53842E-09   -0.59758E-11   168   0.224E-10    0.323E-10
RMM:   2    -0.138774539929E+03    0.56025E-09    0.00000E+00     1   0.134E-10
 158 F= -.13877454E+03 E0= -.13878709E+03  d E =0.363798E-11
       N       E                     dE             d eps       ncg     rms          rms(c)
DAV:   1    -0.138774539928E+03    0.72032E-09   -0.30763E-11   168   0.211E-10    0.261E-10
RMM:   2    -0.138774539929E+03   -0.65484E-10    0.00000E+00     1   0.129E-10
 159 F= -.13877454E+03 E0= -.13878709E+03  d E =0.945874E-10
       N       E                     dE             d eps       ncg     rms          rms(c)
DAV:   1    -0.138774539929E+03   -0.21100E-09   -0.81419E-11   168   0.236E-10    0.177E-10
RMM:   2    -0.138774539929E+03    0.12733E-09    0.00000E+00     1   0.859E-11
 160 F= -.13877454E+03 E0= -.13878709E+03  d E =-.181899E-10
       N       E                     dE             d eps       ncg     rms          rms(c)
DAV:   1    -0.138774539929E+03   -0.52023E-09   -0.75361E-11   168   0.138E-10    0.258E-10
RMM:   2    -0.138774539929E+03    0.64028E-09    0.00000E+00     1   0.107E-10
 161 F= -.13877454E+03 E0= -.13878709E+03  d E =-.727596E-11
       N       E                     dE             d eps       ncg     rms          rms(c)
DAV:   1    -0.138774539929E+03    0.38199E-09   -0.10498E-10   168   0.198E-10    0.286E-10
RMM:   2    -0.138774539929E+03    0.24374E-09    0.00000E+00     1   0.118E-10
 162 F= -.13877454E+03 E0= -.13878709E+03  d E =-.145519E-10
       N       E                     dE             d eps       ncg     rms          rms(c)
DAV:   1    -0.138774539928E+03    0.11423E-08   -0.86347E-11   168   0.196E-10    0.179E-10
RMM:   2    -0.138774539929E+03   -0.94587E-09    0.00000E+00     1   0.976E-11
 163 F= -.13877454E+03 E0= -.13878709E+03  d E =-.472937E-10
       N       E                     dE             d eps       ncg     rms          rms(c)
DAV:   1    -0.138774539929E+03   -0.11896E-08   -0.90622E-11   168   0.165E-10    0.160E-10
RMM:   2    -0.138774539929E+03    0.24011E-09    0.00000E+00     1   0.828E-11
 164 F= -.13877454E+03 E0= -.13878709E+03  d E =-.363798E-11
       N       E                     dE             d eps       ncg     rms          rms(c)
DAV:   1    -0.138774539929E+03    0.13461E-09   -0.52285E-11   168   0.139E-10    0.177E-10
RMM:   2    -0.138774539929E+03    0.17826E-09    0.00000E+00     1   0.835E-11
 165 F= -.13877454E+03 E0= -.13878709E+03  d E =0.727596E-10
       N       E                     dE             d eps       ncg     rms          rms(c)
DAV:   1    -0.138774539928E+03    0.40382E-09   -0.10196E-11   168   0.159E-10    0.172E-10
RMM:   2    -0.138774539929E+03   -0.25102E-09    0.00000E+00     1   0.953E-11
 166 F= -.13877454E+03 E0= -.13878709E+03  d E =-.254659E-10
       N       E                     dE             d eps       ncg     rms          rms(c)
DAV:   1    -0.138774539928E+03    0.26193E-09   -0.12033E-10   168   0.161E-10    0.183E-10
RMM:   2    -0.138774539929E+03   -0.42564E-09    0.00000E+00     1   0.972E-11
 167 F= -.13877454E+03 E0= -.13878709E+03  d E =0.873115E-10
       N       E                     dE             d eps       ncg     rms          rms(c)
DAV:   1    -0.138774539930E+03   -0.17208E-08   -0.86145E-11   168   0.126E-10    0.208E-10
RMM:   2    -0.138774539929E+03    0.12515E-08    0.00000E+00     1   0.986E-11
 168 F= -.13877454E+03 E0= -.13878709E+03  d E =-.436557E-10
       N       E                     dE             d eps       ncg     rms          rms(c)
DAV:   1    -0.138774539928E+03    0.22119E-08   -0.80416E-11   168   0.150E-10    0.366E-10
RMM:   2    -0.138774539929E+03   -0.10914E-08    0.00000E+00     1   0.117E-10
 169 F= -.13877454E+03 E0= -.13878709E+03  d E =-.130967E-09
       N       E                     dE             d eps       ncg     rms          rms(c)
DAV:   1    -0.138774539928E+03   -0.41837E-09   -0.38827E-11   168   0.226E-10    0.223E-10
RMM:   2    -0.138774539929E+03   -0.53842E-09    0.00000E+00     1   0.132E-10
 170 F= -.13877454E+03 E0= -.13878709E+03  d E =0.134605E-09
       N       E                     dE             d eps       ncg     rms          rms(c)
DAV:   1    -0.138774539929E+03   -0.65120E-09   -0.10219E-10   168   0.243E-10    0.235E-10
RMM:   2    -0.138774539929E+03    0.36380E-11    0.00000E+00     1   0.104E-10
 171 F= -.13877454E+03 E0= -.13878709E+03  d E =-.109139E-09
       N       E                     dE             d eps       ncg     rms          rms(c)
DAV:   1    -0.138774539929E+03   -0.35288E-09   -0.51258E-11   168   0.152E-10    0.233E-10
RMM:   2    -0.138774539929E+03    0.48021E-09    0.00000E+00     1   0.985E-11
 172 F= -.13877454E+03 E0= -.13878709E+03  d E =0.123691E-09
       N       E                     dE             d eps       ncg     rms          rms(c)
DAV:   1    -0.138774539928E+03    0.69485E-09   -0.38293E-11   168   0.148E-10    0.254E-10
RMM:   2    -0.138774539929E+03   -0.34197E-09    0.00000E+00     1   0.111E-10
 173 F= -.13877454E+03 E0= -.13878709E+03  d E =-.127329E-09
       N       E                     dE             d eps       ncg     rms          rms(c)
DAV:   1    -0.138774539928E+03    0.16735E-09    0.61145E-11   168   0.184E-10    0.296E-10
RMM:   2    -0.138774539929E+03   -0.43292E-09    0.00000E+00     1   0.127E-10
 174 F= -.13877454E+03 E0= -.13878709E+03  d E =0.763976E-10
       N       E                     dE             d eps       ncg     rms          rms(c)
DAV:   1    -0.138774539929E+03   -0.10114E-08   -0.13754E-11   168   0.276E-10    0.194E-10
RMM:   2    -0.138774539929E+03    0.52023E-09    0.00000E+00     1   0.123E-10
 175 F= -.13877454E+03 E0= -.13878709E+03  d E =-.582077E-10
       N       E                     dE             d eps       ncg     rms          rms(c)
DAV:   1    -0.138774539928E+03    0.12042E-08   -0.31828E-11   168   0.189E-10    0.157E-10
RMM:   2    -0.138774539929E+03   -0.66575E-09    0.00000E+00     0   0.118E-10
 176 F= -.13877454E+03 E0= -.13878709E+03  d E =0.181899E-10
       N       E                     dE             d eps       ncg     rms          rms(c)
DAV:   1    -0.138774539928E+03   -0.25466E-10    0.84547E-12   168   0.147E-10    0.317E-10
RMM:   2    -0.138774539929E+03   -0.69122E-09    0.00000E+00     0   0.127E-10
 177 F= -.13877454E+03 E0= -.13878709E+03  d E =-.509317E-10
       N       E                     dE             d eps       ncg     rms          rms(c)
DAV:   1    -0.138774539929E+03   -0.88767E-09    0.91656E-12   168   0.250E-10    0.238E-10
RMM:   2    -0.138774539929E+03    0.10550E-09    0.00000E+00     0   0.130E-10
 178 F= -.13877454E+03 E0= -.13878709E+03  d E =-.909495E-10
       N       E                     dE             d eps       ncg     rms          rms(c)
DAV:   1    -0.138774539928E+03    0.72032E-09   -0.50397E-11   168   0.244E-10    0.217E-10
RMM:   2    -0.138774539929E+03   -0.43656E-09    0.00000E+00     0   0.124E-10
 179 F= -.13877454E+03 E0= -.13878709E+03  d E =0.178261E-09
       N       E                     dE             d eps       ncg     rms          rms(c)
DAV:   1    -0.138774539929E+03   -0.72760E-09   -0.13570E-10   168   0.209E-10    0.169E-10
RMM:   2    -0.138774539929E+03    0.28740E-09    0.00000E+00     0   0.107E-10
 180 F= -.13877454E+03 E0= -.13878709E+03  d E =-.363798E-11
       N       E                     dE             d eps       ncg     rms          rms(c)
DAV:   1    -0.138774539929E+03   -0.36016E-09   -0.42336E-11   168   0.128E-10    0.162E-10
RMM:   2    -0.138774539929E+03    0.62209E-09    0.00000E+00     0   0.880E-11
 181 F= -.13877454E+03 E0= -.13878709E+03  d E =-.254659E-10
       N       E                     dE             d eps       ncg     rms          rms(c)
DAV:   1    -0.138774539929E+03    0.18917E-09   -0.28670E-11   168   0.992E-11    0.109E-10
RMM:   2    -0.138774539929E+03    0.40382E-09    0.00000E+00     0   0.807E-11
 182 F= -.13877454E+03 E0= -.13878709E+03  d E =-.291038E-10
       N       E                     dE             d eps       ncg     rms          rms(c)
DAV:   1    -0.138774539929E+03    0.29468E-09   -0.25653E-11   168   0.136E-10    0.178E-10
RMM:   2    -0.138774539929E+03    0.16007E-09    0.00000E+00     0   0.103E-10
 183 F= -.13877454E+03 E0= -.13878709E+03  d E =0.509317E-10
       N       E                     dE             d eps       ncg     rms          rms(c)
DAV:   1    -0.138774539929E+03    0.72760E-10   -0.65955E-11   168   0.178E-10    0.169E-10
RMM:   2    -0.138774539929E+03    0.65484E-10    0.00000E+00     0   0.889E-11
 184 F= -.13877454E+03 E0= -.13878709E+03  d E =-.218279E-10
       N       E                     dE             d eps       ncg     rms          rms(c)
DAV:   1    -0.138774539929E+03    0.13097E-09   -0.38273E-11   168   0.156E-10    0.166E-10
RMM:   2    -0.138774539929E+03   -0.14916E-09    0.00000E+00     0   0.101E-10
 185 F= -.13877454E+03 E0= -.13878709E+03  d E =-.836735E-10
       N       E                     dE             d eps       ncg     rms          rms(c)
DAV:   1    -0.138774539930E+03   -0.10259E-08    0.56877E-12   168   0.113E-10    0.290E-10
RMM:   2    -0.138774539929E+03    0.88403E-09    0.00000E+00     0   0.109E-10
 186 F= -.13877454E+03 E0= -.13878709E+03  d E =0.727596E-11
       N       E                     dE             d eps       ncg     rms          rms(c)
DAV:   1    -0.138774539929E+03    0.55297E-09   -0.77107E-11   168   0.213E-10    0.281E-10
RMM:   2    -0.138774539929E+03    0.44383E-09    0.00000E+00     0   0.106E-10
 187 F= -.13877454E+03 E0= -.13878709E+03  d E =0.112777E-09
       N       E                     dE             d eps       ncg     rms          rms(c)
DAV:   1    -0.138774539929E+03    0.41473E-09   -0.65024E-11   168   0.143E-10    0.202E-10
RMM:   2    -0.138774539929E+03    0.50932E-10    0.00000E+00     0   0.105E-10
 188 F= -.13877454E+03 E0= -.13878709E+03  d E =0.218279E-10
       N       E                     dE             d eps       ncg     rms          rms(c)
DAV:   1    -0.138774539928E+03    0.57480E-09   -0.16774E-11   168   0.144E-10    0.303E-10
RMM:   2    -0.138774539929E+03   -0.71668E-09    0.00000E+00     0   0.120E-10
 189 F= -.13877454E+03 E0= -.13878709E+03  d E =-.192813E-09
       N       E                     dE             d eps       ncg     rms          rms(c)
DAV:   1    -0.138774539928E+03    0.10914E-09   -0.85755E-11   168   0.220E-10    0.236E-10
RMM:   2    -0.138774539929E+03   -0.74215E-09    0.00000E+00     0   0.122E-10
 190 F= -.13877454E+03 E0= -.13878709E+03  d E =0.836735E-10
       N       E                     dE             d eps       ncg     rms          rms(c)
DAV:   1    -0.138774539928E+03    0.17826E-09   -0.10677E-10   168   0.184E-10    0.160E-10
RMM:   2    -0.138774539929E+03   -0.94587E-09    0.00000E+00     0   0.107E-10
 191 F= -.13877454E+03 E0= -.13878709E+03  d E =-.254659E-10
       N       E                     dE             d eps       ncg     rms          rms(c)
DAV:   1    -0.138774539928E+03   -0.25102E-09   -0.88016E-11   168   0.180E-10    0.174E-10
RMM:   2    -0.138774539929E+03   -0.67666E-09    0.00000E+00     0   0.969E-11
 192 F= -.13877454E+03 E0= -.13878709E+03  d E =0.181899E-10
       N       E                     dE             d eps       ncg     rms          rms(c)
DAV:   1    -0.138774539929E+03   -0.11496E-08   -0.77852E-11   168   0.171E-10    0.252E-10
RMM:   2    -0.138774539929E+03    0.51296E-09    0.00000E+00     0   0.116E-10
 193 F= -.13877454E+03 E0= -.13878709E+03  d E =0.400178E-10
       N       E                     dE             d eps       ncg     rms          rms(c)
DAV:   1    -0.138774539929E+03   -0.13097E-09   -0.69660E-11   168   0.121E-10    0.201E-10
RMM:   2    -0.138774539929E+03    0.64392E-09    0.00000E+00     0   0.918E-11
 194 F= -.13877454E+03 E0= -.13878709E+03  d E =0.000000E+00
       N       E                     dE             d eps       ncg     rms          rms(c)
DAV:   1    -0.138774539928E+03    0.93860E-09   -0.22637E-11   168   0.118E-10    0.166E-10
RMM:   2    -0.138774539929E+03   -0.25102E-09    0.00000E+00     0   0.827E-11
 195 F= -.13877454E+03 E0= -.13878709E+03  d E =0.436557E-10
       N       E                     dE             d eps       ncg     rms          rms(c)
DAV:   1    -0.138774539930E+03   -0.15934E-08   -0.96590E-12   168   0.140E-10    0.294E-10
RMM:   2    -0.138774539929E+03    0.13133E-08    0.00000E+00     0   0.101E-10
 196 F= -.13877454E+03 E0= -.13878709E+03  d E =-.291038E-10
       N       E                     dE             d eps       ncg     rms          rms(c)
DAV:   1    -0.138774539929E+03    0.97498E-09   -0.11652E-11   168   0.188E-10    0.216E-10
RMM:   2    -0.138774539929E+03    0.29468E-09    0.00000E+00     0   0.980E-11
 197 F= -.13877454E+03 E0= -.13878709E+03  d E =-.436557E-10
       N       E                     dE             d eps       ncg     rms          rms(c)
DAV:   1    -0.138774539929E+03   -0.13461E-09   -0.55887E-11   168   0.198E-10    0.249E-10
RMM:   2    -0.138774539929E+03    0.44020E-09    0.00000E+00     0   0.100E-10
 198 F= -.13877454E+03 E0= -.13878709E+03  d E =0.109139E-10
       N       E                     dE             d eps       ncg     rms          rms(c)
DAV:   1    -0.138774539929E+03    0.50568E-09    0.48182E-11   168   0.184E-10    0.178E-10
RMM:   2    -0.138774539929E+03   -0.11642E-09    0.00000E+00     0   0.919E-11
 199 F= -.13877454E+03 E0= -.13878709E+03  d E =-.509317E-10
       N       E                     dE             d eps       ncg     rms          rms(c)
DAV:   1    -0.138774539929E+03   -0.45111E-09   -0.21303E-11   168   0.144E-10    0.342E-10
RMM:   2    -0.138774539929E+03    0.49477E-09    0.00000E+00     0   0.128E-10
 200 F= -.13877454E+03 E0= -.13878709E+03  d E =0.160071E-09
       N       E                     dE             d eps       ncg     rms          rms(c)
DAV:   1    -0.138774539928E+03    0.55297E-09   -0.80902E-13   168   0.142E-10    0.282E-10
RMM:   2    -0.138774539929E+03   -0.16371E-09    0.00000E+00     0   0.131E-10
 201 F= -.13877454E+03 E0= -.13878709E+03  d E =-.105501E-09
       N       E                     dE             d eps       ncg     rms          rms(c)
DAV:   1    -0.138774539929E+03   -0.98225E-10   -0.40474E-11   168   0.200E-10    0.217E-10
RMM:   2    -0.138774539929E+03   -0.72760E-10    0.00000E+00     0   0.122E-10
 202 F= -.13877454E+03 E0= -.13878709E+03  d E =-.727596E-11
       N       E                     dE             d eps       ncg     rms          rms(c)
DAV:   1    -0.138774539929E+03   -0.36380E-10   -0.41731E-11   168   0.161E-10    0.181E-10
RMM:   2    -0.138774539929E+03    0.72760E-10    0.00000E+00     0   0.906E-11
 203 F= -.13877454E+03 E0= -.13878709E+03  d E =0.109139E-09
       N       E                     dE             d eps       ncg     rms          rms(c)
DAV:   1    -0.138774539929E+03   -0.30195E-09   -0.46903E-11   168   0.151E-10    0.184E-10
RMM:   2    -0.138774539929E+03    0.29831E-09    0.00000E+00     0   0.109E-10
 204 F= -.13877454E+03 E0= -.13878709E+03  d E =-.763976E-10
       N       E                     dE             d eps       ncg     rms          rms(c)
DAV:   1    -0.138774539929E+03   -0.14916E-09    0.84400E-12   168   0.170E-10    0.322E-10
RMM:   2    -0.138774539929E+03    0.39654E-09    0.00000E+00     0   0.110E-10
 205 F= -.13877454E+03 E0= -.13878709E+03  d E =-.509317E-10
       N       E                     dE             d eps       ncg     rms          rms(c)
DAV:   1    -0.138774539927E+03    0.15862E-08   -0.30253E-11   168   0.203E-10    0.276E-10
RMM:   2    -0.138774539929E+03   -0.12697E-08    0.00000E+00     0   0.114E-10
 206 F= -.13877454E+03 E0= -.13878709E+03  d E =-.800355E-10
       N       E                     dE             d eps       ncg     rms          rms(c)
DAV:   1    -0.138774539929E+03   -0.10295E-08   -0.53051E-11   168   0.244E-10    0.299E-10
RMM:   2    -0.138774539929E+03   -0.19281E-09    0.00000E+00     0   0.131E-10
 207 F= -.13877454E+03 E0= -.13878709E+03  d E =0.472937E-10
       N       E                     dE             d eps       ncg     rms          rms(c)
DAV:   1    -0.138774539928E+03    0.23283E-09   -0.10342E-10   168   0.233E-10    0.288E-10
RMM:   2    -0.138774539929E+03   -0.42564E-09    0.00000E+00     0   0.126E-10
 208 F= -.13877454E+03 E0= -.13878709E+03  d E =0.000000E+00
       N       E                     dE             d eps       ncg     rms          rms(c)
DAV:   1    -0.138774539928E+03   -0.36380E-10   -0.86341E-12   168   0.226E-10    0.409E-10
RMM:   2    -0.138774539929E+03   -0.39654E-09    0.00000E+00     0   0.127E-10
 209 F= -.13877454E+03 E0= -.13878709E+03  d E =-.727596E-11
       N       E                     dE             d eps       ncg     rms          rms(c)
DAV:   1    -0.138774539929E+03   -0.19645E-09   -0.74204E-11   168   0.306E-10    0.385E-10
RMM:   2    -0.138774539929E+03   -0.14916E-09    0.00000E+00     0   0.116E-10
 210 F= -.13877454E+03 E0= -.13878709E+03  d E =0.509317E-10
       N       E                     dE             d eps       ncg     rms          rms(c)
DAV:   1    -0.138774539930E+03   -0.11933E-08   -0.94187E-11   168   0.238E-10    0.305E-10
RMM:   2    -0.138774539929E+03    0.10041E-08    0.00000E+00     0   0.103E-10
 211 F= -.13877454E+03 E0= -.13878709E+03  d E =-.400178E-10
       N       E                     dE             d eps       ncg     rms          rms(c)
DAV:   1    -0.138774539928E+03    0.15498E-08   -0.45278E-11   168   0.172E-10    0.192E-10
RMM:   2    -0.138774539929E+03   -0.60027E-09    0.00000E+00     0   0.997E-11
 212 F= -.13877454E+03 E0= -.13878709E+03  d E =-.545697E-10
       N       E                     dE             d eps       ncg     rms          rms(c)
DAV:   1    -0.138774539928E+03    0.65484E-10   -0.90096E-11   168   0.162E-10    0.338E-10
RMM:   2    -0.138774539929E+03   -0.61846E-09    0.00000E+00     0   0.146E-10
 213 F= -.13877454E+03 E0= -.13878709E+03  d E =0.472937E-10
       N       E                     dE             d eps       ncg     rms          rms(c)
DAV:   1    -0.138774539928E+03   -0.65484E-10   -0.10086E-10   168   0.319E-10    0.444E-10
RMM:   2    -0.138774539929E+03   -0.47658E-09    0.00000E+00     0   0.148E-10
 214 F= -.13877454E+03 E0= -.13878709E+03  d E =0.763976E-10
       N       E                     dE             d eps       ncg     rms          rms(c)
DAV:   1    -0.138774539930E+03   -0.17244E-08   -0.28641E-11   168   0.389E-10    0.359E-10
RMM:   2    -0.138774539929E+03    0.12224E-08    0.00000E+00     0   0.146E-10
 215 F= -.13877454E+03 E0= -.13878709E+03  d E =-.254659E-10
       N       E                     dE             d eps       ncg     rms          rms(c)
DAV:   1    -0.138774539929E+03    0.12478E-08    0.22612E-12   168   0.313E-10    0.125E-10
RMM:   2    -0.138774539929E+03   -0.21828E-10    0.00000E+00     0   0.111E-10
 216 F= -.13877454E+03 E0= -.13878709E+03  d E =0.363798E-11
       N       E                     dE             d eps       ncg     rms          rms(c)
DAV:   1    -0.138774539928E+03    0.32742E-09   -0.12115E-12   168   0.134E-10    0.236E-10
RMM:   2    -0.138774539929E+03   -0.25830E-09    0.00000E+00     0   0.946E-11
 217 F= -.13877454E+03 E0= -.13878709E+03  d E =0.909495E-10
       N       E                     dE             d eps       ncg     rms          rms(c)
DAV:   1    -0.138774539930E+03   -0.12333E-08    0.41800E-12   168   0.174E-10    0.224E-10
RMM:   2    -0.138774539929E+03    0.10114E-08    0.00000E+00     0   0.102E-10
 218 F= -.13877454E+03 E0= -.13878709E+03  d E =0.363798E-10
       N       E                     dE             d eps       ncg     rms          rms(c)
DAV:   1    -0.138774539929E+03    0.75670E-09   -0.44130E-11   168   0.146E-10    0.186E-10
RMM:   2    -0.138774539929E+03    0.18554E-09    0.00000E+00     0   0.120E-10
 219 F= -.13877454E+03 E0= -.13878709E+03  d E =-.691216E-10
       N       E                     dE             d eps       ncg     rms          rms(c)
DAV:   1    -0.138774539929E+03   -0.53114E-09   -0.25998E-11   168   0.165E-10    0.379E-10
RMM:   2    -0.138774539929E+03    0.60390E-09    0.00000E+00     0   0.144E-10
 220 F= -.13877454E+03 E0= -.13878709E+03  d E =-.112777E-09
       N       E                     dE             d eps       ncg     rms          rms(c)
DAV:   1    -0.138774539928E+03    0.15061E-08   -0.41079E-11   168   0.255E-10    0.213E-10
RMM:   2    -0.138774539929E+03   -0.86948E-09    0.00000E+00     0   0.127E-10
 221 F= -.13877454E+03 E0= -.13878709E+03  d E =0.327418E-10
       N       E                     dE             d eps       ncg     rms          rms(c)
DAV:   1    -0.138774539928E+03    0.11278E-09   -0.73613E-11   168   0.210E-10    0.245E-10
RMM:   2    -0.138774539929E+03   -0.89494E-09    0.00000E+00     0   0.139E-10
 222 F= -.13877454E+03 E0= -.13878709E+03  d E =0.873115E-10
       N       E                     dE             d eps       ncg     rms          rms(c)
DAV:   1    -0.138774539927E+03    0.34561E-09   -0.40998E-11   168   0.252E-10    0.292E-10
RMM:   2    -0.138774539929E+03   -0.12406E-08    0.00000E+00     0   0.119E-10
 223 F= -.13877454E+03 E0= -.13878709E+03  d E =0.000000E+00
       N       E                     dE             d eps       ncg     rms          rms(c)
DAV:   1    -0.138774539929E+03   -0.17717E-08   -0.12671E-10   168   0.259E-10    0.244E-10
RMM:   2    -0.138774539929E+03    0.44383E-09    0.00000E+00     0   0.123E-10
 224 F= -.13877454E+03 E0= -.13878709E+03  d E =-.873115E-10
       N       E                     dE             d eps       ncg     rms          rms(c)
DAV:   1    -0.138774539929E+03   -0.13824E-09   -0.15425E-10   168   0.205E-10    0.151E-10
RMM:   2    -0.138774539929E+03    0.56389E-09    0.00000E+00     0   0.102E-10
 225 F= -.13877454E+03 E0= -.13878709E+03  d E =-.181899E-10
       N       E                     dE             d eps       ncg     rms          rms(c)
DAV:   1    -0.138774539929E+03    0.55661E-09   -0.97076E-11   168   0.148E-10    0.178E-10
RMM:   2    -0.138774539929E+03   -0.43656E-10    0.00000E+00     0   0.102E-10
 226 F= -.13877454E+03 E0= -.13878709E+03  d E =-.509317E-10
       N       E                     dE             d eps       ncg     rms          rms(c)
DAV:   1    -0.138774539929E+03   -0.47294E-10   -0.35399E-11   168   0.159E-10    0.155E-10
RMM:   2    -0.138774539929E+03    0.14552E-09    0.00000E+00     0   0.115E-10
 227 F= -.13877454E+03 E0= -.13878709E+03  d E =0.141881E-09
       N       E                     dE             d eps       ncg     rms          rms(c)
DAV:   1    -0.138774539930E+03   -0.80036E-09   -0.25703E-11   168   0.147E-10    0.299E-10
RMM:   2    -0.138774539929E+03    0.85856E-09    0.00000E+00     0   0.124E-10
 228 F= -.13877454E+03 E0= -.13878709E+03  d E =-.873115E-10
       N       E                     dE             d eps       ncg     rms          rms(c)
DAV:   1    -0.138774539929E+03    0.78580E-09   -0.12517E-10   168   0.251E-10    0.159E-10
RMM:   2    -0.138774539929E+03    0.14188E-09    0.00000E+00     0   0.107E-10
 229 F= -.13877454E+03 E0= -.13878709E+03  d E =0.691216E-10
       N       E                     dE             d eps       ncg     rms          rms(c)
DAV:   1    -0.138774539928E+03    0.49477E-09   -0.83984E-11   168   0.190E-10    0.207E-10
RMM:   2    -0.138774539929E+03   -0.27649E-09    0.00000E+00     0   0.112E-10
 230 F= -.13877454E+03 E0= -.13878709E+03  d E =0.763976E-10
       N       E                     dE             d eps       ncg     rms          rms(c)
DAV:   1    -0.138774539929E+03   -0.11350E-08   -0.65037E-12   168   0.178E-10    0.184E-10
RMM:   2    -0.138774539929E+03    0.84037E-09    0.00000E+00     0   0.124E-10
 231 F= -.13877454E+03 E0= -.13878709E+03  d E =-.181899E-10
       N       E                     dE             d eps       ncg     rms          rms(c)
DAV:   1    -0.138774539928E+03    0.94951E-09   -0.17522E-11   168   0.163E-10    0.247E-10
RMM:   2    -0.138774539929E+03   -0.21464E-09    0.00000E+00     0   0.118E-10
 232 F= -.13877454E+03 E0= -.13878709E+03  d E =-.105501E-09
       N       E                     dE             d eps       ncg     rms          rms(c)
DAV:   1    -0.138774539930E+03   -0.13206E-08    0.63863E-12   168   0.235E-10    0.148E-10
RMM:   2    -0.138774539929E+03    0.12005E-08    0.00000E+00     0   0.966E-11
 233 F= -.13877454E+03 E0= -.13878709E+03  d E =0.945874E-10
       N       E                     dE             d eps       ncg     rms          rms(c)
DAV:   1    -0.138774539929E+03    0.33106E-09   -0.72687E-11   168   0.139E-10    0.146E-10
RMM:   2    -0.138774539929E+03    0.73123E-09    0.00000E+00     0   0.888E-11
 234 F= -.13877454E+03 E0= -.13878709E+03  d E =-.138243E-09
       N       E                     dE             d eps       ncg     rms          rms(c)
DAV:   1    -0.138774539929E+03    0.65847E-09    0.29314E-11   168   0.136E-10    0.274E-10
RMM:   2    -0.138774539929E+03    0.61846E-10    0.00000E+00     0   0.120E-10
 235 F= -.13877454E+03 E0= -.13878709E+03  d E =-.109139E-10
       N       E                     dE             d eps       ncg     rms          rms(c)
DAV:   1    -0.138774539929E+03    0.65484E-10   -0.31449E-12   168   0.185E-10    0.267E-10
RMM:   2    -0.138774539929E+03    0.16007E-09    0.00000E+00     0   0.135E-10
 236 F= -.13877454E+03 E0= -.13878709E+03  d E =0.163709E-09
       N       E                     dE             d eps       ncg     rms          rms(c)
DAV:   1    -0.138774539929E+03    0.94587E-10   -0.76752E-11   168   0.306E-10    0.137E-10
RMM:   2    -0.138774539929E+03    0.00000E+00    0.00000E+00     0   0.114E-10
 237 F= -.13877454E+03 E0= -.13878709E+03  d E =-.654836E-10
       N       E                     dE             d eps       ncg     rms          rms(c)
DAV:   1    -0.138774539927E+03    0.13133E-08   -0.58114E-11   168   0.139E-10    0.166E-10
RMM:   2    -0.138774539929E+03   -0.12988E-08    0.00000E+00     0   0.939E-11
 238 F= -.13877454E+03 E0= -.13878709E+03  d E =0.145519E-10
       N       E                     dE             d eps       ncg     rms          rms(c)
DAV:   1    -0.138774539928E+03   -0.33833E-09   -0.27403E-11   168   0.158E-10    0.145E-10
RMM:   2    -0.138774539929E+03   -0.10623E-08    0.00000E+00     0   0.843E-11
 239 F= -.13877454E+03 E0= -.13878709E+03  d E =-.101863E-09
       N       E                     dE             d eps       ncg     rms          rms(c)
DAV:   1    -0.138774539929E+03   -0.18226E-08   -0.33517E-11   168   0.177E-10    0.208E-10
RMM:   2    -0.138774539929E+03    0.82946E-09    0.00000E+00     0   0.120E-10
 240 F= -.13877454E+03 E0= -.13878709E+03  d E =0.691216E-10
       N       E                     dE             d eps       ncg     rms          rms(c)
DAV:   1    -0.138774539928E+03    0.13679E-08    0.83196E-11   168   0.260E-10    0.284E-10
RMM:   2    -0.138774539929E+03   -0.56025E-09    0.00000E+00     0   0.120E-10
 241 F= -.13877454E+03 E0= -.13878709E+03  d E =-.218279E-10
       N       E                     dE             d eps       ncg     rms          rms(c)
DAV:   1    -0.138774539928E+03   -0.25102E-09   -0.53604E-11   168   0.273E-10    0.164E-10
RMM:   2    -0.138774539929E+03   -0.23283E-09    0.00000E+00     0   0.993E-11
 242 F= -.13877454E+03 E0= -.13878709E+03  d E =0.763976E-10
       N       E                     dE             d eps       ncg     rms          rms(c)
DAV:   1    -0.138774539929E+03   -0.10587E-08   -0.55823E-11   168   0.193E-10    0.305E-10
RMM:   2    -0.138774539929E+03    0.82582E-09    0.00000E+00     0   0.136E-10
 243 F= -.13877454E+03 E0= -.13878709E+03  d E =0.000000E+00
       N       E                     dE             d eps       ncg     rms          rms(c)
DAV:   1    -0.138774539929E+03    0.68030E-09    0.60638E-12   168   0.288E-10    0.151E-10
RMM:   2    -0.138774539929E+03    0.36380E-10    0.00000E+00     0   0.891E-11
 244 F= -.13877454E+03 E0= -.13878709E+03  d E =-.109139E-09
       N       E                     dE             d eps       ncg     rms          rms(c)
DAV:   1    -0.138774539929E+03    0.18917E-09   -0.26097E-11   168   0.156E-10    0.300E-10
RMM:   2    -0.138774539929E+03   -0.87311E-10    0.00000E+00     0   0.109E-10
 245 F= -.13877454E+03 E0= -.13878709E+03  d E =0.654836E-10
       N       E                     dE             d eps       ncg     rms          rms(c)
DAV:   1    -0.138774539929E+03   -0.30559E-09    0.46392E-12   168   0.210E-10    0.272E-10
RMM:   2    -0.138774539929E+03    0.13461E-09    0.00000E+00     0   0.123E-10
 246 F= -.13877454E+03 E0= -.13878709E+03  d E =-.836735E-10
       N       E                     dE             d eps       ncg     rms          rms(c)
DAV:   1    -0.138774539929E+03   -0.21828E-10   -0.22189E-11   168   0.280E-10    0.258E-10
RMM:   2    -0.138774539929E+03    0.21828E-09    0.00000E+00     0   0.140E-10
 247 F= -.13877454E+03 E0= -.13878709E+03  d E =0.618456E-10
       N       E                     dE             d eps       ncg     rms          rms(c)
DAV:   1    -0.138774539928E+03    0.50204E-09   -0.49694E-11   168   0.252E-10    0.364E-10
RMM:   2    -0.138774539929E+03   -0.22919E-09    0.00000E+00     0   0.155E-10
 248 F= -.13877454E+03 E0= -.13878709E+03  d E =0.545697E-10
       N       E                     dE             d eps       ncg     rms          rms(c)
DAV:   1    -0.138774539929E+03   -0.10223E-08   -0.68896E-11   168   0.338E-10    0.174E-10
RMM:   2    -0.138774539929E+03    0.73851E-09    0.00000E+00     0   0.121E-10
 249 F= -.13877454E+03 E0= -.13878709E+03  d E =-.545697E-10
       N       E                     dE             d eps       ncg     rms          rms(c)
DAV:   1    -0.138774539929E+03    0.13097E-09   -0.14190E-11   168   0.172E-10    0.224E-10
RMM:   2    -0.138774539929E+03    0.60754E-09    0.00000E+00     0   0.101E-10
 250 F= -.13877454E+03 E0= -.13878709E+03  d E =0.000000E+00
       N       E                     dE             d eps       ncg     rms          rms(c)
DAV:   1    -0.138774539928E+03    0.82582E-09   -0.38173E-11   168   0.176E-10    0.226E-10
RMM:   2    -0.138774539929E+03   -0.32014E-09    0.00000E+00     0   0.120E-10
 251 F= -.13877454E+03 E0= -.13878709E+03  d E =-.101863E-09
       N       E                     dE             d eps       ncg     rms          rms(c)
DAV:   1    -0.138774539929E+03   -0.46930E-09   -0.55351E-11   168   0.171E-10    0.240E-10
RMM:   2    -0.138774539929E+03    0.27649E-09    0.00000E+00     0   0.116E-10
 252 F= -.13877454E+03 E0= -.13878709E+03  d E =0.127329E-09
       N       E                     dE             d eps       ncg     rms          rms(c)
DAV:   1    -0.138774539927E+03    0.19318E-08   -0.18624E-11   168   0.139E-10    0.185E-10
RMM:   2    -0.138774539929E+03   -0.16917E-08    0.00000E+00     0   0.100E-10
 253 F= -.13877454E+03 E0= -.13878709E+03  d E =-.363798E-10
       N       E                     dE             d eps       ncg     rms          rms(c)
DAV:   1    -0.138774539929E+03   -0.21646E-08   -0.10422E-10   168   0.178E-10    0.184E-10
RMM:   2    -0.138774539929E+03    0.48749E-09    0.00000E+00     0   0.115E-10
 254 F= -.13877454E+03 E0= -.13878709E+03  d E =0.145519E-10
       N       E                     dE             d eps       ncg     rms          rms(c)
DAV:   1    -0.138774539929E+03    0.53114E-09   -0.75778E-11   168   0.209E-10    0.201E-10
RMM:   2    -0.138774539929E+03   -0.47294E-10    0.00000E+00     0   0.102E-10
 255 F= -.13877454E+03 E0= -.13878709E+03  d E =-.363798E-11
       N       E                     dE             d eps       ncg     rms          rms(c)
DAV:   1    -0.138774539930E+03   -0.11496E-08   -0.10792E-10   168   0.161E-10    0.195E-10
RMM:   2    -0.138774539929E+03    0.11023E-08    0.00000E+00     0   0.103E-10
 256 F= -.13877454E+03 E0= -.13878709E+03  d E =0.000000E+00
       N       E                     dE             d eps       ncg     rms          rms(c)
DAV:   1    -0.138774539929E+03    0.10987E-08    0.16781E-12   168   0.205E-10    0.178E-10
RMM:   2    -0.138774539929E+03    0.21828E-10    0.00000E+00     0   0.943E-11
 257 F= -.13877454E+03 E0= -.13878709E+03  d E =0.181899E-10
       N       E                     dE             d eps       ncg     rms          rms(c)
DAV:   1    -0.138774539929E+03   -0.59663E-09   -0.65746E-11   168   0.152E-10    0.348E-10
RMM:   2    -0.138774539929E+03    0.66575E-09    0.00000E+00     0   0.132E-10
 258 F= -.13877454E+03 E0= -.13878709E+03  d E =0.472937E-10
       N       E                     dE             d eps       ncg     rms          rms(c)
DAV:   1    -0.138774539929E+03    0.74942E-09   -0.12055E-10   168   0.168E-10    0.315E-10
RMM:   2    -0.138774539929E+03   -0.17826E-09    0.00000E+00     0   0.126E-10
 259 F= -.13877454E+03 E0= -.13878709E+03  d E =-.945874E-10
       N       E                     dE             d eps       ncg     rms          rms(c)
DAV:   1    -0.138774539929E+03   -0.70577E-09   -0.50788E-12   168   0.225E-10    0.183E-10
RMM:   2    -0.138774539929E+03    0.52387E-09    0.00000E+00     0   0.116E-10
 260 F= -.13877454E+03 E0= -.13878709E+03  d E =-.363798E-11
       N       E                     dE             d eps       ncg     rms          rms(c)
DAV:   1    -0.138774539930E+03   -0.11605E-08   -0.10212E-11   168   0.188E-10    0.377E-10
RMM:   2    -0.138774539929E+03    0.16626E-08    0.00000E+00     0   0.139E-10
 261 F= -.13877454E+03 E0= -.13878709E+03  d E =-.218279E-10
       N       E                     dE             d eps       ncg     rms          rms(c)
DAV:   1    -0.138774539929E+03    0.13570E-08   -0.18780E-11   168   0.253E-10    0.250E-10
RMM:   2    -0.138774539929E+03    0.41109E-09    0.00000E+00     0   0.126E-10
 262 F= -.13877454E+03 E0= -.13878709E+03  d E =0.105501E-09
       N       E                     dE             d eps       ncg     rms          rms(c)
DAV:   1    -0.138774539929E+03   -0.80036E-10    0.45197E-12   168   0.216E-10    0.254E-10
RMM:   2    -0.138774539929E+03    0.43292E-09    0.00000E+00     0   0.119E-10
 263 F= -.13877454E+03 E0= -.13878709E+03  d E =-.582077E-10
       N       E                     dE             d eps       ncg     rms          rms(c)
DAV:   1    -0.138774539929E+03    0.16007E-09   -0.22549E-11   168   0.250E-10    0.128E-10
RMM:   2    -0.138774539929E+03    0.22192E-09    0.00000E+00     0   0.105E-10
 264 F= -.13877454E+03 E0= -.13878709E+03  d E =-.509317E-10
       N       E                     dE             d eps       ncg     rms          rms(c)
DAV:   1    -0.138774539928E+03    0.63301E-09   -0.24898E-11   168   0.143E-10    0.298E-10
RMM:   2    -0.138774539929E+03   -0.23283E-09    0.00000E+00     0   0.120E-10
 265 F= -.13877454E+03 E0= -.13878709E+03  d E =0.178261E-09
       N       E                     dE             d eps       ncg     rms          rms(c)
DAV:   1    -0.138774539929E+03   -0.60390E-09   -0.21373E-11   168   0.196E-10    0.169E-10
RMM:   2    -0.138774539929E+03    0.21464E-09    0.00000E+00     0   0.118E-10
 266 F= -.13877454E+03 E0= -.13878709E+03  d E =-.156433E-09
       N       E                     dE             d eps       ncg     rms          rms(c)
DAV:   1    -0.138774539929E+03   -0.10550E-09   -0.40566E-11   168   0.162E-10    0.184E-10
RMM:   2    -0.138774539929E+03    0.27649E-09    0.00000E+00     0   0.105E-10
 267 F= -.13877454E+03 E0= -.13878709E+03  d E =-.436557E-10
       N       E                     dE             d eps       ncg     rms          rms(c)
DAV:   1    -0.138774539929E+03   -0.46202E-09    0.78810E-12   168   0.180E-10    0.190E-10
RMM:   2    -0.138774539929E+03    0.84401E-09    0.00000E+00     0   0.128E-10
 268 F= -.13877454E+03 E0= -.13878709E+03  d E =0.105501E-09
       N       E                     dE             d eps       ncg     rms          rms(c)
DAV:   1    -0.138774539929E+03    0.56025E-09   -0.13554E-11   168   0.239E-10    0.194E-10
RMM:   2    -0.138774539929E+03    0.38199E-09    0.00000E+00     0   0.118E-10
 269 F= -.13877454E+03 E0= -.13878709E+03  d E =0.982254E-10
       N       E                     dE             d eps       ncg     rms          rms(c)
DAV:   1    -0.138774539929E+03   -0.42928E-09   -0.18197E-11   168   0.224E-10    0.213E-10
RMM:   2    -0.138774539929E+03    0.69122E-09    0.00000E+00     0   0.108E-10
 270 F= -.13877454E+03 E0= -.13878709E+03  d E =-.120053E-09
       N       E                     dE             d eps       ncg     rms          rms(c)
DAV:   1    -0.138774539929E+03    0.69122E-10   -0.98879E-11   168   0.218E-10    0.398E-10
RMM:   2    -0.138774539929E+03    0.56389E-09    0.00000E+00     0   0.130E-10
 271 F= -.13877454E+03 E0= -.13878709E+03  d E =-.582077E-10
       N       E                     dE             d eps       ncg     rms          rms(c)
DAV:   1    -0.138774539929E+03    0.68394E-09   -0.37582E-11   168   0.239E-10    0.217E-10
RMM:   2    -0.138774539929E+03   -0.29104E-10    0.00000E+00     0   0.111E-10
 272 F= -.13877454E+03 E0= -.13878709E+03  d E =0.909495E-10
       N       E                     dE             d eps       ncg     rms          rms(c)
DAV:   1    -0.138774539930E+03   -0.18008E-08   -0.88489E-11   168   0.226E-10    0.137E-10
RMM:   2    -0.138774539929E+03    0.18081E-08    0.00000E+00     0   0.121E-10
 273 F= -.13877454E+03 E0= -.13878709E+03  d E =0.363798E-10
       N       E                     dE             d eps       ncg     rms          rms(c)
DAV:   1    -0.138774539928E+03    0.22301E-08   -0.69748E-11   168   0.137E-10    0.212E-10
RMM:   2    -0.138774539929E+03   -0.38563E-09    0.00000E+00     0   0.120E-10
 274 F= -.13877454E+03 E0= -.13878709E+03  d E =0.363798E-10
       N       E                     dE             d eps       ncg     rms          rms(c)
DAV:   1    -0.138774539928E+03    0.16735E-09   -0.11104E-10   168   0.221E-10    0.221E-10
RMM:   2    -0.138774539929E+03   -0.60390E-09    0.00000E+00     0   0.126E-10
 275 F= -.13877454E+03 E0= -.13878709E+03  d E =-.509317E-10
       N       E                     dE             d eps       ncg     rms          rms(c)
DAV:   1    -0.138774539928E+03   -0.21828E-10   -0.55580E-11   168   0.248E-10    0.254E-10
RMM:   2    -0.138774539929E+03   -0.62209E-09    0.00000E+00     0   0.113E-10
 276 F= -.13877454E+03 E0= -.13878709E+03  d E =-.400178E-10
       N       E                     dE             d eps       ncg     rms          rms(c)
DAV:   1    -0.138774539929E+03   -0.88039E-09   -0.34710E-11   168   0.184E-10    0.234E-10
RMM:   2    -0.138774539929E+03    0.29831E-09    0.00000E+00     0   0.105E-10
 277 F= -.13877454E+03 E0= -.13878709E+03  d E =0.400178E-10
       N       E                     dE             d eps       ncg     rms          rms(c)
DAV:   1    -0.138774539929E+03    0.00000E+00   -0.96521E-12   168   0.201E-10    0.344E-10
RMM:   2    -0.138774539929E+03    0.17826E-09    0.00000E+00     0   0.130E-10
 278 F= -.13877454E+03 E0= -.13878709E+03  d E =-.120053E-09
       N       E                     dE             d eps       ncg     rms          rms(c)
DAV:   1    -0.138774539928E+03    0.48021E-09   -0.26211E-11   168   0.224E-10    0.187E-10
RMM:   2    -0.138774539929E+03   -0.26193E-09    0.00000E+00     0   0.103E-10
 279 F= -.13877454E+03 E0= -.13878709E+03  d E =0.400178E-10
       N       E                     dE             d eps       ncg     rms          rms(c)
DAV:   1    -0.138774539929E+03   -0.89858E-09   -0.85834E-11   168   0.181E-10    0.166E-10
RMM:   2    -0.138774539929E+03    0.69122E-09    0.00000E+00     0   0.102E-10
 280 F= -.13877454E+03 E0= -.13878709E+03  d E =0.545697E-10
       N       E                     dE             d eps       ncg     rms          rms(c)
DAV:   1    -0.138774539929E+03    0.23283E-09   -0.34642E-11   168   0.183E-10    0.124E-10
RMM:   2    -0.138774539929E+03    0.45839E-09    0.00000E+00     0   0.968E-11
 281 F= -.13877454E+03 E0= -.13878709E+03  d E =0.000000E+00
       N       E                     dE             d eps       ncg     rms          rms(c)
DAV:   1    -0.138774539929E+03    0.56025E-09   -0.73146E-11   168   0.118E-10    0.236E-10
RMM:   2    -0.138774539929E+03   -0.90949E-10    0.00000E+00     0   0.107E-10
 282 F= -.13877454E+03 E0= -.13878709E+03  d E =0.109139E-10
       N       E                     dE             d eps       ncg     rms          rms(c)
DAV:   1    -0.138774539928E+03    0.22919E-09   -0.60339E-11   168   0.138E-10    0.234E-10
RMM:   2    -0.138774539929E+03   -0.24011E-09    0.00000E+00     0   0.100E-10
 283 F= -.13877454E+03 E0= -.13878709E+03  d E =0.800355E-10
       N       E                     dE             d eps       ncg     rms          rms(c)
DAV:   1    -0.138774539928E+03    0.22555E-09   -0.98217E-11   168   0.126E-10    0.153E-10
RMM:   2    -0.138774539929E+03   -0.60754E-09    0.00000E+00     0   0.996E-11
 284 F= -.13877454E+03 E0= -.13878709E+03  d E =-.141881E-09
       N       E                     dE             d eps       ncg     rms          rms(c)
DAV:   1    -0.138774539928E+03   -0.36380E-09   -0.13465E-10   168   0.157E-10    0.144E-10
RMM:   2    -0.138774539929E+03   -0.26557E-09    0.00000E+00     0   0.108E-10
 285 F= -.13877454E+03 E0= -.13878709E+03  d E =-.218279E-10
       N       E                     dE             d eps       ncg     rms          rms(c)
DAV:   1    -0.138774539929E+03   -0.50932E-09   -0.22238E-11   168   0.150E-10    0.335E-10
RMM:   2    -0.138774539929E+03    0.24374E-09    0.00000E+00     0   0.116E-10
 286 F= -.13877454E+03 E0= -.13878709E+03  d E =0.000000E+00
       N       E                     dE             d eps       ncg     rms          rms(c)
DAV:   1    -0.138774539929E+03   -0.56025E-09   -0.19333E-11   168   0.185E-10    0.319E-10
RMM:   2    -0.138774539929E+03    0.88767E-09    0.00000E+00     0   0.112E-10
 287 F= -.13877454E+03 E0= -.13878709E+03  d E =0.836735E-10
       N       E                     dE             d eps       ncg     rms          rms(c)
DAV:   1    -0.138774539928E+03    0.10004E-08    0.15302E-11   168   0.226E-10    0.202E-10
RMM:   2    -0.138774539929E+03   -0.47294E-10    0.00000E+00     0   0.117E-10
 288 F= -.13877454E+03 E0= -.13878709E+03  d E =0.654836E-10
       N       E                     dE             d eps       ncg     rms          rms(c)
DAV:   1    -0.138774539929E+03   -0.41473E-09   -0.59726E-11   168   0.238E-10    0.217E-10
RMM:   2    -0.138774539929E+03    0.22919E-09    0.00000E+00     0   0.121E-10
 289 F= -.13877454E+03 E0= -.13878709E+03  d E =-.138243E-09
       N       E                     dE             d eps       ncg     rms          rms(c)
DAV:   1    -0.138774539928E+03    0.93496E-09   -0.36256E-11   168   0.140E-10    0.206E-10
RMM:   2    -0.138774539929E+03   -0.69849E-09    0.00000E+00     0   0.120E-10
 290 F= -.13877454E+03 E0= -.13878709E+03  d E =0.727596E-11
       N       E                     dE             d eps       ncg     rms          rms(c)
DAV:   1    -0.138774539928E+03    0.22919E-09   -0.65093E-11   168   0.153E-10    0.329E-10
RMM:   2    -0.138774539929E+03   -0.97134E-09    0.00000E+00     0   0.133E-10
 291 F= -.13877454E+03 E0= -.13878709E+03  d E =-.436557E-10
       N       E                     dE             d eps       ncg     rms          rms(c)
DAV:   1    -0.138774539928E+03   -0.64392E-09   -0.50777E-11   168   0.276E-10    0.117E-10
RMM:   2    -0.138774539929E+03   -0.18190E-09    0.00000E+00     0   0.993E-11
 292 F= -.13877454E+03 E0= -.13878709E+03  d E =0.145519E-09
       N       E                     dE             d eps       ncg     rms          rms(c)
DAV:   1    -0.138774539928E+03   -0.40018E-10   -0.45722E-11   168   0.129E-10    0.190E-10
RMM:   2    -0.138774539929E+03   -0.18917E-09    0.00000E+00     0   0.119E-10
 293 F= -.13877454E+03 E0= -.13878709E+03  d E =-.472937E-10
       N       E                     dE             d eps       ncg     rms          rms(c)
DAV:   1    -0.138774539928E+03    0.18190E-09   -0.17433E-10   168   0.180E-10    0.203E-10
RMM:   2    -0.138774539929E+03   -0.39654E-09    0.00000E+00     0   0.925E-11
 294 F= -.13877454E+03 E0= -.13878709E+03  d E =-.254659E-10
       N       E                     dE             d eps       ncg     rms          rms(c)
DAV:   1    -0.138774539928E+03    0.90949E-10   -0.18050E-11   168   0.173E-10    0.166E-10
RMM:   2    -0.138774539929E+03   -0.42928E-09    0.00000E+00     0   0.103E-10
 295 F= -.13877454E+03 E0= -.13878709E+03  d E =0.582077E-10
       N       E                     dE             d eps       ncg     rms          rms(c)
DAV:   1    -0.138774539928E+03    0.69122E-10   -0.34885E-11   168   0.168E-10    0.258E-10
RMM:   2    -0.138774539929E+03   -0.42928E-09    0.00000E+00     0   0.116E-10
 296 F= -.13877454E+03 E0= -.13878709E+03  d E =0.691216E-10
       N       E                     dE             d eps       ncg     rms          rms(c)
DAV:   1    -0.138774539929E+03   -0.61482E-09   -0.45170E-11   168   0.244E-10    0.184E-10
RMM:   2    -0.138774539929E+03    0.11278E-09    0.00000E+00     0   0.830E-11
 297 F= -.13877454E+03 E0= -.13878709E+03  d E =-.727596E-10
       N       E                     dE             d eps       ncg     rms          rms(c)
DAV:   1    -0.138774539929E+03   -0.13461E-09    0.12120E-12   168   0.152E-10    0.258E-10
RMM:   2    -0.138774539929E+03    0.19645E-09    0.00000E+00     0   0.113E-10
 298 F= -.13877454E+03 E0= -.13878709E+03  d E =-.509317E-10
       N       E                     dE             d eps       ncg     rms          rms(c)
DAV:   1    -0.138774539928E+03    0.70577E-09   -0.89280E-11   168   0.190E-10    0.140E-10
RMM:   2    -0.138774539929E+03   -0.61482E-09    0.00000E+00     0   0.998E-11
 299 F= -.13877454E+03 E0= -.13878709E+03  d E =-.105501E-09
       N       E                     dE             d eps       ncg     rms          rms(c)
DAV:   1    -0.138774539929E+03   -0.67303E-09   -0.12825E-11   168   0.151E-10    0.263E-10
RMM:   2    -0.138774539929E+03    0.24374E-09    0.00000E+00     0   0.137E-10
 300 F= -.13877454E+03 E0= -.13878709E+03  d E =0.185537E-09
