   4   4   0   0
  0.2030031E+02  0.3575191E-09  0.3575191E-09  0.6352785E-09  0.5000000E-15
   1.0000000000000000E-004
  CAR 
 unknown system                          
     24.43854836    -21.24141945  301      4.05386272      1.00000000
    -21.241  0.0000E+00  0.0000E+00
    -21.089  0.0000E+00  0.0000E+00
    -20.937  0.0000E+00  0.0000E+00
    -20.785  0.0000E+00  0.0000E+00
    -20.632  0.0000E+00  0.0000E+00
    -20.480  0.0000E+00  0.0000E+00
    -20.328  0.0000E+00  0.0000E+00
    -20.176  0.0000E+00  0.0000E+00
    -20.023  0.0000E+00  0.0000E+00
    -19.871  0.0000E+00  0.0000E+00
    -19.719  0.0000E+00  0.0000E+00
    -19.566  0.0000E+00  0.0000E+00
    -19.414  0.1988E-13  0.3028E-14
    -19.262  0.1653E-03  0.2517E-04
    -19.110  0.2936E+00  0.4473E-01
    -18.957  0.1003E+00  0.6000E-01
    -18.805  0.3214E-06  0.6000E-01
    -18.653  0.0000E+00  0.6000E-01
    -18.501  0.0000E+00  0.6000E-01
    -18.348  0.0000E+00  0.6000E-01
    -18.196  0.0000E+00  0.6000E-01
    -18.044  0.0000E+00  0.6000E-01
    -17.892  0.0000E+00  0.6000E-01
    -17.739  0.0000E+00  0.6000E-01
    -17.587  0.0000E+00  0.6000E-01
    -17.435  0.0000E+00  0.6000E-01
    -17.282  0.0000E+00  0.6000E-01
    -17.130  0.0000E+00  0.6000E-01
    -16.978  0.0000E+00  0.6000E-01
    -16.826  0.0000E+00  0.6000E-01
    -16.673  0.0000E+00  0.6000E-01
    -16.521  0.0000E+00  0.6000E-01
    -16.369  0.0000E+00  0.6000E-01
    -16.217  0.0000E+00  0.6000E-01
    -16.064  0.0000E+00  0.6000E-01
    -15.912  0.0000E+00  0.6000E-01
    -15.760  0.0000E+00  0.6000E-01
    -15.608  0.0000E+00  0.6000E-01
    -15.455  0.0000E+00  0.6000E-01
    -15.303  0.0000E+00  0.6000E-01
    -15.151  0.0000E+00  0.6000E-01
    -14.998  0.0000E+00  0.6000E-01
    -14.846  0.0000E+00  0.6000E-01
    -14.694  0.0000E+00  0.6000E-01
    -14.542  0.0000E+00  0.6000E-01
    -14.389  0.0000E+00  0.6000E-01
    -14.237  0.0000E+00  0.6000E-01
    -14.085  0.0000E+00  0.6000E-01
    -13.933  0.0000E+00  0.6000E-01
    -13.780  0.0000E+00  0.6000E-01
    -13.628  0.0000E+00  0.6000E-01
    -13.476  0.0000E+00  0.6000E-01
    -13.324  0.0000E+00  0.6000E-01
    -13.171  0.0000E+00  0.6000E-01
    -13.019  0.0000E+00  0.6000E-01
    -12.867  0.0000E+00  0.6000E-01
    -12.714  0.0000E+00  0.6000E-01
    -12.562  0.0000E+00  0.6000E-01
    -12.410  0.0000E+00  0.6000E-01
    -12.258  0.0000E+00  0.6000E-01
    -12.105  0.0000E+00  0.6000E-01
    -11.953  0.0000E+00  0.6000E-01
    -11.801  0.0000E+00  0.6000E-01
    -11.649  0.0000E+00  0.6000E-01
    -11.496  0.0000E+00  0.6000E-01
    -11.344  0.0000E+00  0.6000E-01
    -11.192  0.0000E+00  0.6000E-01
    -11.040  0.0000E+00  0.6000E-01
    -10.887  0.0000E+00  0.6000E-01
    -10.735  0.2234E-13  0.6000E-01
    -10.583  0.1384E-04  0.6000E-01
    -10.430  0.3220E-02  0.6049E-01
    -10.278  0.5243E-02  0.6129E-01
    -10.126  0.1020E-01  0.6284E-01
     -9.974  0.1390E-01  0.6496E-01
     -9.821  0.2636E-03  0.6500E-01
     -9.669  0.9846E-02  0.6650E-01
     -9.517  0.1526E-01  0.6882E-01
     -9.365  0.1867E-01  0.7167E-01
     -9.212  0.4597E-03  0.7174E-01
     -9.060  0.1243E-01  0.7363E-01
     -8.908  0.2356E-01  0.7722E-01
     -8.756  0.3697E-02  0.7778E-01
     -8.603  0.4814E-01  0.8511E-01
     -8.451  0.6659E-01  0.9525E-01
     -8.299  0.3032E-01  0.9987E-01
     -8.146  0.8825E-03  0.1000E+00
     -7.994  0.6887E-09  0.1000E+00
     -7.842  0.0000E+00  0.1000E+00
     -7.690  0.0000E+00  0.1000E+00
     -7.537  0.0000E+00  0.1000E+00
     -7.385  0.0000E+00  0.1000E+00
     -7.233  0.0000E+00  0.1000E+00
     -7.081  0.0000E+00  0.1000E+00
     -6.928  0.0000E+00  0.1000E+00
     -6.776  0.0000E+00  0.1000E+00
     -6.624  0.0000E+00  0.1000E+00
     -6.472  0.0000E+00  0.1000E+00
     -6.319  0.0000E+00  0.1000E+00
     -6.167  0.0000E+00  0.1000E+00
     -6.015  0.0000E+00  0.1000E+00
     -5.862  0.0000E+00  0.1000E+00
     -5.710  0.0000E+00  0.1000E+00
     -5.558  0.0000E+00  0.1000E+00
     -5.406  0.0000E+00  0.1000E+00
     -5.253  0.0000E+00  0.1000E+00
     -5.101  0.0000E+00  0.1000E+00
     -4.949  0.0000E+00  0.1000E+00
     -4.797  0.0000E+00  0.1000E+00
     -4.644  0.2981E-14  0.1000E+00
     -4.492  0.1260E-04  0.1000E+00
     -4.340  0.4770E-02  0.1007E+00
     -4.188  0.3250E-02  0.1012E+00
     -4.035  0.1173E-01  0.1030E+00
     -3.883  0.2168E-02  0.1033E+00
     -3.731  0.1070E-01  0.1050E+00
     -3.578  0.1716E-01  0.1076E+00
     -3.426  0.1712E-01  0.1102E+00
     -3.274  0.1704E-01  0.1128E+00
     -3.122  0.1072E-01  0.1144E+00
     -2.969  0.1958E-03  0.1144E+00
     -2.817  0.6439E-03  0.1145E+00
     -2.665  0.1612E-01  0.1170E+00
     -2.513  0.1234E-01  0.1189E+00
     -2.360  0.1480E-02  0.1191E+00
     -2.208  0.3619E-02  0.1197E+00
     -2.056  0.8920E-02  0.1210E+00
     -1.904  0.6624E-03  0.1211E+00
     -1.751  0.1423E-05  0.1211E+00
     -1.599  0.9903E-02  0.1226E+00
     -1.447  0.1616E-01  0.1251E+00
     -1.295  0.3124E-02  0.1256E+00
     -1.142  0.3389E-08  0.1256E+00
     -0.990  0.9625E-05  0.1256E+00
     -0.838  0.1016E-01  0.1271E+00
     -0.685  0.2144E-01  0.1304E+00
     -0.533  0.2307E-01  0.1339E+00
     -0.381  0.3670E-01  0.1395E+00
     -0.229  0.3484E-01  0.1448E+00
     -0.076  0.2434E-01  0.1485E+00
      0.076  0.1400E-01  0.1506E+00
      0.228  0.2121E-01  0.1538E+00
      0.380  0.1383E-01  0.1559E+00
      0.533  0.2932E-01  0.1604E+00
      0.685  0.2896E-01  0.1648E+00
      0.837  0.2056E-01  0.1680E+00
      0.989  0.3533E-01  0.1733E+00
      1.142  0.1055E-01  0.1749E+00
      1.294  0.1439E-01  0.1771E+00
      1.446  0.2494E-01  0.1809E+00
      1.599  0.2549E-01  0.1848E+00
      1.751  0.1312E-01  0.1868E+00
      1.903  0.3461E-01  0.1921E+00
      2.055  0.4792E-01  0.1994E+00
      2.208  0.3967E-01  0.2054E+00
      2.360  0.9114E-02  0.2068E+00
      2.512  0.3202E-01  0.2117E+00
      2.664  0.4471E-01  0.2185E+00
      2.817  0.2639E-02  0.2189E+00
      2.969  0.9905E-03  0.2190E+00
      3.121  0.8625E-02  0.2204E+00
      3.273  0.3388E-01  0.2255E+00
      3.426  0.1228E-01  0.2274E+00
      3.578  0.2600E-02  0.2278E+00
      3.730  0.3356E-03  0.2278E+00
      3.883  0.1407E-01  0.2300E+00
      4.035  0.1929E-03  0.2300E+00
      4.187  0.3239E-05  0.2300E+00
      4.339  0.2039E-01  0.2331E+00
      4.492  0.1787E-01  0.2358E+00
      4.644  0.1779E-01  0.2385E+00
      4.796  0.2325E-02  0.2389E+00
      4.948  0.1989E-08  0.2389E+00
      5.101  0.0000E+00  0.2389E+00
      5.253  0.0000E+00  0.2389E+00
      5.405  0.0000E+00  0.2389E+00
      5.557  0.2277E-07  0.2389E+00
      5.710  0.2191E-02  0.2392E+00
      5.862  0.2677E-02  0.2396E+00
      6.014  0.3999E-02  0.2402E+00
      6.167  0.9315E-02  0.2417E+00
      6.319  0.3706E-02  0.2422E+00
      6.471  0.4681E-03  0.2423E+00
      6.623  0.2887E-01  0.2467E+00
      6.776  0.2511E-01  0.2505E+00
      6.928  0.2517E-01  0.2543E+00
      7.080  0.1686E-01  0.2569E+00
      7.232  0.1945E-01  0.2599E+00
      7.385  0.2916E-01  0.2643E+00
      7.537  0.2388E-01  0.2680E+00
      7.689  0.1307E-01  0.2699E+00
      7.841  0.3839E-01  0.2758E+00
      7.994  0.1709E-01  0.2784E+00
      8.146  0.9473E-02  0.2798E+00
      8.298  0.8397E-02  0.2811E+00
      8.451  0.2162E-01  0.2844E+00
      8.603  0.3466E-01  0.2897E+00
      8.755  0.2742E-01  0.2939E+00
      8.907  0.1339E-01  0.2959E+00
      9.060  0.1595E-01  0.2983E+00
      9.212  0.1043E-01  0.2999E+00
      9.364  0.9517E-02  0.3014E+00
      9.516  0.4085E-01  0.3076E+00
      9.669  0.2685E-01  0.3117E+00
      9.821  0.2846E-01  0.3160E+00
      9.973  0.2118E-01  0.3192E+00
     10.125  0.1920E-01  0.3222E+00
     10.278  0.2572E-01  0.3261E+00
     10.430  0.1242E-01  0.3280E+00
     10.582  0.4184E-02  0.3286E+00
     10.735  0.2079E-01  0.3318E+00
     10.887  0.2736E-01  0.3359E+00
     11.039  0.2848E-01  0.3403E+00
     11.191  0.1667E-01  0.3428E+00
     11.344  0.4192E-01  0.3492E+00
     11.496  0.2605E-01  0.3532E+00
     11.648  0.1835E-01  0.3559E+00
     11.800  0.2966E-01  0.3605E+00
     11.953  0.1292E-01  0.3624E+00
     12.105  0.2826E-01  0.3667E+00
     12.257  0.4677E-01  0.3739E+00
     12.409  0.4703E-01  0.3810E+00
     12.562  0.2387E-01  0.3846E+00
     12.714  0.2860E-01  0.3890E+00
     12.866  0.3460E-01  0.3943E+00
     13.019  0.1147E-01  0.3960E+00
     13.171  0.1353E-01  0.3981E+00
     13.323  0.3110E-01  0.4028E+00
     13.475  0.3249E-01  0.4078E+00
     13.628  0.2486E-01  0.4115E+00
     13.780  0.2408E-01  0.4152E+00
     13.932  0.1631E-01  0.4177E+00
     14.084  0.1062E-01  0.4193E+00
     14.237  0.5195E-02  0.4201E+00
     14.389  0.3976E-01  0.4262E+00
     14.541  0.2506E-01  0.4300E+00
     14.693  0.1140E-01  0.4317E+00
     14.846  0.1197E-01  0.4335E+00
     14.998  0.4016E-01  0.4396E+00
     15.150  0.3482E-01  0.4449E+00
     15.303  0.3178E-01  0.4498E+00
     15.455  0.1784E-01  0.4525E+00
     15.607  0.2652E-01  0.4565E+00
     15.759  0.1751E-01  0.4592E+00
     15.912  0.2889E-01  0.4636E+00
     16.064  0.5147E-01  0.4714E+00
     16.216  0.4382E-01  0.4781E+00
     16.368  0.3844E-02  0.4787E+00
     16.521  0.1140E-01  0.4804E+00
     16.673  0.2589E-01  0.4844E+00
     16.825  0.5042E-01  0.4921E+00
     16.977  0.2077E-01  0.4952E+00
     17.130  0.3187E-01  0.5001E+00
     17.282  0.3517E-01  0.5054E+00
     17.434  0.3393E-01  0.5106E+00
     17.587  0.2082E-01  0.5138E+00
     17.739  0.2474E-01  0.5175E+00
     17.891  0.1801E-01  0.5203E+00
     18.043  0.2484E-01  0.5241E+00
     18.196  0.4186E-01  0.5304E+00
     18.348  0.5030E-01  0.5381E+00
     18.500  0.3443E-01  0.5433E+00
     18.652  0.1398E-01  0.5455E+00
     18.805  0.3399E-01  0.5506E+00
     18.957  0.3843E-01  0.5565E+00
     19.109  0.8014E-02  0.5577E+00
     19.261  0.2292E-01  0.5612E+00
     19.414  0.4109E-01  0.5675E+00
     19.566  0.1907E-01  0.5704E+00
     19.718  0.5295E-01  0.5784E+00
     19.871  0.4061E-01  0.5846E+00
     20.023  0.4734E-01  0.5918E+00
     20.175  0.4994E-01  0.5994E+00
     20.327  0.1784E-01  0.6021E+00
     20.480  0.1310E-01  0.6041E+00
     20.632  0.4518E-02  0.6048E+00
     20.784  0.4225E-04  0.6048E+00
     20.936  0.1831E-01  0.6076E+00
     21.089  0.2956E-01  0.6121E+00
     21.241  0.2763E-01  0.6163E+00
     21.393  0.5206E-01  0.6242E+00
     21.545  0.4024E-01  0.6304E+00
     21.698  0.3117E-01  0.6351E+00
     21.850  0.1624E-01  0.6376E+00
     22.002  0.8372E-02  0.6389E+00
     22.155  0.2586E-02  0.6393E+00
     22.307  0.2854E-03  0.6393E+00
     22.459  0.4564E-02  0.6400E+00
     22.611  0.1491E-04  0.6400E+00
     22.764  0.0000E+00  0.6400E+00
     22.916  0.0000E+00  0.6400E+00
     23.068  0.0000E+00  0.6400E+00
     23.220  0.0000E+00  0.6400E+00
     23.373  0.0000E+00  0.6400E+00
     23.525  0.0000E+00  0.6400E+00
     23.677  0.0000E+00  0.6400E+00
     23.829  0.0000E+00  0.6400E+00
     23.982  0.0000E+00  0.6400E+00
     24.134  0.0000E+00  0.6400E+00
     24.286  0.0000E+00  0.6400E+00
     24.439  0.0000E+00  0.6400E+00
