       N       E                     dE             d eps       ncg     rms          rms(c)
DAV:   1     0.344867645968E+02    0.34487E+02   -0.10251E+04  1280   0.538E+02
DAV:   2    -0.173046705688E+02   -0.51791E+02   -0.51579E+02  1888   0.745E+01
DAV:   3    -0.179778357423E+02   -0.67317E+00   -0.67317E+00  1280   0.114E+01
DAV:   4    -0.179810311863E+02   -0.31954E-02   -0.31954E-02  2560   0.881E-01
DAV:   5    -0.179810313162E+02   -0.12986E-06   -0.12986E-06  1280   0.590E-03    0.899E+00
DAV:   6    -0.172284891276E+02    0.75254E+00   -0.24009E+00  1984   0.370E+00    0.636E+00
DAV:   7    -0.171614117352E+02    0.67077E-01   -0.60691E-01  2304   0.199E+00    0.252E+00
DAV:   8    -0.171629485727E+02   -0.15368E-02   -0.71493E-02  1792   0.762E-01    0.268E-01
DAV:   9    -0.171630574161E+02   -0.10884E-03   -0.10372E-02  2144   0.283E-01    0.236E-01
DAV:  10    -0.171634356924E+02   -0.37828E-03   -0.45789E-04  1632   0.822E-02    0.114E-01
DAV:  11    -0.171637566156E+02   -0.32092E-03   -0.63004E-04  1696   0.700E-02    0.458E-02
DAV:  12    -0.171637755201E+02   -0.18904E-04   -0.68249E-05  2176   0.245E-02    0.164E-02
DAV:  13    -0.171637810652E+02   -0.55451E-05   -0.71402E-06  1664   0.920E-03
   1 F= -.17163781E+02 E0= -.17163781E+02  d E =-.171638E+02
       N       E                     dE             d eps       ncg     rms          rms(c)
DAV:   1    -0.171710365414E+02   -0.72610E-02   -0.28756E-01  1280   0.194E+00    0.377E-01
DAV:   2    -0.171691407936E+02    0.18957E-02   -0.11973E-02  2400   0.431E-01    0.222E-01
DAV:   3    -0.171681014275E+02    0.10394E-02   -0.16661E-03  1952   0.140E-01    0.670E-02
DAV:   4    -0.171680141504E+02    0.87277E-04   -0.20195E-04  2208   0.547E-02    0.262E-02
DAV:   5    -0.171680120204E+02    0.21300E-05   -0.11361E-05  1376   0.149E-02
   2 F= -.17168012E+02 E0= -.17168012E+02  d E =-.423096E-02
       N       E                     dE             d eps       ncg     rms          rms(c)
DAV:   1    -0.171808323755E+02   -0.12818E-01   -0.96896E-01  1280   0.356E+00    0.697E-01
DAV:   2    -0.171744164087E+02    0.64160E-02   -0.40399E-02  2400   0.792E-01    0.407E-01
DAV:   3    -0.171709155140E+02    0.35009E-02   -0.56313E-03  1952   0.256E-01    0.123E-01
DAV:   4    -0.171706154116E+02    0.30010E-03   -0.67355E-04  2144   0.935E-02    0.490E-02
DAV:   5    -0.171706067173E+02    0.86943E-05   -0.41970E-05  1632   0.292E-02
   3 F= -.17170607E+02 E0= -.17170607E+02  d E =-.682565E-02
       N       E                     dE             d eps       ncg     rms          rms(c)
DAV:   1    -0.171743079313E+02   -0.36925E-02   -0.11095E-01  1344   0.125E+00    0.295E-01
DAV:   2    -0.171729422302E+02    0.13657E-02   -0.37270E-03  2176   0.251E-01    0.146E-01
DAV:   3    -0.171723472803E+02    0.59495E-03   -0.10686E-03  2016   0.111E-01    0.496E-02
DAV:   4    -0.171722976110E+02    0.49669E-04   -0.10029E-04  2336   0.364E-02    0.274E-02
DAV:   5    -0.171722940099E+02    0.36012E-05   -0.82633E-06  1344   0.128E-02
   4 F= -.17172294E+02 E0= -.17172294E+02  d E =-.168729E-02
       N       E                     dE             d eps       ncg     rms          rms(c)
DAV:   1    -0.171782591185E+02   -0.59615E-02   -0.26542E-01  1344   0.194E+00    0.454E-01
DAV:   2    -0.171749759997E+02    0.32831E-02   -0.89229E-03  2176   0.389E-01    0.224E-01
DAV:   3    -0.171735460517E+02    0.14299E-02   -0.25867E-03  1984   0.172E-01    0.766E-02
DAV:   4    -0.171734293857E+02    0.11667E-03   -0.24005E-04  2336   0.539E-02    0.428E-02
DAV:   5    -0.171734218783E+02    0.75074E-05   -0.19138E-05  1440   0.198E-02
   5 F= -.17173422E+02 E0= -.17173422E+02  d E =-.281516E-02
       N       E                     dE             d eps       ncg     rms          rms(c)
DAV:   1    -0.171736261920E+02   -0.19681E-03   -0.97234E-03  1504   0.369E-01    0.863E-02
DAV:   2    -0.171735043816E+02    0.12181E-03   -0.30715E-04  2080   0.725E-02    0.425E-02
DAV:   3    -0.171734522537E+02    0.52128E-04   -0.97399E-05  2048   0.350E-02    0.146E-02
DAV:   4    -0.171734479080E+02    0.43457E-05   -0.79098E-06  1440   0.100E-02
   6 F= -.17173448E+02 E0= -.17173448E+02  d E =-.284119E-02
       N       E                     dE             d eps       ncg     rms          rms(c)
DAV:   1    -0.171752456806E+02   -0.17934E-02   -0.38640E-02  1280   0.951E-01    0.198E-01
DAV:   2    -0.171746139733E+02    0.63171E-03   -0.21912E-03  1504   0.196E-01    0.931E-02
DAV:   3    -0.171744482479E+02    0.16573E-03   -0.46946E-04  1888   0.890E-02    0.392E-02
DAV:   4    -0.171744381721E+02    0.10076E-04   -0.85995E-06  1440   0.105E-02    0.298E-02
DAV:   5    -0.171744298119E+02    0.83602E-05   -0.49235E-06  1568   0.629E-03
   7 F= -.17174430E+02 E0= -.17174430E+02  d E =-.981904E-03
       N       E                     dE             d eps       ncg     rms          rms(c)
DAV:   1    -0.171830267486E+02   -0.85886E-02   -0.34770E-01  1280   0.286E+00    0.591E-01
DAV:   2    -0.171773410107E+02    0.56857E-02   -0.19693E-02  1504   0.585E-01    0.278E-01
DAV:   3    -0.171758593947E+02    0.14816E-02   -0.42081E-03  1856   0.266E-01    0.115E-01
DAV:   4    -0.171757782189E+02    0.81176E-04   -0.79317E-05  1600   0.317E-02    0.878E-02
DAV:   5    -0.171757220145E+02    0.56204E-04   -0.43250E-05  2432   0.184E-02    0.229E-02
DAV:   6    -0.171757203105E+02    0.17040E-05   -0.10597E-06   768   0.545E-03
   8 F= -.17175720E+02 E0= -.17175720E+02  d E =-.227240E-02
       N       E                     dE             d eps       ncg     rms          rms(c)
DAV:   1    -0.171758840306E+02   -0.16202E-03   -0.11708E-02  1280   0.337E-01    0.336E-02
DAV:   2    -0.171758880062E+02   -0.39757E-05   -0.18675E-04  2368   0.575E-02    0.152E-02
DAV:   3    -0.171758831662E+02    0.48400E-05   -0.97323E-06  1312   0.111E-02
   9 F= -.17175883E+02 E0= -.17175883E+02  d E =-.162856E-03
