 vasp.6.3.2 27Jun22 (build Jun 14 2024 17:29:11) complex                         
 executed on             LinuxGNU date 2026.03.29  20:08:03
 running on   32 total cores
 distrk:  each k-point on   32 cores,    1 groups
 distr:  one band on NCORE=   1 cores,   32 groups


--------------------------------------------------------------------------------------------------------


 INCAR:
   EDIFF = 1e-05
   EDIFFG = -0.05
   ENCUT = 400.0
   IBRION = 2
   ISIF = 3
   ISMEAR = 0
   LCHARG = False
   LREAL = Auto
   LWAVE = False
   NSW = 100
   SIGMA = 0.05

 POTCAR:    PAW_PBE Na_pv 19Sep2006               
 POTCAR:    PAW_PBE Si 05Jan2001                  
 POTCAR:    PAW_PBE S 06Sep2000                   
 -----------------------------------------------------------------------------
|                                                                             |
|           W    W    AA    RRRRR   N    N  II  N    N   GGGG   !!!           |
|           W    W   A  A   R    R  NN   N  II  NN   N  G    G  !!!           |
|           W    W  A    A  R    R  N N  N  II  N N  N  G       !!!           |
|           W WW W  AAAAAA  RRRRR   N  N N  II  N  N N  G  GGG   !            |
|           WW  WW  A    A  R   R   N   NN  II  N   NN  G    G                |
|           W    W  A    A  R    R  N    N  II  N    N   GGGG   !!!           |
|                                                                             |
|     For optimal performance we recommend to set                             |
|       NCORE = 2 up to number-of-cores-per-socket                            |
|     NCORE specifies how many cores store one orbital (NPAR=cpu/NCORE).      |
|     This setting can greatly improve the performance of VASP for DFT.       |
|     The default, NCORE=1 might be grossly inefficient on modern             |
|     multi-core architectures or massively parallel machines. Do your        |
|     own testing! More info at https://www.vasp.at/wiki/index.php/NCORE      |
|     Unfortunately you need to use the default for GW and RPA                |
|     calculations (for HF NCORE is supported but not extensively tested      |
|     yet).                                                                   |
|                                                                             |
 -----------------------------------------------------------------------------

 POTCAR:    PAW_PBE Na_pv 19Sep2006               
   SHA256 =  6a2f546d9e11350984debacf3dc457d8cffc0868e817d445faca461816a32b94 Na_pv/POTCAR          
   COPYR  = (c) Copyright 19Sep2006 Georg Kresse                                                    
   COPYR  = This file is part of the software VASP. Any use, copying, and all other rights are regul
   COPYR  = If you do not have a valid VASP license, you may not use, copy or distribute this file. 
   VRHFIN =Na: p6s1                                                                                 
   LEXCH  = PE                                                                                      
   EATOM  =   766.0439 eV,   56.3026 Ry                                                             
                                                                                                    
   TITEL  = PAW_PBE Na_pv 19Sep2006                                                                 
   LULTRA =        F    use ultrasoft PP ?                                                          
   IUNSCR =        1    unscreen: 0-lin 1-nonlin 2-no                                               
   RPACOR =    1.800    partial core radius                                                         
   POMASS =   22.990; ZVAL   =    7.000    mass and valenz                                          
   RCORE  =    2.200    outmost cutoff radius                                                       
   RWIGS  =    2.200; RWIGS  =    1.164    wigner-seitz radius (au A)                               
   ENMAX  =  259.561; ENMIN  =  194.671 eV                                                          
   ICORE  =        2    local potential                                                             
   LCOR   =        T    correct aug charges                                                         
   LPAW   =        T    paw PP                                                                      
   EAUG   =  368.056                                                                                
   DEXC   =    0.000                                                                                
   RMAX   =    2.245    core radius for proj-oper                                                   
   RAUG   =    1.300    factor for augmentation sphere                                              
   RDEP   =    2.259    radius for radial grids                                                     
   RDEPT  =    1.738    core radius for aug-charge                                                  
                                                                                                    
   Atomic configuration                                                                             
    5 entries                                                                                       
     n  l   j            E        occ.                                                              
     1  0  0.50     -1033.6933   2.0000                                                             
     2  0  0.50       -56.7526   2.0000                                                             
     2  1  1.50       -28.6721   6.0000                                                             
     3  0  0.50        -2.7440   1.0000                                                             
     3  2  1.50        -1.3606   0.0000                                                             
   Description                                                                                      
     l       E           TYP  RCUT    TYP  RCUT                                                     
     1    -28.6720912     23  2.000                                                                 
     1      6.8029130     23  2.000                                                                 
     0     -2.7439560     23  2.200                                                                 
     0     34.0145650     23  2.200                                                                 
     2     -1.3605826     23  2.200                                                                 
  local pseudopotential read in
  partial core-charges read in
  partial kinetic energy density read in
  atomic valenz-charges read in
  non local Contribution for L=           1  read in
    real space projection operators read in
  non local Contribution for L=           1  read in
    real space projection operators read in
  non local Contribution for L=           0  read in
    real space projection operators read in
  non local Contribution for L=           0  read in
    real space projection operators read in
    PAW grid and wavefunctions read in

   number of l-projection  operators is LMAX  =           4
   number of lm-projection operators is LMMAX =           8

 POTCAR:    PAW_PBE Si 05Jan2001                  
   SHA256 =  79d9987ad8750f624c4d6acb2a16d13abf6a777132adc04dc6c8399be72b42bb Si/POTCAR             
   COPYR  = (c) Copyright 05Jan2001 Georg Kresse                                                    
   COPYR  = This file is part of the software VASP. Any use, copying, and all other rights are regul
   COPYR  = If you do not have a valid VASP license, you may not use, copy or distribute this file. 
   VRHFIN =Si: s2p2                                                                                 
   LEXCH  = PE                                                                                      
   EATOM  =   103.0669 eV,    7.5752 Ry                                                             
                                                                                                    
   TITEL  = PAW_PBE Si 05Jan2001                                                                    
   LULTRA =        F    use ultrasoft PP ?                                                          
   IUNSCR =        1    unscreen: 0-lin 1-nonlin 2-no                                               
   RPACOR =    1.500    partial core radius                                                         
   POMASS =   28.085; ZVAL   =    4.000    mass and valenz                                          
   RCORE  =    1.900    outmost cutoff radius                                                       
   RWIGS  =    2.480; RWIGS  =    1.312    wigner-seitz radius (au A)                               
   ENMAX  =  245.345; ENMIN  =  184.009 eV                                                          
   ICORE  =        2    local potential                                                             
   LCOR   =        T    correct aug charges                                                         
   LPAW   =        T    paw PP                                                                      
   EAUG   =  322.069                                                                                
   DEXC   =    0.000                                                                                
   RMAX   =    1.950    core radius for proj-oper                                                   
   RAUG   =    1.300    factor for augmentation sphere                                              
   RDEP   =    1.993    radius for radial grids                                                     
   RDEPT  =    1.837    core radius for aug-charge                                                  
                                                                                                    
   Atomic configuration                                                                             
    6 entries                                                                                       
     n  l   j            E        occ.                                                              
     1  0  0.50     -1785.8828   2.0000                                                             
     2  0  0.50      -139.4969   2.0000                                                             
     2  1  1.50       -95.5546   6.0000                                                             
     3  0  0.50       -10.8127   2.0000                                                             
     3  1  0.50        -4.0811   2.0000                                                             
     3  2  1.50        -4.0817   0.0000                                                             
   Description                                                                                      
     l       E           TYP  RCUT    TYP  RCUT                                                     
     0    -10.8127223     23  1.900                                                                 
     0     -7.6451159     23  1.900                                                                 
     1     -4.0811372     23  1.900                                                                 
     1      2.4879257     23  1.900                                                                 
     2     -4.0817478      7  1.900                                                                 
  local pseudopotential read in
  partial core-charges read in
  partial kinetic energy density read in
  atomic valenz-charges read in
  non local Contribution for L=           0  read in
    real space projection operators read in
  non local Contribution for L=           0  read in
    real space projection operators read in
  non local Contribution for L=           1  read in
    real space projection operators read in
  non local Contribution for L=           1  read in
    real space projection operators read in
    PAW grid and wavefunctions read in

   number of l-projection  operators is LMAX  =           4
   number of lm-projection operators is LMMAX =           8

 POTCAR:    PAW_PBE S 06Sep2000                   
   SHA256 =  0fc7481fb0695f01bdc6462160264c5c84044ae9ec85a907d398b887a2bc3132 S/POTCAR              
   COPYR  = (c) Copyright 06Sep2000 Georg Kresse                                                    
   COPYR  = This file is part of the software VASP. Any use, copying, and all other rights are regul
   COPYR  = If you do not have a valid VASP license, you may not use, copy or distribute this file. 
   VRHFIN =S : s2p4                                                                                 
   LEXCH  = PE                                                                                      
   EATOM  =   276.8230 eV,   20.3459 Ry                                                             
                                                                                                    
   TITEL  = PAW_PBE S 06Sep2000                                                                     
   LULTRA =        F    use ultrasoft PP ?                                                          
   IUNSCR =        1    unscreen: 0-lin 1-nonlin 2-no                                               
   RPACOR =    1.500    partial core radius                                                         
   POMASS =   32.066; ZVAL   =    6.000    mass and valenz                                          
   RCORE  =    1.900    outmost cutoff radius                                                       
   RWIGS  =    2.200; RWIGS  =    1.164    wigner-seitz radius (au A)                               
   ENMAX  =  258.689; ENMIN  =  194.016 eV                                                          
   ICORE  =        2    local potential                                                             
   LCOR   =        T    correct aug charges                                                         
   LPAW   =        T    paw PP                                                                      
   EAUG   =  335.092                                                                                
   DEXC   =    0.000                                                                                
   RMAX   =    1.942    core radius for proj-oper                                                   
   RAUG   =    1.300    factor for augmentation sphere                                              
   RDEP   =    1.954    radius for radial grids                                                     
   RDEPT  =    1.744    core radius for aug-charge                                                  
                                                                                                    
   Atomic configuration                                                                             
    6 entries                                                                                       
     n  l   j            E        occ.                                                              
     1  0  0.50     -2405.8406   2.0000                                                             
     2  0  0.50      -211.7007   2.0000                                                             
     2  1  1.50      -156.4958   6.0000                                                             
     3  0  0.50       -17.2562   2.0000                                                             
     3  1  0.50        -7.0085   4.0000                                                             
     3  2  1.50        -6.8029   0.0000                                                             
   Description                                                                                      
     l       E           TYP  RCUT    TYP  RCUT                                                     
     0    -17.2561641     23  1.900                                                                 
     0    -15.8743224     23  1.900                                                                 
     1     -7.0085400     23  1.900                                                                 
     1     -2.7779785     23  1.900                                                                 
     2     -6.8029130     23  1.900                                                                 
  local pseudopotential read in
  partial core-charges read in
  partial kinetic energy density read in
  atomic valenz-charges read in
  non local Contribution for L=           0  read in
    real space projection operators read in
  non local Contribution for L=           0  read in
    real space projection operators read in
  non local Contribution for L=           1  read in
    real space projection operators read in
  non local Contribution for L=           1  read in
    real space projection operators read in
    PAW grid and wavefunctions read in

   number of l-projection  operators is LMAX  =           4
   number of lm-projection operators is LMMAX =           8

 -----------------------------------------------------------------------------
|                                                                             |
|               ----> ADVICE to this user running VASP <----                  |
|                                                                             |
|     You have a (more or less) 'small supercell' and for smaller cells       |
|     it is recommended to use the reciprocal-space projection scheme!        |
|     The real-space optimization is not efficient for small cells and it     |
|     is also less accurate ...                                               |
|     Therefore, set LREAL=.FALSE. in the INCAR file.                         |
|                                                                             |
 -----------------------------------------------------------------------------

 Optimization of the real space projectors (new method)

 maximal supplied QI-value         = 17.01
 optimisation between [QCUT,QGAM] = [ 10.20, 20.41] = [ 29.16,116.64] Ry 
 Optimized for a Real-space Cutoff    1.30 Angstroem

   l    n(q)    QCUT    max X(q) W(low)/X(q) W(high)/X(q)  e(spline) 
   1      7    10.205     4.940    0.23E-03    0.84E-03    0.11E-06
   1      7    10.205     6.253    0.40E-03    0.13E-02    0.18E-06
   0      8    10.205    37.438    0.23E-03    0.37E-03    0.42E-07
   0      8    10.205     9.606    0.16E-03    0.26E-03    0.31E-07
 Optimization of the real space projectors (new method)

 maximal supplied QI-value         = 19.84
 optimisation between [QCUT,QGAM] = [ 10.12, 20.44] = [ 28.68,116.96] Ry 
 Optimized for a Real-space Cutoff    1.23 Angstroem

   l    n(q)    QCUT    max X(q) W(low)/X(q) W(high)/X(q)  e(spline) 
   0      7    10.119   159.560    0.56E-04    0.22E-03    0.45E-07
   0      7    10.119   115.863    0.56E-04    0.21E-03    0.45E-07
   1      7    10.119    88.339    0.34E-03    0.49E-03    0.11E-06
   1      7    10.119    48.592    0.33E-03    0.48E-03    0.11E-06
 Optimization of the real space projectors (new method)

 maximal supplied QI-value         = 19.84
 optimisation between [QCUT,QGAM] = [ 10.12, 20.44] = [ 28.68,116.96] Ry 
 Optimized for a Real-space Cutoff    1.23 Angstroem

   l    n(q)    QCUT    max X(q) W(low)/X(q) W(high)/X(q)  e(spline) 
   0      7    10.119   187.594    0.62E-04    0.28E-03    0.52E-07
   0      7    10.119   164.243    0.61E-04    0.28E-03    0.52E-07
   1      7    10.119    67.533    0.45E-03    0.63E-03    0.13E-06
   1      7    10.119    50.729    0.44E-03    0.62E-03    0.12E-06
  PAW_PBE Na_pv 19Sep2006               :
 energy of atom  1       EATOM= -766.0439
 kinetic energy error for atom=    0.0103 (will be added to EATOM!!)
  PAW_PBE Si 05Jan2001                  :
 energy of atom  2       EATOM= -103.0669
 kinetic energy error for atom=    0.0012 (will be added to EATOM!!)
  PAW_PBE S 06Sep2000                   :
 energy of atom  3       EATOM= -276.8230
 kinetic energy error for atom=    0.0046 (will be added to EATOM!!)


 POSCAR: Na1 Si1 S2
  positions in direct lattice
  No initial velocities read in
 exchange correlation table for  LEXCH =        8
   RHO(1)=    0.500       N(1)  =     2000
   RHO(2)=  100.500       N(2)  =     4000



--------------------------------------------------------------------------------------------------------


 ion  position               nearest neighbor table
   1  0.500  0.500  0.462-   3 2.67   3 2.67   3 2.67   3 2.67
   2  0.000  0.000  0.926-   3 2.08   4 2.60   4 2.60   4 2.60   4 2.60
   3  0.000  0.000  0.600-   2 2.08   1 2.67   1 2.67   1 2.67   1 2.67
   4  0.500  0.500  0.022-   2 2.60   2 2.60   2 2.60   2 2.60

  LATTYP: Found a simple tetragonal cell.
 ALAT       =     3.5751908820
 C/A-ratio  =     1.7769078227
  
  Lattice vectors:
  
 A1 = (   3.5751908820,   0.0000000000,   0.0000000000)
 A2 = (   0.0000000000,   3.5751908820,   0.0000000000)
 A3 = (  -0.0000000000,   0.0000000000,   6.3527846460)


Analysis of symmetry for initial positions (statically):
=====================================================================
 Subroutine PRICEL returns:
 Original cell was already a primitive cell.
 

 Routine SETGRP: Setting up the symmetry group for a 
 simple tetragonal supercell.


 Subroutine GETGRP returns: Found  8 space group operations
 (whereof  8 operations were pure point group operations)
 out of a pool of 16 trial point group operations.


The static configuration has the point symmetry C_4v.


Analysis of symmetry for dynamics (positions and initial velocities):
=====================================================================
 Subroutine PRICEL returns:
 Original cell was already a primitive cell.
 

 Routine SETGRP: Setting up the symmetry group for a 
 simple tetragonal supercell.


 Subroutine GETGRP returns: Found  8 space group operations
 (whereof  8 operations were pure point group operations)
 out of a pool of 16 trial point group operations.


The dynamic configuration has the point symmetry C_4v.


 Subroutine INISYM returns: Found  8 space group operations
 (whereof  8 operations are pure point group operations),
 and found     1 'primitive' translations


----------------------------------------------------------------------------------------

                                     Primitive cell                                     

  volume of cell :      81.2012

  direct lattice vectors                    reciprocal lattice vectors
     3.575190882  0.000000000  0.000000000     0.279705345 -0.000000000  0.000000000
     0.000000000  3.575190882  0.000000000     0.000000000  0.279705345 -0.000000000
    -0.000000000  0.000000000  6.352784646     0.000000000  0.000000000  0.157411286

  length of vectors
     3.575190882  3.575190882  6.352784646     0.279705345  0.279705345  0.157411286

  position of ions in fractional coordinates (direct lattice)
     0.499999939  0.499999939  0.462216203
     0.000000000  0.000000000  0.926255019
     0.000000000  0.000000000  0.599613082
     0.499999939  0.499999939  0.021915010

  ion indices of the primitive-cell ions
   primitive index   ion index
                 1           1
                 2           2
                 3           3
                 4           4

----------------------------------------------------------------------------------------



 KPOINTS: pymatgen with grid density = 500 / numbe

Automatic generation of k-mesh.
 Grid dimensions read from file:
 generate k-points for:    6    6    3

 Generating k-lattice:

  Cartesian coordinates                     Fractional coordinates (reciprocal lattice)
     0.046617558 -0.000000000  0.000000000     0.166666667  0.000000000  0.000000000
     0.000000000  0.046617558 -0.000000000     0.000000000  0.166666667  0.000000000
     0.000000000  0.000000000  0.052470429     0.000000000  0.000000000  0.333333333

  Length of vectors
     0.046617558  0.046617558  0.052470429

  Shift w.r.t. Gamma in fractional coordinates (k-lattice)
     0.000000000  0.000000000  0.000000000

 
 Subroutine IBZKPT returns following result:
 ===========================================
 
 Found     20 irreducible k-points:
 
 Following reciprocal coordinates:
            Coordinates               Weight
  0.000000  0.000000  0.000000      1.000000
  0.166667  0.000000  0.000000      4.000000
  0.333333  0.000000  0.000000      4.000000
  0.500000  0.000000  0.000000      2.000000
  0.166667  0.166667  0.000000      4.000000
  0.333333  0.166667  0.000000      8.000000
  0.500000  0.166667  0.000000      4.000000
  0.333333  0.333333  0.000000      4.000000
  0.500000  0.333333  0.000000      4.000000
  0.500000  0.500000  0.000000      1.000000
  0.000000  0.000000  0.333333      2.000000
  0.166667  0.000000  0.333333      8.000000
  0.333333  0.000000  0.333333      8.000000
  0.500000  0.000000  0.333333      4.000000
  0.166667  0.166667  0.333333      8.000000
  0.333333  0.166667  0.333333     16.000000
  0.500000  0.166667  0.333333      8.000000
  0.333333  0.333333  0.333333      8.000000
  0.500000  0.333333  0.333333      8.000000
  0.500000  0.500000  0.333333      2.000000
 
 Following cartesian coordinates:
            Coordinates               Weight
  0.000000  0.000000  0.000000      1.000000
  0.046618  0.000000  0.000000      4.000000
  0.093235  0.000000  0.000000      4.000000
  0.139853  0.000000  0.000000      2.000000
  0.046618  0.046618  0.000000      4.000000
  0.093235  0.046618  0.000000      8.000000
  0.139853  0.046618  0.000000      4.000000
  0.093235  0.093235  0.000000      4.000000
  0.139853  0.093235  0.000000      4.000000
  0.139853  0.139853  0.000000      1.000000
  0.000000  0.000000  0.052470      2.000000
  0.046618  0.000000  0.052470      8.000000
  0.093235  0.000000  0.052470      8.000000
  0.139853  0.000000  0.052470      4.000000
  0.046618  0.046618  0.052470      8.000000
  0.093235  0.046618  0.052470     16.000000
  0.139853  0.046618  0.052470      8.000000
  0.093235  0.093235  0.052470      8.000000
  0.139853  0.093235  0.052470      8.000000
  0.139853  0.139853  0.052470      2.000000
 


--------------------------------------------------------------------------------------------------------




 Dimension of arrays:
   k-points           NKPTS =     20   k-points in BZ     NKDIM =     20   number of bands    NBANDS=     32
   number of dos      NEDOS =    301   number of ions     NIONS =      4
   non local maximal  LDIM  =      4   non local SUM 2l+1 LMDIM =      8
   total plane-waves  NPLWV =  10368
   max r-space proj   IRMAX =   1228   max aug-charges    IRDMAX=   4468
   dimension x,y,z NGX =    18 NGY =   18 NGZ =   32
   dimension x,y,z NGXF=    36 NGYF=   36 NGZF=   64
   support grid    NGXF=    36 NGYF=   36 NGZF=   64
   ions per type =               1   1   2
   NGX,Y,Z   is equivalent  to a cutoff of   8.37,  8.37,  8.37 a.u.
   NGXF,Y,Z  is equivalent  to a cutoff of  16.74, 16.74, 16.75 a.u.

 SYSTEM =  unknown system                          
 POSCAR =  Na1 Si1 S2                              

 Startparameter for this run:
   NWRITE =      2    write-flag & timer
   PREC   = normal    normal or accurate (medium, high low for compatibility)
   ISTART =      0    job   : 0-new  1-cont  2-samecut
   ICHARG =      2    charge: 1-file 2-atom 10-const
   ISPIN  =      1    spin polarized calculation?
   LNONCOLLINEAR =      F non collinear calculations
   LSORBIT =      F    spin-orbit coupling
   INIWAV =      1    electr: 0-lowe 1-rand  2-diag
   LASPH  =      F    aspherical Exc in radial PAW
 Electronic Relaxation 1
   ENCUT  =  400.0 eV  29.40 Ry    5.42 a.u.   5.83  5.83 10.36*2*pi/ulx,y,z
   ENINI  =  400.0     initial cutoff
   ENAUG  =  368.1 eV  augmentation charge cutoff
   NELM   =     60;   NELMIN=  2; NELMDL= -5     # of ELM steps 
   EDIFF  = 0.1E-04   stopping-criterion for ELM
   LREAL  =      T    real-space projection
   NLSPLINE    = F    spline interpolate recip. space projectors
   LCOMPAT=      F    compatible to vasp.4.4
   GGA_COMPAT  = T    GGA compatible to vasp.4.4-vasp.4.6
   LMAXPAW     = -100 max onsite density
   LMAXMIX     =    2 max onsite mixed and CHGCAR
   VOSKOWN=      0    Vosko Wilk Nusair interpolation
   ROPT   =   -0.00050  -0.00050  -0.00050
 Ionic relaxation
   EDIFFG = -.5E-01   stopping-criterion for IOM
   NSW    =    100    number of steps for IOM
   NBLOCK =      1;   KBLOCK =    100    inner block; outer block 
   IBRION =      2    ionic relax: 0-MD 1-quasi-New 2-CG
   NFREE  =      1    steps in history (QN), initial steepest desc. (CG)
   ISIF   =      3    stress and relaxation
   IWAVPR =     11    prediction:  0-non 1-charg 2-wave 3-comb
   ISYM   =      2    0-nonsym 1-usesym 2-fastsym
   LCORR  =      T    Harris-Foulkes like correction to forces

   POTIM  = 0.5000    time-step for ionic-motion
   TEIN   =    0.0    initial temperature
   TEBEG  =    0.0;   TEEND  =   0.0 temperature during run
   SMASS  =  -3.00    Nose mass-parameter (am)
   estimated Nose-frequenzy (Omega)   =  0.10E-29 period in steps = 0.13E+47 mass=  -0.292E-27a.u.
   SCALEE = 1.0000    scale energy and forces
   NPACO  =    256;   APACO  = 10.0  distance and # of slots for P.C.
   PSTRESS=    0.0 pullay stress

  Mass of Ions in am
   POMASS =  22.99 28.09 32.07
  Ionic Valenz
   ZVAL   =   7.00  4.00  6.00
  Atomic Wigner-Seitz radii
   RWIGS  =  -1.00 -1.00 -1.00
  virtual crystal weights 
   VCA    =   1.00  1.00  1.00
   NELECT =      23.0000    total number of electrons
   NUPDOWN=      -1.0000    fix difference up-down

 DOS related values:
   EMIN   =  10.00;   EMAX   =-10.00  energy-range for DOS
   EFERMI =   0.00
   ISMEAR =     0;   SIGMA  =   0.05  broadening in eV -4-tet -1-fermi 0-gaus

 Electronic relaxation 2 (details)
   IALGO  =     38    algorithm
   LDIAG  =      T    sub-space diagonalisation (order eigenvalues)
   LSUBROT=      F    optimize rotation matrix (better conditioning)
   TURBO    =      0    0=normal 1=particle mesh
   IRESTART =      0    0=no restart 2=restart with 2 vectors
   NREBOOT  =      0    no. of reboots
   NMIN     =      0    reboot dimension
   EREF     =   0.00    reference energy to select bands
   IMIX   =      4    mixing-type and parameters
     AMIX     =   0.40;   BMIX     =  1.00
     AMIX_MAG =   1.60;   BMIX_MAG =  1.00
     AMIN     =   0.10
     WC   =   100.;   INIMIX=   1;  MIXPRE=   1;  MAXMIX= -45

 Intra band minimization:
   WEIMIN = 0.0010     energy-eigenvalue tresh-hold
   EBREAK =  0.78E-07  absolut break condition
   DEPER  =   0.30     relativ break condition  

   TIME   =   0.40     timestep for ELM

  volume/ion in A,a.u.               =      20.30       136.99
  Fermi-wavevector in a.u.,A,eV,Ry     =   1.075136  2.031712 15.727200  1.155917
  Thomas-Fermi vector in A             =   2.210984

 Write flags
   LWAVE        =      F    write WAVECAR
   LDOWNSAMPLE  =      F    k-point downsampling of WAVECAR
   LCHARG       =      F    write CHGCAR
   LVTOT        =      F    write LOCPOT, total local potential
   LVHAR        =      F    write LOCPOT, Hartree potential only
   LELF         =      F    write electronic localiz. function (ELF)
   LORBIT       =      0    0 simple, 1 ext, 2 COOP (PROOUT), +10 PAW based schemes


 Dipole corrections
   LMONO  =      F    monopole corrections only (constant potential shift)
   LDIPOL =      F    correct potential (dipole corrections)
   IDIPOL =      0    1-x, 2-y, 3-z, 4-all directions 
   EPSILON=  1.0000000 bulk dielectric constant

 Exchange correlation treatment:
   GGA     =    --    GGA type
   LEXCH   =     8    internal setting for exchange type
   LIBXC   =     F    Libxc                    
   VOSKOWN =     0    Vosko Wilk Nusair interpolation
   LHFCALC =     F    Hartree Fock is set to
   LHFONE  =     F    Hartree Fock one center treatment
   AEXX    =    0.0000 exact exchange contribution

 Linear response parameters
   LEPSILON=     F    determine dielectric tensor
   LRPA    =     F    only Hartree local field effects (RPA)
   LNABLA  =     F    use nabla operator in PAW spheres
   LVEL    =     F    velocity operator in full k-point grid
   CSHIFT  =0.1000    complex shift for real part using Kramers Kronig
   OMEGAMAX=  -1.0    maximum frequency
   DEG_THRESHOLD= 0.2000000E-02 threshold for treating states as degnerate
   RTIME   =   -0.100 relaxation time in fs
  (WPLASMAI=    0.000 imaginary part of plasma frequency in eV, 0.658/RTIME)
   DFIELD  = 0.0000000 0.0000000 0.0000000 field for delta impulse in time

  Optional k-point grid parameters
   LKPOINTS_OPT  =     F    use optional k-point grid
   KPOINTS_OPT_MODE=     1    mode for optional k-point grid

 Orbital magnetization related:
   ORBITALMAG=     F  switch on orbital magnetization
   LCHIMAG   =     F  perturbation theory with respect to B field
   DQ        =  0.001000  dq finite difference perturbation B field
   LLRAUG    =     F  two centre corrections for induced B field



--------------------------------------------------------------------------------------------------------


 conjugate gradient relaxation of ions
 charge density and potential will be updated during run
 non-spin polarized calculation
 Variant of blocked Davidson
 Davidson routine will perform the subspace rotation
 perform sub-space diagonalisation
    after iterative eigenvector-optimisation
 modified Broyden-mixing scheme, WC =      100.0
 initial mixing is a Kerker type mixing with AMIX =  0.4000 and BMIX =      1.0000
 Hartree-type preconditioning will be used
 using additional bands           20
 real space projection scheme for non local part
 use partial core corrections
 calculate Harris-corrections to forces   (improved forces if not selfconsistent)
 use gradient corrections 
 use of overlap-Matrix (Vanderbilt PP)
 Gauss-broadening in eV      SIGMA  =   0.05


--------------------------------------------------------------------------------------------------------


  energy-cutoff  :      400.00
  volume of cell :       81.20
      direct lattice vectors                 reciprocal lattice vectors
     3.575190882  0.000000000  0.000000000     0.279705345 -0.000000000  0.000000000
     0.000000000  3.575190882  0.000000000     0.000000000  0.279705345 -0.000000000
    -0.000000000  0.000000000  6.352784646     0.000000000  0.000000000  0.157411286

  length of vectors
     3.575190882  3.575190882  6.352784646     0.279705345  0.279705345  0.157411286



 k-points in units of 2pi/SCALE and weight: pymatgen with grid density = 500 / numbe
   0.00000000  0.00000000  0.00000000       0.009
   0.04661756  0.00000000  0.00000000       0.037
   0.09323512  0.00000000  0.00000000       0.037
   0.13985267  0.00000000  0.00000000       0.019
   0.04661756  0.04661756  0.00000000       0.037
   0.09323512  0.04661756  0.00000000       0.074
   0.13985267  0.04661756  0.00000000       0.037
   0.09323512  0.09323512  0.00000000       0.037
   0.13985267  0.09323512  0.00000000       0.037
   0.13985267  0.13985267  0.00000000       0.009
   0.00000000  0.00000000  0.05247043       0.019
   0.04661756  0.00000000  0.05247043       0.074
   0.09323512  0.00000000  0.05247043       0.074
   0.13985267  0.00000000  0.05247043       0.037
   0.04661756  0.04661756  0.05247043       0.074
   0.09323512  0.04661756  0.05247043       0.148
   0.13985267  0.04661756  0.05247043       0.074
   0.09323512  0.09323512  0.05247043       0.074
   0.13985267  0.09323512  0.05247043       0.074
   0.13985267  0.13985267  0.05247043       0.019

 k-points in reciprocal lattice and weights: pymatgen with grid density = 500 / numbe
   0.00000000  0.00000000  0.00000000       0.009
   0.16666667  0.00000000  0.00000000       0.037
   0.33333333  0.00000000  0.00000000       0.037
   0.50000000  0.00000000  0.00000000       0.019
   0.16666667  0.16666667  0.00000000       0.037
   0.33333333  0.16666667  0.00000000       0.074
   0.50000000  0.16666667  0.00000000       0.037
   0.33333333  0.33333333  0.00000000       0.037
   0.50000000  0.33333333  0.00000000       0.037
   0.50000000  0.50000000  0.00000000       0.009
   0.00000000  0.00000000  0.33333333       0.019
   0.16666667  0.00000000  0.33333333       0.074
   0.33333333  0.00000000  0.33333333       0.074
   0.50000000  0.00000000  0.33333333       0.037
   0.16666667  0.16666667  0.33333333       0.074
   0.33333333  0.16666667  0.33333333       0.148
   0.50000000  0.16666667  0.33333333       0.074
   0.33333333  0.33333333  0.33333333       0.074
   0.50000000  0.33333333  0.33333333       0.074
   0.50000000  0.50000000  0.33333333       0.019

 position of ions in fractional coordinates (direct lattice) 
   0.49999994  0.49999994  0.46221620
   0.00000000  0.00000000  0.92625502
   0.00000000  0.00000000  0.59961308
   0.49999994  0.49999994  0.02191501

 position of ions in cartesian coordinates  (Angst):
   1.78759522  1.78759522  2.93636000
   0.00000000  0.00000000  5.88429866
   0.00000000  0.00000000  3.80921278
   1.78759522  1.78759522  0.13922134



--------------------------------------------------------------------------------------------------------


 k-point   1 :   0.0000 0.0000 0.0000  plane waves:    1473
 k-point   2 :   0.1667 0.0000 0.0000  plane waves:    1469
 k-point   3 :   0.3333 0.0000 0.0000  plane waves:    1476
 k-point   4 :   0.5000 0.0000 0.0000  plane waves:    1480
 k-point   5 :   0.1667 0.1667 0.0000  plane waves:    1468
 k-point   6 :   0.3333 0.1667 0.0000  plane waves:    1475
 k-point   7 :   0.5000 0.1667 0.0000  plane waves:    1482
 k-point   8 :   0.3333 0.3333 0.0000  plane waves:    1488
 k-point   9 :   0.5000 0.3333 0.0000  plane waves:    1488
 k-point  10 :   0.5000 0.5000 0.0000  plane waves:    1488
 k-point  11 :   0.0000 0.0000 0.3333  plane waves:    1445
 k-point  12 :   0.1667 0.0000 0.3333  plane waves:    1468
 k-point  13 :   0.3333 0.0000 0.3333  plane waves:    1478
 k-point  14 :   0.5000 0.0000 0.3333  plane waves:    1474
 k-point  15 :   0.1667 0.1667 0.3333  plane waves:    1469
 k-point  16 :   0.3333 0.1667 0.3333  plane waves:    1474
 k-point  17 :   0.5000 0.1667 0.3333  plane waves:    1478
 k-point  18 :   0.3333 0.3333 0.3333  plane waves:    1476
 k-point  19 :   0.5000 0.3333 0.3333  plane waves:    1472
 k-point  20 :   0.5000 0.5000 0.3333  plane waves:    1472

 maximum and minimum number of plane-waves per node :      1488     1445

 maximum number of plane-waves:      1488
 maximum index in each direction: 
   IXMAX=    5   IYMAX=    5   IZMAX=   10
   IXMIN=   -6   IYMIN=   -6   IZMIN=  -10


 serial   3D FFT for wavefunctions
 parallel 3D FFT for charge:
    minimum data exchange during FFTs selected (reduces bandwidth)


 total amount of memory used by VASP MPI-rank0    31775. kBytes
=======================================================================

   base      :      30000. kBytes
   nonlr-proj:        363. kBytes
   fftplans  :        188. kBytes
   grid      :        721. kBytes
   one-center:         12. kBytes
   wavefun   :        491. kBytes

     INWAV:  cpu time      0.0000: real time      0.0002
 Broyden mixing: mesh for mixing (old mesh)
   NGX = 11   NGY = 11   NGZ = 21
  (NGX  = 36   NGY  = 36   NGZ  = 64)
  gives a total of   2541 points

 initial charge density was supplied:
 charge density of overlapping atoms calculated
 number of electron      23.0000000 magnetization 
 keeping initial charge density in first step


--------------------------------------------------------------------------------------------------------


 Maximum index for non-local projection operator         1149
 Maximum index for augmentation-charges          570 (set IRDMAX)


--------------------------------------------------------------------------------------------------------


 First call to EWALD:  gamma=   0.409
 Maximum number of real-space cells 3x 3x 2
 Maximum number of reciprocal cells 2x 2x 4

    FEWALD:  cpu time      0.0006: real time      0.0007


--------------------------------------- Iteration      1(   1)  ---------------------------------------


    POTLOK:  cpu time      0.0061: real time      0.0064
    SETDIJ:  cpu time      0.0013: real time      0.0015
     EDDAV:  cpu time      0.2921: real time      0.2929
       DOS:  cpu time      0.0007: real time      0.0008
    --------------------------------------------
      LOOP:  cpu time      0.3002: real time      0.3016

 eigenvalue-minimisations  :  1280
 total energy-change (2. order) : 0.3448676E+02  (-0.1025099E+04)
 number of electron      23.0000000 magnetization 
 augmentation part       23.0000000 magnetization 

 Free energy of the ion-electron system (eV)
  ---------------------------------------------------
  alpha Z        PSCENC =        28.97283708
  Ewald energy   TEWEN  =      -979.35222285
  -Hartree energ DENC   =      -313.27857414
  -exchange      EXHF   =         0.00000000
  -V(xc)+E(xc)   XCENC  =        39.96394873
  PAW double counting   =      1025.43992223    -1090.03883641
  entropy T*S    EENTRO =        -0.00397249
  eigenvalues    EBANDS =       -99.95246702
  atomic energy  EATOM  =      1422.73612946
  Solvation  Ediel_sol  =         0.00000000
  ---------------------------------------------------
  free energy    TOTEN  =        34.48676460 eV

  energy without entropy =       34.49073709  energy(sigma->0) =       34.48875084


--------------------------------------------------------------------------------------------------------




--------------------------------------- Iteration      1(   2)  ---------------------------------------


     EDDAV:  cpu time      0.6158: real time      0.6165
       DOS:  cpu time      0.0002: real time      0.0003
    --------------------------------------------
      LOOP:  cpu time      0.6160: real time      0.6168

 eigenvalue-minimisations  :  1888
 total energy-change (2. order) :-0.5179144E+02  (-0.5157927E+02)
 number of electron      23.0000000 magnetization 
 augmentation part       23.0000000 magnetization 

 Free energy of the ion-electron system (eV)
  ---------------------------------------------------
  alpha Z        PSCENC =        28.97283708
  Ewald energy   TEWEN  =      -979.35222285
  -Hartree energ DENC   =      -313.27857414
  -exchange      EXHF   =         0.00000000
  -V(xc)+E(xc)   XCENC  =        39.96394873
  PAW double counting   =      1025.43992223    -1090.03883641
  entropy T*S    EENTRO =        -0.00000000
  eigenvalues    EBANDS =      -151.74787468
  atomic energy  EATOM  =      1422.73612946
  Solvation  Ediel_sol  =         0.00000000
  ---------------------------------------------------
  free energy    TOTEN  =       -17.30467057 eV

  energy without entropy =      -17.30467057  energy(sigma->0) =      -17.30467057


--------------------------------------------------------------------------------------------------------




--------------------------------------- Iteration      1(   3)  ---------------------------------------


     EDDAV:  cpu time      0.2806: real time      0.2811
       DOS:  cpu time      0.0002: real time      0.0003
    --------------------------------------------
      LOOP:  cpu time      0.2808: real time      0.2814

 eigenvalue-minimisations  :  1280
 total energy-change (2. order) :-0.6731652E+00  (-0.6731652E+00)
 number of electron      23.0000000 magnetization 
 augmentation part       23.0000000 magnetization 

 Free energy of the ion-electron system (eV)
  ---------------------------------------------------
  alpha Z        PSCENC =        28.97283708
  Ewald energy   TEWEN  =      -979.35222285
  -Hartree energ DENC   =      -313.27857414
  -exchange      EXHF   =         0.00000000
  -V(xc)+E(xc)   XCENC  =        39.96394873
  PAW double counting   =      1025.43992223    -1090.03883641
  entropy T*S    EENTRO =        -0.00000000
  eigenvalues    EBANDS =      -152.42103985
  atomic energy  EATOM  =      1422.73612946
  Solvation  Ediel_sol  =         0.00000000
  ---------------------------------------------------
  free energy    TOTEN  =       -17.97783574 eV

  energy without entropy =      -17.97783574  energy(sigma->0) =      -17.97783574


--------------------------------------------------------------------------------------------------------




--------------------------------------- Iteration      1(   4)  ---------------------------------------


     EDDAV:  cpu time      1.0459: real time      1.0465
       DOS:  cpu time      0.0004: real time      0.0005
    --------------------------------------------
      LOOP:  cpu time      1.0462: real time      1.0470

 eigenvalue-minimisations  :  2560
 total energy-change (2. order) :-0.3195444E-02  (-0.3195444E-02)
 number of electron      23.0000000 magnetization 
 augmentation part       23.0000000 magnetization 

 Free energy of the ion-electron system (eV)
  ---------------------------------------------------
  alpha Z        PSCENC =        28.97283708
  Ewald energy   TEWEN  =      -979.35222285
  -Hartree energ DENC   =      -313.27857414
  -exchange      EXHF   =         0.00000000
  -V(xc)+E(xc)   XCENC  =        39.96394873
  PAW double counting   =      1025.43992223    -1090.03883641
  entropy T*S    EENTRO =        -0.00000000
  eigenvalues    EBANDS =      -152.42423529
  atomic energy  EATOM  =      1422.73612946
  Solvation  Ediel_sol  =         0.00000000
  ---------------------------------------------------
  free energy    TOTEN  =       -17.98103119 eV

  energy without entropy =      -17.98103119  energy(sigma->0) =      -17.98103119


--------------------------------------------------------------------------------------------------------




--------------------------------------- Iteration      1(   5)  ---------------------------------------


     EDDAV:  cpu time      0.2795: real time      0.2796
       DOS:  cpu time      0.0002: real time      0.0003
    CHARGE:  cpu time      0.0068: real time      0.0072
    MIXING:  cpu time      0.0007: real time      0.0009
    --------------------------------------------
      LOOP:  cpu time      0.2872: real time      0.2881

 eigenvalue-minimisations  :  1280
 total energy-change (2. order) :-0.1298611E-06  (-0.1298614E-06)
 number of electron      23.0000047 magnetization 
 augmentation part        2.5228292 magnetization 

 Broyden mixing:
  rms(total) = 0.89948E+00    rms(broyden)= 0.89946E+00
  rms(prec ) = 0.11687E+01
  weight for this iteration     100.00

 Free energy of the ion-electron system (eV)
  ---------------------------------------------------
  alpha Z        PSCENC =        28.97283708
  Ewald energy   TEWEN  =      -979.35222285
  -Hartree energ DENC   =      -313.27857414
  -exchange      EXHF   =         0.00000000
  -V(xc)+E(xc)   XCENC  =        39.96394873
  PAW double counting   =      1025.43992223    -1090.03883641
  entropy T*S    EENTRO =        -0.00000000
  eigenvalues    EBANDS =      -152.42423542
  atomic energy  EATOM  =      1422.73612946
  Solvation  Ediel_sol  =         0.00000000
  ---------------------------------------------------
  free energy    TOTEN  =       -17.98103132 eV

  energy without entropy =      -17.98103132  energy(sigma->0) =      -17.98103132


--------------------------------------------------------------------------------------------------------




--------------------------------------- Iteration      1(   6)  ---------------------------------------


    POTLOK:  cpu time      0.0050: real time      0.0050
    SETDIJ:  cpu time      0.0011: real time      0.0011
     EDDAV:  cpu time      0.6455: real time      0.6460
       DOS:  cpu time      0.0002: real time      0.0004
    CHARGE:  cpu time      0.0062: real time      0.0062
    MIXING:  cpu time      0.0004: real time      0.0004
    --------------------------------------------
      LOOP:  cpu time      0.6584: real time      0.6590

 eigenvalue-minimisations  :  1984
 total energy-change (2. order) : 0.7525422E+00  (-0.2400865E+00)
 number of electron      23.0000047 magnetization 
 augmentation part        2.5696787 magnetization 

 Broyden mixing:
  rms(total) = 0.63646E+00    rms(broyden)= 0.63646E+00
  rms(prec ) = 0.69489E+00
  weight for this iteration     100.00

 eigenvalues of (default mixing * dielectric matrix)
  average eigenvalue GAMMA=   2.2002
  2.2002

 Free energy of the ion-electron system (eV)
  ---------------------------------------------------
  alpha Z        PSCENC =        28.97283708
  Ewald energy   TEWEN  =      -979.35222285
  -Hartree energ DENC   =      -318.78750608
  -exchange      EXHF   =         0.00000000
  -V(xc)+E(xc)   XCENC  =        40.47445312
  PAW double counting   =      1303.39489441    -1368.24497330
  entropy T*S    EENTRO =        -0.00000000
  eigenvalues    EBANDS =      -146.42210097
  atomic energy  EATOM  =      1422.73612946
  Solvation  Ediel_sol  =         0.00000000
  ---------------------------------------------------
  free energy    TOTEN  =       -17.22848913 eV

  energy without entropy =      -17.22848913  energy(sigma->0) =      -17.22848913


--------------------------------------------------------------------------------------------------------




--------------------------------------- Iteration      1(   7)  ---------------------------------------


    POTLOK:  cpu time      0.0046: real time      0.0048
    SETDIJ:  cpu time      0.0011: real time      0.0011
     EDDAV:  cpu time      2.6988: real time      2.7017
       DOS:  cpu time      0.0003: real time      0.0004
    CHARGE:  cpu time      0.0066: real time      0.0066
    MIXING:  cpu time      0.0002: real time      0.0002
    --------------------------------------------
      LOOP:  cpu time      2.7117: real time      2.7149

 eigenvalue-minimisations  :  2304
 total energy-change (2. order) : 0.6707739E-01  (-0.6069133E-01)
 number of electron      23.0000047 magnetization 
 augmentation part        2.5863974 magnetization 

 Broyden mixing:
  rms(total) = 0.25246E+00    rms(broyden)= 0.25246E+00
  rms(prec ) = 0.26908E+00
  weight for this iteration     100.00

 eigenvalues of (default mixing * dielectric matrix)
  average eigenvalue GAMMA=   1.8139
  1.3193  2.3085

 Free energy of the ion-electron system (eV)
  ---------------------------------------------------
  alpha Z        PSCENC =        28.97283708
  Ewald energy   TEWEN  =      -979.35222285
  -Hartree energ DENC   =      -321.88708508
  -exchange      EXHF   =         0.00000000
  -V(xc)+E(xc)   XCENC  =        40.83094611
  PAW double counting   =      1721.88452053    -1787.09506063
  entropy T*S    EENTRO =        -0.00000000
  eigenvalues    EBANDS =      -143.25147635
  atomic energy  EATOM  =      1422.73612946
  Solvation  Ediel_sol  =         0.00000000
  ---------------------------------------------------
  free energy    TOTEN  =       -17.16141174 eV

  energy without entropy =      -17.16141174  energy(sigma->0) =      -17.16141174


--------------------------------------------------------------------------------------------------------




--------------------------------------- Iteration      1(   8)  ---------------------------------------


    POTLOK:  cpu time      0.0049: real time      0.0051
    SETDIJ:  cpu time      0.0011: real time      0.0011
     EDDAV:  cpu time      0.6559: real time      0.6565
       DOS:  cpu time      0.0002: real time      0.0003
    CHARGE:  cpu time      0.0062: real time      0.0062
    MIXING:  cpu time      0.0002: real time      0.0002
    --------------------------------------------
      LOOP:  cpu time      0.6686: real time      0.6695

 eigenvalue-minimisations  :  1792
 total energy-change (2. order) :-0.1536837E-02  (-0.7149350E-02)
 number of electron      23.0000047 magnetization 
 augmentation part        2.5805983 magnetization 

 Broyden mixing:
  rms(total) = 0.26843E-01    rms(broyden)= 0.26843E-01
  rms(prec ) = 0.44945E-01
  weight for this iteration     100.00

 eigenvalues of (default mixing * dielectric matrix)
  average eigenvalue GAMMA=   1.5912
  2.3280  1.2227  1.2227

 Free energy of the ion-electron system (eV)
  ---------------------------------------------------
  alpha Z        PSCENC =        28.97283708
  Ewald energy   TEWEN  =      -979.35222285
  -Hartree energ DENC   =      -321.82638361
  -exchange      EXHF   =         0.00000000
  -V(xc)+E(xc)   XCENC  =        40.90250560
  PAW double counting   =      1945.89395949    -2011.24870196
  entropy T*S    EENTRO =        -0.00000000
  eigenvalues    EBANDS =      -143.24107178
  atomic energy  EATOM  =      1422.73612946
  Solvation  Ediel_sol  =         0.00000000
  ---------------------------------------------------
  free energy    TOTEN  =       -17.16294857 eV

  energy without entropy =      -17.16294857  energy(sigma->0) =      -17.16294857


--------------------------------------------------------------------------------------------------------




--------------------------------------- Iteration      1(   9)  ---------------------------------------


    POTLOK:  cpu time      0.0047: real time      0.0049
    SETDIJ:  cpu time      0.0010: real time      0.0010
     EDDAV:  cpu time      2.4716: real time      2.4751
       DOS:  cpu time      0.0002: real time      0.0003
    CHARGE:  cpu time      0.0062: real time      0.0064
    MIXING:  cpu time      0.0002: real time      0.0002
    --------------------------------------------
      LOOP:  cpu time      2.4840: real time      2.4880

 eigenvalue-minimisations  :  2144
 total energy-change (2. order) :-0.1088435E-03  (-0.1037230E-02)
 number of electron      23.0000047 magnetization 
 augmentation part        2.5814505 magnetization 

 Broyden mixing:
  rms(total) = 0.23605E-01    rms(broyden)= 0.23605E-01
  rms(prec ) = 0.26843E-01
  weight for this iteration     100.00

 eigenvalues of (default mixing * dielectric matrix)
  average eigenvalue GAMMA=   1.4582
  2.2604  1.4502  1.4502  0.6721

 Free energy of the ion-electron system (eV)
  ---------------------------------------------------
  alpha Z        PSCENC =        28.97283708
  Ewald energy   TEWEN  =      -979.35222285
  -Hartree energ DENC   =      -322.09941416
  -exchange      EXHF   =         0.00000000
  -V(xc)+E(xc)   XCENC  =        40.93316753
  PAW double counting   =      1964.12601395    -2029.48319751
  entropy T*S    EENTRO =        -0.00000000
  eigenvalues    EBANDS =      -142.99637091
  atomic energy  EATOM  =      1422.73612946
  Solvation  Ediel_sol  =         0.00000000
  ---------------------------------------------------
  free energy    TOTEN  =       -17.16305742 eV

  energy without entropy =      -17.16305742  energy(sigma->0) =      -17.16305742


--------------------------------------------------------------------------------------------------------




--------------------------------------- Iteration      1(  10)  ---------------------------------------


    POTLOK:  cpu time      0.0047: real time      0.0049
    SETDIJ:  cpu time      0.0010: real time      0.0010
     EDDAV:  cpu time      0.4873: real time      0.4885
       DOS:  cpu time      0.0003: real time      0.0004
    CHARGE:  cpu time      0.0063: real time      0.0063
    MIXING:  cpu time      0.0003: real time      0.0003
    --------------------------------------------
      LOOP:  cpu time      0.4999: real time      0.5015

 eigenvalue-minimisations  :  1632
 total energy-change (2. order) :-0.3782762E-03  (-0.4578874E-04)
 number of electron      23.0000047 magnetization 
 augmentation part        2.5814997 magnetization 

 Broyden mixing:
  rms(total) = 0.11400E-01    rms(broyden)= 0.11400E-01
  rms(prec ) = 0.14695E-01
  weight for this iteration     100.00

 eigenvalues of (default mixing * dielectric matrix)
  average eigenvalue GAMMA=   1.6393
  2.4362  2.4362  1.2378  1.2378  0.8483

 Free energy of the ion-electron system (eV)
  ---------------------------------------------------
  alpha Z        PSCENC =        28.97283708
  Ewald energy   TEWEN  =      -979.35222285
  -Hartree energ DENC   =      -322.12895808
  -exchange      EXHF   =         0.00000000
  -V(xc)+E(xc)   XCENC  =        40.93613818
  PAW double counting   =      1951.23666760    -2016.58519648
  entropy T*S    EENTRO =        -0.00000000
  eigenvalues    EBANDS =      -142.97883060
  atomic energy  EATOM  =      1422.73612946
  Solvation  Ediel_sol  =         0.00000000
  ---------------------------------------------------
  free energy    TOTEN  =       -17.16343569 eV

  energy without entropy =      -17.16343569  energy(sigma->0) =      -17.16343569


--------------------------------------------------------------------------------------------------------




--------------------------------------- Iteration      1(  11)  ---------------------------------------


    POTLOK:  cpu time      0.0054: real time      0.0056
    SETDIJ:  cpu time      0.0011: real time      0.0011
     EDDAV:  cpu time      0.5008: real time      0.5012
       DOS:  cpu time      0.0003: real time      0.0004
    CHARGE:  cpu time      0.0063: real time      0.0064
    MIXING:  cpu time      0.0002: real time      0.0002
    --------------------------------------------
      LOOP:  cpu time      0.5143: real time      0.5149

 eigenvalue-minimisations  :  1696
 total energy-change (2. order) :-0.3209233E-03  (-0.6300432E-04)
 number of electron      23.0000047 magnetization 
 augmentation part        2.5813542 magnetization 

 Broyden mixing:
  rms(total) = 0.45820E-02    rms(broyden)= 0.45820E-02
  rms(prec ) = 0.54046E-02
  weight for this iteration     100.00

 eigenvalues of (default mixing * dielectric matrix)
  average eigenvalue GAMMA=   1.5440
  2.5740  2.5740  1.3251  1.0172  1.0172  0.7567

 Free energy of the ion-electron system (eV)
  ---------------------------------------------------
  alpha Z        PSCENC =        28.97283708
  Ewald energy   TEWEN  =      -979.35222285
  -Hartree energ DENC   =      -322.19739239
  -exchange      EXHF   =         0.00000000
  -V(xc)+E(xc)   XCENC  =        40.94523816
  PAW double counting   =      1945.95730239    -2011.30747138
  entropy T*S    EENTRO =        -0.00000000
  eigenvalues    EBANDS =      -142.91817709
  atomic energy  EATOM  =      1422.73612946
  Solvation  Ediel_sol  =         0.00000000
  ---------------------------------------------------
  free energy    TOTEN  =       -17.16375662 eV

  energy without entropy =      -17.16375662  energy(sigma->0) =      -17.16375662


--------------------------------------------------------------------------------------------------------




--------------------------------------- Iteration      1(  12)  ---------------------------------------


    POTLOK:  cpu time      0.0048: real time      0.0050
    SETDIJ:  cpu time      0.0010: real time      0.0010
     EDDAV:  cpu time      0.8023: real time      0.8029
       DOS:  cpu time      0.0002: real time      0.0003
    CHARGE:  cpu time      0.0062: real time      0.0062
    MIXING:  cpu time      0.0003: real time      0.0003
    --------------------------------------------
      LOOP:  cpu time      0.8149: real time      0.8158

 eigenvalue-minimisations  :  2176
 total energy-change (2. order) :-0.1890442E-04  (-0.6824860E-05)
 number of electron      23.0000047 magnetization 
 augmentation part        2.5815007 magnetization 

 Broyden mixing:
  rms(total) = 0.16405E-02    rms(broyden)= 0.16405E-02
  rms(prec ) = 0.18512E-02
  weight for this iteration     100.00

 eigenvalues of (default mixing * dielectric matrix)
  average eigenvalue GAMMA=   1.5957
  2.8220  2.4473  1.4421  1.4421  1.0339  0.9913  0.9913

 Free energy of the ion-electron system (eV)
  ---------------------------------------------------
  alpha Z        PSCENC =        28.97283708
  Ewald energy   TEWEN  =      -979.35222285
  -Hartree energ DENC   =      -322.23793455
  -exchange      EXHF   =         0.00000000
  -V(xc)+E(xc)   XCENC  =        40.94830386
  PAW double counting   =      1943.35280980    -2008.70409852
  entropy T*S    EENTRO =        -0.00000000
  eigenvalues    EBANDS =      -142.87959980
  atomic energy  EATOM  =      1422.73612946
  Solvation  Ediel_sol  =         0.00000000
  ---------------------------------------------------
  free energy    TOTEN  =       -17.16377552 eV

  energy without entropy =      -17.16377552  energy(sigma->0) =      -17.16377552


--------------------------------------------------------------------------------------------------------




--------------------------------------- Iteration      1(  13)  ---------------------------------------


    POTLOK:  cpu time      0.0047: real time      0.0049
    SETDIJ:  cpu time      0.0011: real time      0.0011
     EDDAV:  cpu time      0.4947: real time      0.4952
       DOS:  cpu time      0.0002: real time      0.0003
    --------------------------------------------
      LOOP:  cpu time      0.5008: real time      0.5015

 eigenvalue-minimisations  :  1664
 total energy-change (2. order) :-0.5545135E-05  (-0.7140244E-06)
 number of electron      23.0000047 magnetization 
 augmentation part        2.5815007 magnetization 

 Free energy of the ion-electron system (eV)
  ---------------------------------------------------
  alpha Z        PSCENC =        28.97283708
  Ewald energy   TEWEN  =      -979.35222285
  -Hartree energ DENC   =      -322.25112445
  -exchange      EXHF   =         0.00000000
  -V(xc)+E(xc)   XCENC  =        40.94920393
  PAW double counting   =      1942.98993986    -2008.34249052
  entropy T*S    EENTRO =        -0.00000000
  eigenvalues    EBANDS =      -142.86605358
  atomic energy  EATOM  =      1422.73612946
  Solvation  Ediel_sol  =         0.00000000
  ---------------------------------------------------
  free energy    TOTEN  =       -17.16378107 eV

  energy without entropy =      -17.16378107  energy(sigma->0) =      -17.16378107


--------------------------------------------------------------------------------------------------------




 average (electrostatic) potential at core
  the test charge radii are     0.9254  0.9892  0.9698
  (the norm of the test charge is              1.0000)
       1 -44.7197       2 -86.4172       3 -86.6171       4 -88.0577



 E-fermi :   4.0798     XC(G=0):  -9.0544     alpha+bet :-10.1430

 Fermi energy:         4.0797894774

 k-point     1 :       0.0000    0.0000    0.0000
  band No.  band energies     occupation 
      1     -18.9322      2.00000
      2     -18.9129      2.00000
      3     -18.9129      2.00000
      4     -10.3820      2.00000
      5      -8.5087      2.00000
      6      -2.3177      2.00000
      7       0.6674      2.00000
      8       0.6674      2.00000
      9       1.2869      2.00000
     10       2.1471      2.00000
     11       3.2568      2.00000
     12       3.2568      2.00000
     13       7.5626      0.00000
     14       8.1504      0.00000
     15       9.3225      0.00000
     16       9.3225      0.00000
     17       9.8766      0.00000
     18      11.1366      0.00000
     19      11.3107      0.00000
     20      13.1130      0.00000
     21      13.4007      0.00000
     22      13.4007      0.00000
     23      15.1972      0.00000
     24      15.7253      0.00000
     25      17.3743      0.00000
     26      17.3743      0.00000
     27      17.4657      0.00000
     28      18.0444      0.00000
     29      18.7214      0.00000
     30      18.9894      0.00000
     31      18.9894      0.00000
     32      21.9505      0.00000

 k-point     2 :       0.1667    0.0000    0.0000
  band No.  band energies     occupation 
      1     -18.9313      2.00000
      2     -18.9236      2.00000
      3     -18.9118      2.00000
      4     -10.1691      2.00000
      5      -8.4575      2.00000
      6      -2.5645      2.00000
      7      -0.5727      2.00000
      8       0.8826      2.00000
      9       1.6237      2.00000
     10       2.2555      2.00000
     11       3.2674      2.00000
     12       3.3304      2.00000
     13       8.0958      0.00000
     14       8.4266      0.00000
     15       8.7530      0.00000
     16       9.0382      0.00000
     17      10.0714      0.00000
     18      10.5786      0.00000
     19      12.0705      0.00000
     20      12.1590      0.00000
     21      12.2416      0.00000
     22      15.2443      0.00000
     23      15.4874      0.00000
     24      16.6817      0.00000
     25      16.9308      0.00000
     26      17.0461      0.00000
     27      17.2634      0.00000
     28      17.9810      0.00000
     29      19.2140      0.00000
     30      19.6848      0.00000
     31      19.9822      0.00000
     32      20.6154      0.00000

 k-point     3 :       0.3333    0.0000    0.0000
  band No.  band energies     occupation 
      1     -18.9470      2.00000
      2     -18.9276      2.00000
      3     -18.9093      2.00000
      4      -9.6004      2.00000
      5      -8.4490      2.00000
      6      -3.6008      2.00000
      7      -0.6535      2.00000
      8       0.5732      2.00000
      9       1.4534      2.00000
     10       1.8758      2.00000
     11       3.1974      2.00000
     12       4.5347      0.00000
     13       6.8937      0.00000
     14       7.3396      0.00000
     15       8.6496      0.00000
     16       9.6343      0.00000
     17      10.4590      0.00000
     18      10.8495      0.00000
     19      12.0861      0.00000
     20      12.4122      0.00000
     21      13.1946      0.00000
     22      14.3775      0.00000
     23      15.9011      0.00000
     24      16.0520      0.00000
     25      16.2835      0.00000
     26      17.6117      0.00000
     27      19.0836      0.00000
     28      19.3471      0.00000
     29      19.9700      0.00000
     30      20.2939      0.00000
     31      20.9639      0.00000
     32      21.4581      0.00000

 k-point     4 :       0.5000    0.0000    0.0000
  band No.  band energies     occupation 
      1     -18.9579      2.00000
      2     -18.9266      2.00000
      3     -18.9081      2.00000
      4      -9.0673      2.00000
      5      -8.6689      2.00000
      6      -4.1614      2.00000
      7      -0.2129      2.00000
      8      -0.0796      2.00000
      9       1.5171      2.00000
     10       1.9159      2.00000
     11       3.0083      2.00000
     12       5.9685      0.00000
     13       5.9778      0.00000
     14       6.2283      0.00000
     15       8.1994      0.00000
     16       9.9238      0.00000
     17      10.5322      0.00000
     18      11.2231      0.00000
     19      11.6170      0.00000
     20      13.3037      0.00000
     21      13.3088      0.00000
     22      15.2122      0.00000
     23      15.6531      0.00000
     24      15.9667      0.00000
     25      17.1078      0.00000
     26      18.0609      0.00000
     27      18.2017      0.00000
     28      19.4798      0.00000
     29      20.2267      0.00000
     30      20.4826      0.00000
     31      20.5917      0.00000
     32      21.9339      0.00000

 k-point     5 :       0.1667    0.1667    0.0000
  band No.  band energies     occupation 
      1     -18.9305      2.00000
      2     -18.9229      2.00000
      3     -18.9210      2.00000
      4      -9.9640      2.00000
      5      -8.4064      2.00000
      6      -2.6706      2.00000
      7      -0.3766      2.00000
      8      -0.2728      2.00000
      9       1.4082      2.00000
     10       2.5375      2.00000
     11       2.6456      2.00000
     12       4.3393      0.00000
     13       6.9279      0.00000
     14       8.4770      0.00000
     15       9.0503      0.00000
     16       9.6988      0.00000
     17       9.7225      0.00000
     18      11.0877      0.00000
     19      12.0742      0.00000
     20      12.4428      0.00000
     21      12.9165      0.00000
     22      14.3964      0.00000
     23      15.2402      0.00000
     24      16.4612      0.00000
     25      16.8211      0.00000
     26      17.5367      0.00000
     27      17.6657      0.00000
     28      17.9261      0.00000
     29      18.7893      0.00000
     30      20.1739      0.00000
     31      21.2416      0.00000
     32      21.7576      0.00000

 k-point     6 :       0.3333    0.1667    0.0000
  band No.  band energies     occupation 
      1     -18.9444      2.00000
      2     -18.9267      2.00000
      3     -18.9188      2.00000
      4      -9.4218      2.00000
      5      -8.3854      2.00000
      6      -3.4080      2.00000
      7      -0.6922      2.00000
      8       0.1427      2.00000
      9       0.7476      2.00000
     10       1.9330      2.00000
     11       2.5383      2.00000
     12       4.3023      0.00000
     13       6.7118      0.00000
     14       7.9800      0.00000
     15       9.2110      0.00000
     16       9.7621      0.00000
     17      10.6452      0.00000
     18      11.1178      0.00000
     19      12.1456      0.00000
     20      12.8076      0.00000
     21      13.5177      0.00000
     22      13.9942      0.00000
     23      15.6515      0.00000
     24      16.1404      0.00000
     25      17.1396      0.00000
     26      17.6668      0.00000
     27      18.2536      0.00000
     28      19.1975      0.00000
     29      20.0621      0.00000
     30      20.3449      0.00000
     31      21.1011      0.00000
     32      21.8296      0.00000

 k-point     7 :       0.5000    0.1667    0.0000
  band No.  band energies     occupation 
      1     -18.9549      2.00000
      2     -18.9257      2.00000
      3     -18.9172      2.00000
      4      -8.9223      2.00000
      5      -8.5748      2.00000
      6      -3.9140      2.00000
      7      -0.2558      2.00000
      8      -0.2375      2.00000
      9       1.0459      2.00000
     10       1.6237      2.00000
     11       2.1455      2.00000
     12       3.8380      2.00000
     13       7.2700      0.00000
     14       7.9037      0.00000
     15       8.8777      0.00000
     16       9.6765      0.00000
     17      10.5102      0.00000
     18      10.9867      0.00000
     19      12.2575      0.00000
     20      13.1221      0.00000
     21      13.2628      0.00000
     22      14.6520      0.00000
     23      16.6052      0.00000
     24      16.9723      0.00000
     25      17.9082      0.00000
     26      17.9318      0.00000
     27      18.5288      0.00000
     28      18.7334      0.00000
     29      19.7645      0.00000
     30      20.0718      0.00000
     31      21.0383      0.00000
     32      21.4512      0.00000

 k-point     8 :       0.3333    0.3333    0.0000
  band No.  band energies     occupation 
      1     -18.9406      2.00000
      2     -18.9373      2.00000
      3     -18.9244      2.00000
      4      -8.9695      2.00000
      5      -8.2986      2.00000
      6      -3.0832      2.00000
      7      -1.5282      2.00000
      8      -0.2411      2.00000
      9       0.6547      2.00000
     10       1.7263      2.00000
     11       1.9991      2.00000
     12       2.6101      2.00000
     13       7.5367      0.00000
     14       7.8625      0.00000
     15       9.4691      0.00000
     16       9.9146      0.00000
     17      10.5145      0.00000
     18      11.9613      0.00000
     19      12.5440      0.00000
     20      13.8534      0.00000
     21      14.5693      0.00000
     22      15.4780      0.00000
     23      15.4896      0.00000
     24      16.0555      0.00000
     25      16.3287      0.00000
     26      17.6021      0.00000
     27      18.0858      0.00000
     28      19.1115      0.00000
     29      19.5681      0.00000
     30      21.0971      0.00000
     31      21.1032      0.00000
     32      22.4233      0.00000

 k-point     9 :       0.5000    0.3333    0.0000
  band No.  band energies     occupation 
      1     -18.9486      2.00000
      2     -18.9362      2.00000
      3     -18.9234      2.00000
      4      -8.5916      2.00000
      5      -8.3718      2.00000
      6      -3.1918      2.00000
      7      -1.3917      2.00000
      8      -0.8081      2.00000
      9       1.0352      2.00000
     10       1.2455      2.00000
     11       1.7886      2.00000
     12       2.1655      2.00000
     13       7.4412      0.00000
     14       7.4494      0.00000
     15       9.6405      0.00000
     16      10.1926      0.00000
     17      11.2237      0.00000
     18      11.2583      0.00000
     19      13.4445      0.00000
     20      14.0137      0.00000
     21      14.5784      0.00000
     22      14.8529      0.00000
     23      16.2437      0.00000
     24      17.0331      0.00000
     25      17.8515      0.00000
     26      18.0712      0.00000
     27      18.4602      0.00000
     28      18.7143      0.00000
     29      19.5506      0.00000
     30      19.9725      0.00000
     31      20.3126      0.00000
     32      21.3958      0.00000

 k-point    10 :       0.5000    0.5000    0.0000
  band No.  band energies     occupation 
      1     -18.9455      2.00000
      2     -18.9455      2.00000
      3     -18.9222      2.00000
      4      -8.3984      2.00000
      5      -8.2617      2.00000
      6      -2.1293      2.00000
      7      -2.0076      2.00000
      8      -2.0076      2.00000
      9       1.3224      2.00000
     10       1.3546      2.00000
     11       1.3546      2.00000
     12       1.7659      2.00000
     13       7.0889      0.00000
     14       7.0889      0.00000
     15       9.0462      0.00000
     16      10.3580      0.00000
     17      12.4990      0.00000
     18      12.4990      0.00000
     19      12.8856      0.00000
     20      15.3365      0.00000
     21      15.3365      0.00000
     22      15.3637      0.00000
     23      16.0769      0.00000
     24      16.0769      0.00000
     25      16.9290      0.00000
     26      18.3805      0.00000
     27      19.1542      0.00000
     28      19.2195      0.00000
     29      19.2474      0.00000
     30      20.4328      0.00000
     31      20.4328      0.00000
     32      21.6233      0.00000

 k-point    11 :       0.0000    0.0000    0.3333
  band No.  band energies     occupation 
      1     -18.9324      2.00000
      2     -18.9128      2.00000
      3     -18.9128      2.00000
      4     -10.3356      2.00000
      5      -8.6025      2.00000
      6      -2.0779      2.00000
      7       0.6824      2.00000
      8       0.6824      2.00000
      9       0.9795      2.00000
     10       2.2047      2.00000
     11       3.2049      2.00000
     12       3.2049      2.00000
     13       7.6339      0.00000
     14       8.0678      0.00000
     15       9.4634      0.00000
     16       9.4634      0.00000
     17       9.6719      0.00000
     18      10.8852      0.00000
     19      11.4984      0.00000
     20      13.1327      0.00000
     21      13.8325      0.00000
     22      13.8325      0.00000
     23      15.6277      0.00000
     24      15.6277      0.00000
     25      15.7659      0.00000
     26      16.6502      0.00000
     27      17.3340      0.00000
     28      18.2941      0.00000
     29      19.8881      0.00000
     30      20.0603      0.00000
     31      20.6468      0.00000
     32      20.6468      0.00000

 k-point    12 :       0.1667    0.0000    0.3333
  band No.  band energies     occupation 
      1     -18.9317      2.00000
      2     -18.9236      2.00000
      3     -18.9118      2.00000
      4     -10.1252      2.00000
      5      -8.5379      2.00000
      6      -2.5165      2.00000
      7      -0.2780      2.00000
      8       0.8973      2.00000
      9       1.1064      2.00000
     10       2.4395      2.00000
     11       3.2237      2.00000
     12       3.4084      2.00000
     13       7.5389      0.00000
     14       8.4427      0.00000
     15       8.4670      0.00000
     16       9.4218      0.00000
     17      10.0585      0.00000
     18      11.0910      0.00000
     19      11.8864      0.00000
     20      12.4912      0.00000
     21      12.7165      0.00000
     22      15.0996      0.00000
     23      15.1124      0.00000
     24      16.2863      0.00000
     25      16.3802      0.00000
     26      16.7100      0.00000
     27      18.1355      0.00000
     28      18.6864      0.00000
     29      19.0974      0.00000
     30      19.8899      0.00000
     31      19.9599      0.00000
     32      21.3063      0.00000

 k-point    13 :       0.3333    0.0000    0.3333
  band No.  band energies     occupation 
      1     -18.9471      2.00000
      2     -18.9279      2.00000
      3     -18.9093      2.00000
      4      -9.5668      2.00000
      5      -8.4869      2.00000
      6      -3.7048      2.00000
      7      -0.3533      2.00000
      8       0.3890      2.00000
      9       1.4644      2.00000
     10       2.1487      2.00000
     11       3.1835      2.00000
     12       4.5833      0.00000
     13       6.6899      0.00000
     14       6.8375      0.00000
     15       7.6819      0.00000
     16       9.8188      0.00000
     17      10.7846      0.00000
     18      11.8969      0.00000
     19      12.3185      0.00000
     20      12.7483      0.00000
     21      13.7027      0.00000
     22      14.3223      0.00000
     23      15.1641      0.00000
     24      16.2153      0.00000
     25      16.4379      0.00000
     26      17.5923      0.00000
     27      18.3915      0.00000
     28      18.5442      0.00000
     29      19.5326      0.00000
     30      19.9678      0.00000
     31      21.2068      0.00000
     32      21.9158      0.00000

 k-point    14 :       0.5000    0.0000    0.3333
  band No.  band energies     occupation 
      1     -18.9579      2.00000
      2     -18.9267      2.00000
      3     -18.9081      2.00000
      4      -9.0609      2.00000
      5      -8.6546      2.00000
      6      -4.2941      2.00000
      7      -0.3546      2.00000
      8       0.1557      2.00000
      9       1.9160      2.00000
     10       2.0141      2.00000
     11       3.0285      2.00000
     12       5.7079      0.00000
     13       6.0083      0.00000
     14       6.1435      0.00000
     15       6.7875      0.00000
     16       9.3749      0.00000
     17      11.0080      0.00000
     18      12.7012      0.00000
     19      12.8063      0.00000
     20      13.0335      0.00000
     21      13.8900      0.00000
     22      14.9747      0.00000
     23      15.7653      0.00000
     24      16.0126      0.00000
     25      17.0707      0.00000
     26      17.3658      0.00000
     27      17.8174      0.00000
     28      18.2806      0.00000
     29      19.3201      0.00000
     30      20.2060      0.00000
     31      21.0679      0.00000
     32      21.1138      0.00000

 k-point    15 :       0.1667    0.1667    0.3333
  band No.  band energies     occupation 
      1     -18.9308      2.00000
      2     -18.9230      2.00000
      3     -18.9210      2.00000
      4      -9.9225      2.00000
      5      -8.4754      2.00000
      6      -2.6870      2.00000
      7      -0.2524      2.00000
      8      -0.0166      2.00000
      9       1.0297      2.00000
     10       2.5629      2.00000
     11       2.6748      2.00000
     12       4.4596      0.00000
     13       6.7090      0.00000
     14       7.8428      0.00000
     15       8.6716      0.00000
     16      10.0640      0.00000
     17      10.3992      0.00000
     18      11.5131      0.00000
     19      11.8138      0.00000
     20      12.8353      0.00000
[...]
     29      19.3586      0.00000
     30      20.4541      0.00000
     31      20.4541      0.00000
     32      21.7109      0.00000

 k-point    11 :       0.0000    0.0000    0.3333
  band No.  band energies     occupation 
      1     -19.1345      2.00000
      2     -19.1188      2.00000
      3     -19.1188      2.00000
      4     -10.4658      2.00000
      5      -8.7059      2.00000
      6      -2.1911      2.00000
      7       0.6325      2.00000
      8       0.6325      2.00000
      9       0.9140      2.00000
     10       2.1397      2.00000
     11       3.1672      2.00000
     12       3.1672      2.00000
     13       7.5651      0.00000
     14       7.8005      0.00000
     15       9.4497      0.00000
     16       9.4497      0.00000
     17       9.5594      0.00000
     18      10.8553      0.00000
     19      11.1609      0.00000
     20      13.1725      0.00000
     21      13.9200      0.00000
     22      13.9200      0.00000
     23      15.4120      0.00000
     24      15.5119      0.00000
     25      15.5119      0.00000
     26      16.4403      0.00000
     27      17.4350      0.00000
     28      18.0673      0.00000
     29      19.4690      0.00000
     30      19.6374      0.00000
     31      20.4983      0.00000
     32      20.4983      0.00000

 k-point    12 :       0.1667    0.0000    0.3333
  band No.  band energies     occupation 
      1     -19.1344      2.00000
      2     -19.1292      2.00000
      3     -19.1177      2.00000
      4     -10.2504      2.00000
      5      -8.6377      2.00000
      6      -2.5957      2.00000
      7      -0.3922      2.00000
      8       0.8500      2.00000
      9       1.0017      2.00000
     10       2.3742      2.00000
     11       3.1909      2.00000
     12       3.4036      2.00000
     13       7.3341      0.00000
     14       8.4204      0.00000
     15       8.4572      0.00000
     16       9.4245      0.00000
     17       9.9395      0.00000
     18      10.8115      0.00000
     19      11.8160      0.00000
     20      12.4664      0.00000
     21      12.6154      0.00000
     22      14.8515      0.00000
     23      15.0692      0.00000
     24      15.9085      0.00000
     25      16.3803      0.00000
     26      16.7924      0.00000
     27      17.9279      0.00000
     28      18.5392      0.00000
     29      18.8206      0.00000
     30      19.7286      0.00000
     31      19.8398      0.00000
     32      20.9783      0.00000

 k-point    13 :       0.3333    0.0000    0.3333
  band No.  band energies     occupation 
      1     -19.1539      2.00000
      2     -19.1298      2.00000
      3     -19.1153      2.00000
      4      -9.6777      2.00000
      5      -8.5793      2.00000
      6      -3.7886      2.00000
      7      -0.4817      2.00000
      8       0.2778      2.00000
      9       1.4237      2.00000
     10       2.0217      2.00000
     11       3.1617      2.00000
     12       4.6171      0.00000
     13       6.5354      0.00000
     14       6.8502      0.00000
     15       7.7086      0.00000
     16       9.5865      0.00000
     17      10.7300      0.00000
     18      11.5946      0.00000
     19      12.2667      0.00000
     20      12.7205      0.00000
     21      13.4752      0.00000
     22      14.2887      0.00000
     23      14.9168      0.00000
     24      16.1095      0.00000
     25      16.1100      0.00000
     26      17.3353      0.00000
     27      18.3117      0.00000
     28      18.3190      0.00000
     29      19.2286      0.00000
     30      20.0266      0.00000
     31      21.1043      0.00000
     32      21.7102      0.00000

 k-point    14 :       0.5000    0.0000    0.3333
  band No.  band energies     occupation 
      1     -19.1651      2.00000
      2     -19.1286      2.00000
      3     -19.1140      2.00000
      4      -9.1565      2.00000
      5      -8.7486      2.00000
      6      -4.3933      2.00000
      7      -0.4461      2.00000
      8       0.0066      2.00000
      9       1.8759      2.00000
     10       1.8788      2.00000
     11       3.0133      2.00000
     12       5.7142      0.00000
     13       6.0300      0.00000
     14       6.1492      0.00000
     15       6.6953      0.00000
     16       9.1104      0.00000
     17      10.9906      0.00000
     18      12.2699      0.00000
     19      12.5300      0.00000
     20      13.0468      0.00000
     21      13.8072      0.00000
     22      14.8197      0.00000
     23      15.5991      0.00000
     24      15.9080      0.00000
     25      16.7770      0.00000
     26      17.2031      0.00000
     27      17.5882      0.00000
     28      18.1850      0.00000
     29      19.2565      0.00000
     30      20.0584      0.00000
     31      20.9385      0.00000
     32      21.1194      0.00000

 k-point    15 :       0.1667    0.1667    0.3333
  band No.  band energies     occupation 
      1     -19.1339      2.00000
      2     -19.1281      2.00000
      3     -19.1273      2.00000
      4     -10.0425      2.00000
      5      -8.5712      2.00000
      6      -2.7552      2.00000
      7      -0.3297      2.00000
      8      -0.1298      2.00000
      9       0.9224      2.00000
     10       2.5030      2.00000
     11       2.5934      2.00000
     12       4.4979      0.00000
     13       6.6737      0.00000
     14       7.7090      0.00000
     15       8.6113      0.00000
     16      10.0235      0.00000
     17      10.1834      0.00000
     18      11.3545      0.00000
     19      11.7908      0.00000
     20      12.6324      0.00000
     21      13.3732      0.00000
     22      14.2497      0.00000
     23      14.6664      0.00000
     24      15.2269      0.00000
     25      16.0285      0.00000
     26      17.0248      0.00000
     27      18.4192      0.00000
     28      18.8434      0.00000
     29      19.3179      0.00000
     30      20.1396      0.00000
     31      20.2190      0.00000
     32      21.4737      0.00000

 k-point    16 :       0.3333    0.1667    0.3333
  band No.  band energies     occupation 
      1     -19.1513      2.00000
      2     -19.1291      2.00000
      3     -19.1249      2.00000
      4      -9.4957      2.00000
      5      -8.5061      2.00000
      6      -3.5935      2.00000
      7      -0.6442      2.00000
      8       0.2036      2.00000
      9       0.4814      2.00000
     10       1.9888      2.00000
     11       2.5214      2.00000
     12       4.3275      0.00000
     13       6.5586      0.00000
     14       7.1213      0.00000
     15       8.6152      0.00000
     16       9.7369      0.00000
     17      11.3333      0.00000
     18      11.6802      0.00000
     19      12.2422      0.00000
     20      12.7702      0.00000
     21      13.3069      0.00000
     22      13.7556      0.00000
     23      15.1510      0.00000
     24      15.9293      0.00000
     25      16.6962      0.00000
     26      17.1460      0.00000
     27      18.1980      0.00000
     28      18.8318      0.00000
     29      19.6276      0.00000
     30      19.9704      0.00000
     31      21.2614      0.00000
     32      21.6675      0.00000

 k-point    17 :       0.5000    0.1667    0.3333
  band No.  band energies     occupation 
      1     -19.1620      2.00000
      2     -19.1277      2.00000
      3     -19.1235      2.00000
      4      -9.0065      2.00000
      5      -8.6508      2.00000
      6      -4.1369      2.00000
      7      -0.4735      2.00000
      8      -0.0795      2.00000
      9       0.8136      2.00000
     10       1.9246      2.00000
     11       2.1804      2.00000
     12       3.7970      2.00000
     13       6.8039      0.00000
     14       7.0288      0.00000
     15       8.6049      0.00000
     16       9.4891      0.00000
     17      11.3272      0.00000
     18      11.3838      0.00000
     19      12.0697      0.00000
     20      12.3364      0.00000
     21      14.0370      0.00000
     22      15.5732      0.00000
     23      15.6108      0.00000
     24      16.6929      0.00000
     25      16.7025      0.00000
     26      17.1624      0.00000
     27      18.1658      0.00000
     28      18.1755      0.00000
     29      19.7700      0.00000
     30      20.0825      0.00000
     31      21.3491      0.00000
     32      21.4698      0.00000

 k-point    18 :       0.3333    0.3333    0.3333
  band No.  band energies     occupation 
      1     -19.1474      2.00000
      2     -19.1443      2.00000
      3     -19.1262      2.00000
      4      -9.0366      2.00000
      5      -8.3929      2.00000
      6      -3.2719      2.00000
      7      -1.6102      2.00000
      8      -0.1920      2.00000
      9       0.5251      2.00000
     10       1.5232      2.00000
     11       2.0811      2.00000
     12       2.6401      2.00000
     13       7.4678      0.00000
     14       8.0218      0.00000
     15       8.1847      0.00000
     16      10.2217      0.00000
     17      11.0485      0.00000
     18      11.2715      0.00000
     19      12.2795      0.00000
     20      13.5170      0.00000
     21      14.3381      0.00000
     22      14.9000      0.00000
     23      15.0747      0.00000
     24      16.1301      0.00000
     25      16.8514      0.00000
     26      17.5445      0.00000
     27      18.0938      0.00000
     28      19.4348      0.00000
     29      19.5889      0.00000
     30      21.2587      0.00000
     31      21.3415      0.00000
     32      21.9794      0.00000

 k-point    19 :       0.5000    0.3333    0.3333
  band No.  band energies     occupation 
      1     -19.1559      2.00000
      2     -19.1431      2.00000
      3     -19.1251      2.00000
      4      -8.6630      2.00000
      5      -8.4396      2.00000
      6      -3.3868      2.00000
      7      -1.4703      2.00000
      8      -0.8409      2.00000
      9       0.6965      2.00000
     10       1.3367      2.00000
     11       1.8800      2.00000
     12       2.1295      2.00000
     13       7.3941      0.00000
     14       7.7521      0.00000
     15       8.8837      0.00000
     16       9.8731      0.00000
     17      10.7297      0.00000
     18      11.6404      0.00000
     19      12.2649      0.00000
     20      13.2712      0.00000
     21      14.4235      0.00000
     22      14.9381      0.00000
     23      16.1045      0.00000
     24      17.2869      0.00000
     25      18.3315      0.00000
     26      18.3762      0.00000
     27      18.8090      0.00000
     28      19.3111      0.00000
     29      19.6710      0.00000
     30      19.8248      0.00000
     31      21.2652      0.00000
     32      21.5503      0.00000

 k-point    20 :       0.5000    0.5000    0.3333
  band No.  band energies     occupation 
      1     -19.1528      2.00000
      2     -19.1528      2.00000
      3     -19.1240      2.00000
      4      -8.4611      2.00000
      5      -8.3247      2.00000
      6      -2.3151      2.00000
      7      -2.0985      2.00000
      8      -2.0985      2.00000
      9       1.1314      2.00000
     10       1.1314      2.00000
     11       1.6059      2.00000
     12       1.6427      2.00000
     13       7.6459      0.00000
     14       7.6459      0.00000
     15       8.7632      0.00000
     16       9.4523      0.00000
     17      10.9893      0.00000
     18      10.9893      0.00000
     19      13.0402      0.00000
     20      14.3040      0.00000
     21      14.3040      0.00000
     22      15.0544      0.00000
     23      17.8048      0.00000
     24      18.2389      0.00000
     25      18.3817      0.00000
     26      18.3817      0.00000
     27      19.3015      0.00000
     28      19.3806      0.00000
     29      19.7971      0.00000
     30      20.4360      0.00000
     31      20.4360      0.00000
     32      21.2610      0.00000


--------------------------------------------------------------------------------------------------------


 soft charge-density along one line, spin component           1
         0         1         2         3         4         5         6         7         8         9
 total charge-density along one line

 pseudopotential strength for first ion, spin component:           1
-23.741  -0.000   0.000   1.779   0.000  -0.000  -0.000  -0.000
 -0.000 -23.746  -0.000   0.000   1.781   0.000  -0.014  -0.043
  0.000  -0.000 -23.741  -0.000   0.000   1.779  -0.000  -0.000
  1.779   0.000  -0.000   6.854   0.000  -0.000   0.000  -0.000
  0.000   1.781   0.000   0.000   6.852   0.000   0.001  -0.001
 -0.000   0.000   1.779  -0.000   0.000   6.854   0.000  -0.000
 -0.000  -0.014  -0.000   0.000   0.001   0.000   1.437   6.980
 -0.000  -0.043  -0.000  -0.000  -0.001  -0.000   6.980  33.733
 total augmentation occupancy for first ion, spin component:           1
  2.002   0.000   0.000  -0.000   0.000   0.000   0.000   0.000
  0.000   2.001   0.000   0.000   0.001   0.000   0.045  -0.015
  0.000   0.000   2.002   0.000   0.000  -0.000  -0.000  -0.000
 -0.000   0.000   0.000   0.029   0.000   0.000   0.000   0.000
  0.000   0.001   0.000   0.000   0.018  -0.000   0.025  -0.000
  0.000   0.000  -0.000   0.000   0.000   0.029   0.000   0.000
  0.000   0.045   0.000   0.000   0.025  -0.000   0.584  -0.001
  0.000  -0.015  -0.000   0.000  -0.000   0.000  -0.001   0.000


------------------------ aborting loop because EDIFF is reached ----------------------------------------


    CHARGE:  cpu time      0.0062: real time      0.0062
    FORLOC:  cpu time      0.0002: real time      0.0002
    FORNL :  cpu time      0.0296: real time      0.0296
    STRESS:  cpu time      0.0883: real time      0.0883
    FORCOR:  cpu time      0.0040: real time      0.0040
    FORHAR:  cpu time      0.0011: real time      0.0011
    MIXING:  cpu time      0.0002: real time      0.0002
    OFIELD:  cpu time      0.0000: real time      0.0000

  FORCE on cell =-STRESS in cart. coord.  units (eV):
  Direction    XX          YY          ZZ          XY          YZ          ZX
  --------------------------------------------------------------------------------------
  Alpha Z    28.58252    28.58252    28.58252
  Ewald    -287.87024  -287.87024  -394.42615     0.00000    -0.00001    -0.00001
  Hartree   140.09296   140.09296    48.27287    -0.00000    -0.00001    -0.00001
  E(xc)     -92.61436   -92.61436   -93.24793     0.00000    -0.00000    -0.00000
  Local    -188.58250  -188.58250     7.88065    -0.00000     0.00002     0.00002
  n-local   156.00368   162.48029   167.14301    -0.56309    -0.02158    -0.28524
  augment     1.08812     1.08812     0.56963    -0.00000    -0.00000    -0.00000
  Kinetic   233.65291   246.34777   235.21280    -2.98420     0.33653    -0.47666
  Fock        0.00000     0.00000     0.00000     0.00000     0.00000     0.00000
  -------------------------------------------------------------------------------------
  Total      -0.06117    -0.06117    -0.01260     0.00000     0.00000     0.00000
  in kB      -1.19070    -1.19070    -0.24521     0.00000     0.00000     0.00000
  external pressure =       -0.88 kB  Pullay stress =        0.00 kB


 VOLUME and BASIS-vectors are now :
 -----------------------------------------------------------------------------
  energy-cutoff  :      400.00
  volume of cell :       82.31
      direct lattice vectors                 reciprocal lattice vectors
     3.551186559  0.000000000  0.000000000     0.281596020  0.000000000 -0.000000000
     0.000000000  3.551186559  0.000000000     0.000000000  0.281596020  0.000000000
     0.000000000  0.000000000  6.526886457    -0.000000000  0.000000000  0.153212409

  length of vectors
     3.551186559  3.551186559  6.526886457     0.281596020  0.281596020  0.153212409


 FORCES acting on ions
    electron-ion (+dipol)            ewald-force                    non-local-force                 convergence-correction
 -----------------------------------------------------------------------------------------------
   0.389E-04 0.389E-04 0.719E+02   0.166E-04 0.166E-04 -.686E+02   -.169E-18 -.285E-18 -.339E+01   -.111E-08 -.111E-08 -.111E-01
   -.986E-06 -.986E-06 -.585E+02   -.122E-04 -.122E-04 0.567E+02   -.293E-18 -.129E-18 0.178E+01   0.423E-09 0.423E-09 0.180E-02
   0.980E-05 0.980E-05 0.259E+02   -.172E-04 -.172E-04 -.275E+02   -.223E-17 -.575E-18 0.163E+01   -.543E-09 -.543E-09 -.172E-02
   0.119E-03 0.119E-03 -.369E+02   0.128E-04 0.128E-04 0.393E+02   -.136E-17 -.231E-17 -.246E+01   0.810E-09 0.810E-09 0.335E-02
 -----------------------------------------------------------------------------------------------
   0.167E-03 0.167E-03 0.244E+01   -.406E-15 -.413E-15 0.711E-14   -.404E-17 -.330E-17 -.244E+01   -.416E-09 -.416E-09 -.770E-02


 POSITION                                       TOTAL-FORCE (eV/Angst)
 -----------------------------------------------------------------------------------
      1.77559      1.77559      3.01324        -0.000000      0.000000     -0.044437
      0.00000     -0.00000      6.02459         0.000000      0.000000      0.029354
      0.00000     -0.00000      3.95482         0.000000      0.000000      0.027749
      1.77559      1.77559      0.12639        -0.000000     -0.000000     -0.012667
 -----------------------------------------------------------------------------------
    total drift:                                0.000167      0.000167     -0.002114


--------------------------------------------------------------------------------------------------------



  FREE ENERGIE OF THE ION-ELECTRON SYSTEM (eV)
  ---------------------------------------------------
  free  energy   TOTEN  =       -17.17588317 eV

  energy  without entropy=      -17.17588317  energy(sigma->0) =      -17.17588317

 d Force = 0.1596711E-03[ 0.141E-03, 0.178E-03]  d Energy = 0.1628557E-03-0.318E-05
 d Force = 0.1271960E+00[ 0.127E+00, 0.127E+00]  d Ewald  = 0.3138417E-02 0.124E+00


--------------------------------------------------------------------------------------------------------


    POTLOK:  cpu time      0.0057: real time      0.0057


--------------------------------------------------------------------------------------------------------


 Conjugate gradient step on ions:
 trial-energy change:   -0.000163  1 .order   -0.000164   -0.000188   -0.000140
  (g-gl).g = 0.514E-03      g.g   = 0.366E-03  gl.gl    = 0.338E-02
 g(Force)  = 0.308E-03   g(Stress)= 0.583E-04 ortho     =-0.267E-04
 gamma     =   0.15207
 trial     =   0.52012
 opt step  =   2.03726  (harmonic =   2.03726) maximal distance =0.00498260
 next E    =   -17.176089   (d E  =  -0.00037)


--------------------------------------------------------------------------------------------------------


  
 reached required accuracy - stopping structural energy minimisation
     LOOP+:  cpu time      1.6594: real time      1.6666
    4ORBIT:  cpu time      0.0000: real time      0.0000

 total amount of memory used by VASP MPI-rank0    31775. kBytes
=======================================================================

   base      :      30000. kBytes
   nonlr-proj:        363. kBytes
   fftplans  :        188. kBytes
   grid      :        721. kBytes
   one-center:         12. kBytes
   wavefun   :        491. kBytes

  
  
 General timing and accounting informations for this job:
 ========================================================
  
                  Total CPU time used (sec):       36.330
                            User time (sec):       34.928
                          System time (sec):        1.402
                         Elapsed time (sec):       37.076
  
                   Maximum memory used (kb):      118468.
                   Average memory used (kb):          N/A
  
                          Minor page faults:        24800
                          Major page faults:          144
                 Voluntary context switches:         1153
