  55  55   0   0
  0.2301251E+02  0.1218282E-08  0.7661564E-09  0.1373046E-08  0.0000000E+00
   1.0000000000000000E-004
  CAR 
 NEB_bottleneck                          
      8.96188326    -39.81955300  301      3.55577555      1.00000000
    -39.820  0.0000E+00  0.0000E+00
    -39.657  0.0000E+00  0.0000E+00
    -39.494  0.0000E+00  0.0000E+00
    -39.332 -0.1000E-33 -0.1626E-34
    -39.169 -0.5983E-28 -0.9729E-29
    -39.007 -0.9439E-23 -0.1535E-23
    -38.844 -0.3917E-18 -0.6369E-19
    -38.681 -0.4114E-14 -0.6691E-15
    -38.519 -0.1150E-10 -0.1870E-11
    -38.356 -0.8212E-08 -0.1337E-08
    -38.194 -0.1454E-05 -0.2378E-06
    -38.031 -0.5875E-04 -0.9790E-05
    -37.868 -0.3577E-03 -0.6795E-04
    -37.706  0.1900E-02  0.2410E-03
    -37.543  0.7601E-02  0.1477E-02
    -37.380  0.3611E-02  0.2064E-02
    -37.218 -0.4869E-03  0.1985E-02
    -37.055 -0.5338E-04  0.1976E-02
    -36.893  0.5342E-02  0.2845E-02
    -36.730  0.6698E-02  0.3934E-02
    -36.567  0.7275E-03  0.4052E-02
    -36.405 -0.2938E-03  0.4004E-02
    -36.242 -0.2699E-04  0.4000E-02
    -36.080 -0.4548E-06  0.4000E-02
    -35.917 -0.7345E-08  0.4000E-02
    -35.754 -0.1078E-05  0.4000E-02
    -35.592 -0.4830E-04  0.3992E-02
    -35.429 -0.3483E-03  0.3935E-02
    -35.267  0.1545E-02  0.4187E-02
    -35.104  0.7439E-02  0.5396E-02
    -34.941  0.4082E-02  0.6060E-02
    -34.779 -0.2207E-03  0.6024E-02
    -34.616 -0.1413E-03  0.6001E-02
    -34.454 -0.2475E-04  0.5997E-02
    -34.291 -0.2524E-03  0.5956E-02
    -34.128  0.3663E-03  0.6015E-02
    -33.966  0.6083E-02  0.7005E-02
    -33.803  0.5805E-02  0.7949E-02
    -33.641  0.5541E-03  0.8039E-02
    -33.478  0.5517E-02  0.8936E-02
    -33.315  0.6335E-02  0.9966E-02
    -33.153  0.5018E-03  0.1005E-01
    -32.990 -0.2694E-03  0.1000E-01
    -32.828 -0.2174E-04  0.1000E-01
    -32.665 -0.3325E-06  0.1000E-01
    -32.502 -0.1644E-07  0.1000E-01
    -32.340 -0.2327E-05  0.1000E-01
    -32.177 -0.8082E-04  0.9986E-02
    -32.015 -0.4196E-03  0.9918E-02
    -31.852  0.2168E-02  0.1027E-01
    -31.689  0.9851E-02  0.1187E-01
    -31.527  0.1058E-01  0.1359E-01
    -31.364  0.3021E-02  0.1408E-01
    -31.201 -0.3996E-03  0.1402E-01
    -31.039 -0.1131E-03  0.1400E-01
    -30.876 -0.3989E-05  0.1400E-01
    -30.714 -0.3147E-07  0.1400E-01
    -30.551 -0.5117E-07  0.1400E-01
    -30.388 -0.5692E-05  0.1400E-01
    -30.226 -0.1361E-03  0.1398E-01
    -30.063 -0.2369E-03  0.1394E-01
    -29.901  0.3972E-02  0.1458E-01
    -29.738  0.7476E-02  0.1580E-01
    -29.575  0.1474E-02  0.1604E-01
    -29.413 -0.5308E-03  0.1595E-01
    -29.250  0.4278E-02  0.1665E-01
    -29.088  0.7257E-02  0.1783E-01
    -28.925  0.1007E-02  0.1799E-01
    -28.762  0.1867E-02  0.1830E-01
    -28.600  0.7643E-02  0.1954E-01
    -28.437  0.3259E-02  0.2007E-01
    -28.275 -0.3152E-03  0.2002E-01
    -28.112 -0.1061E-03  0.2000E-01
    -27.949 -0.3732E-05  0.2000E-01
    -27.787 -0.2884E-07  0.2000E-01
    -27.624 -0.5463E-10  0.2000E-01
    -27.462 -0.2633E-13  0.2000E-01
    -27.299 -0.2731E-17  0.2000E-01
    -27.136 -0.9209E-32  0.2000E-01
    -26.974 -0.3554E-26  0.2000E-01
    -26.811 -0.3615E-21  0.2000E-01
    -26.649 -0.9660E-17  0.2000E-01
    -26.486 -0.6500E-13  0.2000E-01
    -26.323 -0.1162E-09  0.2000E-01
    -26.161 -0.5274E-07  0.2000E-01
    -25.998 -0.5842E-05  0.2000E-01
    -25.836 -0.1407E-03  0.1998E-01
    -25.673 -0.3216E-03  0.1992E-01
    -25.510  0.3669E-02  0.2052E-01
    -25.348  0.1031E-01  0.2220E-01
    -25.185  0.9331E-02  0.2371E-01
    -25.023  0.2240E-02  0.2408E-01
    -24.860 -0.4020E-03  0.2401E-01
    -24.697 -0.8239E-04  0.2400E-01
    -24.535 -0.2425E-05  0.2400E-01
    -24.372 -0.1613E-07  0.2400E-01
    -24.209 -0.2650E-10  0.2400E-01
    -24.047 -0.1110E-13  0.2400E-01
    -23.884 -0.4667E-23  0.2400E-01
    -23.722 -0.2105E-18  0.2400E-01
    -23.559 -0.2407E-14  0.2400E-01
    -23.396 -0.7336E-11  0.2400E-01
    -23.234 -0.5750E-08  0.2400E-01
    -23.071 -0.1141E-05  0.2400E-01
    -22.909 -0.5567E-04  0.2399E-01
    -22.746 -0.6196E-03  0.2389E-01
    -22.583 -0.4154E-03  0.2382E-01
    -22.421  0.1441E-01  0.2617E-01
    -22.258  0.4754E-01  0.3390E-01
    -22.096  0.4891E-01  0.4185E-01
    -21.933  0.5873E-01  0.5140E-01
    -21.770  0.6459E-01  0.6190E-01
    -21.608  0.6741E-01  0.7286E-01
    -21.445  0.8543E-01  0.8675E-01
    -21.283  0.1221E+00  0.1066E+00
    -21.120  0.8970E-01  0.1212E+00
    -20.957  0.3576E-01  0.1270E+00
    -20.795  0.3451E-01  0.1326E+00
    -20.632  0.3024E-01  0.1375E+00
    -20.470  0.4278E-02  0.1382E+00
    -20.307 -0.1272E-02  0.1380E+00
    -20.144 -0.1870E-03  0.1380E+00
    -19.982 -0.5226E-05  0.1380E+00
    -19.819 -0.3624E-07  0.1380E+00
    -19.657 -0.6506E-10  0.1380E+00
    -19.494 -0.3057E-13  0.1380E+00
    -19.331 -0.2731E-17  0.1380E+00
    -19.169  0.0000E+00  0.1380E+00
    -19.006  0.0000E+00  0.1380E+00
    -18.844  0.0000E+00  0.1380E+00
    -18.681  0.0000E+00  0.1380E+00
    -18.518  0.0000E+00  0.1380E+00
    -18.356  0.0000E+00  0.1380E+00
    -18.193  0.0000E+00  0.1380E+00
    -18.031  0.0000E+00  0.1380E+00
    -17.868  0.0000E+00  0.1380E+00
    -17.705  0.0000E+00  0.1380E+00
    -17.543  0.0000E+00  0.1380E+00
    -17.380  0.0000E+00  0.1380E+00
    -17.217  0.0000E+00  0.1380E+00
    -17.055 -0.6300E-32  0.1380E+00
    -16.892 -0.2524E-26  0.1380E+00
    -16.730 -0.2665E-21  0.1380E+00
    -16.567 -0.7394E-17  0.1380E+00
    -16.404 -0.5168E-13  0.1380E+00
    -16.242 -0.9598E-10  0.1380E+00
    -16.079 -0.4526E-07  0.1380E+00
    -15.917 -0.5209E-05  0.1380E+00
    -15.754 -0.1300E-03  0.1380E+00
    -15.591 -0.2955E-03  0.1379E+00
    -15.429  0.3489E-02  0.1385E+00
    -15.266  0.8698E-02  0.1399E+00
    -15.104  0.8910E-02  0.1414E+00
    -14.941  0.4224E-02  0.1420E+00
    -14.778 -0.5837E-03  0.1420E+00
    -14.616  0.1359E-02  0.1422E+00
    -14.453  0.9294E-02  0.1437E+00
    -14.291  0.1117E-01  0.1455E+00
    -14.128  0.3587E-02  0.1461E+00
    -13.965 -0.3757E-03  0.1460E+00
    -13.803 -0.2156E-03  0.1460E+00
    -13.640 -0.3611E-03  0.1459E+00
    -13.478  0.2466E-02  0.1463E+00
    -13.315  0.7374E-02  0.1475E+00
    -13.152  0.5262E-02  0.1484E+00
    -12.990  0.7374E-02  0.1496E+00
    -12.827  0.2994E-02  0.1501E+00
    -12.665 -0.3337E-03  0.1500E+00
    -12.502 -0.1870E-03  0.1500E+00
    -12.339 -0.3543E-03  0.1499E+00
    -12.177  0.2633E-02  0.1504E+00
    -12.014  0.7358E-02  0.1516E+00
    -11.852  0.5826E-02  0.1525E+00
    -11.689  0.1065E-01  0.1542E+00
    -11.526  0.1893E-01  0.1573E+00
    -11.364  0.1504E-01  0.1598E+00
    -11.201  0.2221E-02  0.1601E+00
    -11.039 -0.8313E-03  0.1600E+00
    -10.876 -0.6813E-03  0.1599E+00
    -10.713  0.6071E-02  0.1609E+00
    -10.551  0.1509E-01  0.1633E+00
    -10.388  0.4818E-02  0.1641E+00
    -10.225 -0.6702E-03  0.1640E+00
    -10.063  0.5050E-02  0.1648E+00
     -9.900  0.1036E-01  0.1665E+00
     -9.738  0.7726E-02  0.1677E+00
     -9.575  0.3959E-02  0.1684E+00
     -9.412  0.1068E-01  0.1701E+00
     -9.250  0.9771E-02  0.1717E+00
     -9.087  0.6101E-02  0.1727E+00
     -8.925  0.1223E-01  0.1747E+00
     -8.762  0.9480E-02  0.1762E+00
     -8.599  0.6686E-02  0.1773E+00
     -8.437  0.1408E-01  0.1796E+00
     -8.274  0.2924E-01  0.1844E+00
     -8.112  0.1097E-01  0.1862E+00
     -7.949 -0.5340E-03  0.1861E+00
     -7.786  0.1038E-01  0.1878E+00
     -7.624  0.1280E-01  0.1898E+00
     -7.461  0.1605E-02  0.1901E+00
     -7.299 -0.5561E-03  0.1900E+00
     -7.136 -0.6023E-04  0.1900E+00
     -6.973 -0.1241E-05  0.1900E+00
     -6.811 -0.3984E-05  0.1900E+00
     -6.648 -0.1108E-03  0.1900E+00
     -6.486 -0.3384E-03  0.1899E+00
     -6.323  0.3052E-02  0.1904E+00
     -6.160  0.8593E-02  0.1918E+00
     -5.998  0.9057E-02  0.1933E+00
     -5.835  0.4646E-02  0.1940E+00
     -5.673 -0.1412E-03  0.1940E+00
     -5.510 -0.5311E-03  0.1939E+00
     -5.347  0.1393E-02  0.1942E+00
     -5.185  0.7343E-02  0.1954E+00
     -5.022  0.4106E-02  0.1960E+00
     -4.860 -0.2911E-03  0.1960E+00
     -4.697  0.4538E-02  0.1967E+00
     -4.534  0.6729E-02  0.1978E+00
     -4.372  0.1482E-02  0.1981E+00
     -4.209  0.9159E-02  0.1995E+00
     -4.046  0.1270E-01  0.2016E+00
     -3.884  0.4916E-02  0.2024E+00
     -3.721  0.6295E-02  0.2034E+00
     -3.559  0.8578E-02  0.2048E+00
     -3.396  0.1993E-01  0.2081E+00
     -3.233  0.1962E-01  0.2113E+00
     -3.071  0.2596E-01  0.2155E+00
     -2.908  0.1676E-01  0.2182E+00
     -2.746  0.1241E-01  0.2202E+00
     -2.583  0.1528E-01  0.2227E+00
     -2.420  0.1430E-01  0.2250E+00
     -2.258  0.1195E-01  0.2270E+00
     -2.095  0.1326E-01  0.2291E+00
     -1.933  0.1320E-01  0.2313E+00
     -1.770  0.1600E-01  0.2339E+00
     -1.607  0.1268E-01  0.2359E+00
     -1.445  0.1193E-01  0.2379E+00
     -1.282  0.1938E-01  0.2410E+00
     -1.120  0.1544E-01  0.2435E+00
     -0.957  0.2110E-01  0.2470E+00
     -0.794  0.2143E-01  0.2505E+00
     -0.632  0.9037E-02  0.2519E+00
     -0.469  0.8447E-02  0.2533E+00
     -0.307  0.2369E-01  0.2572E+00
     -0.144  0.2621E-01  0.2614E+00
      0.019  0.1969E-01  0.2646E+00
      0.181  0.1581E-01  0.2672E+00
      0.344  0.1900E-01  0.2703E+00
      0.506  0.1945E-01  0.2734E+00
      0.669  0.1624E-01  0.2761E+00
      0.832  0.1987E-01  0.2793E+00
      0.994  0.2381E-01  0.2832E+00
      1.157  0.2543E-01  0.2873E+00
      1.319  0.1770E-01  0.2902E+00
      1.482  0.1613E-01  0.2928E+00
      1.645  0.2253E-01  0.2965E+00
      1.807  0.1571E-01  0.2990E+00
      1.970  0.1473E-01  0.3014E+00
      2.132  0.1755E-01  0.3043E+00
      2.295  0.1764E-01  0.3072E+00
      2.458  0.1756E-01  0.3100E+00
      2.620  0.1390E-01  0.3123E+00
      2.783  0.1684E-01  0.3150E+00
      2.946  0.1854E-01  0.3180E+00
      3.108  0.1863E-01  0.3210E+00
      3.271  0.1683E-01  0.3238E+00
      3.433  0.1574E-01  0.3263E+00
      3.596  0.2215E-01  0.3299E+00
      3.759  0.2270E-01  0.3336E+00
      3.921  0.2041E-01  0.3370E+00
      4.084  0.2299E-01  0.3407E+00
      4.246  0.1793E-01  0.3436E+00
      4.409  0.1654E-01  0.3463E+00
      4.572  0.1766E-01  0.3492E+00
      4.734  0.8432E-02  0.3505E+00
      4.897  0.1860E-01  0.3536E+00
      5.059  0.2095E-01  0.3570E+00
      5.222  0.1215E-01  0.3589E+00
      5.385  0.2065E-01  0.3623E+00
      5.547  0.3385E-01  0.3678E+00
      5.710  0.2696E-01  0.3722E+00
      5.872  0.2522E-01  0.3763E+00
      6.035  0.1986E-01  0.3795E+00
      6.198  0.1496E-01  0.3820E+00
      6.360  0.2336E-01  0.3858E+00
      6.523  0.2447E-01  0.3897E+00
      6.685  0.2408E-01  0.3936E+00
      6.848  0.1401E-01  0.3959E+00
      7.011  0.1129E-02  0.3961E+00
      7.173 -0.6040E-03  0.3960E+00
      7.336 -0.6827E-04  0.3960E+00
      7.498 -0.1538E-05  0.3960E+00
      7.661 -0.8396E-08  0.3960E+00
      7.824 -0.1160E-10  0.3960E+00
      7.986 -0.4127E-14  0.3960E+00
      8.149  0.0000E+00  0.3960E+00
      8.311  0.0000E+00  0.3960E+00
      8.474  0.0000E+00  0.3960E+00
      8.637  0.0000E+00  0.3960E+00
      8.799  0.0000E+00  0.3960E+00
      8.962  0.0000E+00  0.3960E+00
