       N       E                     dE             d eps       ncg     rms          rms(c)
DAV:   1     0.402701072626E+04    0.40270E+04   -0.14980E+05   423   0.161E+03
DAV:   2     0.771237727984E+03   -0.32558E+04   -0.31497E+04   441   0.431E+02
DAV:   3     0.235187526115E+03   -0.53605E+03   -0.52055E+03   531   0.188E+02
DAV:   4     0.190810528077E+03   -0.44377E+02   -0.43247E+02   513   0.474E+01
DAV:   5     0.188737017567E+03   -0.20735E+01   -0.20622E+01   585   0.101E+01    0.498E+02
RMM:   6     0.219066200864E+03    0.30329E+02   -0.76204E+01   459   0.113E+01    0.142E+02
RMM:   7     0.196697293928E+03   -0.22369E+02   -0.10814E+02   519   0.127E+01    0.235E+02
RMM:   8     0.237268901202E+03    0.40572E+02   -0.34479E+01   532   0.882E+00    0.961E+01
RMM:   9     0.242477551347E+03    0.52087E+01   -0.12307E+01   553   0.494E+00    0.217E+01
RMM:  10     0.243441507966E+03    0.96396E+00   -0.27458E+00   529   0.285E+00    0.268E+01
RMM:  11     0.244371302744E+03    0.92979E+00   -0.46343E+00   519   0.280E+00    0.800E+00
RMM:  12     0.244439257271E+03    0.67955E-01   -0.89427E-01   556   0.166E+00    0.457E+00
RMM:  13     0.244416906755E+03   -0.22351E-01   -0.30864E-01   547   0.848E-01    0.641E+00
RMM:  14     0.244406673938E+03   -0.10233E-01   -0.20947E-01   520   0.621E-01    0.163E+00
RMM:  15     0.244417077373E+03    0.10403E-01   -0.12618E-01   545   0.459E-01    0.112E+00
RMM:  16     0.244412675226E+03   -0.44021E-02   -0.74168E-02   569   0.302E-01    0.126E+00
RMM:  17     0.244409640893E+03   -0.30343E-02   -0.40625E-02   579   0.197E-01    0.474E-01
RMM:  18     0.244407215907E+03   -0.24250E-02   -0.26881E-02   545   0.141E-01    0.704E-01
RMM:  19     0.244405810389E+03   -0.14055E-02   -0.16795E-02   503   0.100E-01    0.175E-01
RMM:  20     0.244404776365E+03   -0.10340E-02   -0.10927E-02   532   0.709E-02    0.104E-01
RMM:  21     0.244404018825E+03   -0.75754E-03   -0.77878E-03   543   0.512E-02    0.159E-01
RMM:  22     0.244403473839E+03   -0.54499E-03   -0.54348E-03   460   0.388E-02    0.272E-01
RMM:  23     0.244403161030E+03   -0.31281E-03   -0.37512E-03   483   0.376E-02    0.846E-02
RMM:  24     0.244402935633E+03   -0.22540E-03   -0.25592E-03   447   0.278E-02    0.688E-02
RMM:  25     0.244402753943E+03   -0.18169E-03   -0.18336E-03   440   0.208E-02    0.902E-02
RMM:  26     0.244402641326E+03   -0.11262E-03   -0.12813E-03   475   0.194E-02    0.481E-02
RMM:  27     0.244402549933E+03   -0.91393E-04   -0.93358E-04   405   0.153E-02    0.503E-02
RMM:  28     0.244402488408E+03   -0.61525E-04   -0.66271E-04   376   0.121E-02    0.419E-02
RMM:  29     0.244402441282E+03   -0.47125E-04   -0.49089E-04   330   0.965E-03    0.420E-02
RMM:  30     0.244402409072E+03   -0.32210E-04   -0.34698E-04   321   0.828E-03    0.389E-02
RMM:  31     0.244402384431E+03   -0.24641E-04   -0.26141E-04   304   0.688E-03    0.378E-02
RMM:  32     0.244402369135E+03   -0.15296E-04   -0.18355E-04   334   0.700E-03    0.279E-02
RMM:  33     0.244402356325E+03   -0.12810E-04   -0.13891E-04   309   0.578E-03    0.231E-02
RMM:  34     0.244402346625E+03   -0.97003E-05   -0.99882E-05   260   0.490E-03    0.239E-02
RMM:  35     0.244402338949E+03   -0.76755E-05   -0.76462E-05   219   0.393E-03    0.265E-02
RMM:  36     0.244402333302E+03   -0.56470E-05   -0.62199E-05   231   0.345E-03    0.248E-02
RMM:  37     0.244402329801E+03   -0.35012E-05   -0.43965E-05   249   0.315E-03    0.204E-02
RMM:  38     0.244402327617E+03   -0.21840E-05   -0.28121E-05   256   0.300E-03    0.159E-02
RMM:  39     0.244402326143E+03   -0.14743E-05   -0.21420E-05   263   0.290E-03    0.865E-03
RMM:  40     0.244402324829E+03   -0.13133E-05   -0.15203E-05   234   0.263E-03    0.578E-03
RMM:  41     0.244402323770E+03   -0.10593E-05   -0.11631E-05   223   0.240E-03    0.471E-03
RMM:  42     0.244402322969E+03   -0.80102E-06   -0.86544E-06   198   0.195E-03
   1 F= 0.24440232E+03 E0= 0.24441388E+03  d E =0.244402E+03
       N       E                     dE             d eps       ncg     rms          rms(c)
DAV:   1     0.244402320705E+03   -0.30653E-05   -0.22753E-05   261   0.162E-03    0.595E-03
RMM:   2     0.244402320671E+03   -0.33790E-07   -0.71880E-07   225   0.122E-03
   2 F= 0.24440232E+03 E0= 0.24441384E+03  d E =-.229810E-05
       N       E                     dE             d eps       ncg     rms          rms(c)
DAV:   1     0.244402320762E+03    0.57626E-07   -0.31706E-07   270   0.767E-04    0.295E-02
RMM:   2     0.244402318619E+03   -0.21435E-05   -0.23060E-06   238   0.149E-03    0.666E-02
RMM:   3     0.244402320764E+03    0.21453E-05   -0.10232E-06   190   0.138E-03    0.198E-02
RMM:   4     0.244402320954E+03    0.19031E-06   -0.18105E-07   157   0.109E-03
   3 F= 0.24440232E+03 E0= 0.24441386E+03  d E =0.283588E-06
       N       E                     dE             d eps       ncg     rms          rms(c)
DAV:   1     0.244402320941E+03    0.17704E-06   -0.99899E-08   252   0.102E-03    0.175E-03
RMM:   2     0.244402320928E+03   -0.13009E-07   -0.63201E-09    66   0.291E-04
   4 F= 0.24440232E+03 E0= 0.24441387E+03  d E =-.262808E-07
       N       E                     dE             d eps       ncg     rms          rms(c)
DAV:   1     0.244402320929E+03   -0.11845E-07   -0.60745E-08   261   0.368E-04    0.248E-03
RMM:   2     0.244402320901E+03   -0.28609E-07   -0.57569E-09    54   0.228E-04
   5 F= 0.24440232E+03 E0= 0.24441387E+03  d E =-.274449E-07
       N       E                     dE             d eps       ncg     rms          rms(c)
DAV:   1     0.244402320925E+03   -0.43365E-08   -0.10823E-07   270   0.372E-04    0.998E-04
RMM:   2     0.244402320920E+03   -0.52387E-08    0.20718E-11    35   0.153E-04
   6 F= 0.24440232E+03 E0= 0.24441387E+03  d E =0.190339E-07
       N       E                     dE             d eps       ncg     rms          rms(c)
DAV:   1     0.244402320922E+03   -0.32596E-08   -0.20653E-08   243   0.185E-04    0.615E-04
RMM:   2     0.244402320919E+03   -0.22992E-08    0.98013E-12    27   0.114E-04
   7 F= 0.24440232E+03 E0= 0.24441387E+03  d E =-.320142E-09
       N       E                     dE             d eps       ncg     rms          rms(c)
DAV:   1     0.244402320921E+03   -0.23283E-09   -0.79643E-09   252   0.136E-04    0.312E-04
RMM:   2     0.244402320920E+03   -0.13679E-08    0.51347E-12    23   0.779E-05
   8 F= 0.24440232E+03 E0= 0.24441387E+03  d E =0.698492E-09
       N       E                     dE             d eps       ncg     rms          rms(c)
DAV:   1     0.244402320920E+03   -0.14843E-08   -0.28405E-09   225   0.835E-05    0.487E-04
RMM:   2     0.244402320920E+03    0.11642E-09    0.19681E-39    20   0.620E-05
   9 F= 0.24440232E+03 E0= 0.24441387E+03  d E =0.000000E+00
       N       E                     dE             d eps       ncg     rms          rms(c)
DAV:   1     0.244402320921E+03    0.69849E-09   -0.39478E-09   225   0.852E-05    0.725E-04
RMM:   2     0.244402320918E+03   -0.22410E-08    0.27788E-20    19   0.487E-05
  10 F= 0.24440232E+03 E0= 0.24441387E+03  d E =-.165892E-08
       N       E                     dE             d eps       ncg     rms          rms(c)
DAV:   1     0.244402320921E+03    0.58208E-09   -0.92263E-09   225   0.943E-05    0.406E-04
RMM:   2     0.244402320919E+03   -0.17171E-08    0.18277E-82    15   0.408E-05
  11 F= 0.24440232E+03 E0= 0.24441387E+03  d E =0.110595E-08
       N       E                     dE             d eps       ncg     rms          rms(c)
DAV:   1     0.244402320921E+03   -0.61118E-09   -0.31969E-09   225   0.604E-05    0.321E-04
RMM:   2     0.244402320920E+03   -0.96043E-09    0.57835E-88    13   0.352E-05
  12 F= 0.24440232E+03 E0= 0.24441387E+03  d E =0.145519E-09
       N       E                     dE             d eps       ncg     rms          rms(c)
DAV:   1     0.244402320920E+03   -0.14552E-09   -0.19090E-09   225   0.493E-05    0.168E-04
RMM:   2     0.244402320918E+03   -0.21828E-08    0.55762E-89    12   0.278E-05
  13 F= 0.24440232E+03 E0= 0.24441387E+03  d E =-.136788E-08
       N       E                     dE             d eps       ncg     rms          rms(c)
DAV:   1     0.244402320920E+03   -0.40745E-09   -0.11368E-09   225   0.318E-05    0.146E-04
RMM:   2     0.244402320921E+03    0.66939E-09    0.21311E-93    10   0.224E-05
  14 F= 0.24440232E+03 E0= 0.24441387E+03  d E =0.244472E-08
       N       E                     dE             d eps       ncg     rms          rms(c)
DAV:   1     0.244402320920E+03   -0.40745E-09   -0.56243E-10   225   0.273E-05    0.205E-04
RMM:   2     0.244402320920E+03   -0.29104E-10    0.67514E-95     9   0.168E-05
  15 F= 0.24440232E+03 E0= 0.24441387E+03  d E =-.110595E-08
       N       E                     dE             d eps       ncg     rms          rms(c)
DAV:   1     0.244402320921E+03    0.10186E-08   -0.86362E-10   225   0.274E-05    0.169E-04
RMM:   2     0.244402320921E+03    0.23283E-09    0.12886-101     8   0.154E-05
  16 F= 0.24440232E+03 E0= 0.24441387E+03  d E =0.128057E-08
       N       E                     dE             d eps       ncg     rms          rms(c)
DAV:   1     0.244402320921E+03    0.43656E-09   -0.72202E-10   225   0.236E-05    0.731E-05
RMM:   2     0.244402320920E+03   -0.66939E-09    0.57260-102     7   0.129E-05
  17 F= 0.24440232E+03 E0= 0.24441387E+03  d E =-.465661E-09
       N       E                     dE             d eps       ncg     rms          rms(c)
DAV:   1     0.244402320922E+03    0.98953E-09   -0.34302E-10   225   0.146E-05    0.662E-05
RMM:   2     0.244402320919E+03   -0.26484E-08    0.26978-102     7   0.107E-05
  18 F= 0.24440232E+03 E0= 0.24441387E+03  d E =-.989530E-09
       N       E                     dE             d eps       ncg     rms          rms(c)
DAV:   1     0.244402320921E+03   -0.13388E-08   -0.18396E-11   225   0.124E-05    0.102E-04
RMM:   2     0.244402320922E+03    0.87311E-09    0.29772-103     6   0.793E-06
  19 F= 0.24440232E+03 E0= 0.24441387E+03  d E =0.218279E-08
       N       E                     dE             d eps       ncg     rms          rms(c)
DAV:   1     0.244402320921E+03    0.40745E-09   -0.43795E-10   225   0.135E-05    0.689E-05
RMM:   2     0.244402320920E+03   -0.87311E-09    0.17433-103     6   0.755E-06
  20 F= 0.24440232E+03 E0= 0.24441387E+03  d E =-.133878E-08
       N       E                     dE             d eps       ncg     rms          rms(c)
DAV:   1     0.244402320921E+03    0.29104E-09   -0.41936E-10   225   0.105E-05    0.329E-05
RMM:   2     0.244402320920E+03   -0.10477E-08    0.87630-110     5   0.563E-06
  21 F= 0.24440232E+03 E0= 0.24441387E+03  d E =0.116415E-09
       N       E                     dE             d eps       ncg     rms          rms(c)
DAV:   1     0.244402320922E+03    0.55297E-09   -0.29290E-10   225   0.636E-06    0.294E-05
RMM:   2     0.244402320921E+03   -0.11933E-08    0.65430-110     4   0.456E-06
  22 F= 0.24440232E+03 E0= 0.24441387E+03  d E =0.407454E-09
       N       E                     dE             d eps       ncg     rms          rms(c)
DAV:   1     0.244402320921E+03   -0.11933E-08   -0.22815E-10   225   0.533E-06    0.417E-05
RMM:   2     0.244402320920E+03   -0.46566E-09    0.11878-111     3   0.351E-06
  23 F= 0.24440232E+03 E0= 0.24441387E+03  d E =-.465661E-09
       N       E                     dE             d eps       ncg     rms          rms(c)
DAV:   1     0.244402320922E+03    0.96043E-09   -0.19066E-10   225   0.568E-06    0.218E-05
RMM:   2     0.244402320921E+03   -0.49477E-09    0.54411-112     3   0.303E-06
  24 F= 0.24440232E+03 E0= 0.24441387E+03  d E =0.931323E-09
       N       E                     dE             d eps       ncg     rms          rms(c)
DAV:   1     0.244402320920E+03   -0.13097E-08   -0.25676E-10   225   0.374E-06    0.174E-05
RMM:   2     0.244402320920E+03   -0.87311E-10    0.16929-112     3   0.228E-06
  25 F= 0.24440232E+03 E0= 0.24441387E+03  d E =-.902219E-09
       N       E                     dE             d eps       ncg     rms          rms(c)
DAV:   1     0.244402320921E+03    0.58208E-09   -0.23718E-11   225   0.282E-06    0.158E-05
RMM:   2     0.244402320921E+03   -0.29104E-09    0.10386-112     3   0.182E-06
  26 F= 0.24440232E+03 E0= 0.24441386E+03  d E =0.378350E-09
       N       E                     dE             d eps       ncg     rms          rms(c)
DAV:   1     0.244402320920E+03   -0.10768E-08   -0.20503E-10   225   0.243E-06    0.166E-05
RMM:   2     0.244402320920E+03    0.23283E-09    0.19897-117     2   0.159E-06
  27 F= 0.24440232E+03 E0= 0.24441386E+03  d E =-.552973E-09
       N       E                     dE             d eps       ncg     rms          rms(c)
DAV:   1     0.244402320922E+03    0.20373E-08    0.15310E-10   225   0.233E-06    0.112E-05
RMM:   2     0.244402320920E+03   -0.24447E-08    0.24419-117     2   0.134E-06
  28 F= 0.24440232E+03 E0= 0.24441386E+03  d E =-.640284E-09
       N       E                     dE             d eps       ncg     rms          rms(c)
DAV:   1     0.244402320921E+03   -0.66939E-09    0.85036E-11   225   0.173E-06    0.962E-06
RMM:   2     0.244402320920E+03   -0.96043E-09    0.88086-118     2   0.122E-06
  29 F= 0.24440232E+03 E0= 0.24441386E+03  d E =0.814907E-09
       N       E                     dE             d eps       ncg     rms          rms(c)
DAV:   1     0.244402320921E+03   -0.87311E-10   -0.12315E-10   225   0.155E-06    0.566E-06
RMM:   2     0.244402320921E+03   -0.14552E-09    0.59138-118     2   0.844E-07
  30 F= 0.24440232E+03 E0= 0.24441386E+03  d E =0.727596E-09
       N       E                     dE             d eps       ncg     rms          rms(c)
DAV:   1     0.244402320920E+03   -0.10768E-08   -0.41434E-10   225   0.998E-07    0.334E-06
RMM:   2     0.244402320921E+03    0.43656E-09    0.36164-118     2   0.711E-07
  31 F= 0.24440232E+03 E0= 0.24441386E+03  d E =-.494765E-09
       N       E                     dE             d eps       ncg     rms          rms(c)
DAV:   1     0.244402320922E+03    0.19500E-08   -0.99603E-11   216   0.768E-07    0.679E-06
RMM:   2     0.244402320920E+03   -0.20664E-08    0.33499-118     1   0.549E-07
  32 F= 0.24440232E+03 E0= 0.24441386E+03  d E =-.552973E-09
       N       E                     dE             d eps       ncg     rms          rms(c)
DAV:   1     0.244402320921E+03   -0.13970E-08   -0.35347E-10   198   0.913E-07    0.513E-06
RMM:   2     0.244402320920E+03   -0.90222E-09    0.25416-118     1   0.464E-07
  33 F= 0.24440232E+03 E0= 0.24441386E+03  d E =-.232831E-09
       N       E                     dE             d eps       ncg     rms          rms(c)
DAV:   1     0.244402320921E+03    0.20373E-09   -0.32684E-10   198   0.720E-07    0.272E-06
RMM:   2     0.244402320922E+03    0.69849E-09    0.24969-118     1   0.364E-07
  34 F= 0.24440232E+03 E0= 0.24441386E+03  d E =0.180444E-08
       N       E                     dE             d eps       ncg     rms          rms(c)
DAV:   1     0.244402320920E+03   -0.96043E-09   -0.23633E-10   198   0.455E-07    0.112E-06
RMM:   2     0.244402320920E+03    0.29104E-09    0.17421-118     1   0.286E-07
  35 F= 0.24440232E+03 E0= 0.24441386E+03  d E =-.136788E-08
       N       E                     dE             d eps       ncg     rms          rms(c)
DAV:   1     0.244402320920E+03    0.29104E-10   -0.19851E-10   198   0.299E-07    0.130E-06
RMM:   2     0.244402320921E+03    0.55297E-09    0.16594-118     1   0.212E-07
  36 F= 0.24440232E+03 E0= 0.24441386E+03  d E =0.291038E-09
       N       E                     dE             d eps       ncg     rms          rms(c)
DAV:   1     0.244402320921E+03    0.15134E-08    0.15607E-10   198   0.255E-07    0.161E-06
RMM:   2     0.244402320920E+03   -0.11933E-08    0.13491-118     1   0.151E-07
  37 F= 0.24440232E+03 E0= 0.24441386E+03  d E =-.232831E-09
       N       E                     dE             d eps       ncg     rms          rms(c)
DAV:   1     0.244402320919E+03   -0.23283E-08   -0.22282E-10   198   0.230E-07    0.897E-07
RMM:   2     0.244402320920E+03    0.11059E-08    0.13648-118     1   0.127E-07
  38 F= 0.24440232E+03 E0= 0.24441386E+03  d E =-.291038E-10
       N       E                     dE             d eps       ncg     rms          rms(c)
DAV:   1     0.244402320920E+03    0.10477E-08   -0.14379E-10   198   0.156E-07    0.100E-06
RMM:   2     0.244402320921E+03    0.78580E-09    0.11201-118     1   0.108E-07
  39 F= 0.24440232E+03 E0= 0.24441386E+03  d E =0.727596E-09
       N       E                     dE             d eps       ncg     rms          rms(c)
DAV:   1     0.244402320920E+03   -0.61118E-09   -0.13884E-10   198   0.150E-07    0.736E-07
RMM:   2     0.244402320920E+03    0.40745E-09    0.11564-118     1   0.862E-08
  40 F= 0.24440232E+03 E0= 0.24441386E+03  d E =-.989530E-09
       N       E                     dE             d eps       ncg     rms          rms(c)
DAV:   1     0.244402320919E+03   -0.29104E-09    0.12679E-11   198   0.112E-07    0.446E-07
RMM:   2     0.244402320919E+03    0.14552E-09    0.94413-119     1   0.742E-08
  41 F= 0.24440232E+03 E0= 0.24441386E+03  d E =-.552973E-09
       N       E                     dE             d eps       ncg     rms          rms(c)
DAV:   1     0.244402320920E+03    0.10186E-08   -0.24267E-10   198   0.856E-08    0.201E-07
RMM:   2     0.244402320920E+03   -0.64028E-09    0.96590-119     1   0.536E-08
  42 F= 0.24440232E+03 E0= 0.24441386E+03  d E =0.232831E-09
       N       E                     dE             d eps       ncg     rms          rms(c)
DAV:   1     0.244402320919E+03   -0.14843E-08   -0.42123E-10   198   0.554E-08    0.356E-07
RMM:   2     0.244402320920E+03    0.72760E-09    0.80378-119     1   0.395E-08
  43 F= 0.24440232E+03 E0= 0.24441386E+03  d E =-.116415E-09
       N       E                     dE             d eps       ncg     rms          rms(c)
DAV:   1     0.244402320920E+03    0.15134E-08   -0.23987E-10   198   0.513E-08    0.568E-07
RMM:   2     0.244402320921E+03    0.87311E-09    0.82636-119     1   0.396E-08
  44 F= 0.24440232E+03 E0= 0.24441386E+03  d E =0.165892E-08
       N       E                     dE             d eps       ncg     rms          rms(c)
DAV:   1     0.244402320920E+03   -0.29104E-09   -0.74215E-11   198   0.740E-08    0.831E-08
RMM:   2     0.244402320921E+03    0.61118E-09    0.68596-119     1   0.264E-08
  45 F= 0.24440232E+03 E0= 0.24441386E+03  d E =-.552973E-09
       N       E                     dE             d eps       ncg     rms          rms(c)
DAV:   1     0.244402320921E+03    0.98953E-09   -0.37230E-10   198   0.274E-08    0.896E-08
RMM:   2     0.244402320920E+03   -0.12224E-08    0.69970-119     1   0.185E-08
  46 F= 0.24440232E+03 E0= 0.24441386E+03  d E =-.844011E-09
       N       E                     dE             d eps       ncg     rms          rms(c)
DAV:   1     0.244402320920E+03   -0.13970E-08   -0.24073E-10   198   0.198E-08    0.145E-07
RMM:   2     0.244402320921E+03    0.16007E-08    0.58549-119     1   0.174E-08
  47 F= 0.24440232E+03 E0= 0.24441386E+03  d E =0.142609E-08
       N       E                     dE             d eps       ncg     rms          rms(c)
DAV:   1     0.244402320919E+03   -0.26193E-09   -0.96274E-11   198   0.231E-08    0.174E-07
RMM:   2     0.244402320921E+03    0.11642E-08    0.59448-119     1   0.151E-08
  48 F= 0.24440232E+03 E0= 0.24441386E+03  d E =-.698492E-09
       N       E                     dE             d eps       ncg     rms          rms(c)
DAV:   1     0.244402320921E+03    0.12224E-08   -0.21788E-10   198   0.260E-08    0.917E-08
RMM:   2     0.244402320920E+03   -0.98953E-09    0.50491-119     1   0.968E-09
  49 F= 0.24440232E+03 E0= 0.24441386E+03  d E =-.931323E-09
       N       E                     dE             d eps       ncg     rms          rms(c)
DAV:   1     0.244402320922E+03    0.96043E-09   -0.49572E-11   198   0.130E-08    0.488E-08
RMM:   2     0.244402320920E+03   -0.12515E-08    0.50868-119     1   0.800E-09
  50 F= 0.24440232E+03 E0= 0.24441386E+03  d E =0.698492E-09
       N       E                     dE             d eps       ncg     rms          rms(c)
DAV:   1     0.244402320922E+03    0.32014E-09   -0.26374E-10   198   0.989E-09    0.154E-07
RMM:   2     0.244402320921E+03   -0.75670E-09    0.41940-119     1   0.741E-09
  51 F= 0.24440232E+03 E0= 0.24441386E+03  d E =0.814907E-09
       N       E                     dE             d eps       ncg     rms          rms(c)
DAV:   1     0.244402320922E+03    0.11642E-09   -0.20884E-10   198   0.173E-08    0.244E-07
RMM:   2     0.244402320920E+03   -0.18626E-08    0.43194-119     1   0.130E-08
  52 F= 0.24440232E+03 E0= 0.24441386E+03  d E =-.989530E-09
       N       E                     dE             d eps       ncg     rms          rms(c)
DAV:   1     0.244402320922E+03   -0.14552E-09   -0.83222E-11   198   0.294E-08    0.122E-07
RMM:   2     0.244402320921E+03   -0.87311E-09    0.36548-119     1   0.825E-09
  53 F= 0.24440232E+03 E0= 0.24441386E+03  d E =0.844011E-09
       N       E                     dE             d eps       ncg     rms          rms(c)
DAV:   1     0.244402320921E+03   -0.13097E-08   -0.33179E-10   198   0.154E-08    0.374E-08
RMM:   2     0.244402320922E+03    0.14261E-08    0.37816-119     1   0.715E-09
  54 F= 0.24440232E+03 E0= 0.24441386E+03  d E =0.989530E-09
       N       E                     dE             d eps       ncg     rms          rms(c)
DAV:   1     0.244402320922E+03    0.11059E-08   -0.31222E-10   198   0.573E-09    0.159E-07
RMM:   2     0.244402320921E+03   -0.11059E-08    0.32420-119     1   0.846E-09
  55 F= 0.24440232E+03 E0= 0.24441386E+03  d E =-.142609E-08
       N       E                     dE             d eps       ncg     rms          rms(c)
DAV:   1     0.244402320920E+03   -0.13388E-08   -0.47465E-12   198   0.185E-08    0.952E-08
RMM:   2     0.244402320920E+03   -0.66939E-09    0.32435-119     1   0.795E-09
  56 F= 0.24440232E+03 E0= 0.24441386E+03  d E =-.902219E-09
       N       E                     dE             d eps       ncg     rms          rms(c)
DAV:   1     0.244402320921E+03    0.43656E-09   -0.15913E-10   198   0.122E-08    0.824E-08
RMM:   2     0.244402320921E+03   -0.11642E-09    0.27049-119     1   0.513E-09
  57 F= 0.24440232E+03 E0= 0.24441386E+03  d E =0.989530E-09
       N       E                     dE             d eps       ncg     rms          rms(c)
DAV:   1     0.244402320920E+03   -0.84401E-09   -0.26741E-10   198   0.106E-08    0.873E-08
RMM:   2     0.244402320920E+03    0.29104E-09    0.26727-119     1   0.470E-09
  58 F= 0.24440232E+03 E0= 0.24441386E+03  d E =-.436557E-09
       N       E                     dE             d eps       ncg     rms          rms(c)
DAV:   1     0.244402320921E+03    0.11350E-08   -0.30325E-10   198   0.106E-08    0.525E-08
RMM:   2     0.244402320921E+03    0.87311E-10    0.23489-119     1   0.376E-09
  59 F= 0.24440232E+03 E0= 0.24441386E+03  d E =0.931323E-09
       N       E                     dE             d eps       ncg     rms          rms(c)
DAV:   1     0.244402320920E+03   -0.90222E-09   -0.36407E-10   198   0.591E-09    0.867E-08
RMM:   2     0.244402320920E+03   -0.29104E-10    0.23469-119     1   0.370E-09
  60 F= 0.24440232E+03 E0= 0.24441386E+03  d E =-.101863E-08
       N       E                     dE             d eps       ncg     rms          rms(c)
DAV:   1     0.244402320920E+03    0.58208E-10   -0.35140E-10   198   0.962E-09    0.148E-07
RMM:   2     0.244402320921E+03    0.11350E-08    0.21050-119     1   0.553E-09
  61 F= 0.24440232E+03 E0= 0.24441386E+03  d E =0.122236E-08
       N       E                     dE             d eps       ncg     rms          rms(c)
DAV:   1     0.244402320920E+03   -0.23283E-09   -0.13068E-10   198   0.157E-08    0.149E-07
RMM:   2     0.244402320921E+03    0.10186E-08    0.19485-119     1   0.692E-09
  62 F= 0.24440232E+03 E0= 0.24441386E+03  d E =-.349246E-09
       N       E                     dE             d eps       ncg     rms          rms(c)
DAV:   1     0.244402320920E+03    0.58208E-10   -0.47024E-10   198   0.176E-08    0.793E-08
RMM:   2     0.244402320920E+03   -0.29104E-10    0.16936-119     1   0.513E-09
  63 F= 0.24440232E+03 E0= 0.24441386E+03  d E =-.989530E-09
       N       E                     dE             d eps       ncg     rms          rms(c)
DAV:   1     0.244402320921E+03    0.64028E-09   -0.25752E-10   198   0.823E-09    0.114E-07
RMM:   2     0.244402320920E+03   -0.93132E-09    0.15547-119     1   0.514E-09
  64 F= 0.24440232E+03 E0= 0.24441386E+03  d E =-.261934E-09
       N       E                     dE             d eps       ncg     rms          rms(c)
DAV:   1     0.244402320921E+03    0.49477E-09   -0.36268E-10   198   0.635E-09    0.743E-08
RMM:   2     0.244402320921E+03   -0.52387E-09    0.14960-119     1   0.566E-09
  65 F= 0.24440232E+03 E0= 0.24441386E+03  d E =0.902219E-09
       N       E                     dE             d eps       ncg     rms          rms(c)
DAV:   1     0.244402320919E+03   -0.18335E-08   -0.32442E-10   198   0.597E-09    0.223E-07
RMM:   2     0.244402320921E+03    0.14843E-08    0.13086-119     1   0.113E-08
  66 F= 0.24440232E+03 E0= 0.24441386E+03  d E =0.174623E-09
       N       E                     dE             d eps       ncg     rms          rms(c)
DAV:   1     0.244402320920E+03    0.66939E-09   -0.88069E-11   198   0.273E-08    0.202E-07
RMM:   2     0.244402320920E+03    0.43656E-09    0.11752-119     1   0.986E-09
  67 F= 0.24440232E+03 E0= 0.24441386E+03  d E =-.378350E-09
       N       E                     dE             d eps       ncg     rms          rms(c)
DAV:   1     0.244402320920E+03   -0.58208E-10   -0.13649E-10   198   0.240E-08    0.127E-07
RMM:   2     0.244402320922E+03    0.20373E-08    0.15631-119     1   0.854E-09
  68 F= 0.24440232E+03 E0= 0.24441386E+03  d E =0.154250E-08
       N       E                     dE             d eps       ncg     rms          rms(c)
DAV:   1     0.244402320922E+03    0.24738E-08   -0.25263E-10   198   0.159E-08    0.192E-08
RMM:   2     0.244402320920E+03   -0.23283E-08    0.96283-120     1   0.313E-09
  69 F= 0.24440232E+03 E0= 0.24441386E+03  d E =-.189175E-08
       N       E                     dE             d eps       ncg     rms          rms(c)
DAV:   1     0.244402320920E+03   -0.26193E-08   -0.51527E-10   198   0.388E-09    0.951E-08
RMM:   2     0.244402320922E+03    0.19209E-08    0.11970-119     1   0.722E-09
  70 F= 0.24440232E+03 E0= 0.24441386E+03  d E =0.162981E-08
       N       E                     dE             d eps       ncg     rms          rms(c)
DAV:   1     0.244402320922E+03    0.18917E-08   -0.29064E-10   198   0.961E-09    0.145E-07
RMM:   2     0.244402320920E+03   -0.11933E-08    0.00000E+00     0   0.776E-09
  71 F= 0.24440232E+03 E0= 0.24441386E+03  d E =-.122236E-08
       N       E                     dE             d eps       ncg     rms          rms(c)
DAV:   1     0.244402320921E+03   -0.49477E-09   -0.24370E-10   198   0.162E-08    0.512E-08
RMM:   2     0.244402320920E+03   -0.16007E-08    0.00000E+00     0   0.352E-09
  72 F= 0.24440232E+03 E0= 0.24441386E+03  d E =-.902219E-09
       N       E                     dE             d eps       ncg     rms          rms(c)
DAV:   1     0.244402320921E+03    0.00000E+00   -0.28400E-10   198   0.675E-09    0.266E-07
RMM:   2     0.244402320920E+03   -0.72760E-09    0.00000E+00     0   0.255E-09
  73 F= 0.24440232E+03 E0= 0.24441386E+03  d E =0.873115E-09
       N       E                     dE             d eps       ncg     rms          rms(c)
DAV:   1     0.244402320920E+03   -0.75670E-09   -0.45961E-10   198   0.313E-09    0.136E-07
RMM:   2     0.244402320921E+03    0.29104E-09    0.00000E+00     0   0.189E-09
  74 F= 0.24440232E+03 E0= 0.24441386E+03  d E =0.261934E-09
       N       E                     dE             d eps       ncg     rms          rms(c)
DAV:   1     0.244402320920E+03   -0.26193E-09   -0.46729E-10   198   0.497E-09    0.273E-07
RMM:   2     0.244402320921E+03    0.52387E-09    0.00000E+00     0   0.462E-09
  75 F= 0.24440232E+03 E0= 0.24441386E+03  d E =-.291038E-10
       N       E                     dE             d eps       ncg     rms          rms(c)
DAV:   1     0.244402320921E+03    0.96043E-09   -0.27498E-10   198   0.237E-08    0.454E-07
RMM:   2     0.244402320921E+03   -0.29104E-10    0.00000E+00     0   0.216E-08
  76 F= 0.24440232E+03 E0= 0.24441386E+03  d E =0.407454E-09
       N       E                     dE             d eps       ncg     rms          rms(c)
DAV:   1     0.244402320921E+03   -0.49477E-09   -0.75881E-11   198   0.541E-08    0.190E-07
RMM:   2     0.244402320921E+03    0.49477E-09    0.00000E+00     0   0.104E-08
  77 F= 0.24440232E+03 E0= 0.24441386E+03  d E =0.291038E-10
       N       E                     dE             d eps       ncg     rms          rms(c)
DAV:   1     0.244402320921E+03   -0.11642E-09   -0.54140E-11   198   0.226E-08    0.472E-08
RMM:   2     0.244402320921E+03    0.87311E-10    0.00000E+00     0   0.643E-09
  78 F= 0.24440232E+03 E0= 0.24441386E+03  d E =-.523869E-09
       N       E                     dE             d eps       ncg     rms          rms(c)
DAV:   1     0.244402320921E+03    0.40745E-09   -0.31015E-10   198   0.810E-09    0.242E-07
RMM:   2     0.244402320920E+03   -0.10186E-08    0.00000E+00     0   0.107E-08
  79 F= 0.24440232E+03 E0= 0.24441386E+03  d E =-.698492E-09
       N       E                     dE             d eps       ncg     rms          rms(c)
DAV:   1     0.244402320919E+03   -0.17462E-08   -0.40539E-10   198   0.263E-08    0.215E-07
RMM:   2     0.244402320921E+03    0.15134E-08    0.00000E+00     0   0.109E-08
  80 F= 0.24440232E+03 E0= 0.24441386E+03  d E =0.785803E-09
       N       E                     dE             d eps       ncg     rms          rms(c)
DAV:   1     0.244402320920E+03    0.81491E-09   -0.23507E-10   198   0.252E-08    0.940E-08
RMM:   2     0.244402320921E+03    0.64028E-09    0.00000E+00     0   0.540E-09
  81 F= 0.24440232E+03 E0= 0.24441386E+03  d E =-.582077E-10
       N       E                     dE             d eps       ncg     rms          rms(c)
DAV:   1     0.244402320922E+03    0.16589E-08   -0.30264E-10   198   0.106E-08    0.535E-08
RMM:   2     0.244402320921E+03   -0.84401E-09    0.00000E+00     0   0.389E-09
  82 F= 0.24440232E+03 E0= 0.24441386E+03  d E =0.174623E-09
       N       E                     dE             d eps       ncg     rms          rms(c)
DAV:   1     0.244402320922E+03   -0.11642E-09   -0.26093E-10   198   0.635E-09    0.130E-07
RMM:   2     0.244402320922E+03   -0.29104E-10    0.00000E+00     0   0.362E-09
  83 F= 0.24440232E+03 E0= 0.24441386E+03  d E =0.698492E-09
       N       E                     dE             d eps       ncg     rms          rms(c)
DAV:   1     0.244402320921E+03   -0.37835E-09   -0.18425E-10   198   0.127E-08    0.221E-07
RMM:   2     0.244402320921E+03   -0.64028E-09    0.00000E+00     0   0.110E-08
  84 F= 0.24440232E+03 E0= 0.24441386E+03  d E =-.989530E-09
       N       E                     dE             d eps       ncg     rms          rms(c)
DAV:   1     0.244402320921E+03   -0.52387E-09   -0.35758E-10   198   0.266E-08    0.562E-08
RMM:   2     0.244402320921E+03    0.72760E-09    0.00000E+00     0   0.550E-09
  85 F= 0.24440232E+03 E0= 0.24441386E+03  d E =0.844011E-09
       N       E                     dE             d eps       ncg     rms          rms(c)
DAV:   1     0.244402320920E+03   -0.34925E-09   -0.84250E-11   198   0.497E-09    0.272E-07
RMM:   2     0.244402320922E+03    0.16298E-08    0.00000E+00     0   0.108E-08
  86 F= 0.24440232E+03 E0= 0.24441386E+03  d E =0.552973E-09
       N       E                     dE             d eps       ncg     rms          rms(c)
DAV:   1     0.244402320920E+03   -0.58208E-09   -0.25457E-10   198   0.303E-08    0.351E-07
RMM:   2     0.244402320921E+03    0.12806E-08    0.00000E+00     0   0.181E-08
  87 F= 0.24440232E+03 E0= 0.24441386E+03  d E =-.931323E-09
       N       E                     dE             d eps       ncg     rms          rms(c)
DAV:   1     0.244402320920E+03    0.43656E-09   -0.49650E-11   198   0.424E-08    0.135E-07
RMM:   2     0.244402320919E+03   -0.72760E-09    0.00000E+00     0   0.783E-09
  88 F= 0.24440232E+03 E0= 0.24441386E+03  d E =-.157161E-08
       N       E                     dE             d eps       ncg     rms          rms(c)
DAV:   1     0.244402320919E+03   -0.13679E-08   -0.31969E-10   198   0.166E-08    0.126E-07
RMM:   2     0.244402320920E+03    0.15425E-08    0.00000E+00     0   0.563E-09
  89 F= 0.24440232E+03 E0= 0.24441386E+03  d E =0.902219E-09
       N       E                     dE             d eps       ncg     rms          rms(c)
DAV:   1     0.244402320920E+03    0.10768E-08   -0.21739E-10   198   0.139E-08    0.114E-07
RMM:   2     0.244402320920E+03    0.23283E-09    0.00000E+00     0   0.840E-09
  90 F= 0.24440232E+03 E0= 0.24441386E+03  d E =-.232831E-09
       N       E                     dE             d eps       ncg     rms          rms(c)
DAV:   1     0.244402320920E+03    0.34925E-09   -0.28034E-10   198   0.146E-08    0.512E-08
RMM:   2     0.244402320920E+03    0.11642E-09    0.00000E+00     0   0.371E-09
  91 F= 0.24440232E+03 E0= 0.24441386E+03  d E =0.232831E-09
       N       E                     dE             d eps       ncg     rms          rms(c)
DAV:   1     0.244402320920E+03   -0.40745E-09   -0.22235E-10   198   0.730E-09    0.734E-08
RMM:   2     0.244402320920E+03    0.64028E-09    0.00000E+00     0   0.321E-09
  92 F= 0.24440232E+03 E0= 0.24441386E+03  d E =0.116415E-09
       N       E                     dE             d eps       ncg     rms          rms(c)
DAV:   1     0.244402320920E+03    0.52387E-09   -0.29568E-10   198   0.545E-09    0.206E-08
RMM:   2     0.244402320921E+03    0.29104E-09    0.00000E+00     0   0.221E-09
  93 F= 0.24440232E+03 E0= 0.24441386E+03  d E =0.174623E-09
       N       E                     dE             d eps       ncg     rms          rms(c)
DAV:   1     0.244402320922E+03    0.17462E-08   -0.17853E-10   198   0.347E-09    0.261E-07
RMM:   2     0.244402320920E+03   -0.22119E-08    0.00000E+00     0   0.567E-09
  94 F= 0.24440232E+03 E0= 0.24441386E+03  d E =-.756700E-09
       N       E                     dE             d eps       ncg     rms          rms(c)
DAV:   1     0.244402320922E+03   -0.29104E-10   -0.22562E-10   198   0.193E-08    0.428E-07
RMM:   2     0.244402320920E+03   -0.22992E-08    0.00000E+00     0   0.206E-08
  95 F= 0.24440232E+03 E0= 0.24441386E+03  d E =-.116415E-09
       N       E                     dE             d eps       ncg     rms          rms(c)
DAV:   1     0.244402320919E+03   -0.26776E-08   -0.20528E-10   198   0.509E-08    0.187E-07
RMM:   2     0.244402320921E+03    0.13388E-08    0.00000E+00     0   0.113E-08
  96 F= 0.24440232E+03 E0= 0.24441386E+03  d E =0.960426E-09
       N       E                     dE             d eps       ncg     rms          rms(c)
DAV:   1     0.244402320920E+03    0.10477E-08   -0.36023E-10   198   0.233E-08    0.911E-08
RMM:   2     0.244402320920E+03   -0.17462E-09    0.00000E+00     0   0.696E-09
  97 F= 0.24440232E+03 E0= 0.24441386E+03  d E =-.465661E-09
       N       E                     dE             d eps       ncg     rms          rms(c)
DAV:   1     0.244402320921E+03    0.64028E-09   -0.18907E-10   198   0.107E-08    0.122E-07
RMM:   2     0.244402320921E+03   -0.29104E-09    0.00000E+00     0   0.349E-09
  98 F= 0.24440232E+03 E0= 0.24441386E+03  d E =0.523869E-09
       N       E                     dE             d eps       ncg     rms          rms(c)
DAV:   1     0.244402320921E+03   -0.46566E-09   -0.21321E-10   198   0.808E-09    0.179E-07
RMM:   2     0.244402320920E+03   -0.32014E-09    0.00000E+00     0   0.890E-09
  99 F= 0.24440232E+03 E0= 0.24441386E+03  d E =-.494765E-09
       N       E                     dE             d eps       ncg     rms          rms(c)
DAV:   1     0.244402320921E+03    0.17462E-09   -0.22144E-10   198   0.974E-09    0.360E-07
RMM:   2     0.244402320922E+03    0.10477E-08    0.00000E+00     0   0.225E-08
 100 F= 0.24440232E+03 E0= 0.24441386E+03  d E =0.154250E-08
       N       E                     dE             d eps       ncg     rms          rms(c)
DAV:   1     0.244402320920E+03   -0.11350E-08   -0.28736E-11   198   0.457E-08    0.662E-08
RMM:   2     0.244402320920E+03    0.26193E-09    0.00000E+00     0   0.798E-09
 101 F= 0.24440232E+03 E0= 0.24441386E+03  d E =-.192085E-08
       N       E                     dE             d eps       ncg     rms          rms(c)
DAV:   1     0.244402320920E+03    0.49477E-09   -0.22106E-10   198   0.962E-09    0.101E-07
RMM:   2     0.244402320921E+03    0.90222E-09    0.00000E+00     0   0.594E-09
 102 F= 0.24440232E+03 E0= 0.24441386E+03  d E =0.113505E-08
       N       E                     dE             d eps       ncg     rms          rms(c)
DAV:   1     0.244402320921E+03    0.98953E-09   -0.16230E-10   198   0.113E-08    0.116E-07
RMM:   2     0.244402320921E+03    0.17462E-09    0.00000E+00     0   0.574E-09
 103 F= 0.24440232E+03 E0= 0.24441386E+03  d E =0.261934E-09
       N       E                     dE             d eps       ncg     rms          rms(c)
DAV:   1     0.244402320921E+03    0.00000E+00   -0.43909E-10   198   0.132E-08    0.275E-08
RMM:   2     0.244402320920E+03   -0.11642E-08    0.00000E+00     0   0.260E-09
 104 F= 0.24440232E+03 E0= 0.24441386E+03  d E =-.133878E-08
       N       E                     dE             d eps       ncg     rms          rms(c)
DAV:   1     0.244402320922E+03    0.40745E-09   -0.10361E-10   198   0.303E-09    0.120E-08
RMM:   2     0.244402320920E+03   -0.17171E-08    0.00000E+00     0   0.217E-09
 105 F= 0.24440232E+03 E0= 0.24441386E+03  d E =-.145519E-09
       N       E                     dE             d eps       ncg     rms          rms(c)
DAV:   1     0.244402320920E+03   -0.10768E-08   -0.16192E-10   198   0.278E-09    0.206E-07
RMM:   2     0.244402320921E+03    0.87311E-10    0.00000E+00     0   0.240E-09
 106 F= 0.24440232E+03 E0= 0.24441386E+03  d E =0.727596E-09
       N       E                     dE             d eps       ncg     rms          rms(c)
DAV:   1     0.244402320920E+03   -0.52387E-09   -0.56537E-10   198   0.617E-09    0.361E-07
RMM:   2     0.244402320920E+03   -0.87311E-10    0.00000E+00     0   0.609E-09
 107 F= 0.24440232E+03 E0= 0.24441386E+03  d E =-.698492E-09
       N       E                     dE             d eps       ncg     rms          rms(c)
DAV:   1     0.244402320920E+03    0.29104E-10   -0.11564E-10   198   0.253E-08    0.436E-07
RMM:   2     0.244402320920E+03    0.37835E-09    0.00000E+00     0   0.205E-08
 108 F= 0.24440232E+03 E0= 0.24441386E+03  d E =0.494765E-09
       N       E                     dE             d eps       ncg     rms          rms(c)
DAV:   1     0.244402320922E+03    0.20082E-08   -0.40995E-11   198   0.503E-08    0.146E-07
RMM:   2     0.244402320921E+03   -0.72760E-09    0.00000E+00     0   0.895E-09
 109 F= 0.24440232E+03 E0= 0.24441386E+03  d E =0.902219E-09
       N       E                     dE             d eps       ncg     rms          rms(c)
DAV:   1     0.244402320922E+03    0.49477E-09   -0.14285E-10   198   0.165E-08    0.274E-08
RMM:   2     0.244402320921E+03   -0.13970E-08    0.00000E+00     0   0.600E-09
 110 F= 0.24440232E+03 E0= 0.24441386E+03  d E =-.174623E-09
       N       E                     dE             d eps       ncg     rms          rms(c)
DAV:   1     0.244402320921E+03   -0.16007E-08   -0.35306E-10   198   0.450E-09    0.247E-07
RMM:   2     0.244402320921E+03    0.11642E-09    0.00000E+00     0   0.104E-08
 111 F= 0.24440232E+03 E0= 0.24441386E+03  d E =-.873115E-10
       N       E                     dE             d eps       ncg     rms          rms(c)
DAV:   1     0.244402320920E+03   -0.69849E-09   -0.48884E-10   198   0.277E-08    0.266E-07
RMM:   2     0.244402320920E+03    0.58208E-10    0.00000E+00     0   0.138E-08
 112 F= 0.24440232E+03 E0= 0.24441386E+03  d E =-.756700E-09
       N       E                     dE             d eps       ncg     rms          rms(c)
DAV:   1     0.244402320921E+03    0.84401E-09   -0.11456E-10   198   0.315E-08    0.123E-07
RMM:   2     0.244402320922E+03    0.55297E-09    0.00000E+00     0   0.883E-09
 113 F= 0.24440232E+03 E0= 0.24441386E+03  d E =0.133878E-08
       N       E                     dE             d eps       ncg     rms          rms(c)
DAV:   1     0.244402320919E+03   -0.22992E-08   -0.35049E-10   198   0.156E-08    0.159E-07
RMM:   2     0.244402320921E+03    0.24738E-08    0.00000E+00     0   0.471E-09
 114 F= 0.24440232E+03 E0= 0.24441386E+03  d E =-.378350E-09
       N       E                     dE             d eps       ncg     rms          rms(c)
DAV:   1     0.244402320920E+03    0.10768E-08   -0.32650E-10   198   0.147E-08    0.273E-07
RMM:   2     0.244402320922E+03    0.18335E-08    0.00000E+00     0   0.128E-08
 115 F= 0.24440232E+03 E0= 0.24441386E+03  d E =0.436557E-09
       N       E                     dE             d eps       ncg     rms          rms(c)
DAV:   1     0.244402320921E+03    0.81491E-09   -0.35543E-11   198   0.323E-08    0.905E-08
RMM:   2     0.244402320921E+03    0.69849E-09    0.00000E+00     0   0.672E-09
 116 F= 0.24440232E+03 E0= 0.24441386E+03  d E =-.320142E-09
       N       E                     dE             d eps       ncg     rms          rms(c)
DAV:   1     0.244402320921E+03   -0.29104E-10   -0.24913E-10   198   0.124E-08    0.113E-07
RMM:   2     0.244402320920E+03   -0.93132E-09    0.00000E+00     0   0.358E-09
 117 F= 0.24440232E+03 E0= 0.24441386E+03  d E =-.165892E-08
       N       E                     dE             d eps       ncg     rms          rms(c)
DAV:   1     0.244402320919E+03   -0.12806E-08   -0.15679E-10   198   0.880E-09    0.589E-08
RMM:   2     0.244402320920E+03    0.52387E-09    0.00000E+00     0   0.735E-09
 118 F= 0.24440232E+03 E0= 0.24441386E+03  d E =0.174623E-09
       N       E                     dE             d eps       ncg     rms          rms(c)
DAV:   1     0.244402320920E+03    0.34925E-09   -0.23216E-10   198   0.890E-09    0.298E-07
RMM:   2     0.244402320919E+03   -0.14552E-09    0.00000E+00     0   0.160E-08
 119 F= 0.24440232E+03 E0= 0.24441386E+03  d E =-.320142E-09
       N       E                     dE             d eps       ncg     rms          rms(c)
DAV:   1     0.244402320920E+03    0.26193E-09   -0.76623E-11   198   0.364E-08    0.134E-07
RMM:   2     0.244402320921E+03    0.11642E-08    0.00000E+00     0   0.102E-08
 120 F= 0.24440232E+03 E0= 0.24441386E+03  d E =0.157161E-08
       N       E                     dE             d eps       ncg     rms          rms(c)
DAV:   1     0.244402320920E+03    0.26193E-09   -0.18010E-10   198   0.172E-08    0.772E-08
RMM:   2     0.244402320922E+03    0.13970E-08    0.00000E+00     0   0.465E-09
 121 F= 0.24440232E+03 E0= 0.24441386E+03  d E =0.494765E-09
       N       E                     dE             d eps       ncg     rms          rms(c)
DAV:   1     0.244402320920E+03    0.20373E-09   -0.39901E-10   198   0.101E-08    0.105E-07
RMM:   2     0.244402320921E+03    0.75670E-09    0.00000E+00     0   0.445E-09
 122 F= 0.24440232E+03 E0= 0.24441386E+03  d E =-.436557E-09
       N       E                     dE             d eps       ncg     rms          rms(c)
DAV:   1     0.244402320920E+03   -0.87311E-10   -0.14250E-10   198   0.124E-08    0.648E-08
RMM:   2     0.244402320921E+03    0.69849E-09    0.00000E+00     0   0.381E-09
 123 F= 0.24440232E+03 E0= 0.24441386E+03  d E =-.145519E-09
       N       E                     dE             d eps       ncg     rms          rms(c)
DAV:   1     0.244402320921E+03    0.11350E-08   -0.14604E-10   198   0.764E-09    0.385E-08
RMM:   2     0.244402320921E+03   -0.43656E-09    0.00000E+00     0   0.286E-09
 124 F= 0.24440232E+03 E0= 0.24441386E+03  d E =0.000000E+00
       N       E                     dE             d eps       ncg     rms          rms(c)
DAV:   1     0.244402320921E+03   -0.61118E-09   -0.28506E-10   198   0.363E-09    0.805E-08
RMM:   2     0.244402320920E+03   -0.58208E-09    0.00000E+00     0   0.356E-09
 125 F= 0.24440232E+03 E0= 0.24441386E+03  d E =-.756700E-09
       N       E                     dE             d eps       ncg     rms          rms(c)
DAV:   1     0.244402320920E+03   -0.58208E-09   -0.62355E-11   198   0.900E-09    0.116E-07
RMM:   2     0.244402320920E+03    0.87311E-10    0.00000E+00     0   0.526E-09
 126 F= 0.24440232E+03 E0= 0.24441386E+03  d E =0.873115E-10
       N       E                     dE             d eps       ncg     rms          rms(c)
DAV:   1     0.244402320922E+03    0.14843E-08   -0.21456E-10   198   0.136E-08    0.591E-08
RMM:   2     0.244402320920E+03   -0.16880E-08    0.00000E+00     0   0.445E-09
 127 F= 0.24440232E+03 E0= 0.24441386E+03  d E =-.291038E-09
       N       E                     dE             d eps       ncg     rms          rms(c)
DAV:   1     0.244402320921E+03   -0.40745E-09   -0.30318E-10   198   0.767E-09    0.791E-08
RMM:   2     0.244402320921E+03   -0.23283E-09    0.00000E+00     0   0.438E-09
 128 F= 0.24440232E+03 E0= 0.24441386E+03  d E =0.104774E-08
       N       E                     dE             d eps       ncg     rms          rms(c)
DAV:   1     0.244402320919E+03   -0.22410E-08   -0.35590E-10   198   0.991E-09    0.755E-08
RMM:   2     0.244402320920E+03    0.10186E-08    0.00000E+00     0   0.457E-09
 129 F= 0.24440232E+03 E0= 0.24441386E+03  d E =-.989530E-09
       N       E                     dE             d eps       ncg     rms          rms(c)
DAV:   1     0.244402320921E+03    0.16298E-08   -0.13869E-11   198   0.720E-09    0.482E-08
RMM:   2     0.244402320921E+03   -0.14552E-09    0.00000E+00     0   0.613E-09
 130 F= 0.24440232E+03 E0= 0.24441386E+03  d E =0.465661E-09
       N       E                     dE             d eps       ncg     rms          rms(c)
DAV:   1     0.244402320922E+03    0.13097E-08   -0.20978E-10   198   0.823E-09    0.273E-07
RMM:   2     0.244402320921E+03   -0.11059E-08    0.00000E+00     0   0.916E-09
 131 F= 0.24440232E+03 E0= 0.24441386E+03  d E =0.349246E-09
       N       E                     dE             d eps       ncg     rms          rms(c)
DAV:   1     0.244402320921E+03   -0.10186E-08   -0.33017E-10   198   0.303E-08    0.383E-07
RMM:   2     0.244402320920E+03   -0.81491E-09    0.00000E+00     0   0.190E-08
 132 F= 0.24440232E+03 E0= 0.24441386E+03  d E =-.727596E-09
       N       E                     dE             d eps       ncg     rms          rms(c)
DAV:   1     0.244402320920E+03   -0.49477E-09   -0.24767E-10   198   0.462E-08    0.140E-07
RMM:   2     0.244402320921E+03    0.87311E-10    0.00000E+00     0   0.864E-09
 133 F= 0.24440232E+03 E0= 0.24441386E+03  d E =0.407454E-09
       N       E                     dE             d eps       ncg     rms          rms(c)
DAV:   1     0.244402320921E+03    0.34925E-09   -0.26926E-10   198   0.178E-08    0.862E-08
RMM:   2     0.244402320922E+03    0.90222E-09    0.00000E+00     0   0.303E-09
 134 F= 0.24440232E+03 E0= 0.24441386E+03  d E =0.116415E-08
       N       E                     dE             d eps       ncg     rms          rms(c)
DAV:   1     0.244402320920E+03   -0.75670E-09   -0.26249E-10   198   0.567E-09    0.114E-07
RMM:   2     0.244402320920E+03    0.58208E-10    0.00000E+00     0   0.589E-09
 135 F= 0.24440232E+03 E0= 0.24441386E+03  d E =-.160071E-08
       N       E                     dE             d eps       ncg     rms          rms(c)
DAV:   1     0.244402320920E+03    0.20373E-09   -0.21027E-10   198   0.116E-08    0.676E-09
RMM:   2     0.244402320920E+03    0.29104E-10    0.00000E+00     0   0.333E-09
 136 F= 0.24440232E+03 E0= 0.24441386E+03  d E =0.174623E-09
       N       E                     dE             d eps       ncg     rms          rms(c)
DAV:   1     0.244402320920E+03   -0.46566E-09   -0.76253E-11   198   0.243E-09    0.529E-08
RMM:   2     0.244402320921E+03    0.12806E-08    0.00000E+00     0   0.259E-09
 137 F= 0.24440232E+03 E0= 0.24441386E+03  d E =0.785803E-09
       N       E                     dE             d eps       ncg     rms          rms(c)
DAV:   1     0.244402320918E+03   -0.13970E-08   -0.19574E-10   198   0.690E-09    0.259E-07
RMM:   2     0.244402320921E+03    0.22410E-08    0.00000E+00     0   0.501E-09
 138 F= 0.24440232E+03 E0= 0.24441386E+03  d E =-.436557E-09
       N       E                     dE             d eps       ncg     rms          rms(c)
DAV:   1     0.244402320923E+03    0.45111E-08   -0.34484E-10   198   0.227E-08    0.330E-07
RMM:   2     0.244402320921E+03   -0.16298E-08    0.00000E+00     0   0.194E-08
 139 F= 0.24440232E+03 E0= 0.24441386E+03  d E =0.640284E-09
       N       E                     dE             d eps       ncg     rms          rms(c)
DAV:   1     0.244402320923E+03   -0.40745E-09   -0.10755E-10   198   0.411E-08    0.107E-07
RMM:   2     0.244402320921E+03   -0.18917E-08    0.00000E+00     0   0.597E-09
 140 F= 0.24440232E+03 E0= 0.24441386E+03  d E =-.669388E-09
       N       E                     dE             d eps       ncg     rms          rms(c)
DAV:   1     0.244402320921E+03   -0.19791E-08   -0.30993E-10   198   0.138E-08    0.142E-07
RMM:   2     0.244402320921E+03    0.43656E-09    0.00000E+00     0   0.603E-09
 141 F= 0.24440232E+03 E0= 0.24441386E+03  d E =0.349246E-09
       N       E                     dE             d eps       ncg     rms          rms(c)
DAV:   1     0.244402320921E+03    0.75670E-09   -0.31067E-10   198   0.164E-08    0.874E-08
RMM:   2     0.244402320921E+03   -0.26193E-09    0.00000E+00     0   0.517E-09
 142 F= 0.24440232E+03 E0= 0.24441386E+03  d E =0.582077E-10
       N       E                     dE             d eps       ncg     rms          rms(c)
DAV:   1     0.244402320921E+03   -0.64028E-09   -0.55051E-11   198   0.112E-08    0.861E-08
RMM:   2     0.244402320921E+03    0.14552E-09    0.00000E+00     0   0.252E-09
 143 F= 0.24440232E+03 E0= 0.24441386E+03  d E =-.232831E-09
       N       E                     dE             d eps       ncg     rms          rms(c)
DAV:   1     0.244402320921E+03    0.58208E-09   -0.24366E-10   198   0.748E-09    0.190E-07
RMM:   2     0.244402320921E+03   -0.37835E-09    0.00000E+00     0   0.735E-09
 144 F= 0.24440232E+03 E0= 0.24441386E+03  d E =0.582077E-10
       N       E                     dE             d eps       ncg     rms          rms(c)
DAV:   1     0.244402320921E+03   -0.34925E-09   -0.49311E-10   198   0.210E-08    0.165E-07
RMM:   2     0.244402320920E+03   -0.72760E-09    0.00000E+00     0   0.900E-09
 145 F= 0.24440232E+03 E0= 0.24441386E+03  d E =-.698492E-09
       N       E                     dE             d eps       ncg     rms          rms(c)
DAV:   1     0.244402320920E+03   -0.98953E-09   -0.30526E-10   198   0.202E-08    0.582E-08
RMM:   2     0.244402320920E+03    0.40745E-09    0.00000E+00     0   0.455E-09
 146 F= 0.24440232E+03 E0= 0.24441386E+03  d E =0.145519E-09
       N       E                     dE             d eps       ncg     rms          rms(c)
DAV:   1     0.244402320919E+03   -0.61118E-09   -0.22758E-10   198   0.769E-09    0.688E-08
RMM:   2     0.244402320922E+03    0.22992E-08    0.00000E+00     0   0.303E-09
 147 F= 0.24440232E+03 E0= 0.24441386E+03  d E =0.128057E-08
       N       E                     dE             d eps       ncg     rms          rms(c)
DAV:   1     0.244402320921E+03    0.13679E-08   -0.12261E-10   198   0.879E-09    0.238E-07
RMM:   2     0.244402320921E+03    0.81491E-09    0.00000E+00     0   0.114E-08
 148 F= 0.24440232E+03 E0= 0.24441386E+03  d E =-.116415E-09
       N       E                     dE             d eps       ncg     rms          rms(c)
DAV:   1     0.244402320919E+03   -0.13970E-08   -0.27263E-10   198   0.281E-08    0.110E-07
RMM:   2     0.244402320921E+03    0.20664E-08    0.00000E+00     0   0.787E-09
 149 F= 0.24440232E+03 E0= 0.24441386E+03  d E =-.145519E-09
       N       E                     dE             d eps       ncg     rms          rms(c)
DAV:   1     0.244402320920E+03    0.98953E-09   -0.50113E-10   198   0.137E-08    0.451E-08
RMM:   2     0.244402320921E+03    0.69849E-09    0.00000E+00     0   0.323E-09
 150 F= 0.24440232E+03 E0= 0.24441386E+03  d E =-.378350E-09
       N       E                     dE             d eps       ncg     rms          rms(c)
DAV:   1     0.244402320921E+03    0.84401E-09   -0.32595E-10   198   0.806E-09    0.119E-07
RMM:   2     0.244402320921E+03    0.00000E+00    0.00000E+00     0   0.102E-08
 151 F= 0.24440232E+03 E0= 0.24441386E+03  d E =0.145519E-09
       N       E                     dE             d eps       ncg     rms          rms(c)
DAV:   1     0.244402320920E+03   -0.61118E-09   -0.47428E-10   198   0.146E-08    0.267E-07
RMM:   2     0.244402320921E+03    0.20373E-09    0.00000E+00     0   0.145E-08
 152 F= 0.24440232E+03 E0= 0.24441386E+03  d E =-.407454E-09
       N       E                     dE             d eps       ncg     rms          rms(c)
DAV:   1     0.244402320921E+03    0.87311E-09   -0.16670E-10   198   0.333E-08    0.120E-07
RMM:   2     0.244402320921E+03   -0.75670E-09    0.00000E+00     0   0.875E-09
 153 F= 0.24440232E+03 E0= 0.24441386E+03  d E =-.873115E-10
       N       E                     dE             d eps       ncg     rms          rms(c)
DAV:   1     0.244402320922E+03    0.78580E-09   -0.28555E-10   198   0.153E-08    0.194E-07
RMM:   2     0.244402320921E+03   -0.93132E-09    0.00000E+00     0   0.720E-09
 154 F= 0.24440232E+03 E0= 0.24441386E+03  d E =0.611180E-09
       N       E                     dE             d eps       ncg     rms          rms(c)
DAV:   1     0.244402320920E+03   -0.20955E-08   -0.31730E-10   198   0.221E-08    0.259E-07
RMM:   2     0.244402320921E+03    0.12806E-08    0.00000E+00     0   0.130E-08
 155 F= 0.24440232E+03 E0= 0.24441386E+03  d E =0.116415E-09
       N       E                     dE             d eps       ncg     rms          rms(c)
DAV:   1     0.244402320921E+03    0.10186E-08   -0.38508E-10   198   0.317E-08    0.910E-08
RMM:   2     0.244402320921E+03    0.14552E-09    0.00000E+00     0   0.441E-09
 156 F= 0.24440232E+03 E0= 0.24441386E+03  d E =-.116415E-09
       N       E                     dE             d eps       ncg     rms          rms(c)
DAV:   1     0.244402320921E+03   -0.46566E-09   -0.20147E-10   198   0.986E-09    0.476E-08
RMM:   2     0.244402320921E+03   -0.29104E-10    0.00000E+00     0   0.338E-09
 157 F= 0.24440232E+03 E0= 0.24441386E+03  d E =-.640284E-09
       N       E                     dE             d eps       ncg     rms          rms(c)
DAV:   1     0.244402320922E+03    0.93132E-09   -0.34215E-10   198   0.494E-09    0.176E-07
RMM:   2     0.244402320920E+03   -0.16007E-08    0.00000E+00     0   0.559E-09
 158 F= 0.24440232E+03 E0= 0.24441386E+03  d E =-.640284E-09
       N       E                     dE             d eps       ncg     rms          rms(c)
DAV:   1     0.244402320921E+03   -0.23283E-09   -0.33533E-10   198   0.438E-09    0.173E-07
RMM:   2     0.244402320921E+03   -0.69849E-09    0.00000E+00     0   0.968E-09
 159 F= 0.24440232E+03 E0= 0.24441386E+03  d E =0.669388E-09
       N       E                     dE             d eps       ncg     rms          rms(c)
DAV:   1     0.244402320921E+03   -0.52387E-09   -0.30200E-10   198   0.215E-08    0.961E-08
RMM:   2     0.244402320921E+03    0.29104E-10    0.00000E+00     0   0.596E-09
 160 F= 0.24440232E+03 E0= 0.24441386E+03  d E =0.203727E-09
       N       E                     dE             d eps       ncg     rms          rms(c)
DAV:   1     0.244402320921E+03   -0.14552E-09   -0.20892E-10   198   0.100E-08    0.112E-07
RMM:   2     0.244402320922E+03    0.11642E-08    0.00000E+00     0   0.385E-09
 161 F= 0.24440232E+03 E0= 0.24441386E+03  d E =0.989530E-09
       N       E                     dE             d eps       ncg     rms          rms(c)
DAV:   1     0.244402320922E+03    0.16880E-08   -0.26949E-10   198   0.102E-08    0.159E-07
RMM:   2     0.244402320921E+03   -0.11059E-08    0.00000E+00     0   0.864E-09
 162 F= 0.24440232E+03 E0= 0.24441386E+03  d E =-.582077E-09
       N       E                     dE             d eps       ncg     rms          rms(c)
DAV:   1     0.244402320921E+03   -0.16007E-08   -0.13933E-10   198   0.192E-08    0.842E-08
RMM:   2     0.244402320920E+03   -0.58208E-09    0.00000E+00     0   0.301E-09
 163 F= 0.24440232E+03 E0= 0.24441386E+03  d E =-.107684E-08
       N       E                     dE             d eps       ncg     rms          rms(c)
DAV:   1     0.244402320920E+03   -0.55297E-09   -0.39813E-10   198   0.721E-09    0.144E-07
RMM:   2     0.244402320922E+03    0.14843E-08    0.00000E+00     0   0.914E-09
 164 F= 0.24440232E+03 E0= 0.24441386E+03  d E =0.151340E-08
       N       E                     dE             d eps       ncg     rms          rms(c)
DAV:   1     0.244402320919E+03   -0.16298E-08   -0.11309E-10   198   0.183E-08    0.188E-08
RMM:   2     0.244402320920E+03    0.15134E-08    0.00000E+00     0   0.401E-09
 165 F= 0.24440232E+03 E0= 0.24441386E+03  d E =-.160071E-08
       N       E                     dE             d eps       ncg     rms          rms(c)
DAV:   1     0.244402320920E+03    0.16880E-08   -0.22898E-10   198   0.416E-09    0.885E-08
RMM:   2     0.244402320921E+03    0.78580E-09    0.00000E+00     0   0.267E-09
 166 F= 0.24440232E+03 E0= 0.24441386E+03  d E =0.960426E-09
       N       E                     dE             d eps       ncg     rms          rms(c)
DAV:   1     0.244402320920E+03   -0.61118E-09   -0.44902E-10   198   0.833E-09    0.183E-07
RMM:   2     0.244402320920E+03    0.81491E-09    0.00000E+00     0   0.816E-09
 167 F= 0.24440232E+03 E0= 0.24441386E+03  d E =-.582077E-09
       N       E                     dE             d eps       ncg     rms          rms(c)
DAV:   1     0.244402320919E+03   -0.11642E-09   -0.38925E-11   198   0.214E-08    0.156E-07
RMM:   2     0.244402320921E+03    0.19500E-08    0.00000E+00     0   0.771E-09
 168 F= 0.24440232E+03 E0= 0.24441386E+03  d E =0.101863E-08
       N       E                     dE             d eps       ncg     rms          rms(c)
DAV:   1     0.244402320922E+03    0.22701E-08   -0.36811E-10   198   0.186E-08    0.607E-08
RMM:   2     0.244402320920E+03   -0.13970E-08    0.00000E+00     0   0.493E-09
 169 F= 0.24440232E+03 E0= 0.24441386E+03  d E =-.107684E-08
       N       E                     dE             d eps       ncg     rms          rms(c)
DAV:   1     0.244402320921E+03   -0.78580E-09   -0.27420E-10   198   0.801E-09    0.148E-07
RMM:   2     0.244402320921E+03   -0.37835E-09    0.00000E+00     0   0.431E-09
 170 F= 0.24440232E+03 E0= 0.24441386E+03  d E =0.232831E-09
       N       E                     dE             d eps       ncg     rms          rms(c)
DAV:   1     0.244402320921E+03   -0.29104E-10   -0.35135E-10   198   0.150E-08    0.214E-07
RMM:   2     0.244402320921E+03    0.43656E-09    0.00000E+00     0   0.111E-08
 171 F= 0.24440232E+03 E0= 0.24441386E+03  d E =0.785803E-09
       N       E                     dE             d eps       ncg     rms          rms(c)
DAV:   1     0.244402320922E+03    0.87311E-09   -0.18043E-10   198   0.261E-08    0.307E-08
RMM:   2     0.244402320921E+03   -0.11933E-08    0.00000E+00     0   0.272E-09
 172 F= 0.24440232E+03 E0= 0.24441386E+03  d E =-.756700E-09
       N       E                     dE             d eps       ncg     rms          rms(c)
DAV:   1     0.244402320921E+03   -0.98953E-09   -0.18156E-10   198   0.425E-09    0.970E-08
RMM:   2     0.244402320922E+03    0.87311E-09    0.00000E+00     0   0.181E-09
 173 F= 0.24440232E+03 E0= 0.24441386E+03  d E =0.107684E-08
       N       E                     dE             d eps       ncg     rms          rms(c)
DAV:   1     0.244402320919E+03   -0.16007E-08   -0.27569E-10   198   0.751E-09    0.175E-07
RMM:   2     0.244402320920E+03    0.29104E-09    0.00000E+00     0   0.884E-09
 174 F= 0.24440232E+03 E0= 0.24441386E+03  d E =-.218279E-08
       N       E                     dE             d eps       ncg     rms          rms(c)
DAV:   1     0.244402320920E+03    0.84401E-09   -0.34848E-10   198   0.177E-08    0.497E-08
RMM:   2     0.244402320920E+03   -0.11642E-09    0.00000E+00     0   0.335E-09
 175 F= 0.24440232E+03 E0= 0.24441386E+03  d E =0.436557E-09
       N       E                     dE             d eps       ncg     rms          rms(c)
DAV:   1     0.244402320921E+03    0.66939E-09   -0.24372E-10   198   0.426E-09    0.125E-07
RMM:   2     0.244402320921E+03   -0.17462E-09    0.00000E+00     0   0.436E-09
 176 F= 0.24440232E+03 E0= 0.24441386E+03  d E =0.611180E-09
       N       E                     dE             d eps       ncg     rms          rms(c)
DAV:   1     0.244402320921E+03    0.40745E-09   -0.46872E-10   198   0.135E-08    0.174E-07
RMM:   2     0.244402320920E+03   -0.81491E-09    0.00000E+00     0   0.883E-09
 177 F= 0.24440232E+03 E0= 0.24441386E+03  d E =-.232831E-09
       N       E                     dE             d eps       ncg     rms          rms(c)
DAV:   1     0.244402320919E+03   -0.17462E-08   -0.42479E-10   198   0.211E-08    0.714E-08
RMM:   2     0.244402320921E+03    0.12515E-08    0.00000E+00     0   0.502E-09
 178 F= 0.24440232E+03 E0= 0.24441386E+03  d E =0.320142E-09
       N       E                     dE             d eps       ncg     rms          rms(c)
DAV:   1     0.244402320921E+03    0.15716E-08   -0.17875E-10   198   0.467E-09    0.245E-07
RMM:   2     0.244402320921E+03   -0.14552E-09    0.00000E+00     0   0.138E-08
 179 F= 0.24440232E+03 E0= 0.24441386E+03  d E =0.174623E-09
       N       E                     dE             d eps       ncg     rms          rms(c)
DAV:   1     0.244402320920E+03   -0.49477E-09   -0.14879E-10   198   0.298E-08    0.124E-07
RMM:   2     0.244402320921E+03    0.90222E-09    0.00000E+00     0   0.753E-09
 180 F= 0.24440232E+03 E0= 0.24441386E+03  d E =0.552973E-09
       N       E                     dE             d eps       ncg     rms          rms(c)
DAV:   1     0.244402320919E+03   -0.15134E-08   -0.19663E-10   198   0.147E-08    0.820E-08
RMM:   2     0.244402320920E+03    0.13970E-08    0.00000E+00     0   0.545E-09
 181 F= 0.24440232E+03 E0= 0.24441386E+03  d E =-.101863E-08
       N       E                     dE             d eps       ncg     rms          rms(c)
DAV:   1     0.244402320923E+03    0.37253E-08   -0.27208E-10   198   0.970E-09    0.237E-08
RMM:   2     0.244402320922E+03   -0.75670E-09    0.00000E+00     0   0.468E-09
 182 F= 0.24440232E+03 E0= 0.24441386E+03  d E =0.157161E-08
       N       E                     dE             d eps       ncg     rms          rms(c)
DAV:   1     0.244402320922E+03   -0.96043E-09   -0.36974E-10   198   0.470E-09    0.220E-07
RMM:   2     0.244402320920E+03   -0.13097E-08    0.00000E+00     0   0.756E-09
 183 F= 0.24440232E+03 E0= 0.24441386E+03  d E =-.151340E-08
       N       E                     dE             d eps       ncg     rms          rms(c)
DAV:   1     0.244402320921E+03   -0.11933E-08   -0.39455E-10   198   0.223E-08    0.250E-07
RMM:   2     0.244402320921E+03    0.61118E-09    0.00000E+00     0   0.139E-08
 184 F= 0.24440232E+03 E0= 0.24441386E+03  d E =0.727596E-09
       N       E                     dE             d eps       ncg     rms          rms(c)
DAV:   1     0.244402320919E+03   -0.13679E-08   -0.32591E-10   198   0.305E-08    0.181E-08
RMM:   2     0.244402320921E+03    0.15134E-08    0.00000E+00     0   0.464E-09
 185 F= 0.24440232E+03 E0= 0.24441386E+03  d E =-.465661E-09
       N       E                     dE             d eps       ncg     rms          rms(c)
DAV:   1     0.244402320920E+03    0.55297E-09   -0.21998E-10   198   0.508E-09    0.298E-07
RMM:   2     0.244402320921E+03    0.96043E-09    0.00000E+00     0   0.759E-09
 186 F= 0.24440232E+03 E0= 0.24441386E+03  d E =0.000000E+00
       N       E                     dE             d eps       ncg     rms          rms(c)
DAV:   1     0.244402320921E+03    0.11059E-08   -0.14528E-10   198   0.279E-08    0.441E-07
RMM:   2     0.244402320920E+03   -0.49477E-09    0.00000E+00     0   0.241E-08
 187 F= 0.24440232E+03 E0= 0.24441386E+03  d E =-.349246E-09
       N       E                     dE             d eps       ncg     rms          rms(c)
DAV:   1     0.244402320921E+03    0.20373E-09   -0.11358E-10   198   0.543E-08    0.261E-08
RMM:   2     0.244402320920E+03   -0.84401E-09    0.00000E+00     0   0.503E-09
 188 F= 0.24440232E+03 E0= 0.24441386E+03  d E =-.145519E-09
       N       E                     dE             d eps       ncg     rms          rms(c)
DAV:   1     0.244402320921E+03    0.00000E+00   -0.30384E-10   198   0.673E-09    0.298E-07
RMM:   2     0.244402320921E+03    0.32014E-09    0.00000E+00     0   0.413E-09
 189 F= 0.24440232E+03 E0= 0.24441386E+03  d E =0.116415E-08
       N       E                     dE             d eps       ncg     rms          rms(c)
DAV:   1     0.244402320920E+03   -0.13679E-08   -0.12484E-10   198   0.108E-08    0.186E-07
RMM:   2     0.244402320921E+03    0.13097E-08    0.00000E+00     0   0.122E-08
 190 F= 0.24440232E+03 E0= 0.24441386E+03  d E =-.378350E-09
       N       E                     dE             d eps       ncg     rms          rms(c)
DAV:   1     0.244402320922E+03    0.20082E-08   -0.20936E-10   198   0.235E-08    0.113E-07
RMM:   2     0.244402320921E+03   -0.32014E-09    0.00000E+00     0   0.737E-09
 191 F= 0.24440232E+03 E0= 0.24441386E+03  d E =0.378350E-09
       N       E                     dE             d eps       ncg     rms          rms(c)
DAV:   1     0.244402320921E+03   -0.58208E-09   -0.28553E-10   198   0.146E-08    0.414E-08
RMM:   2     0.244402320921E+03    0.29104E-09    0.00000E+00     0   0.217E-09
 192 F= 0.24440232E+03 E0= 0.24441386E+03  d E =0.291038E-10
       N       E                     dE             d eps       ncg     rms          rms(c)
DAV:   1     0.244402320920E+03   -0.84401E-09   -0.33603E-10   198   0.446E-09    0.333E-07
RMM:   2     0.244402320920E+03    0.58208E-10    0.00000E+00     0   0.425E-09
 193 F= 0.24440232E+03 E0= 0.24441386E+03  d E =-.107684E-08
       N       E                     dE             d eps       ncg     rms          rms(c)
DAV:   1     0.244402320921E+03    0.40745E-09   -0.36323E-10   198   0.126E-08    0.335E-07
RMM:   2     0.244402320920E+03   -0.90222E-09    0.00000E+00     0   0.131E-08
 194 F= 0.24440232E+03 E0= 0.24441386E+03  d E =-.552973E-09
       N       E                     dE             d eps       ncg     rms          rms(c)
DAV:   1     0.244402320920E+03   -0.58208E-09   -0.14111E-10   198   0.356E-08    0.220E-07
RMM:   2     0.244402320920E+03    0.00000E+00    0.00000E+00     0   0.114E-08
 195 F= 0.24440232E+03 E0= 0.24441386E+03  d E =0.320142E-09
       N       E                     dE             d eps       ncg     rms          rms(c)
DAV:   1     0.244402320919E+03   -0.11642E-08   -0.42263E-10   198   0.261E-08    0.143E-07
RMM:   2     0.244402320920E+03    0.11350E-08    0.00000E+00     0   0.628E-09
 196 F= 0.24440232E+03 E0= 0.24441386E+03  d E =-.291038E-10
       N       E                     dE             d eps       ncg     rms          rms(c)
DAV:   1     0.244402320921E+03    0.22701E-08   -0.25573E-10   198   0.132E-08    0.983E-08
RMM:   2     0.244402320920E+03   -0.14552E-08    0.00000E+00     0   0.596E-09
 197 F= 0.24440232E+03 E0= 0.24441386E+03  d E =-.320142E-09
       N       E                     dE             d eps       ncg     rms          rms(c)
DAV:   1     0.244402320919E+03   -0.24156E-08   -0.22933E-10   198   0.106E-08    0.743E-08
RMM:   2     0.244402320921E+03    0.25611E-08    0.00000E+00     0   0.411E-09
 198 F= 0.24440232E+03 E0= 0.24441386E+03  d E =0.160071E-08
       N       E                     dE             d eps       ncg     rms          rms(c)
DAV:   1     0.244402320920E+03    0.11059E-08   -0.37125E-10   198   0.700E-09    0.433E-08
RMM:   2     0.244402320920E+03    0.46566E-09    0.00000E+00     0   0.612E-09
 199 F= 0.24440232E+03 E0= 0.24441386E+03  d E =-.989530E-09
       N       E                     dE             d eps       ncg     rms          rms(c)
DAV:   1     0.244402320920E+03    0.20373E-09   -0.22988E-10   198   0.734E-09    0.293E-07
RMM:   2     0.244402320922E+03    0.16298E-08    0.00000E+00     0   0.127E-08
 200 F= 0.24440232E+03 E0= 0.24441386E+03  d E =0.136788E-08
       N       E                     dE             d eps       ncg     rms          rms(c)
DAV:   1     0.244402320920E+03    0.34925E-09   -0.28027E-10   198   0.326E-08    0.256E-07
RMM:   2     0.244402320920E+03    0.58208E-10    0.00000E+00     0   0.144E-08
 201 F= 0.24440232E+03 E0= 0.24441386E+03  d E =-.122236E-08
       N       E                     dE             d eps       ncg     rms          rms(c)
DAV:   1     0.244402320920E+03    0.87311E-10   -0.32302E-10   198   0.311E-08    0.229E-08
RMM:   2     0.244402320920E+03   -0.14552E-09    0.00000E+00     0   0.529E-09
 202 F= 0.24440232E+03 E0= 0.24441386E+03  d E =-.116415E-09
       N       E                     dE             d eps       ncg     rms          rms(c)
DAV:   1     0.244402320921E+03    0.14552E-09   -0.12485E-10   198   0.500E-09    0.148E-07
RMM:   2     0.244402320920E+03   -0.17462E-09    0.00000E+00     0   0.801E-09
 203 F= 0.24440232E+03 E0= 0.24441386E+03  d E =0.116415E-09
       N       E                     dE             d eps       ncg     rms          rms(c)
DAV:   1     0.244402320922E+03    0.12515E-08   -0.23271E-10   198   0.167E-08    0.883E-08
RMM:   2     0.244402320920E+03   -0.16007E-08    0.00000E+00     0   0.470E-09
 204 F= 0.24440232E+03 E0= 0.24441386E+03  d E =-.174623E-09
       N       E                     dE             d eps       ncg     rms          rms(c)
DAV:   1     0.244402320921E+03   -0.13388E-08   -0.29929E-10   198   0.809E-09    0.397E-08
RMM:   2     0.244402320921E+03    0.87311E-10    0.00000E+00     0   0.232E-09
 205 F= 0.24440232E+03 E0= 0.24441386E+03  d E =0.349246E-09
       N       E                     dE             d eps       ncg     rms          rms(c)
DAV:   1     0.244402320921E+03    0.90222E-09    0.85699E-12   198   0.565E-09    0.171E-07
RMM:   2     0.244402320921E+03   -0.72760E-09    0.00000E+00     0   0.367E-09
 206 F= 0.24440232E+03 E0= 0.24441386E+03  d E =0.873115E-10
       N       E                     dE             d eps       ncg     rms          rms(c)
DAV:   1     0.244402320921E+03   -0.14552E-09   -0.48717E-10   198   0.161E-08    0.288E-07
RMM:   2     0.244402320921E+03   -0.69849E-09    0.00000E+00     0   0.137E-08
 207 F= 0.24440232E+03 E0= 0.24441386E+03  d E =-.116415E-09
       N       E                     dE             d eps       ncg     rms          rms(c)
DAV:   1     0.244402320921E+03   -0.72760E-09   -0.34709E-10   198   0.343E-08    0.125E-07
RMM:   2     0.244402320922E+03    0.12224E-08    0.00000E+00     0   0.652E-09
 208 F= 0.24440232E+03 E0= 0.24441386E+03  d E =0.119326E-08
       N       E                     dE             d eps       ncg     rms          rms(c)
DAV:   1     0.244402320921E+03   -0.29104E-10   -0.62829E-10   198   0.153E-08    0.620E-08
RMM:   2     0.244402320920E+03   -0.64028E-09    0.00000E+00     0   0.516E-09
 209 F= 0.24440232E+03 E0= 0.24441386E+03  d E =-.189175E-08
       N       E                     dE             d eps       ncg     rms          rms(c)
DAV:   1     0.244402320921E+03    0.78580E-09   -0.21999E-10   198   0.459E-09    0.197E-07
RMM:   2     0.244402320920E+03   -0.11642E-08    0.00000E+00     0   0.116E-08
 210 F= 0.24440232E+03 E0= 0.24441386E+03  d E =0.261934E-09
       N       E                     dE             d eps       ncg     rms          rms(c)
DAV:   1     0.244402320921E+03    0.58208E-10   -0.40354E-10   198   0.239E-08    0.291E-08
RMM:   2     0.244402320921E+03   -0.78580E-09    0.00000E+00     0   0.481E-09
 211 F= 0.24440232E+03 E0= 0.24441386E+03  d E =0.436557E-09
       N       E                     dE             d eps       ncg     rms          rms(c)
DAV:   1     0.244402320921E+03   -0.40745E-09   -0.36113E-10   198   0.592E-09    0.207E-07
RMM:   2     0.244402320921E+03   -0.11642E-09    0.00000E+00     0   0.839E-09
 212 F= 0.24440232E+03 E0= 0.24441386E+03  d E =0.261934E-09
       N       E                     dE             d eps       ncg     rms          rms(c)
DAV:   1     0.244402320921E+03    0.46566E-09   -0.23251E-10   198   0.129E-08    0.136E-07
RMM:   2     0.244402320921E+03   -0.43656E-09    0.00000E+00     0   0.532E-09
 213 F= 0.24440232E+03 E0= 0.24441386E+03  d E =0.145519E-09
       N       E                     dE             d eps       ncg     rms          rms(c)
DAV:   1     0.244402320920E+03   -0.16589E-08   -0.24374E-10   198   0.146E-08    0.199E-07
RMM:   2     0.244402320922E+03    0.19209E-08    0.00000E+00     0   0.894E-09
 214 F= 0.24440232E+03 E0= 0.24441386E+03  d E =0.698492E-09
       N       E                     dE             d eps       ncg     rms          rms(c)
DAV:   1     0.244402320921E+03    0.11933E-08   -0.21852E-10   198   0.232E-08    0.993E-08
RMM:   2     0.244402320920E+03   -0.12806E-08    0.00000E+00     0   0.606E-09
 215 F= 0.24440232E+03 E0= 0.24441386E+03  d E =-.200816E-08
       N       E                     dE             d eps       ncg     rms          rms(c)
DAV:   1     0.244402320921E+03   -0.26193E-09   -0.26775E-10   198   0.131E-08    0.121E-07
RMM:   2     0.244402320920E+03   -0.34925E-09    0.00000E+00     0   0.252E-09
 216 F= 0.24440232E+03 E0= 0.24441386E+03  d E =0.669388E-09
       N       E                     dE             d eps       ncg     rms          rms(c)
DAV:   1     0.244402320921E+03    0.43656E-09   -0.56261E-11   198   0.881E-09    0.179E-07
RMM:   2     0.244402320920E+03   -0.72760E-09    0.00000E+00     0   0.842E-09
 217 F= 0.24440232E+03 E0= 0.24441386E+03  d E =0.582077E-10
       N       E                     dE             d eps       ncg     rms          rms(c)
DAV:   1     0.244402320921E+03   -0.58208E-09   -0.23540E-10   198   0.160E-08    0.118E-07
RMM:   2     0.244402320921E+03    0.37835E-09    0.00000E+00     0   0.616E-09
 218 F= 0.24440232E+03 E0= 0.24441386E+03  d E =0.523869E-09
       N       E                     dE             d eps       ncg     rms          rms(c)
DAV:   1     0.244402320918E+03   -0.22701E-08   -0.14667E-10   198   0.148E-08    0.121E-07
RMM:   2     0.244402320921E+03    0.22992E-08    0.00000E+00     0   0.564E-09
 219 F= 0.24440232E+03 E0= 0.24441386E+03  d E =-.349246E-09
       N       E                     dE             d eps       ncg     rms          rms(c)
DAV:   1     0.244402320921E+03    0.23865E-08   -0.20652E-10   198   0.133E-08    0.451E-08
RMM:   2     0.244402320920E+03   -0.84401E-09    0.00000E+00     0   0.240E-09
 220 F= 0.24440232E+03 E0= 0.24441386E+03  d E =-.756700E-09
       N       E                     dE             d eps       ncg     rms          rms(c)
DAV:   1     0.244402320920E+03   -0.20373E-09   -0.43976E-10   198   0.363E-09    0.197E-07
RMM:   2     0.244402320921E+03    0.58208E-09    0.00000E+00     0   0.184E-09
 221 F= 0.24440232E+03 E0= 0.24441386E+03  d E =0.122236E-08
       N       E                     dE             d eps       ncg     rms          rms(c)
DAV:   1     0.244402320921E+03    0.61118E-09   -0.17528E-10   198   0.171E-08    0.457E-07
RMM:   2     0.244402320922E+03    0.52387E-09    0.00000E+00     0   0.203E-08
 222 F= 0.24440232E+03 E0= 0.24441386E+03  d E =0.552973E-09
       N       E                     dE             d eps       ncg     rms          rms(c)
DAV:   1     0.244402320920E+03   -0.13097E-08    0.21857E-11   198   0.537E-08    0.283E-07
RMM:   2     0.244402320921E+03    0.87311E-09    0.00000E+00     0   0.149E-08
 223 F= 0.24440232E+03 E0= 0.24441386E+03  d E =-.960426E-09
       N       E                     dE             d eps       ncg     rms          rms(c)
DAV:   1     0.244402320921E+03    0.11350E-08   -0.16003E-10   198   0.341E-08    0.126E-07
RMM:   2     0.244402320920E+03   -0.98953E-09    0.00000E+00     0   0.927E-09
 224 F= 0.24440232E+03 E0= 0.24441386E+03  d E =-.727596E-09
       N       E                     dE             d eps       ncg     rms          rms(c)
DAV:   1     0.244402320920E+03   -0.75670E-09   -0.28908E-10   198   0.155E-08    0.249E-08
RMM:   2     0.244402320920E+03    0.29104E-10    0.00000E+00     0   0.486E-09
 225 F= 0.24440232E+03 E0= 0.24441386E+03  d E =0.261934E-09
       N       E                     dE             d eps       ncg     rms          rms(c)
DAV:   1     0.244402320921E+03    0.46566E-09   -0.14612E-10   198   0.666E-09    0.278E-07
RMM:   2     0.244402320921E+03   -0.58208E-10    0.00000E+00     0   0.561E-09
 226 F= 0.24440232E+03 E0= 0.24441386E+03  d E =0.378350E-09
       N       E                     dE             d eps       ncg     rms          rms(c)
DAV:   1     0.244402320920E+03   -0.43656E-09   -0.39132E-10   198   0.249E-08    0.461E-07
RMM:   2     0.244402320920E+03   -0.11642E-09    0.00000E+00     0   0.233E-08
 227 F= 0.24440232E+03 E0= 0.24441386E+03  d E =-.494765E-09
       N       E                     dE             d eps       ncg     rms          rms(c)
DAV:   1     0.244402320920E+03    0.14552E-09   -0.12320E-10   198   0.560E-08    0.130E-07
RMM:   2     0.244402320922E+03    0.16007E-08    0.00000E+00     0   0.878E-09
 228 F= 0.24440232E+03 E0= 0.24441386E+03  d E =0.186265E-08
       N       E                     dE             d eps       ncg     rms          rms(c)
DAV:   1     0.244402320920E+03    0.00000E+00   -0.22638E-10   198   0.160E-08    0.756E-08
RMM:   2     0.244402320921E+03    0.66939E-09    0.00000E+00     0   0.527E-09
 229 F= 0.24440232E+03 E0= 0.24441386E+03  d E =-.931323E-09
       N       E                     dE             d eps       ncg     rms          rms(c)
DAV:   1     0.244402320920E+03   -0.87311E-10   -0.23686E-10   198   0.677E-09    0.190E-07
RMM:   2     0.244402320921E+03    0.37835E-09    0.00000E+00     0   0.527E-09
 230 F= 0.24440232E+03 E0= 0.24441386E+03  d E =-.378350E-09
       N       E                     dE             d eps       ncg     rms          rms(c)
DAV:   1     0.244402320922E+03    0.15716E-08   -0.23421E-10   198   0.178E-08    0.292E-07
RMM:   2     0.244402320920E+03   -0.18044E-08    0.00000E+00     0   0.136E-08
 231 F= 0.24440232E+03 E0= 0.24441386E+03  d E =-.611180E-09
       N       E                     dE             d eps       ncg     rms          rms(c)
DAV:   1     0.244402320922E+03    0.58208E-09   -0.37869E-10   198   0.345E-08    0.167E-07
RMM:   2     0.244402320921E+03   -0.18626E-08    0.00000E+00     0   0.770E-09
 232 F= 0.24440232E+03 E0= 0.24441386E+03  d E =0.523869E-09
       N       E                     dE             d eps       ncg     rms          rms(c)
DAV:   1     0.244402320920E+03   -0.20373E-08   -0.18205E-10   198   0.196E-08    0.132E-07
RMM:   2     0.244402320921E+03    0.66939E-09    0.00000E+00     0   0.662E-09
 233 F= 0.24440232E+03 E0= 0.24441386E+03  d E =0.494765E-09
       N       E                     dE             d eps       ncg     rms          rms(c)
DAV:   1     0.244402320921E+03    0.14552E-09   -0.39878E-10   198   0.150E-08    0.375E-08
[...]
 939 F= 0.24440232E+03 E0= 0.24441386E+03  d E =0.291038E-09
       N       E                     dE             d eps       ncg     rms          rms(c)
DAV:   1     0.244402320919E+03   -0.20373E-08   -0.28391E-10   198   0.598E-09    0.134E-07
RMM:   2     0.244402320920E+03    0.14843E-08    0.00000E+00     0   0.695E-09
 940 F= 0.24440232E+03 E0= 0.24441386E+03  d E =-.756700E-09
       N       E                     dE             d eps       ncg     rms          rms(c)
DAV:   1     0.244402320920E+03    0.11350E-08   -0.14531E-10   198   0.140E-08    0.327E-08
RMM:   2     0.244402320922E+03    0.15716E-08    0.00000E+00     0   0.421E-09
 941 F= 0.24440232E+03 E0= 0.24441386E+03  d E =0.122236E-08
       N       E                     dE             d eps       ncg     rms          rms(c)
DAV:   1     0.244402320921E+03    0.52387E-09   -0.13585E-10   198   0.497E-09    0.128E-07
RMM:   2     0.244402320921E+03    0.46566E-09    0.00000E+00     0   0.532E-09
 942 F= 0.24440232E+03 E0= 0.24441386E+03  d E =-.582077E-09
       N       E                     dE             d eps       ncg     rms          rms(c)
DAV:   1     0.244402320920E+03   -0.20373E-09   -0.14937E-10   198   0.135E-08    0.102E-07
RMM:   2     0.244402320921E+03    0.61118E-09    0.00000E+00     0   0.612E-09
 943 F= 0.24440232E+03 E0= 0.24441386E+03  d E =-.582077E-10
       N       E                     dE             d eps       ncg     rms          rms(c)
DAV:   1     0.244402320921E+03    0.52387E-09   -0.22615E-10   198   0.125E-08    0.279E-08
RMM:   2     0.244402320921E+03    0.61118E-09    0.00000E+00     0   0.232E-09
 944 F= 0.24440232E+03 E0= 0.24441386E+03  d E =0.523869E-09
       N       E                     dE             d eps       ncg     rms          rms(c)
DAV:   1     0.244402320920E+03   -0.11933E-08   -0.16323E-10   198   0.379E-09    0.127E-07
RMM:   2     0.244402320921E+03    0.96043E-09    0.00000E+00     0   0.445E-09
 945 F= 0.24440232E+03 E0= 0.24441386E+03  d E =-.844011E-09
       N       E                     dE             d eps       ncg     rms          rms(c)
DAV:   1     0.244402320923E+03    0.29686E-08   -0.27223E-10   198   0.969E-09    0.141E-07
RMM:   2     0.244402320921E+03   -0.13970E-08    0.00000E+00     0   0.672E-09
 946 F= 0.24440232E+03 E0= 0.24441386E+03  d E =0.611180E-09
       N       E                     dE             d eps       ncg     rms          rms(c)
DAV:   1     0.244402320921E+03   -0.18626E-08   -0.17786E-10   198   0.166E-08    0.897E-08
RMM:   2     0.244402320921E+03    0.14552E-09    0.00000E+00     0   0.475E-09
 947 F= 0.24440232E+03 E0= 0.24441386E+03  d E =-.320142E-09
       N       E                     dE             d eps       ncg     rms          rms(c)
DAV:   1     0.244402320921E+03    0.46566E-09   -0.11074E-10   198   0.111E-08    0.523E-08
RMM:   2     0.244402320921E+03   -0.87311E-10    0.00000E+00     0   0.288E-09
 948 F= 0.24440232E+03 E0= 0.24441386E+03  d E =0.232831E-09
       N       E                     dE             d eps       ncg     rms          rms(c)
DAV:   1     0.244402320922E+03    0.98953E-09   -0.11972E-10   198   0.671E-09    0.193E-07
RMM:   2     0.244402320922E+03   -0.66939E-09    0.00000E+00     0   0.402E-09
 949 F= 0.24440232E+03 E0= 0.24441386E+03  d E =0.407454E-09
       N       E                     dE             d eps       ncg     rms          rms(c)
DAV:   1     0.244402320922E+03    0.20373E-09   -0.26081E-10   198   0.161E-08    0.324E-07
RMM:   2     0.244402320920E+03   -0.22701E-08    0.00000E+00     0   0.159E-08
 950 F= 0.24440232E+03 E0= 0.24441386E+03  d E =-.139698E-08
       N       E                     dE             d eps       ncg     rms          rms(c)
DAV:   1     0.244402320920E+03   -0.20955E-08   -0.25425E-10   198   0.389E-08    0.820E-08
RMM:   2     0.244402320921E+03    0.69849E-09    0.00000E+00     0   0.709E-09
 951 F= 0.24440232E+03 E0= 0.24441386E+03  d E =0.873115E-09
       N       E                     dE             d eps       ncg     rms          rms(c)
DAV:   1     0.244402320921E+03    0.66939E-09   -0.13753E-10   198   0.101E-08    0.203E-07
RMM:   2     0.244402320921E+03    0.29104E-09    0.00000E+00     0   0.721E-09
 952 F= 0.24440232E+03 E0= 0.24441386E+03  d E =0.261934E-09
       N       E                     dE             d eps       ncg     rms          rms(c)
DAV:   1     0.244402320921E+03    0.11642E-09   -0.23168E-10   198   0.213E-08    0.286E-07
RMM:   2     0.244402320921E+03    0.58208E-10    0.00000E+00     0   0.134E-08
 953 F= 0.24440232E+03 E0= 0.24441386E+03  d E =-.116415E-09
       N       E                     dE             d eps       ncg     rms          rms(c)
DAV:   1     0.244402320921E+03   -0.14552E-09   -0.10686E-10   198   0.340E-08    0.970E-08
RMM:   2     0.244402320920E+03   -0.72760E-09    0.00000E+00     0   0.753E-09
 954 F= 0.24440232E+03 E0= 0.24441386E+03  d E =-.931323E-09
       N       E                     dE             d eps       ncg     rms          rms(c)
DAV:   1     0.244402320921E+03    0.14552E-09   -0.38114E-10   198   0.131E-08    0.121E-07
RMM:   2     0.244402320922E+03    0.55297E-09    0.00000E+00     0   0.517E-09
 955 F= 0.24440232E+03 E0= 0.24441386E+03  d E =0.142609E-08
       N       E                     dE             d eps       ncg     rms          rms(c)
DAV:   1     0.244402320920E+03   -0.13679E-08   -0.14857E-10   198   0.138E-08    0.599E-08
RMM:   2     0.244402320920E+03    0.29104E-09    0.00000E+00     0   0.684E-09
 956 F= 0.24440232E+03 E0= 0.24441386E+03  d E =-.162981E-08
       N       E                     dE             d eps       ncg     rms          rms(c)
DAV:   1     0.244402320920E+03    0.64028E-09   -0.19385E-10   198   0.900E-09    0.190E-07
RMM:   2     0.244402320922E+03    0.15134E-08    0.00000E+00     0   0.110E-08
 957 F= 0.24440232E+03 E0= 0.24441386E+03  d E =0.186265E-08
       N       E                     dE             d eps       ncg     rms          rms(c)
DAV:   1     0.244402320920E+03   -0.75670E-09   -0.26714E-10   198   0.234E-08    0.843E-08
RMM:   2     0.244402320921E+03    0.93132E-09    0.00000E+00     0   0.470E-09
 958 F= 0.24440232E+03 E0= 0.24441386E+03  d E =-.133878E-08
       N       E                     dE             d eps       ncg     rms          rms(c)
DAV:   1     0.244402320921E+03    0.17462E-08   -0.33476E-10   198   0.968E-09    0.619E-08
RMM:   2     0.244402320920E+03   -0.90222E-09    0.00000E+00     0   0.368E-09
 959 F= 0.24440232E+03 E0= 0.24441386E+03  d E =-.873115E-10
       N       E                     dE             d eps       ncg     rms          rms(c)
DAV:   1     0.244402320921E+03   -0.69849E-09   -0.22829E-10   198   0.667E-09    0.243E-08
RMM:   2     0.244402320921E+03    0.66939E-09    0.00000E+00     0   0.223E-09
 960 F= 0.24440232E+03 E0= 0.24441386E+03  d E =0.873115E-09
       N       E                     dE             d eps       ncg     rms          rms(c)
DAV:   1     0.244402320922E+03    0.96043E-09   -0.31485E-10   198   0.238E-09    0.105E-07
RMM:   2     0.244402320921E+03   -0.78580E-09    0.00000E+00     0   0.321E-09
 961 F= 0.24440232E+03 E0= 0.24441386E+03  d E =-.494765E-09
       N       E                     dE             d eps       ncg     rms          rms(c)
DAV:   1     0.244402320923E+03    0.11350E-08   -0.33106E-10   198   0.109E-08    0.170E-07
RMM:   2     0.244402320920E+03   -0.28813E-08    0.00000E+00     0   0.802E-09
 962 F= 0.24440232E+03 E0= 0.24441386E+03  d E =-.960426E-09
       N       E                     dE             d eps       ncg     rms          rms(c)
DAV:   1     0.244402320920E+03   -0.22992E-08   -0.45889E-10   198   0.195E-08    0.941E-08
RMM:   2     0.244402320920E+03   -0.14552E-09    0.00000E+00     0   0.607E-09
 963 F= 0.24440232E+03 E0= 0.24441386E+03  d E =0.436557E-09
       N       E                     dE             d eps       ncg     rms          rms(c)
DAV:   1     0.244402320921E+03    0.10186E-08   -0.37295E-10   198   0.123E-08    0.488E-08
RMM:   2     0.244402320920E+03   -0.16298E-08    0.00000E+00     0   0.322E-09
 964 F= 0.24440232E+03 E0= 0.24441386E+03  d E =-.465661E-09
       N       E                     dE             d eps       ncg     rms          rms(c)
DAV:   1     0.244402320920E+03   -0.17171E-08   -0.41290E-10   198   0.655E-09    0.138E-07
RMM:   2     0.244402320920E+03    0.14552E-09    0.00000E+00     0   0.765E-09
 965 F= 0.24440232E+03 E0= 0.24441386E+03  d E =0.582077E-10
       N       E                     dE             d eps       ncg     rms          rms(c)
DAV:   1     0.244402320920E+03    0.64028E-09   -0.22141E-10   198   0.169E-08    0.740E-08
RMM:   2     0.244402320921E+03    0.87311E-09    0.00000E+00     0   0.483E-09
 966 F= 0.24440232E+03 E0= 0.24441386E+03  d E =0.136788E-08
       N       E                     dE             d eps       ncg     rms          rms(c)
DAV:   1     0.244402320921E+03    0.98953E-09   -0.14573E-10   198   0.871E-09    0.172E-07
RMM:   2     0.244402320921E+03    0.00000E+00    0.00000E+00     0   0.508E-09
 967 F= 0.24440232E+03 E0= 0.24441386E+03  d E =0.116415E-09
       N       E                     dE             d eps       ncg     rms          rms(c)
DAV:   1     0.244402320920E+03   -0.10768E-08   -0.35149E-10   198   0.160E-08    0.194E-07
RMM:   2     0.244402320921E+03    0.87311E-09    0.00000E+00     0   0.984E-09
 968 F= 0.24440232E+03 E0= 0.24441386E+03  d E =-.203727E-09
       N       E                     dE             d eps       ncg     rms          rms(c)
DAV:   1     0.244402320920E+03   -0.37835E-09   -0.10779E-10   198   0.234E-08    0.834E-08
RMM:   2     0.244402320921E+03    0.78580E-09    0.00000E+00     0   0.445E-09
 969 F= 0.24440232E+03 E0= 0.24441386E+03  d E =-.465661E-09
       N       E                     dE             d eps       ncg     rms          rms(c)
DAV:   1     0.244402320920E+03    0.34925E-09   -0.35262E-10   198   0.996E-09    0.116E-07
RMM:   2     0.244402320922E+03    0.17753E-08    0.00000E+00     0   0.554E-09
 970 F= 0.24440232E+03 E0= 0.24441386E+03  d E =0.133878E-08
       N       E                     dE             d eps       ncg     rms          rms(c)
DAV:   1     0.244402320921E+03    0.75670E-09   -0.25904E-10   198   0.118E-08    0.111E-07
RMM:   2     0.244402320921E+03   -0.46566E-09    0.00000E+00     0   0.591E-09
 971 F= 0.24440232E+03 E0= 0.24441386E+03  d E =-.148430E-08
       N       E                     dE             d eps       ncg     rms          rms(c)
DAV:   1     0.244402320922E+03    0.96043E-09   -0.18957E-10   198   0.134E-08    0.634E-08
RMM:   2     0.244402320921E+03   -0.13097E-08    0.00000E+00     0   0.307E-09
 972 F= 0.24440232E+03 E0= 0.24441386E+03  d E =0.116415E-09
       N       E                     dE             d eps       ncg     rms          rms(c)
DAV:   1     0.244402320920E+03   -0.24156E-08   -0.40765E-10   198   0.545E-09    0.132E-07
RMM:   2     0.244402320921E+03    0.96043E-09    0.00000E+00     0   0.116E-08
 973 F= 0.24440232E+03 E0= 0.24441386E+03  d E =-.145519E-09
       N       E                     dE             d eps       ncg     rms          rms(c)
DAV:   1     0.244402320921E+03    0.17171E-08   -0.85808E-11   198   0.170E-08    0.249E-07
RMM:   2     0.244402320921E+03   -0.87311E-10    0.00000E+00     0   0.136E-08
 974 F= 0.24440232E+03 E0= 0.24441386E+03  d E =0.669388E-09
       N       E                     dE             d eps       ncg     rms          rms(c)
DAV:   1     0.244402320922E+03    0.37835E-09   -0.12290E-10   198   0.314E-08    0.105E-07
RMM:   2     0.244402320922E+03   -0.29104E-10    0.00000E+00     0   0.781E-09
 975 F= 0.24440232E+03 E0= 0.24441386E+03  d E =0.436557E-09
       N       E                     dE             d eps       ncg     rms          rms(c)
DAV:   1     0.244402320922E+03   -0.11642E-09   -0.39752E-11   198   0.139E-08    0.180E-07
RMM:   2     0.244402320920E+03   -0.16007E-08    0.00000E+00     0   0.631E-09
 976 F= 0.24440232E+03 E0= 0.24441386E+03  d E =-.168802E-08
       N       E                     dE             d eps       ncg     rms          rms(c)
DAV:   1     0.244402320921E+03   -0.29104E-09   -0.26670E-11   198   0.192E-08    0.247E-07
RMM:   2     0.244402320921E+03   -0.64028E-09    0.00000E+00     0   0.119E-08
 977 F= 0.24440232E+03 E0= 0.24441386E+03  d E =0.669388E-09
       N       E                     dE             d eps       ncg     rms          rms(c)
DAV:   1     0.244402320920E+03   -0.98953E-09   -0.31188E-10   198   0.296E-08    0.789E-08
RMM:   2     0.244402320922E+03    0.12515E-08    0.00000E+00     0   0.588E-09
 978 F= 0.24440232E+03 E0= 0.24441386E+03  d E =0.902219E-09
       N       E                     dE             d eps       ncg     rms          rms(c)
DAV:   1     0.244402320924E+03    0.34634E-08   -0.13132E-10   198   0.109E-08    0.170E-07
RMM:   2     0.244402320920E+03   -0.37835E-08    0.00000E+00     0   0.389E-09
 979 F= 0.24440232E+03 E0= 0.24441386E+03  d E =-.157161E-08
       N       E                     dE             d eps       ncg     rms          rms(c)
DAV:   1     0.244402320920E+03   -0.34634E-08   -0.33253E-10   198   0.150E-08    0.307E-07
RMM:   2     0.244402320920E+03    0.14552E-09    0.00000E+00     0   0.163E-08
 980 F= 0.24440232E+03 E0= 0.24441386E+03  d E =0.465661E-09
       N       E                     dE             d eps       ncg     rms          rms(c)
DAV:   1     0.244402320919E+03   -0.96043E-09    0.80049E-11   198   0.378E-08    0.750E-08
RMM:   2     0.244402320919E+03    0.14552E-09    0.00000E+00     0   0.514E-09
 981 F= 0.24440232E+03 E0= 0.24441386E+03  d E =-.960426E-09
       N       E                     dE             d eps       ncg     rms          rms(c)
DAV:   1     0.244402320920E+03    0.11059E-08   -0.36650E-10   198   0.845E-09    0.122E-07
RMM:   2     0.244402320922E+03    0.13388E-08    0.00000E+00     0   0.667E-09
 982 F= 0.24440232E+03 E0= 0.24441386E+03  d E =0.229920E-08
       N       E                     dE             d eps       ncg     rms          rms(c)
DAV:   1     0.244402320920E+03   -0.55297E-09   -0.62477E-11   198   0.145E-08    0.808E-08
RMM:   2     0.244402320921E+03    0.13097E-08    0.00000E+00     0   0.629E-09
 983 F= 0.24440232E+03 E0= 0.24441386E+03  d E =-.582077E-09
       N       E                     dE             d eps       ncg     rms          rms(c)
DAV:   1     0.244402320923E+03    0.31432E-08   -0.25062E-10   198   0.102E-08    0.119E-07
RMM:   2     0.244402320921E+03   -0.24156E-08    0.00000E+00     0   0.358E-09
 984 F= 0.24440232E+03 E0= 0.24441386E+03  d E =-.582077E-09
       N       E                     dE             d eps       ncg     rms          rms(c)
DAV:   1     0.244402320919E+03   -0.38708E-08   -0.46197E-10   198   0.491E-09    0.771E-08
RMM:   2     0.244402320920E+03    0.96043E-09    0.00000E+00     0   0.894E-09
 985 F= 0.24440232E+03 E0= 0.24441386E+03  d E =-.494765E-09
       N       E                     dE             d eps       ncg     rms          rms(c)
DAV:   1     0.244402320919E+03    0.23283E-09   -0.24358E-10   198   0.107E-08    0.356E-07
RMM:   2     0.244402320921E+03    0.16880E-08    0.00000E+00     0   0.146E-08
 986 F= 0.24440232E+03 E0= 0.24441386E+03  d E =0.960426E-09
       N       E                     dE             d eps       ncg     rms          rms(c)
DAV:   1     0.244402320921E+03    0.12515E-08   -0.80227E-11   198   0.408E-08    0.397E-07
RMM:   2     0.244402320920E+03   -0.34925E-09    0.00000E+00     0   0.204E-08
 987 F= 0.24440232E+03 E0= 0.24441386E+03  d E =-.785803E-09
       N       E                     dE             d eps       ncg     rms          rms(c)
DAV:   1     0.244402320920E+03   -0.29104E-09   -0.94206E-11   198   0.480E-08    0.102E-07
RMM:   2     0.244402320921E+03    0.20373E-09    0.00000E+00     0   0.817E-09
 988 F= 0.24440232E+03 E0= 0.24441386E+03  d E =0.261934E-09
       N       E                     dE             d eps       ncg     rms          rms(c)
DAV:   1     0.244402320921E+03    0.40745E-09   -0.17371E-10   198   0.136E-08    0.134E-07
RMM:   2     0.244402320921E+03    0.37835E-09    0.00000E+00     0   0.471E-09
 989 F= 0.24440232E+03 E0= 0.24441386E+03  d E =0.582077E-09
       N       E                     dE             d eps       ncg     rms          rms(c)
DAV:   1     0.244402320923E+03    0.20373E-08   -0.27090E-10   198   0.149E-08    0.225E-07
RMM:   2     0.244402320920E+03   -0.25320E-08    0.00000E+00     0   0.103E-08
 990 F= 0.24440232E+03 E0= 0.24441386E+03  d E =-.873115E-09
       N       E                     dE             d eps       ncg     rms          rms(c)
DAV:   1     0.244402320921E+03   -0.18044E-08   -0.39733E-10   198   0.269E-08    0.117E-07
RMM:   2     0.244402320920E+03   -0.64028E-09    0.00000E+00     0   0.557E-09
 991 F= 0.24440232E+03 E0= 0.24441386E+03  d E =0.873115E-10
       N       E                     dE             d eps       ncg     rms          rms(c)
DAV:   1     0.244402320921E+03    0.49477E-09   -0.11674E-10   198   0.139E-08    0.644E-08
RMM:   2     0.244402320920E+03   -0.17753E-08    0.00000E+00     0   0.415E-09
 992 F= 0.24440232E+03 E0= 0.24441386E+03  d E =-.640284E-09
       N       E                     dE             d eps       ncg     rms          rms(c)
DAV:   1     0.244402320919E+03   -0.27649E-08   -0.17017E-10   198   0.786E-09    0.422E-08
RMM:   2     0.244402320921E+03    0.20955E-08    0.00000E+00     0   0.171E-09
 993 F= 0.24440232E+03 E0= 0.24441386E+03  d E =0.110595E-08
       N       E                     dE             d eps       ncg     rms          rms(c)
DAV:   1     0.244402320918E+03   -0.90222E-09   -0.27989E-10   198   0.612E-09    0.527E-08
RMM:   2     0.244402320921E+03    0.29686E-08    0.00000E+00     0   0.754E-09
 994 F= 0.24440232E+03 E0= 0.24441386E+03  d E =-.291038E-10
       N       E                     dE             d eps       ncg     rms          rms(c)
DAV:   1     0.244402320921E+03    0.36671E-08   -0.22948E-10   198   0.785E-09    0.286E-07
RMM:   2     0.244402320921E+03   -0.46566E-09    0.00000E+00     0   0.190E-08
 995 F= 0.24440232E+03 E0= 0.24441386E+03  d E =0.232831E-09
       N       E                     dE             d eps       ncg     rms          rms(c)
DAV:   1     0.244402320921E+03   -0.90222E-09   -0.14633E-10   198   0.372E-08    0.357E-08
RMM:   2     0.244402320921E+03    0.20373E-09    0.00000E+00     0   0.434E-09
 996 F= 0.24440232E+03 E0= 0.24441386E+03  d E =-.232831E-09
       N       E                     dE             d eps       ncg     rms          rms(c)
DAV:   1     0.244402320920E+03   -0.98953E-09   -0.44299E-10   198   0.506E-09    0.151E-07
RMM:   2     0.244402320921E+03    0.11059E-08    0.00000E+00     0   0.338E-09
 997 F= 0.24440232E+03 E0= 0.24441386E+03  d E =-.873115E-10
       N       E                     dE             d eps       ncg     rms          rms(c)
DAV:   1     0.244402320920E+03    0.55297E-09   -0.34699E-10   198   0.371E-09    0.380E-08
RMM:   2     0.244402320920E+03    0.87311E-10    0.00000E+00     0   0.285E-09
 998 F= 0.24440232E+03 E0= 0.24441386E+03  d E =-.465661E-09
       N       E                     dE             d eps       ncg     rms          rms(c)
DAV:   1     0.244402320920E+03    0.00000E+00   -0.34683E-10   198   0.428E-09    0.346E-08
RMM:   2     0.244402320920E+03    0.29104E-10    0.00000E+00     0   0.279E-09
 999 F= 0.24440232E+03 E0= 0.24441386E+03  d E =-.582077E-10
       N       E                     dE             d eps       ncg     rms          rms(c)
DAV:   1     0.244402320921E+03    0.10186E-08   -0.33712E-10   198   0.219E-09    0.765E-08
RMM:   2     0.244402320920E+03   -0.72760E-09    0.00000E+00     0   0.305E-09
1000 F= 0.24440232E+03 E0= 0.24441386E+03  d E =0.261934E-09
