  55  55   0   0
  0.2301251E+02  0.1218282E-08  0.7661564E-09  0.1373046E-08  0.0000000E+00
   1.0000000000000000E-004
  CAR 
 NEB_refined                             
      9.30587927    -23.66039939  301      1.29339110      1.00000000
    -23.660  0.0000E+00  0.0000E+00
    -23.551  0.0000E+00  0.0000E+00
    -23.441  0.0000E+00  0.0000E+00
    -23.331 -0.4375E-31 -0.4807E-32
    -23.221 -0.2932E-27 -0.3223E-28
    -23.111 -0.1068E-23 -0.1174E-24
    -23.001 -0.2118E-20 -0.2328E-21
    -22.891 -0.2284E-17 -0.2512E-18
    -22.781 -0.1300E-14 -0.1431E-15
    -22.671 -0.4119E-12 -0.4541E-13
    -22.562 -0.7103E-10 -0.7851E-11
    -22.452 -0.6668E-08 -0.7406E-09
    -22.342 -0.3417E-06 -0.3829E-07
    -22.232 -0.9592E-05 -0.1092E-05
    -22.122 -0.1478E-03 -0.1734E-04
    -22.012 -0.1238E-02 -0.1534E-03
    -21.902 -0.5339E-02 -0.7401E-03
    -21.792 -0.8754E-02 -0.1702E-02
    -21.682  0.1643E-01  0.1030E-03
    -21.573  0.1185E+00  0.1313E-01
    -21.463  0.3213E+00  0.4843E-01
    -21.353  0.5490E+00  0.1088E+00
    -21.243  0.6377E+00  0.1788E+00
    -21.133  0.5271E+00  0.2368E+00
    -21.023  0.2948E+00  0.2691E+00
    -20.913  0.8412E-01  0.2784E+00
    -20.803 -0.5649E-02  0.2778E+00
    -20.693 -0.1197E-01  0.2765E+00
    -20.584 -0.3594E-02  0.2761E+00
    -20.474 -0.5027E-03  0.2760E+00
    -20.364 -0.3682E-04  0.2760E+00
    -20.254 -0.1455E-05  0.2760E+00
    -20.144 -0.3128E-07  0.2760E+00
    -20.034 -0.3672E-09  0.2760E+00
    -19.924 -0.2353E-11  0.2760E+00
    -19.814 -0.8244E-14  0.2760E+00
    -19.704 -0.1617E-16  0.2760E+00
    -19.595  0.0000E+00  0.2760E+00
    -19.485  0.0000E+00  0.2760E+00
    -19.375  0.0000E+00  0.2760E+00
    -19.265  0.0000E+00  0.2760E+00
    -19.155  0.0000E+00  0.2760E+00
    -19.045  0.0000E+00  0.2760E+00
    -18.935  0.0000E+00  0.2760E+00
    -18.825  0.0000E+00  0.2760E+00
    -18.715  0.0000E+00  0.2760E+00
    -18.606  0.0000E+00  0.2760E+00
    -18.496  0.0000E+00  0.2760E+00
    -18.386  0.0000E+00  0.2760E+00
    -18.276  0.0000E+00  0.2760E+00
    -18.166  0.0000E+00  0.2760E+00
    -18.056  0.0000E+00  0.2760E+00
    -17.946  0.0000E+00  0.2760E+00
    -17.836  0.0000E+00  0.2760E+00
    -17.726  0.0000E+00  0.2760E+00
    -17.617  0.0000E+00  0.2760E+00
    -17.507  0.0000E+00  0.2760E+00
    -17.397  0.0000E+00  0.2760E+00
    -17.287  0.0000E+00  0.2760E+00
    -17.177  0.0000E+00  0.2760E+00
    -17.067  0.0000E+00  0.2760E+00
    -16.957  0.0000E+00  0.2760E+00
    -16.847  0.0000E+00  0.2760E+00
    -16.737  0.0000E+00  0.2760E+00
    -16.628  0.0000E+00  0.2760E+00
    -16.518  0.0000E+00  0.2760E+00
    -16.408  0.0000E+00  0.2760E+00
    -16.298  0.0000E+00  0.2760E+00
    -16.188  0.0000E+00  0.2760E+00
    -16.078  0.0000E+00  0.2760E+00
    -15.968  0.0000E+00  0.2760E+00
    -15.858  0.0000E+00  0.2760E+00
    -15.748  0.0000E+00  0.2760E+00
    -15.639  0.0000E+00  0.2760E+00
    -15.529  0.0000E+00  0.2760E+00
    -15.419  0.0000E+00  0.2760E+00
    -15.309  0.0000E+00  0.2760E+00
    -15.199  0.0000E+00  0.2760E+00
    -15.089  0.0000E+00  0.2760E+00
    -14.979  0.0000E+00  0.2760E+00
    -14.869  0.0000E+00  0.2760E+00
    -14.760  0.0000E+00  0.2760E+00
    -14.650  0.0000E+00  0.2760E+00
    -14.540  0.0000E+00  0.2760E+00
    -14.430  0.0000E+00  0.2760E+00
    -14.320  0.0000E+00  0.2760E+00
    -14.210  0.0000E+00  0.2760E+00
    -14.100  0.0000E+00  0.2760E+00
    -13.990  0.0000E+00  0.2760E+00
    -13.880  0.0000E+00  0.2760E+00
    -13.771  0.0000E+00  0.2760E+00
    -13.661  0.0000E+00  0.2760E+00
    -13.551  0.0000E+00  0.2760E+00
    -13.441  0.0000E+00  0.2760E+00
    -13.331  0.0000E+00  0.2760E+00
    -13.221  0.0000E+00  0.2760E+00
    -13.111  0.0000E+00  0.2760E+00
    -13.001  0.0000E+00  0.2760E+00
    -12.891  0.0000E+00  0.2760E+00
    -12.782  0.0000E+00  0.2760E+00
    -12.672  0.0000E+00  0.2760E+00
    -12.562 -0.4919E-31  0.2760E+00
    -12.452 -0.3272E-27  0.2760E+00
    -12.342 -0.1182E-23  0.2760E+00
    -12.232 -0.2324E-20  0.2760E+00
    -12.122 -0.2484E-17  0.2760E+00
    -12.012 -0.1398E-14  0.2760E+00
    -11.902 -0.4376E-12  0.2760E+00
    -11.793 -0.7414E-10  0.2760E+00
    -11.683 -0.6780E-08  0.2760E+00
    -11.573 -0.3332E-06  0.2760E+00
    -11.463 -0.8732E-05  0.2760E+00
    -11.353 -0.1197E-03  0.2760E+00
    -11.243 -0.8141E-03  0.2759E+00
    -11.133 -0.2211E-02  0.2757E+00
    -11.023  0.1883E-02  0.2759E+00
    -10.913  0.2412E-01  0.2785E+00
    -10.804  0.5331E-01  0.2844E+00
    -10.694  0.5131E-01  0.2900E+00
    -10.584  0.2069E-01  0.2923E+00
    -10.474  0.2693E-03  0.2923E+00
    -10.364 -0.2944E-02  0.2920E+00
    -10.254 -0.2779E-02  0.2917E+00
    -10.144  0.5705E-03  0.2917E+00
    -10.034  0.1854E-01  0.2938E+00
     -9.924  0.4976E-01  0.2992E+00
     -9.815  0.7538E-01  0.3075E+00
     -9.705  0.8440E-01  0.3168E+00
     -9.595  0.8604E-01  0.3263E+00
     -9.485  0.1045E+00  0.3377E+00
     -9.375  0.1308E+00  0.3521E+00
     -9.265  0.1184E+00  0.3651E+00
     -9.155  0.6035E-01  0.3718E+00
     -9.045  0.9543E-02  0.3728E+00
     -8.935 -0.4622E-02  0.3723E+00
     -8.826 -0.2354E-02  0.3720E+00
     -8.716 -0.4136E-03  0.3720E+00
     -8.606 -0.3476E-04  0.3720E+00
     -8.496 -0.1503E-05  0.3720E+00
     -8.386 -0.3436E-07  0.3720E+00
     -8.276 -0.4205E-09  0.3720E+00
     -8.166 -0.2773E-11  0.3720E+00
     -8.056 -0.9909E-14  0.3720E+00
     -7.946 -0.1617E-16  0.3720E+00
     -7.837  0.0000E+00  0.3720E+00
     -7.727  0.0000E+00  0.3720E+00
     -7.617  0.0000E+00  0.3720E+00
     -7.507  0.0000E+00  0.3720E+00
     -7.397  0.0000E+00  0.3720E+00
     -7.287  0.0000E+00  0.3720E+00
     -7.177  0.0000E+00  0.3720E+00
     -7.067  0.0000E+00  0.3720E+00
     -6.957  0.0000E+00  0.3720E+00
     -6.848  0.0000E+00  0.3720E+00
     -6.738  0.0000E+00  0.3720E+00
     -6.628  0.0000E+00  0.3720E+00
     -6.518  0.0000E+00  0.3720E+00
     -6.408  0.0000E+00  0.3720E+00
     -6.298  0.0000E+00  0.3720E+00
     -6.188  0.0000E+00  0.3720E+00
     -6.078  0.0000E+00  0.3720E+00
     -5.968  0.0000E+00  0.3720E+00
     -5.859  0.0000E+00  0.3720E+00
     -5.749  0.0000E+00  0.3720E+00
     -5.639  0.0000E+00  0.3720E+00
     -5.529  0.0000E+00  0.3720E+00
     -5.419  0.0000E+00  0.3720E+00
     -5.309  0.0000E+00  0.3720E+00
     -5.199  0.0000E+00  0.3720E+00
     -5.089  0.0000E+00  0.3720E+00
     -4.980  0.0000E+00  0.3720E+00
     -4.870 -0.1044E-31  0.3720E+00
     -4.760 -0.7892E-28  0.3720E+00
     -4.650 -0.3182E-24  0.3720E+00
     -4.540 -0.6988E-21  0.3720E+00
     -4.430 -0.8358E-18  0.3720E+00
     -4.320 -0.5260E-15  0.3720E+00
     -4.210 -0.1856E-12  0.3720E+00
     -4.100 -0.3538E-10  0.3720E+00
     -3.991 -0.3642E-08  0.3720E+00
     -3.881 -0.2015E-06  0.3720E+00
     -3.771 -0.5926E-05  0.3720E+00
     -3.661 -0.9090E-04  0.3720E+00
     -3.551 -0.6938E-03  0.3719E+00
     -3.441 -0.2262E-02  0.3717E+00
     -3.331 -0.2546E-03  0.3716E+00
     -3.221  0.1766E-01  0.3736E+00
     -3.111  0.5345E-01  0.3795E+00
     -3.002  0.8633E-01  0.3889E+00
     -2.892  0.8586E-01  0.3984E+00
     -2.782  0.4697E-01  0.4035E+00
     -2.672  0.9234E-02  0.4045E+00
     -2.562 -0.2761E-02  0.4042E+00
     -2.452 -0.1812E-02  0.4040E+00
     -2.342 -0.4008E-03  0.4040E+00
     -2.232 -0.3014E-03  0.4040E+00
     -2.122 -0.1332E-02  0.4038E+00
     -2.013 -0.2136E-02  0.4036E+00
     -1.903  0.6347E-02  0.4043E+00
     -1.793  0.3282E-01  0.4079E+00
     -1.683  0.6068E-01  0.4146E+00
     -1.573  0.6910E-01  0.4222E+00
     -1.463  0.6966E-01  0.4298E+00
     -1.353  0.7162E-01  0.4377E+00
     -1.243  0.6222E-01  0.4445E+00
     -1.133  0.4474E-01  0.4494E+00
     -1.024  0.4050E-01  0.4539E+00
     -0.914  0.5167E-01  0.4596E+00
     -0.804  0.5605E-01  0.4657E+00
     -0.694  0.4254E-01  0.4704E+00
     -0.584  0.3945E-01  0.4747E+00
     -0.474  0.7477E-01  0.4829E+00
     -0.364  0.1235E+00  0.4965E+00
     -0.254  0.1371E+00  0.5116E+00
     -0.144  0.1087E+00  0.5235E+00
     -0.035  0.7496E-01  0.5318E+00
      0.075  0.6917E-01  0.5394E+00
      0.185  0.8526E-01  0.5487E+00
      0.295  0.8590E-01  0.5582E+00
      0.405  0.6860E-01  0.5657E+00
      0.515  0.7159E-01  0.5736E+00
      0.625  0.1088E+00  0.5855E+00
      0.735  0.1464E+00  0.6016E+00
      0.845  0.1496E+00  0.6181E+00
      0.954  0.1265E+00  0.6320E+00
      1.064  0.9713E-01  0.6426E+00
      1.174  0.7743E-01  0.6511E+00
      1.284  0.5888E-01  0.6576E+00
      1.394  0.2492E-01  0.6604E+00
      1.504  0.7045E-03  0.6604E+00
      1.614 -0.2873E-02  0.6601E+00
      1.724 -0.8957E-03  0.6600E+00
      1.834 -0.1144E-03  0.6600E+00
      1.943 -0.7207E-05  0.6600E+00
      2.053 -0.2367E-06  0.6600E+00
      2.163 -0.4143E-08  0.6600E+00
      2.273 -0.3905E-10  0.6600E+00
      2.383 -0.1993E-12  0.6600E+00
      2.493 -0.5496E-15  0.6600E+00
      2.603 -0.1710E-29  0.6600E+00
      2.713 -0.8916E-26  0.6600E+00
      2.823 -0.2529E-22  0.6600E+00
      2.932 -0.3896E-19  0.6600E+00
      3.042 -0.3258E-16  0.6600E+00
      3.152 -0.1426E-13  0.6600E+00
      3.262 -0.3463E-11  0.6600E+00
      3.372 -0.4517E-09  0.6600E+00
      3.482 -0.3140E-07  0.6600E+00
      3.592 -0.1149E-05  0.6600E+00
      3.702 -0.2159E-04  0.6600E+00
      3.811 -0.1972E-03  0.6600E+00
      3.921 -0.7301E-03  0.6599E+00
      4.031  0.9504E-04  0.6599E+00
      4.141  0.6948E-02  0.6607E+00
      4.251  0.1559E-01  0.6624E+00
      4.361  0.1276E-01  0.6638E+00
      4.471  0.3239E-02  0.6641E+00
      4.581 -0.7103E-03  0.6641E+00
      4.691 -0.4865E-03  0.6640E+00
      4.800 -0.1033E-03  0.6640E+00
      4.910 -0.2074E-03  0.6640E+00
      5.020 -0.1132E-02  0.6639E+00
      5.130 -0.2144E-02  0.6636E+00
      5.240  0.4853E-02  0.6641E+00
      5.350  0.2900E-01  0.6673E+00
      5.460  0.5541E-01  0.6734E+00
      5.570  0.5736E-01  0.6797E+00
      5.680  0.4266E-01  0.6844E+00
      5.789  0.4296E-01  0.6891E+00
      5.899  0.4906E-01  0.6945E+00
      6.009  0.4266E-01  0.6992E+00
      6.119  0.4849E-01  0.7045E+00
      6.229  0.6770E-01  0.7120E+00
      6.339  0.6852E-01  0.7195E+00
      6.449  0.5671E-01  0.7257E+00
      6.559  0.5833E-01  0.7322E+00
      6.669  0.6890E-01  0.7397E+00
      6.778  0.6885E-01  0.7473E+00
      6.888  0.7065E-01  0.7551E+00
      6.998  0.9316E-01  0.7653E+00
      7.108  0.1061E+00  0.7769E+00
      7.218  0.8092E-01  0.7858E+00
      7.328  0.4303E-01  0.7906E+00
      7.438  0.1498E-01  0.7922E+00
      7.548  0.7063E-03  0.7923E+00
      7.658 -0.1832E-02  0.7921E+00
      7.767 -0.6916E-03  0.7920E+00
      7.877 -0.1058E-03  0.7920E+00
      7.987 -0.7924E-05  0.7920E+00
      8.097 -0.3068E-06  0.7920E+00
      8.207 -0.6280E-08  0.7920E+00
      8.317 -0.6872E-10  0.7920E+00
      8.427 -0.4045E-12  0.7920E+00
      8.537 -0.1293E-14  0.7920E+00
      8.647  0.0000E+00  0.7920E+00
      8.756  0.0000E+00  0.7920E+00
      8.866  0.0000E+00  0.7920E+00
      8.976  0.0000E+00  0.7920E+00
      9.086  0.0000E+00  0.7920E+00
      9.196  0.0000E+00  0.7920E+00
      9.306  0.0000E+00  0.7920E+00
