       N       E                     dE             d eps       ncg     rms          rms(c)
DAV:   1     0.299492428064E+04    0.29949E+04   -0.13252E+05   432   0.137E+03
DAV:   2     0.185956445535E+03   -0.28090E+04   -0.27042E+04   441   0.384E+02
DAV:   3    -0.212563151393E+03   -0.39852E+03   -0.39480E+03   468   0.159E+02
DAV:   4    -0.234241785810E+03   -0.21679E+02   -0.21503E+02   459   0.357E+01
DAV:   5    -0.235232949109E+03   -0.99116E+00   -0.99010E+00   558   0.779E+00    0.250E+01
RMM:   6    -0.223764138206E+03    0.11469E+02   -0.20524E+01   427   0.598E+00    0.165E+01
RMM:   7    -0.223164377316E+03    0.59976E+00   -0.27447E+01   408   0.593E+00    0.861E+00
RMM:   8    -0.222861906595E+03    0.30247E+00   -0.24926E+00   414   0.319E+00    0.183E+00
RMM:   9    -0.222867127831E+03   -0.52212E-02   -0.57707E-01   498   0.158E+00    0.167E+00
RMM:  10    -0.222839130672E+03    0.27997E-01   -0.16165E-01   474   0.763E-01    0.609E-01
RMM:  11    -0.222845824910E+03   -0.66942E-02   -0.42368E-02   542   0.347E-01    0.558E-01
RMM:  12    -0.222846123566E+03   -0.29866E-03   -0.12161E-02   424   0.200E-01    0.169E-01
RMM:  13    -0.222846336061E+03   -0.21250E-03   -0.55570E-03   475   0.131E-01    0.153E-01
RMM:  14    -0.222846429203E+03   -0.93142E-04   -0.68599E-04   407   0.687E-02    0.344E-02
RMM:  15    -0.222846486190E+03   -0.56987E-04   -0.37166E-04   355   0.375E-02    0.193E-02
RMM:  16    -0.222846496298E+03   -0.10108E-04   -0.10666E-04   462   0.212E-02    0.156E-02
RMM:  17    -0.222846497894E+03   -0.15960E-05   -0.10526E-05   234   0.874E-03
   1 F= -.22284650E+03 E0= -.22284753E+03  d E =-.222846E+03
       N       E                     dE             d eps       ncg     rms          rms(c)
DAV:   1    -0.222846494933E+03    0.13658E-05   -0.65601E-06   252   0.733E-03    0.802E-03
RMM:   2    -0.222846495261E+03   -0.32857E-06   -0.20634E-06   230   0.474E-03
   2 F= -.22284650E+03 E0= -.22284753E+03  d E =0.263326E-05
       N       E                     dE             d eps       ncg     rms          rms(c)
DAV:   1    -0.222846495612E+03   -0.67961E-06   -0.82218E-07   270   0.381E-03    0.116E-03
RMM:   2    -0.222846495553E+03    0.59455E-07   -0.26235E-07   164   0.216E-03
   3 F= -.22284650E+03 E0= -.22284753E+03  d E =-.291580E-06
       N       E                     dE             d eps       ncg     rms          rms(c)
DAV:   1    -0.222846495536E+03    0.75830E-07   -0.22040E-07   279   0.169E-03    0.864E-04
RMM:   2    -0.222846495475E+03    0.61347E-07   -0.66271E-09    64   0.116E-03
   4 F= -.22284650E+03 E0= -.22284753E+03  d E =0.777218E-07
       N       E                     dE             d eps       ncg     rms          rms(c)
DAV:   1    -0.222846495406E+03    0.13029E-06   -0.99785E-08   270   0.129E-03    0.393E-04
RMM:   2    -0.222846495421E+03   -0.14985E-07    0.24563-186    47   0.780E-04
   5 F= -.22284650E+03 E0= -.22284753E+03  d E =0.539549E-07
       N       E                     dE             d eps       ncg     rms          rms(c)
DAV:   1    -0.222846495437E+03   -0.31363E-07   -0.44713E-08   252   0.933E-04    0.194E-04
RMM:   2    -0.222846495434E+03    0.32196E-08    0.10623-186    40   0.552E-04
   6 F= -.22284650E+03 E0= -.22284753E+03  d E =-.131586E-07
       N       E                     dE             d eps       ncg     rms          rms(c)
DAV:   1    -0.222846495435E+03    0.25357E-08   -0.21472E-08   252   0.636E-04    0.149E-04
RMM:   2    -0.222846495434E+03    0.90222E-09    0.57146-187    30   0.417E-04
   7 F= -.22284650E+03 E0= -.22284753E+03  d E =0.218279E-09
       N       E                     dE             d eps       ncg     rms          rms(c)
DAV:   1    -0.222846495435E+03   -0.34925E-09   -0.12669E-08   225   0.508E-04    0.935E-05
RMM:   2    -0.222846495433E+03    0.21973E-08    0.35683-187    26   0.323E-04
   8 F= -.22284650E+03 E0= -.22284753E+03  d E =0.945874E-09
       N       E                     dE             d eps       ncg     rms          rms(c)
DAV:   1    -0.222846495431E+03    0.39072E-08   -0.78168E-09   225   0.408E-04    0.696E-05
RMM:   2    -0.222846495432E+03   -0.10477E-08    0.80469-245    21   0.245E-04
   9 F= -.22284650E+03 E0= -.22284753E+03  d E =0.662112E-09
       N       E                     dE             d eps       ncg     rms          rms(c)
DAV:   1    -0.222846495434E+03   -0.28704E-08   -0.47397E-09   225   0.316E-04    0.511E-05
RMM:   2    -0.222846495432E+03    0.17681E-08    0.10002-275    15   0.197E-04
  10 F= -.22284650E+03 E0= -.22284753E+03  d E =-.545697E-10
       N       E                     dE             d eps       ncg     rms          rms(c)
DAV:   1    -0.222846495431E+03    0.33106E-08   -0.29954E-09   225   0.261E-04    0.392E-05
RMM:   2    -0.222846495432E+03   -0.14552E-08    0.47750-276    12   0.154E-04
  11 F= -.22284650E+03 E0= -.22284753E+03  d E =0.873115E-10
       N       E                     dE             d eps       ncg     rms          rms(c)
DAV:   1    -0.222846495433E+03   -0.17353E-08   -0.19741E-09   225   0.208E-04    0.302E-05
RMM:   2    -0.222846495432E+03    0.42564E-09    0.00000E+00     9   0.124E-04
  12 F= -.22284650E+03 E0= -.22284753E+03  d E =0.145519E-09
       N       E                     dE             d eps       ncg     rms          rms(c)
DAV:   1    -0.222846495432E+03    0.90222E-09   -0.12954E-09   225   0.170E-04    0.237E-05
RMM:   2    -0.222846495432E+03   -0.28376E-09    0.00000E+00     5   0.989E-05
  13 F= -.22284650E+03 E0= -.22284753E+03  d E =0.192813E-09
       N       E                     dE             d eps       ncg     rms          rms(c)
DAV:   1    -0.222846495432E+03    0.12369E-09   -0.78583E-10   225   0.138E-04    0.190E-05
RMM:   2    -0.222846495432E+03   -0.50568E-09    0.00000E+00     5   0.803E-05
  14 F= -.22284650E+03 E0= -.22284753E+03  d E =-.982254E-10
       N       E                     dE             d eps       ncg     rms          rms(c)
DAV:   1    -0.222846495432E+03   -0.57116E-09   -0.67342E-10   225   0.114E-04    0.151E-05
RMM:   2    -0.222846495432E+03    0.22192E-09    0.00000E+00     3   0.646E-05
  15 F= -.22284650E+03 E0= -.22284753E+03  d E =0.156433E-09
       N       E                     dE             d eps       ncg     rms          rms(c)
DAV:   1    -0.222846495432E+03   -0.14552E-09   -0.35956E-10   225   0.922E-05    0.123E-05
RMM:   2    -0.222846495432E+03    0.56389E-09    0.00000E+00     3   0.528E-05
  16 F= -.22284650E+03 E0= -.22284753E+03  d E =0.196451E-09
       N       E                     dE             d eps       ncg     rms          rms(c)
DAV:   1    -0.222846495432E+03    0.71668E-09   -0.30822E-10   225   0.761E-05    0.989E-06
RMM:   2    -0.222846495432E+03   -0.46930E-09    0.00000E+00     2   0.428E-05
  17 F= -.22284650E+03 E0= -.22284753E+03  d E =-.316504E-09
       N       E                     dE             d eps       ncg     rms          rms(c)
DAV:   1    -0.222846495432E+03   -0.35288E-09   -0.23689E-10   225   0.621E-05    0.814E-06
RMM:   2    -0.222846495432E+03   -0.83674E-10    0.00000E+00     2   0.351E-05
  18 F= -.22284650E+03 E0= -.22284753E+03  d E =0.327418E-10
       N       E                     dE             d eps       ncg     rms          rms(c)
DAV:   1    -0.222846495433E+03   -0.72760E-09   -0.25230E-10   207   0.514E-05    0.660E-06
RMM:   2    -0.222846495432E+03    0.60027E-09    0.00000E+00     1   0.286E-05
  19 F= -.22284650E+03 E0= -.22284753E+03  d E =-.436557E-10
       N       E                     dE             d eps       ncg     rms          rms(c)
DAV:   1    -0.222846495432E+03    0.17099E-09   -0.22161E-10   198   0.421E-05    0.546E-06
RMM:   2    -0.222846495432E+03    0.55297E-09    0.00000E+00     1   0.235E-05
  20 F= -.22284650E+03 E0= -.22284753E+03  d E =0.123691E-09
       N       E                     dE             d eps       ncg     rms          rms(c)
DAV:   1    -0.222846495432E+03    0.14552E-10   -0.34279E-11   198   0.349E-05    0.445E-06
RMM:   2    -0.222846495432E+03    0.66575E-09    0.00000E+00     1   0.192E-05
  21 F= -.22284650E+03 E0= -.22284753E+03  d E =0.127329E-09
       N       E                     dE             d eps       ncg     rms          rms(c)
DAV:   1    -0.222846495433E+03   -0.52751E-09    0.20498E-11   198   0.287E-05    0.371E-06
RMM:   2    -0.222846495432E+03    0.87675E-09    0.00000E+00     1   0.159E-05
  22 F= -.22284650E+03 E0= -.22284753E+03  d E =-.316504E-09
       N       E                     dE             d eps       ncg     rms          rms(c)
DAV:   1    -0.222846495432E+03    0.11132E-08    0.43252E-11   198   0.239E-05    0.303E-06
RMM:   2    -0.222846495432E+03   -0.11278E-09    0.00000E+00     1   0.130E-05
  23 F= -.22284650E+03 E0= -.22284753E+03  d E =0.123691E-09
       N       E                     dE             d eps       ncg     rms          rms(c)
DAV:   1    -0.222846495433E+03   -0.67303E-09    0.62101E-11   198   0.198E-05    0.253E-06
RMM:   2    -0.222846495432E+03    0.65120E-09    0.00000E+00     1   0.108E-05
  24 F= -.22284650E+03 E0= -.22284753E+03  d E =0.909495E-10
       N       E                     dE             d eps       ncg     rms          rms(c)
DAV:   1    -0.222846495432E+03    0.15643E-09    0.10530E-10   198   0.165E-05    0.209E-06
RMM:   2    -0.222846495432E+03    0.64392E-09    0.00000E+00     1   0.887E-06
  25 F= -.22284650E+03 E0= -.22284753E+03  d E =0.149157E-09
       N       E                     dE             d eps       ncg     rms          rms(c)
DAV:   1    -0.222846495432E+03    0.50932E-09   -0.22080E-11   198   0.137E-05    0.175E-06
RMM:   2    -0.222846495432E+03    0.14552E-10    0.00000E+00     1   0.737E-06
  26 F= -.22284650E+03 E0= -.22284753E+03  d E =-.120053E-09
       N       E                     dE             d eps       ncg     rms          rms(c)
DAV:   1    -0.222846495433E+03   -0.62937E-09    0.22466E-10   198   0.115E-05    0.144E-06
RMM:   2    -0.222846495432E+03    0.77125E-09    0.00000E+00     1   0.608E-06
  27 F= -.22284650E+03 E0= -.22284753E+03  d E =0.127329E-09
       N       E                     dE             d eps       ncg     rms          rms(c)
DAV:   1    -0.222846495432E+03    0.34561E-09    0.51510E-11   198   0.951E-06    0.121E-06
RMM:   2    -0.222846495432E+03    0.40018E-09    0.00000E+00     1   0.507E-06
  28 F= -.22284650E+03 E0= -.22284753E+03  d E =-.254659E-10
       N       E                     dE             d eps       ncg     rms          rms(c)
DAV:   1    -0.222846495431E+03    0.89858E-09    0.11593E-10   198   0.798E-06    0.100E-06
RMM:   2    -0.222846495432E+03   -0.53842E-09    0.00000E+00     1   0.420E-06
  29 F= -.22284650E+03 E0= -.22284753E+03  d E =-.400178E-10
       N       E                     dE             d eps       ncg     rms          rms(c)
DAV:   1    -0.222846495432E+03   -0.12078E-08   -0.78285E-11   198   0.667E-06    0.846E-07
RMM:   2    -0.222846495432E+03    0.41109E-09    0.00000E+00     1   0.351E-06
  30 F= -.22284650E+03 E0= -.22284753E+03  d E =-.258296E-09
       N       E                     dE             d eps       ncg     rms          rms(c)
DAV:   1    -0.222846495431E+03    0.10768E-08    0.75656E-12   198   0.563E-06    0.703E-07
RMM:   2    -0.222846495432E+03   -0.57844E-09    0.00000E+00     1   0.291E-06
  31 F= -.22284650E+03 E0= -.22284753E+03  d E =0.873115E-10
       N       E                     dE             d eps       ncg     rms          rms(c)
DAV:   1    -0.222846495433E+03   -0.12697E-08   -0.70453E-11   198   0.469E-06    0.592E-07
RMM:   2    -0.222846495432E+03    0.72760E-09    0.00000E+00     1   0.244E-06
  32 F= -.22284650E+03 E0= -.22284753E+03  d E =0.363798E-10
       N       E                     dE             d eps       ncg     rms          rms(c)
DAV:   1    -0.222846495431E+03    0.16589E-08   -0.66839E-11   198   0.394E-06    0.493E-07
RMM:   2    -0.222846495432E+03   -0.95315E-09    0.00000E+00     1   0.203E-06
  33 F= -.22284650E+03 E0= -.22284753E+03  d E =-.218279E-10
       N       E                     dE             d eps       ncg     rms          rms(c)
DAV:   1    -0.222846495433E+03   -0.17571E-08    0.25877E-10   198   0.329E-06    0.417E-07
RMM:   2    -0.222846495432E+03    0.98953E-09    0.00000E+00     1   0.170E-06
  34 F= -.22284650E+03 E0= -.22284753E+03  d E =0.185537E-09
       N       E                     dE             d eps       ncg     rms          rms(c)
DAV:   1    -0.222846495432E+03    0.82218E-09    0.30308E-11   198   0.278E-06    0.348E-07
RMM:   2    -0.222846495432E+03   -0.25466E-10    0.00000E+00     1   0.142E-06
  35 F= -.22284650E+03 E0= -.22284753E+03  d E =-.192813E-09
       N       E                     dE             d eps       ncg     rms          rms(c)
DAV:   1    -0.222846495431E+03    0.82582E-09   -0.36398E-11   198   0.232E-06    0.294E-07
RMM:   2    -0.222846495432E+03   -0.70577E-09    0.00000E+00     1   0.119E-06
  36 F= -.22284650E+03 E0= -.22284753E+03  d E =0.145519E-09
       N       E                     dE             d eps       ncg     rms          rms(c)
DAV:   1    -0.222846495432E+03   -0.64028E-09    0.53003E-11   198   0.196E-06    0.246E-07
RMM:   2    -0.222846495432E+03   -0.12369E-09    0.00000E+00     1   0.994E-07
  37 F= -.22284650E+03 E0= -.22284753E+03  d E =-.582077E-10
       N       E                     dE             d eps       ncg     rms          rms(c)
DAV:   1    -0.222846495432E+03    0.80036E-10    0.13025E-10   198   0.164E-06    0.208E-07
RMM:   2    -0.222846495432E+03   -0.24738E-09    0.00000E+00     1   0.835E-07
  38 F= -.22284650E+03 E0= -.22284753E+03  d E =-.436557E-10
       N       E                     dE             d eps       ncg     rms          rms(c)
DAV:   1    -0.222846495433E+03   -0.87311E-09   -0.80412E-11   198   0.138E-06    0.174E-07
RMM:   2    -0.222846495432E+03    0.55661E-09    0.00000E+00     1   0.698E-07
  39 F= -.22284650E+03 E0= -.22284753E+03  d E =-.691216E-10
       N       E                     dE             d eps       ncg     rms          rms(c)
DAV:   1    -0.222846495433E+03   -0.18190E-10    0.50086E-11   198   0.116E-06    0.148E-07
RMM:   2    -0.222846495432E+03    0.69849E-09    0.00000E+00     1   0.587E-07
  40 F= -.22284650E+03 E0= -.22284753E+03  d E =0.123691E-09
       N       E                     dE             d eps       ncg     rms          rms(c)
DAV:   1    -0.222846495432E+03    0.27285E-09    0.37277E-11   198   0.982E-07    0.124E-07
RMM:   2    -0.222846495432E+03    0.34561E-09    0.00000E+00     1   0.492E-07
  41 F= -.22284650E+03 E0= -.22284753E+03  d E =-.800355E-10
       N       E                     dE             d eps       ncg     rms          rms(c)
DAV:   1    -0.222846495432E+03    0.24738E-09    0.10173E-11   198   0.823E-07    0.105E-07
RMM:   2    -0.222846495432E+03    0.17462E-09    0.00000E+00     1   0.414E-07
  42 F= -.22284650E+03 E0= -.22284753E+03  d E =0.763976E-10
       N       E                     dE             d eps       ncg     rms          rms(c)
DAV:   1    -0.222846495432E+03    0.87311E-10   -0.77544E-11   198   0.699E-07    0.885E-08
RMM:   2    -0.222846495432E+03   -0.21828E-10    0.00000E+00     1   0.347E-07
  43 F= -.22284650E+03 E0= -.22284753E+03  d E =-.109139E-09
       N       E                     dE             d eps       ncg     rms          rms(c)
DAV:   1    -0.222846495431E+03    0.62209E-09   -0.82402E-11   198   0.585E-07    0.748E-08
RMM:   2    -0.222846495432E+03   -0.56025E-09    0.00000E+00     1   0.293E-07
  44 F= -.22284650E+03 E0= -.22284753E+03  d E =0.836735E-10
       N       E                     dE             d eps       ncg     rms          rms(c)
DAV:   1    -0.222846495433E+03   -0.11605E-08   -0.12650E-10   198   0.494E-07    0.626E-08
RMM:   2    -0.222846495432E+03    0.52023E-09    0.00000E+00     1   0.246E-07
  45 F= -.22284650E+03 E0= -.22284753E+03  d E =-.800355E-10
       N       E                     dE             d eps       ncg     rms          rms(c)
DAV:   1    -0.222846495432E+03    0.11278E-09   -0.14603E-10   198   0.416E-07    0.536E-08
RMM:   2    -0.222846495432E+03    0.33469E-09    0.00000E+00     1   0.207E-07
  46 F= -.22284650E+03 E0= -.22284753E+03  d E =-.727596E-10
       N       E                     dE             d eps       ncg     rms          rms(c)
DAV:   1    -0.222846495432E+03    0.29831E-09   -0.39414E-11   198   0.353E-07    0.448E-08
RMM:   2    -0.222846495432E+03    0.28012E-09    0.00000E+00     1   0.174E-07
  47 F= -.22284650E+03 E0= -.22284753E+03  d E =0.243745E-09
       N       E                     dE             d eps       ncg     rms          rms(c)
DAV:   1    -0.222846495432E+03    0.18190E-10   -0.45845E-11   198   0.294E-07    0.379E-08
RMM:   2    -0.222846495432E+03    0.22555E-09    0.00000E+00     1   0.147E-07
  48 F= -.22284650E+03 E0= -.22284753E+03  d E =-.363798E-10
       N       E                     dE             d eps       ncg     rms          rms(c)
DAV:   1    -0.222846495432E+03   -0.33106E-09    0.20690E-11   198   0.251E-07    0.323E-08
RMM:   2    -0.222846495432E+03    0.64756E-09    0.00000E+00     1   0.124E-07
  49 F= -.22284650E+03 E0= -.22284753E+03  d E =0.909495E-10
       N       E                     dE             d eps       ncg     rms          rms(c)
DAV:   1    -0.222846495432E+03    0.65484E-10    0.72782E-12   198   0.217E-07    0.280E-08
RMM:   2    -0.222846495432E+03    0.54206E-09    0.00000E+00     0   0.105E-07
  50 F= -.22284650E+03 E0= -.22284753E+03  d E =-.400178E-10
       N       E                     dE             d eps       ncg     rms          rms(c)
DAV:   1    -0.222846495432E+03    0.83674E-10    0.21813E-11   198   0.185E-07    0.234E-08
RMM:   2    -0.222846495432E+03    0.31287E-09    0.00000E+00     0   0.882E-08
  51 F= -.22284650E+03 E0= -.22284753E+03  d E =-.145519E-09
       N       E                     dE             d eps       ncg     rms          rms(c)
DAV:   1    -0.222846495432E+03    0.74579E-09   -0.47984E-11   198   0.152E-07    0.196E-08
RMM:   2    -0.222846495432E+03   -0.17099E-09    0.00000E+00     0   0.748E-08
  52 F= -.22284650E+03 E0= -.22284753E+03  d E =0.261934E-09
       N       E                     dE             d eps       ncg     rms          rms(c)
DAV:   1    -0.222846495433E+03   -0.10768E-08    0.33611E-11   198   0.129E-07    0.166E-08
RMM:   2    -0.222846495432E+03    0.68030E-09    0.00000E+00     0   0.631E-08
  53 F= -.22284650E+03 E0= -.22284753E+03  d E =-.225555E-09
       N       E                     dE             d eps       ncg     rms          rms(c)
DAV:   1    -0.222846495431E+03    0.15243E-08    0.92280E-11   198   0.110E-07    0.144E-08
RMM:   2    -0.222846495432E+03   -0.81855E-09    0.00000E+00     0   0.535E-08
  54 F= -.22284650E+03 E0= -.22284753E+03  d E =0.254659E-10
       N       E                     dE             d eps       ncg     rms          rms(c)
DAV:   1    -0.222846495432E+03   -0.81855E-09    0.91797E-11   198   0.950E-08    0.122E-08
RMM:   2    -0.222846495432E+03    0.61846E-10    0.00000E+00     0   0.451E-08
  55 F= -.22284650E+03 E0= -.22284753E+03  d E =0.618456E-10
       N       E                     dE             d eps       ncg     rms          rms(c)
DAV:   1    -0.222846495431E+03    0.11642E-08    0.62403E-11   198   0.782E-08    0.101E-08
RMM:   2    -0.222846495432E+03   -0.10186E-08    0.00000E+00     0   0.382E-08
  56 F= -.22284650E+03 E0= -.22284753E+03  d E =0.836735E-10
       N       E                     dE             d eps       ncg     rms          rms(c)
DAV:   1    -0.222846495432E+03   -0.17026E-08    0.14023E-10   198   0.653E-08    0.855E-09
RMM:   2    -0.222846495432E+03    0.49840E-09    0.00000E+00     0   0.323E-08
  57 F= -.22284650E+03 E0= -.22284753E+03  d E =-.185537E-09
       N       E                     dE             d eps       ncg     rms          rms(c)
DAV:   1    -0.222846495432E+03    0.32742E-10    0.68903E-11   198   0.539E-08    0.715E-09
RMM:   2    -0.222846495432E+03    0.44383E-09    0.00000E+00     0   0.272E-08
  58 F= -.22284650E+03 E0= -.22284753E+03  d E =-.218279E-10
       N       E                     dE             d eps       ncg     rms          rms(c)
DAV:   1    -0.222846495432E+03    0.30559E-09    0.10585E-10   198   0.440E-08    0.584E-09
RMM:   2    -0.222846495432E+03    0.33833E-09    0.00000E+00     0   0.228E-08
  59 F= -.22284650E+03 E0= -.22284753E+03  d E =0.200089E-09
       N       E                     dE             d eps       ncg     rms          rms(c)
DAV:   1    -0.222846495432E+03    0.52751E-09    0.15382E-10   198   0.414E-08    0.572E-09
RMM:   2    -0.222846495432E+03   -0.22919E-09    0.00000E+00     0   0.195E-08
  60 F= -.22284650E+03 E0= -.22284753E+03  d E =-.400178E-10
       N       E                     dE             d eps       ncg     rms          rms(c)
DAV:   1    -0.222846495431E+03    0.25830E-09    0.37275E-11   198   0.367E-08    0.458E-09
RMM:   2    -0.222846495432E+03   -0.52023E-09    0.00000E+00     0   0.163E-08
  61 F= -.22284650E+03 E0= -.22284753E+03  d E =-.327418E-10
       N       E                     dE             d eps       ncg     rms          rms(c)
DAV:   1    -0.222846495431E+03    0.10914E-10    0.10999E-10   198   0.261E-08    0.335E-09
RMM:   2    -0.222846495432E+03   -0.46930E-09    0.00000E+00     0   0.138E-08
  62 F= -.22284650E+03 E0= -.22284753E+03  d E =0.618456E-10
       N       E                     dE             d eps       ncg     rms          rms(c)
DAV:   1    -0.222846495431E+03   -0.13461E-09    0.15524E-10   198   0.231E-08    0.333E-09
RMM:   2    -0.222846495432E+03   -0.29104E-09    0.00000E+00     0   0.118E-08
  63 F= -.22284650E+03 E0= -.22284753E+03  d E =0.436557E-10
       N       E                     dE             d eps       ncg     rms          rms(c)
DAV:   1    -0.222846495432E+03   -0.50204E-09    0.32791E-12   198   0.203E-08    0.261E-09
RMM:   2    -0.222846495432E+03    0.65484E-10    0.00000E+00     0   0.973E-09
  64 F= -.22284650E+03 E0= -.22284753E+03  d E =-.145519E-09
       N       E                     dE             d eps       ncg     rms          rms(c)
DAV:   1    -0.222846495432E+03    0.22919E-09    0.16971E-10   198   0.192E-08    0.263E-09
RMM:   2    -0.222846495432E+03   -0.25466E-10    0.00000E+00     0   0.851E-09
  65 F= -.22284650E+03 E0= -.22284753E+03  d E =0.138243E-09
       N       E                     dE             d eps       ncg     rms          rms(c)
DAV:   1    -0.222846495431E+03    0.75306E-09    0.21587E-10   198   0.166E-08    0.205E-09
RMM:   2    -0.222846495432E+03   -0.93132E-09    0.00000E+00     0   0.710E-09
  66 F= -.22284650E+03 E0= -.22284753E+03  d E =-.152795E-09
       N       E                     dE             d eps       ncg     rms          rms(c)
DAV:   1    -0.222846495432E+03   -0.81855E-09    0.45349E-11   198   0.148E-08    0.200E-09
RMM:   2    -0.222846495432E+03   -0.54570E-10    0.00000E+00     0   0.624E-09
  67 F= -.22284650E+03 E0= -.22284753E+03  d E =0.582077E-10
       N       E                     dE             d eps       ncg     rms          rms(c)
DAV:   1    -0.222846495432E+03   -0.61846E-10    0.96893E-12   198   0.994E-09    0.120E-09
RMM:   2    -0.222846495432E+03    0.94587E-10    0.00000E+00     0   0.509E-09
  68 F= -.22284650E+03 E0= -.22284753E+03  d E =0.873115E-10
       N       E                     dE             d eps       ncg     rms          rms(c)
DAV:   1    -0.222846495433E+03   -0.85856E-09    0.17028E-10   198   0.948E-09    0.148E-09
RMM:   2    -0.222846495432E+03    0.83674E-09    0.00000E+00     0   0.453E-09
  69 F= -.22284650E+03 E0= -.22284753E+03  d E =-.116415E-09
       N       E                     dE             d eps       ncg     rms          rms(c)
DAV:   1    -0.222846495432E+03    0.93860E-09    0.22237E-10   198   0.807E-09    0.102E-09
RMM:   2    -0.222846495432E+03   -0.13097E-09    0.00000E+00     0   0.365E-09
  70 F= -.22284650E+03 E0= -.22284753E+03  d E =-.291038E-10
       N       E                     dE             d eps       ncg     rms          rms(c)
DAV:   1    -0.222846495432E+03    0.50932E-10    0.15255E-10   198   0.465E-09    0.727E-10
RMM:   2    -0.222846495432E+03   -0.14188E-09    0.00000E+00     0   0.311E-09
  71 F= -.22284650E+03 E0= -.22284753E+03  d E =0.400178E-10
       N       E                     dE             d eps       ncg     rms          rms(c)
DAV:   1    -0.222846495432E+03   -0.30559E-09    0.14758E-10   198   0.373E-09    0.656E-10
RMM:   2    -0.222846495432E+03    0.72760E-10    0.00000E+00     0   0.245E-09
  72 F= -.22284650E+03 E0= -.22284753E+03  d E =-.909495E-10
       N       E                     dE             d eps       ncg     rms          rms(c)
DAV:   1    -0.222846495431E+03    0.49840E-09    0.12495E-10   198   0.325E-09    0.548E-10
RMM:   2    -0.222846495432E+03   -0.33106E-09    0.00000E+00     0   0.198E-09
  73 F= -.22284650E+03 E0= -.22284753E+03  d E =0.945874E-10
       N       E                     dE             d eps       ncg     rms          rms(c)
DAV:   1    -0.222846495431E+03    0.65484E-10    0.18070E-10   198   0.246E-09    0.480E-10
RMM:   2    -0.222846495432E+03   -0.48021E-09    0.00000E+00     0   0.163E-09
  74 F= -.22284650E+03 E0= -.22284753E+03  d E =-.836735E-10
       N       E                     dE             d eps       ncg     rms          rms(c)
DAV:   1    -0.222846495431E+03    0.69122E-09    0.15559E-10   198   0.201E-09    0.419E-10
RMM:   2    -0.222846495432E+03   -0.11241E-08    0.00000E+00     0   0.132E-09
  75 F= -.22284650E+03 E0= -.22284753E+03  d E =0.472937E-10
       N       E                     dE             d eps       ncg     rms          rms(c)
DAV:   1    -0.222846495432E+03   -0.12333E-08    0.47518E-11   198   0.158E-09    0.371E-10
RMM:   2    -0.222846495432E+03    0.30195E-09    0.00000E+00     0   0.107E-09
  76 F= -.22284650E+03 E0= -.22284753E+03  d E =0.192813E-09
       N       E                     dE             d eps       ncg     rms          rms(c)
DAV:   1    -0.222846495431E+03    0.56752E-09   -0.49568E-11   198   0.126E-09    0.293E-10
RMM:   2    -0.222846495432E+03   -0.51659E-09    0.00000E+00     0   0.857E-10
  77 F= -.22284650E+03 E0= -.22284753E+03  d E =-.251021E-09
       N       E                     dE             d eps       ncg     rms          rms(c)
DAV:   1    -0.222846495432E+03   -0.65484E-09    0.10736E-10   198   0.103E-09    0.256E-10
RMM:   2    -0.222846495432E+03    0.28740E-09    0.00000E+00     0   0.680E-10
  78 F= -.22284650E+03 E0= -.22284753E+03  d E =0.149157E-09
       N       E                     dE             d eps       ncg     rms          rms(c)
DAV:   1    -0.222846495432E+03    0.26193E-09    0.90342E-11   198   0.819E-10    0.287E-10
RMM:   2    -0.222846495432E+03   -0.80036E-10    0.00000E+00     0   0.560E-10
  79 F= -.22284650E+03 E0= -.22284753E+03  d E =-.105501E-09
       N       E                     dE             d eps       ncg     rms          rms(c)
DAV:   1    -0.222846495431E+03    0.45839E-09    0.68677E-11   198   0.724E-10    0.348E-10
RMM:   2    -0.222846495432E+03   -0.56025E-09    0.00000E+00     0   0.498E-10
  80 F= -.22284650E+03 E0= -.22284753E+03  d E =-.218279E-10
       N       E                     dE             d eps       ncg     rms          rms(c)
DAV:   1    -0.222846495431E+03   -0.50932E-10    0.32178E-11   198   0.631E-10    0.511E-10
RMM:   2    -0.222846495432E+03   -0.32014E-09    0.00000E+00     0   0.486E-10
  81 F= -.22284650E+03 E0= -.22284753E+03  d E =0.189175E-09
       N       E                     dE             d eps       ncg     rms          rms(c)
DAV:   1    -0.222846495431E+03   -0.21828E-10    0.14870E-10   198   0.609E-10    0.524E-10
RMM:   2    -0.222846495432E+03   -0.30923E-09    0.00000E+00     0   0.428E-10
  82 F= -.22284650E+03 E0= -.22284753E+03  d E =-.109139E-10
       N       E                     dE             d eps       ncg     rms          rms(c)
DAV:   1    -0.222846495432E+03   -0.10295E-08   -0.17280E-11   198   0.567E-10    0.259E-10
RMM:   2    -0.222846495432E+03    0.65847E-09    0.00000E+00     0   0.296E-10
  83 F= -.22284650E+03 E0= -.22284753E+03  d E =-.618456E-10
       N       E                     dE             d eps       ncg     rms          rms(c)
DAV:   1    -0.222846495431E+03    0.10004E-08   -0.36599E-12   198   0.363E-10    0.227E-10
RMM:   2    -0.222846495432E+03   -0.26921E-09    0.00000E+00     0   0.239E-10
  84 F= -.22284650E+03 E0= -.22284753E+03  d E =0.727596E-10
       N       E                     dE             d eps       ncg     rms          rms(c)
DAV:   1    -0.222846495432E+03   -0.79672E-09    0.55102E-11   198   0.288E-10    0.256E-10
RMM:   2    -0.222846495432E+03    0.37107E-09    0.00000E+00     0   0.207E-10
  85 F= -.22284650E+03 E0= -.22284753E+03  d E =-.156433E-09
       N       E                     dE             d eps       ncg     rms          rms(c)
DAV:   1    -0.222846495432E+03    0.48385E-09    0.91818E-11   198   0.260E-10    0.311E-10
RMM:   2    -0.222846495432E+03   -0.10550E-09    0.00000E+00     0   0.207E-10
  86 F= -.22284650E+03 E0= -.22284753E+03  d E =0.727596E-11
       N       E                     dE             d eps       ncg     rms          rms(c)
DAV:   1    -0.222846495432E+03   -0.26557E-09   -0.28583E-11   198   0.270E-10    0.392E-10
RMM:   2    -0.222846495432E+03    0.30195E-09    0.00000E+00     0   0.215E-10
  87 F= -.22284650E+03 E0= -.22284753E+03  d E =0.141881E-09
       N       E                     dE             d eps       ncg     rms          rms(c)
DAV:   1    -0.222846495432E+03    0.20009E-09    0.47608E-11   198   0.266E-10    0.301E-10
RMM:   2    -0.222846495432E+03   -0.36380E-11    0.00000E+00     0   0.175E-10
  88 F= -.22284650E+03 E0= -.22284753E+03  d E =-.105501E-09
       N       E                     dE             d eps       ncg     rms          rms(c)
DAV:   1    -0.222846495432E+03   -0.42564E-09    0.10179E-10   198   0.215E-10    0.261E-10
RMM:   2    -0.222846495432E+03    0.50204E-09    0.00000E+00     0   0.133E-10
  89 F= -.22284650E+03 E0= -.22284753E+03  d E =0.800355E-10
       N       E                     dE             d eps       ncg     rms          rms(c)
DAV:   1    -0.222846495430E+03    0.18663E-08    0.69688E-11   198   0.163E-10    0.291E-10
RMM:   2    -0.222846495432E+03   -0.14770E-08    0.00000E+00     0   0.119E-10
  90 F= -.22284650E+03 E0= -.22284753E+03  d E =-.112777E-09
       N       E                     dE             d eps       ncg     rms          rms(c)
DAV:   1    -0.222846495432E+03   -0.19827E-08    0.14807E-10   198   0.168E-10    0.297E-10
RMM:   2    -0.222846495432E+03    0.49113E-09    0.00000E+00     0   0.148E-10
  91 F= -.22284650E+03 E0= -.22284753E+03  d E =-.145519E-10
       N       E                     dE             d eps       ncg     rms          rms(c)
DAV:   1    -0.222846495432E+03    0.36744E-09   -0.92268E-11   198   0.199E-10    0.293E-10
RMM:   2    -0.222846495432E+03    0.22555E-09    0.00000E+00     0   0.125E-10
  92 F= -.22284650E+03 E0= -.22284753E+03  d E =0.101863E-09
       N       E                     dE             d eps       ncg     rms          rms(c)
DAV:   1    -0.222846495432E+03   -0.42564E-09    0.11937E-10   198   0.160E-10    0.282E-10
RMM:   2    -0.222846495432E+03    0.72396E-09    0.00000E+00     0   0.124E-10
  93 F= -.22284650E+03 E0= -.22284753E+03  d E =0.727596E-10
       N       E                     dE             d eps       ncg     rms          rms(c)
DAV:   1    -0.222846495432E+03    0.48021E-09   -0.40776E-11   198   0.185E-10    0.331E-10
RMM:   2    -0.222846495432E+03    0.15280E-09    0.00000E+00     0   0.146E-10
  94 F= -.22284650E+03 E0= -.22284753E+03  d E =-.909495E-10
       N       E                     dE             d eps       ncg     rms          rms(c)
DAV:   1    -0.222846495431E+03    0.98953E-09    0.10824E-10   198   0.204E-10    0.367E-10
RMM:   2    -0.222846495432E+03   -0.81491E-09    0.00000E+00     0   0.160E-10
  95 F= -.22284650E+03 E0= -.22284753E+03  d E =0.218279E-10
       N       E                     dE             d eps       ncg     rms          rms(c)
DAV:   1    -0.222846495432E+03   -0.98589E-09   -0.11393E-11   198   0.227E-10    0.229E-10
RMM:   2    -0.222846495432E+03    0.14188E-09    0.00000E+00     0   0.902E-11
  96 F= -.22284650E+03 E0= -.22284753E+03  d E =-.291038E-10
       N       E                     dE             d eps       ncg     rms          rms(c)
DAV:   1    -0.222846495432E+03   -0.38926E-09    0.47750E-11   198   0.127E-10    0.257E-10
RMM:   2    -0.222846495432E+03    0.58935E-09    0.00000E+00     0   0.967E-11
  97 F= -.22284650E+03 E0= -.22284753E+03  d E =0.582077E-10
       N       E                     dE             d eps       ncg     rms          rms(c)
DAV:   1    -0.222846495431E+03    0.11387E-08    0.39011E-11   198   0.141E-10    0.246E-10
RMM:   2    -0.222846495432E+03   -0.63665E-09    0.00000E+00     0   0.908E-11
  98 F= -.22284650E+03 E0= -.22284753E+03  d E =-.873115E-10
       N       E                     dE             d eps       ncg     rms          rms(c)
DAV:   1    -0.222846495432E+03   -0.52751E-09    0.10679E-10   198   0.133E-10    0.248E-10
RMM:   2    -0.222846495432E+03   -0.98225E-10    0.00000E+00     0   0.967E-11
  99 F= -.22284650E+03 E0= -.22284753E+03  d E =0.109139E-10
       N       E                     dE             d eps       ncg     rms          rms(c)
DAV:   1    -0.222846495431E+03    0.48385E-09    0.20063E-10   198   0.125E-10    0.287E-10
RMM:   2    -0.222846495432E+03   -0.52023E-09    0.00000E+00     0   0.119E-10
 100 F= -.22284650E+03 E0= -.22284753E+03  d E =0.618456E-10
       N       E                     dE             d eps       ncg     rms          rms(c)
DAV:   1    -0.222846495431E+03   -0.17099E-09    0.57163E-11   198   0.180E-10    0.304E-10
RMM:   2    -0.222846495432E+03   -0.28012E-09    0.00000E+00     0   0.103E-10
 101 F= -.22284650E+03 E0= -.22284753E+03  d E =0.691216E-10
       N       E                     dE             d eps       ncg     rms          rms(c)
DAV:   1    -0.222846495432E+03   -0.18190E-09    0.90920E-11   198   0.167E-10    0.277E-10
RMM:   2    -0.222846495432E+03   -0.25466E-09    0.00000E+00     0   0.945E-11
 102 F= -.22284650E+03 E0= -.22284753E+03  d E =-.156433E-09
       N       E                     dE             d eps       ncg     rms          rms(c)
DAV:   1    -0.222846495433E+03   -0.97498E-09   -0.27363E-11   198   0.151E-10    0.188E-10
RMM:   2    -0.222846495432E+03    0.88767E-09    0.00000E+00     0   0.865E-11
 103 F= -.22284650E+03 E0= -.22284753E+03  d E =0.167347E-09
       N       E                     dE             d eps       ncg     rms          rms(c)
DAV:   1    -0.222846495432E+03    0.38199E-09    0.30468E-12   198   0.977E-11    0.341E-10
RMM:   2    -0.222846495432E+03    0.46930E-09    0.00000E+00     0   0.999E-11
 104 F= -.22284650E+03 E0= -.22284753E+03  d E =-.363798E-10
       N       E                     dE             d eps       ncg     rms          rms(c)
DAV:   1    -0.222846495432E+03   -0.28376E-09    0.11132E-10   198   0.167E-10    0.144E-10
RMM:   2    -0.222846495432E+03    0.52751E-09    0.00000E+00     0   0.887E-11
 105 F= -.22284650E+03 E0= -.22284753E+03  d E =-.225555E-09
       N       E                     dE             d eps       ncg     rms          rms(c)
DAV:   1    -0.222846495431E+03    0.12951E-08    0.44895E-11   198   0.111E-10    0.281E-10
RMM:   2    -0.222846495432E+03   -0.62573E-09    0.00000E+00     0   0.121E-10
 106 F= -.22284650E+03 E0= -.22284753E+03  d E =0.141881E-09
       N       E                     dE             d eps       ncg     rms          rms(c)
DAV:   1    -0.222846495432E+03   -0.13279E-08   -0.19255E-12   198   0.162E-10    0.273E-10
RMM:   2    -0.222846495432E+03    0.73123E-09    0.00000E+00     0   0.117E-10
 107 F= -.22284650E+03 E0= -.22284753E+03  d E =0.291038E-10
       N       E                     dE             d eps       ncg     rms          rms(c)
DAV:   1    -0.222846495432E+03    0.29104E-09    0.96465E-11   198   0.150E-10    0.220E-10
RMM:   2    -0.222846495432E+03    0.33469E-09    0.00000E+00     0   0.886E-11
 108 F= -.22284650E+03 E0= -.22284753E+03  d E =-.105501E-09
       N       E                     dE             d eps       ncg     rms          rms(c)
DAV:   1    -0.222846495432E+03    0.29104E-10    0.13467E-10   198   0.131E-10    0.278E-10
RMM:   2    -0.222846495432E+03    0.41837E-09    0.00000E+00     0   0.876E-11
 109 F= -.22284650E+03 E0= -.22284753E+03  d E =0.112777E-09
       N       E                     dE             d eps       ncg     rms          rms(c)
DAV:   1    -0.222846495432E+03    0.28376E-09    0.11241E-10   198   0.134E-10    0.387E-10
RMM:   2    -0.222846495432E+03    0.54570E-10    0.00000E+00     0   0.104E-10
 110 F= -.22284650E+03 E0= -.22284753E+03  d E =-.800355E-10
       N       E                     dE             d eps       ncg     rms          rms(c)
DAV:   1    -0.222846495432E+03    0.18190E-10    0.14177E-10   198   0.179E-10    0.241E-10
RMM:   2    -0.222846495432E+03    0.14188E-09    0.00000E+00     0   0.100E-10
 111 F= -.22284650E+03 E0= -.22284753E+03  d E =0.105501E-09
       N       E                     dE             d eps       ncg     rms          rms(c)
DAV:   1    -0.222846495431E+03    0.11823E-08    0.87673E-11   198   0.114E-10    0.269E-10
RMM:   2    -0.222846495432E+03   -0.10041E-08    0.00000E+00     0   0.821E-11
 112 F= -.22284650E+03 E0= -.22284753E+03  d E =0.363798E-10
       N       E                     dE             d eps       ncg     rms          rms(c)
DAV:   1    -0.222846495432E+03   -0.15498E-08    0.29096E-11   198   0.104E-10    0.256E-10
RMM:   2    -0.222846495432E+03    0.44747E-09    0.00000E+00     0   0.952E-11
 113 F= -.22284650E+03 E0= -.22284753E+03  d E =-.982254E-10
       N       E                     dE             d eps       ncg     rms          rms(c)
DAV:   1    -0.222846495432E+03   -0.18917E-09    0.10741E-10   198   0.129E-10    0.237E-10
RMM:   2    -0.222846495432E+03    0.58571E-09    0.00000E+00     0   0.944E-11
 114 F= -.22284650E+03 E0= -.22284753E+03  d E =-.509317E-10
       N       E                     dE             d eps       ncg     rms          rms(c)
DAV:   1    -0.222846495431E+03    0.16771E-08    0.11484E-10   198   0.109E-10    0.239E-10
RMM:   2    -0.222846495432E+03   -0.10477E-08    0.00000E+00     0   0.955E-11
 115 F= -.22284650E+03 E0= -.22284753E+03  d E =0.436557E-10
       N       E                     dE             d eps       ncg     rms          rms(c)
DAV:   1    -0.222846495431E+03   -0.68030E-09    0.27362E-11   198   0.133E-10    0.388E-10
RMM:   2    -0.222846495432E+03   -0.28012E-09    0.00000E+00     0   0.116E-10
 116 F= -.22284650E+03 E0= -.22284753E+03  d E =0.873115E-10
       N       E                     dE             d eps       ncg     rms          rms(c)
DAV:   1    -0.222846495433E+03   -0.13461E-08    0.87366E-11   198   0.176E-10    0.189E-10
RMM:   2    -0.222846495432E+03    0.10223E-08    0.00000E+00     0   0.728E-11
 117 F= -.22284650E+03 E0= -.22284753E+03  d E =-.436557E-10
       N       E                     dE             d eps       ncg     rms          rms(c)
DAV:   1    -0.222846495432E+03    0.12733E-08    0.64872E-11   198   0.913E-11    0.197E-10
RMM:   2    -0.222846495432E+03   -0.23647E-09    0.00000E+00     0   0.792E-11
 118 F= -.22284650E+03 E0= -.22284753E+03  d E =0.145519E-10
       N       E                     dE             d eps       ncg     rms          rms(c)
DAV:   1    -0.222846495432E+03   -0.52387E-09    0.17907E-11   198   0.925E-11    0.264E-10
RMM:   2    -0.222846495432E+03    0.20009E-09    0.00000E+00     0   0.717E-11
 119 F= -.22284650E+03 E0= -.22284753E+03  d E =-.873115E-10
       N       E                     dE             d eps       ncg     rms          rms(c)
DAV:   1    -0.222846495432E+03   -0.38199E-09    0.13322E-10   198   0.989E-11    0.272E-10
RMM:   2    -0.222846495432E+03    0.50204E-09    0.00000E+00     0   0.788E-11
 120 F= -.22284650E+03 E0= -.22284753E+03  d E =-.800355E-10
       N       E                     dE             d eps       ncg     rms          rms(c)
DAV:   1    -0.222846495432E+03    0.50932E-09    0.59306E-11   198   0.131E-10    0.219E-10
RMM:   2    -0.222846495432E+03    0.16735E-09    0.00000E+00     0   0.755E-11
 121 F= -.22284650E+03 E0= -.22284753E+03  d E =0.174623E-09
       N       E                     dE             d eps       ncg     rms          rms(c)
DAV:   1    -0.222846495432E+03   -0.43292E-09   -0.32475E-11   198   0.135E-10    0.293E-10
RMM:   2    -0.222846495432E+03    0.54933E-09    0.00000E+00     0   0.806E-11
 122 F= -.22284650E+03 E0= -.22284753E+03  d E =-.509317E-10
       N       E                     dE             d eps       ncg     rms          rms(c)
DAV:   1    -0.222846495432E+03    0.52387E-09    0.78054E-11   198   0.107E-10    0.296E-10
RMM:   2    -0.222846495432E+03    0.10186E-09    0.00000E+00     0   0.917E-11
 123 F= -.22284650E+03 E0= -.22284753E+03  d E =0.763976E-10
       N       E                     dE             d eps       ncg     rms          rms(c)
DAV:   1    -0.222846495432E+03   -0.54206E-09    0.98324E-11   198   0.117E-10    0.230E-10
RMM:   2    -0.222846495432E+03    0.64756E-09    0.00000E+00     0   0.883E-11
 124 F= -.22284650E+03 E0= -.22284753E+03  d E =0.363798E-11
       N       E                     dE             d eps       ncg     rms          rms(c)
DAV:   1    -0.222846495431E+03    0.10368E-08   -0.75648E-12   198   0.131E-10    0.294E-10
RMM:   2    -0.222846495432E+03   -0.46202E-09    0.00000E+00     0   0.105E-10
 125 F= -.22284650E+03 E0= -.22284753E+03  d E =-.727596E-10
       N       E                     dE             d eps       ncg     rms          rms(c)
DAV:   1    -0.222846495432E+03   -0.10295E-08   -0.35913E-11   198   0.187E-10    0.291E-10
RMM:   2    -0.222846495432E+03    0.57116E-09    0.00000E+00     0   0.114E-10
 126 F= -.22284650E+03 E0= -.22284753E+03  d E =0.363798E-11
       N       E                     dE             d eps       ncg     rms          rms(c)
DAV:   1    -0.222846495431E+03    0.10732E-08    0.45594E-11   198   0.160E-10    0.347E-10
RMM:   2    -0.222846495432E+03   -0.55661E-09    0.00000E+00     0   0.113E-10
 127 F= -.22284650E+03 E0= -.22284753E+03  d E =-.545697E-10
       N       E                     dE             d eps       ncg     rms          rms(c)
DAV:   1    -0.222846495432E+03   -0.64028E-09   -0.14709E-11   198   0.181E-10    0.310E-10
RMM:   2    -0.222846495432E+03    0.58208E-10    0.00000E+00     0   0.111E-10
 128 F= -.22284650E+03 E0= -.22284753E+03  d E =-.254659E-10
       N       E                     dE             d eps       ncg     rms          rms(c)
DAV:   1    -0.222846495432E+03    0.33469E-09    0.43042E-11   198   0.181E-10    0.230E-10
RMM:   2    -0.222846495432E+03   -0.98225E-10    0.00000E+00     0   0.846E-11
 129 F= -.22284650E+03 E0= -.22284753E+03  d E =0.178261E-09
       N       E                     dE             d eps       ncg     rms          rms(c)
DAV:   1    -0.222846495431E+03    0.36380E-09   -0.24310E-11   198   0.152E-10    0.228E-10
RMM:   2    -0.222846495432E+03   -0.46202E-09    0.00000E+00     0   0.934E-11
 130 F= -.22284650E+03 E0= -.22284753E+03  d E =0.000000E+00
       N       E                     dE             d eps       ncg     rms          rms(c)
DAV:   1    -0.222846495432E+03   -0.43292E-09    0.79223E-11   198   0.115E-10    0.351E-10
RMM:   2    -0.222846495432E+03   -0.14916E-09    0.00000E+00     0   0.131E-10
 131 F= -.22284650E+03 E0= -.22284753E+03  d E =-.120053E-09
       N       E                     dE             d eps       ncg     rms          rms(c)
DAV:   1    -0.222846495432E+03   -0.35652E-09    0.11936E-10   198   0.191E-10    0.312E-10
RMM:   2    -0.222846495432E+03    0.14552E-09    0.00000E+00     0   0.126E-10
 132 F= -.22284650E+03 E0= -.22284753E+03  d E =-.618456E-10
       N       E                     dE             d eps       ncg     rms          rms(c)
DAV:   1    -0.222846495430E+03    0.17099E-08    0.81217E-11   198   0.162E-10    0.211E-10
RMM:   2    -0.222846495432E+03   -0.14188E-08    0.00000E+00     0   0.858E-11
 133 F= -.22284650E+03 E0= -.22284753E+03  d E =0.145519E-09
       N       E                     dE             d eps       ncg     rms          rms(c)
DAV:   1    -0.222846495432E+03   -0.17317E-08    0.16233E-10   198   0.110E-10    0.365E-10
RMM:   2    -0.222846495432E+03    0.18190E-09    0.00000E+00     0   0.121E-10
 134 F= -.22284650E+03 E0= -.22284753E+03  d E =-.130967E-09
       N       E                     dE             d eps       ncg     rms          rms(c)
DAV:   1    -0.222846495432E+03   -0.27285E-09    0.10845E-10   198   0.200E-10    0.257E-10
RMM:   2    -0.222846495432E+03    0.40018E-09    0.00000E+00     0   0.107E-10
 135 F= -.22284650E+03 E0= -.22284753E+03  d E =-.545697E-10
       N       E                     dE             d eps       ncg     rms          rms(c)
DAV:   1    -0.222846495432E+03    0.52751E-09    0.18833E-11   198   0.149E-10    0.291E-10
RMM:   2    -0.222846495432E+03    0.80036E-10    0.00000E+00     0   0.106E-10
 136 F= -.22284650E+03 E0= -.22284753E+03  d E =0.207365E-09
       N       E                     dE             d eps       ncg     rms          rms(c)
DAV:   1    -0.222846495432E+03   -0.40382E-09    0.10806E-10   198   0.135E-10    0.322E-10
RMM:   2    -0.222846495432E+03    0.44020E-09    0.00000E+00     0   0.107E-10
 137 F= -.22284650E+03 E0= -.22284753E+03  d E =-.436557E-10
       N       E                     dE             d eps       ncg     rms          rms(c)
DAV:   1    -0.222846495433E+03   -0.54206E-09    0.81024E-11   198   0.139E-10    0.297E-10
RMM:   2    -0.222846495432E+03    0.82582E-09    0.00000E+00     0   0.115E-10
 138 F= -.22284650E+03 E0= -.22284753E+03  d E =-.156433E-09
       N       E                     dE             d eps       ncg     rms          rms(c)
DAV:   1    -0.222846495431E+03    0.19172E-08    0.61378E-11   198   0.172E-10    0.266E-10
RMM:   2    -0.222846495432E+03   -0.11241E-08    0.00000E+00     0   0.119E-10
 139 F= -.22284650E+03 E0= -.22284753E+03  d E =-.327418E-10
       N       E                     dE             d eps       ncg     rms          rms(c)
DAV:   1    -0.222846495433E+03   -0.25466E-08    0.30224E-11   198   0.146E-10    0.312E-10
RMM:   2    -0.222846495432E+03    0.15025E-08    0.00000E+00     0   0.127E-10
 140 F= -.22284650E+03 E0= -.22284753E+03  d E =0.800355E-10
       N       E                     dE             d eps       ncg     rms          rms(c)
DAV:   1    -0.222846495432E+03    0.12915E-08    0.95044E-11   198   0.178E-10    0.336E-10
RMM:   2    -0.222846495432E+03    0.17099E-09    0.00000E+00     0   0.122E-10
 141 F= -.22284650E+03 E0= -.22284753E+03  d E =-.400178E-10
       N       E                     dE             d eps       ncg     rms          rms(c)
DAV:   1    -0.222846495432E+03   -0.14916E-09   -0.45110E-11   198   0.162E-10    0.343E-10
RMM:   2    -0.222846495432E+03    0.48021E-09    0.00000E+00     0   0.124E-10
 142 F= -.22284650E+03 E0= -.22284753E+03  d E =0.160071E-09
       N       E                     dE             d eps       ncg     rms          rms(c)
DAV:   1    -0.222846495433E+03   -0.10150E-08    0.10706E-10   198   0.181E-10    0.203E-10
RMM:   2    -0.222846495432E+03    0.13315E-08    0.00000E+00     0   0.800E-11
 143 F= -.22284650E+03 E0= -.22284753E+03  d E =-.163709E-09
       N       E                     dE             d eps       ncg     rms          rms(c)
DAV:   1    -0.222846495431E+03    0.23028E-08    0.90412E-11   198   0.979E-11    0.246E-10
RMM:   2    -0.222846495432E+03   -0.97498E-09    0.00000E+00     0   0.982E-11
 144 F= -.22284650E+03 E0= -.22284753E+03  d E =-.363798E-11
       N       E                     dE             d eps       ncg     rms          rms(c)
DAV:   1    -0.222846495431E+03   -0.41837E-09    0.31416E-11   198   0.126E-10    0.348E-10
RMM:   2    -0.222846495432E+03   -0.44020E-09    0.00000E+00     0   0.121E-10
 145 F= -.22284650E+03 E0= -.22284753E+03  d E =0.116415E-09
       N       E                     dE             d eps       ncg     rms          rms(c)
DAV:   1    -0.222846495432E+03   -0.50568E-09    0.83910E-11   198   0.222E-10    0.212E-10
RMM:   2    -0.222846495432E+03    0.43656E-10    0.00000E+00     0   0.952E-11
 146 F= -.22284650E+03 E0= -.22284753E+03  d E =-.218279E-10
       N       E                     dE             d eps       ncg     rms          rms(c)
DAV:   1    -0.222846495432E+03    0.10914E-10    0.26521E-10   198   0.111E-10    0.296E-10
RMM:   2    -0.222846495432E+03    0.11642E-09    0.00000E+00     0   0.106E-10
 147 F= -.22284650E+03 E0= -.22284753E+03  d E =0.836735E-10
       N       E                     dE             d eps       ncg     rms          rms(c)
DAV:   1    -0.222846495432E+03    0.21100E-09    0.14218E-10   198   0.152E-10    0.223E-10
RMM:   2    -0.222846495432E+03   -0.25830E-09    0.00000E+00     0   0.101E-10
 148 F= -.22284650E+03 E0= -.22284753E+03  d E =-.163709E-09
       N       E                     dE             d eps       ncg     rms          rms(c)
DAV:   1    -0.222846495433E+03   -0.15243E-08    0.13287E-11   198   0.122E-10    0.275E-10
RMM:   2    -0.222846495432E+03    0.13715E-08    0.00000E+00     0   0.806E-11
 149 F= -.22284650E+03 E0= -.22284753E+03  d E =0.105501E-09
       N       E                     dE             d eps       ncg     rms          rms(c)
DAV:   1    -0.222846495432E+03    0.76398E-09    0.83228E-11   198   0.115E-10    0.250E-10
RMM:   2    -0.222846495432E+03    0.68394E-09    0.00000E+00     0   0.894E-11
 150 F= -.22284650E+03 E0= -.22284753E+03  d E =0.763976E-10
       N       E                     dE             d eps       ncg     rms          rms(c)
DAV:   1    -0.222846495432E+03   -0.14552E-10    0.74739E-11   198   0.103E-10    0.305E-10
RMM:   2    -0.222846495432E+03    0.55297E-09    0.00000E+00     0   0.103E-10
 151 F= -.22284650E+03 E0= -.22284753E+03  d E =-.145519E-09
       N       E                     dE             d eps       ncg     rms          rms(c)
DAV:   1    -0.222846495432E+03    0.11278E-09    0.10013E-10   198   0.170E-10    0.213E-10
RMM:   2    -0.222846495432E+03    0.50204E-09    0.00000E+00     0   0.810E-11
 152 F= -.22284650E+03 E0= -.22284753E+03  d E =0.618456E-10
       N       E                     dE             d eps       ncg     rms          rms(c)
DAV:   1    -0.222846495431E+03    0.10841E-08    0.17348E-10   198   0.127E-10    0.381E-10
RMM:   2    -0.222846495432E+03   -0.54206E-09    0.00000E+00     0   0.117E-10
 153 F= -.22284650E+03 E0= -.22284753E+03  d E =0.400178E-10
       N       E                     dE             d eps       ncg     rms          rms(c)
DAV:   1    -0.222846495432E+03   -0.75306E-09    0.11024E-10   198   0.175E-10    0.281E-10
RMM:   2    -0.222846495432E+03    0.21828E-09    0.00000E+00     0   0.970E-11
 154 F= -.22284650E+03 E0= -.22284753E+03  d E =0.727596E-11
       N       E                     dE             d eps       ncg     rms          rms(c)
DAV:   1    -0.222846495431E+03    0.98589E-09    0.53712E-11   198   0.153E-10    0.190E-10
RMM:   2    -0.222846495432E+03   -0.77853E-09    0.00000E+00     0   0.831E-11
 155 F= -.22284650E+03 E0= -.22284753E+03  d E =-.109139E-10
       N       E                     dE             d eps       ncg     rms          rms(c)
DAV:   1    -0.222846495432E+03   -0.10587E-08    0.14373E-10   198   0.141E-10    0.286E-10
RMM:   2    -0.222846495432E+03    0.17099E-09    0.00000E+00     0   0.975E-11
 156 F= -.22284650E+03 E0= -.22284753E+03  d E =-.109139E-09
       N       E                     dE             d eps       ncg     rms          rms(c)
DAV:   1    -0.222846495431E+03    0.62209E-09    0.18084E-10   198   0.151E-10    0.234E-10
RMM:   2    -0.222846495432E+03   -0.44383E-09    0.00000E+00     0   0.899E-11
 157 F= -.22284650E+03 E0= -.22284753E+03  d E =0.727596E-11
       N       E                     dE             d eps       ncg     rms          rms(c)
DAV:   1    -0.222846495432E+03   -0.84765E-09    0.69395E-11   198   0.108E-10    0.282E-10
RMM:   2    -0.222846495432E+03    0.57480E-09    0.00000E+00     0   0.881E-11
 158 F= -.22284650E+03 E0= -.22284753E+03  d E =0.170985E-09
       N       E                     dE             d eps       ncg     rms          rms(c)
DAV:   1    -0.222846495432E+03    0.52387E-09    0.65320E-11   198   0.125E-10    0.250E-10
RMM:   2    -0.222846495432E+03   -0.83674E-10    0.00000E+00     0   0.862E-11
 159 F= -.22284650E+03 E0= -.22284753E+03  d E =-.134605E-09
       N       E                     dE             d eps       ncg     rms          rms(c)
DAV:   1    -0.222846495432E+03    0.00000E+00    0.95161E-11   198   0.109E-10    0.285E-10
RMM:   2    -0.222846495432E+03   -0.16735E-09    0.00000E+00     0   0.904E-11
 160 F= -.22284650E+03 E0= -.22284753E+03  d E =-.836735E-10
       N       E                     dE             d eps       ncg     rms          rms(c)
DAV:   1    -0.222846495432E+03    0.36380E-11    0.53841E-11   198   0.136E-10    0.239E-10
RMM:   2    -0.222846495432E+03   -0.11642E-09    0.00000E+00     0   0.976E-11
 161 F= -.22284650E+03 E0= -.22284753E+03  d E =0.545697E-10
       N       E                     dE             d eps       ncg     rms          rms(c)
DAV:   1    -0.222846495432E+03   -0.17462E-09    0.17975E-10   198   0.154E-10    0.327E-10
RMM:   2    -0.222846495432E+03    0.40018E-10    0.00000E+00     0   0.122E-10
 162 F= -.22284650E+03 E0= -.22284753E+03  d E =-.181899E-10
       N       E                     dE             d eps       ncg     rms          rms(c)
DAV:   1    -0.222846495432E+03    0.80036E-10    0.14110E-10   198   0.178E-10    0.313E-10
RMM:   2    -0.222846495432E+03    0.76398E-10    0.00000E+00     0   0.107E-10
 163 F= -.22284650E+03 E0= -.22284753E+03  d E =0.116415E-09
       N       E                     dE             d eps       ncg     rms          rms(c)
DAV:   1    -0.222846495434E+03   -0.17972E-08    0.66894E-11   198   0.158E-10    0.363E-10
RMM:   2    -0.222846495432E+03    0.18917E-08    0.00000E+00     0   0.130E-10
 164 F= -.22284650E+03 E0= -.22284753E+03  d E =0.181899E-10
       N       E                     dE             d eps       ncg     rms          rms(c)
DAV:   1    -0.222846495432E+03    0.11205E-08    0.92953E-11   198   0.236E-10    0.273E-10
RMM:   2    -0.222846495432E+03    0.76398E-09    0.00000E+00     0   0.117E-10
 165 F= -.22284650E+03 E0= -.22284753E+03  d E =-.727596E-11
       N       E                     dE             d eps       ncg     rms          rms(c)
DAV:   1    -0.222846495432E+03    0.32742E-10    0.10673E-10   198   0.177E-10    0.251E-10
RMM:   2    -0.222846495432E+03    0.55661E-09    0.00000E+00     0   0.856E-11
 166 F= -.22284650E+03 E0= -.22284753E+03  d E =-.174623E-09
       N       E                     dE             d eps       ncg     rms          rms(c)
DAV:   1    -0.222846495431E+03    0.13642E-08   -0.10227E-11   198   0.120E-10    0.214E-10
RMM:   2    -0.222846495432E+03   -0.63301E-09    0.00000E+00     0   0.857E-11
 167 F= -.22284650E+03 E0= -.22284753E+03  d E =0.174623E-09
       N       E                     dE             d eps       ncg     rms          rms(c)
DAV:   1    -0.222846495432E+03   -0.13060E-08   -0.11517E-11   198   0.116E-10    0.282E-10
RMM:   2    -0.222846495432E+03    0.50204E-09    0.00000E+00     0   0.921E-11
 168 F= -.22284650E+03 E0= -.22284753E+03  d E =-.170985E-09
       N       E                     dE             d eps       ncg     rms          rms(c)
DAV:   1    -0.222846495431E+03    0.14224E-08   -0.12971E-11   198   0.150E-10    0.324E-10
RMM:   2    -0.222846495432E+03   -0.79308E-09    0.00000E+00     0   0.133E-10
 169 F= -.22284650E+03 E0= -.22284753E+03  d E =0.127329E-09
       N       E                     dE             d eps       ncg     rms          rms(c)
DAV:   1    -0.222846495432E+03   -0.11169E-08    0.20018E-10   198   0.201E-10    0.293E-10
RMM:   2    -0.222846495432E+03    0.30559E-09    0.00000E+00     0   0.996E-11
 170 F= -.22284650E+03 E0= -.22284753E+03  d E =-.181899E-10
       N       E                     dE             d eps       ncg     rms          rms(c)
DAV:   1    -0.222846495432E+03    0.50568E-09    0.15991E-10   198   0.142E-10    0.214E-10
RMM:   2    -0.222846495432E+03   -0.26193E-09    0.00000E+00     0   0.826E-11
 171 F= -.22284650E+03 E0= -.22284753E+03  d E =-.618456E-10
       N       E                     dE             d eps       ncg     rms          rms(c)
DAV:   1    -0.222846495432E+03   -0.69122E-10    0.79688E-11   198   0.989E-11    0.265E-10
RMM:   2    -0.222846495432E+03   -0.72760E-10    0.00000E+00     0   0.901E-11
 172 F= -.22284650E+03 E0= -.22284753E+03  d E =0.120053E-09
       N       E                     dE             d eps       ncg     rms          rms(c)
DAV:   1    -0.222846495431E+03    0.70941E-09    0.10227E-10   198   0.135E-10    0.246E-10
RMM:   2    -0.222846495432E+03   -0.85129E-09    0.00000E+00     0   0.881E-11
 173 F= -.22284650E+03 E0= -.22284753E+03  d E =-.691216E-10
       N       E                     dE             d eps       ncg     rms          rms(c)
DAV:   1    -0.222846495431E+03    0.34925E-09    0.14004E-10   198   0.140E-10    0.236E-10
RMM:   2    -0.222846495432E+03   -0.12151E-08    0.00000E+00     0   0.102E-10
 174 F= -.22284650E+03 E0= -.22284753E+03  d E =-.145519E-10
       N       E                     dE             d eps       ncg     rms          rms(c)
DAV:   1    -0.222846495433E+03   -0.21537E-08    0.14249E-10   198   0.139E-10    0.236E-10
RMM:   2    -0.222846495432E+03    0.85493E-09    0.00000E+00     0   0.902E-11
 175 F= -.22284650E+03 E0= -.22284753E+03  d E =-.836735E-10
       N       E                     dE             d eps       ncg     rms          rms(c)
DAV:   1    -0.222846495432E+03    0.79308E-09    0.14941E-10   198   0.111E-10    0.256E-10
RMM:   2    -0.222846495432E+03    0.25830E-09    0.00000E+00     0   0.800E-11
 176 F= -.22284650E+03 E0= -.22284753E+03  d E =0.196451E-09
       N       E                     dE             d eps       ncg     rms          rms(c)
DAV:   1    -0.222846495433E+03   -0.78217E-09    0.16667E-10   198   0.105E-10    0.386E-10
RMM:   2    -0.222846495432E+03    0.91313E-09    0.00000E+00     0   0.122E-10
 177 F= -.22284650E+03 E0= -.22284753E+03  d E =-.127329E-09
       N       E                     dE             d eps       ncg     rms          rms(c)
DAV:   1    -0.222846495432E+03    0.35652E-09    0.12068E-10   198   0.191E-10    0.373E-10
RMM:   2    -0.222846495432E+03    0.71304E-09    0.00000E+00     0   0.127E-10
 178 F= -.22284650E+03 E0= -.22284753E+03  d E =0.156433E-09
       N       E                     dE             d eps       ncg     rms          rms(c)
DAV:   1    -0.222846495433E+03   -0.70577E-09    0.43242E-11   198   0.191E-10    0.250E-10
RMM:   2    -0.222846495432E+03    0.13169E-08    0.00000E+00     0   0.106E-10
 179 F= -.22284650E+03 E0= -.22284753E+03  d E =-.101863E-09
       N       E                     dE             d eps       ncg     rms          rms(c)
DAV:   1    -0.222846495431E+03    0.16371E-08    0.23292E-10   198   0.121E-10    0.355E-10
RMM:   2    -0.222846495432E+03   -0.33106E-09    0.00000E+00     0   0.106E-10
 180 F= -.22284650E+03 E0= -.22284753E+03  d E =-.109139E-10
       N       E                     dE             d eps       ncg     rms          rms(c)
DAV:   1    -0.222846495430E+03    0.11860E-08    0.15545E-10   198   0.162E-10    0.227E-10
RMM:   2    -0.222846495432E+03   -0.15862E-08    0.00000E+00     0   0.903E-11
 181 F= -.22284650E+03 E0= -.22284753E+03  d E =-.691216E-10
       N       E                     dE             d eps       ncg     rms          rms(c)
DAV:   1    -0.222846495432E+03   -0.16844E-08    0.18902E-11   198   0.128E-10    0.313E-10
RMM:   2    -0.222846495432E+03    0.24011E-09    0.00000E+00     0   0.120E-10
 182 F= -.22284650E+03 E0= -.22284753E+03  d E =0.141881E-09
       N       E                     dE             d eps       ncg     rms          rms(c)
DAV:   1    -0.222846495432E+03    0.19281E-09    0.18034E-10   198   0.184E-10    0.224E-10
RMM:   2    -0.222846495432E+03   -0.13097E-09    0.00000E+00     0   0.772E-11
 183 F= -.22284650E+03 E0= -.22284753E+03  d E =-.178261E-09
       N       E                     dE             d eps       ncg     rms          rms(c)
DAV:   1    -0.222846495432E+03   -0.10914E-09    0.36965E-11   198   0.127E-10    0.363E-10
RMM:   2    -0.222846495432E+03    0.10550E-09    0.00000E+00     0   0.877E-11
 184 F= -.22284650E+03 E0= -.22284753E+03  d E =0.127329E-09
       N       E                     dE             d eps       ncg     rms          rms(c)
DAV:   1    -0.222846495432E+03   -0.80036E-10    0.43786E-11   198   0.139E-10    0.302E-10
RMM:   2    -0.222846495432E+03    0.27649E-09    0.00000E+00     0   0.116E-10
 185 F= -.22284650E+03 E0= -.22284753E+03  d E =0.909495E-10
       N       E                     dE             d eps       ncg     rms          rms(c)
DAV:   1    -0.222846495432E+03   -0.22192E-09    0.12181E-10   198   0.181E-10    0.401E-10
RMM:   2    -0.222846495432E+03    0.48021E-09    0.00000E+00     0   0.153E-10
 186 F= -.22284650E+03 E0= -.22284753E+03  d E =-.181899E-10
       N       E                     dE             d eps       ncg     rms          rms(c)
DAV:   1    -0.222846495431E+03    0.95315E-09    0.99268E-11   198   0.264E-10    0.299E-10
RMM:   2    -0.222846495432E+03   -0.62573E-09    0.00000E+00     0   0.118E-10
 187 F= -.22284650E+03 E0= -.22284753E+03  d E =-.152795E-09
       N       E                     dE             d eps       ncg     rms          rms(c)
DAV:   1    -0.222846495432E+03   -0.38563E-09    0.74835E-11   198   0.180E-10    0.205E-10
RMM:   2    -0.222846495432E+03   -0.27285E-09    0.00000E+00     0   0.746E-11
 188 F= -.22284650E+03 E0= -.22284753E+03  d E =-.327418E-10
       N       E                     dE             d eps       ncg     rms          rms(c)
DAV:   1    -0.222846495432E+03   -0.41109E-09    0.15265E-10   198   0.106E-10    0.384E-10
RMM:   2    -0.222846495432E+03    0.17826E-09    0.00000E+00     0   0.106E-10
 189 F= -.22284650E+03 E0= -.22284753E+03  d E =0.400178E-10
       N       E                     dE             d eps       ncg     rms          rms(c)
DAV:   1    -0.222846495431E+03    0.72032E-09    0.54623E-11   198   0.162E-10    0.187E-10
RMM:   2    -0.222846495432E+03   -0.59299E-09    0.00000E+00     0   0.864E-11
 190 F= -.22284650E+03 E0= -.22284753E+03  d E =-.509317E-10
       N       E                     dE             d eps       ncg     rms          rms(c)
DAV:   1    -0.222846495431E+03    0.61846E-10    0.31132E-11   198   0.888E-11    0.351E-10
RMM:   2    -0.222846495432E+03   -0.64028E-09    0.00000E+00     0   0.125E-10
 191 F= -.22284650E+03 E0= -.22284753E+03  d E =0.145519E-10
       N       E                     dE             d eps       ncg     rms          rms(c)
DAV:   1    -0.222846495431E+03    0.23647E-09    0.12280E-10   198   0.168E-10    0.277E-10
RMM:   2    -0.222846495432E+03   -0.68394E-09    0.00000E+00     0   0.110E-10
 192 F= -.22284650E+03 E0= -.22284753E+03  d E =0.192813E-09
       N       E                     dE             d eps       ncg     rms          rms(c)
DAV:   1    -0.222846495432E+03   -0.75670E-09    0.23858E-11   198   0.148E-10    0.369E-10
RMM:   2    -0.222846495432E+03   -0.12005E-09    0.00000E+00     0   0.119E-10
 193 F= -.22284650E+03 E0= -.22284753E+03  d E =-.192813E-09
       N       E                     dE             d eps       ncg     rms          rms(c)
DAV:   1    -0.222846495432E+03   -0.58208E-10   -0.11955E-11   198   0.198E-10    0.260E-10
RMM:   2    -0.222846495432E+03    0.14552E-10    0.00000E+00     0   0.973E-11
 194 F= -.22284650E+03 E0= -.22284753E+03  d E =0.763976E-10
       N       E                     dE             d eps       ncg     rms          rms(c)
DAV:   1    -0.222846495431E+03    0.96043E-09    0.19495E-10   198   0.120E-10    0.275E-10
RMM:   2    -0.222846495432E+03   -0.10186E-08    0.00000E+00     0   0.111E-10
 195 F= -.22284650E+03 E0= -.22284753E+03  d E =-.727596E-10
       N       E                     dE             d eps       ncg     rms          rms(c)
DAV:   1    -0.222846495434E+03   -0.27721E-08    0.97631E-11   198   0.150E-10    0.342E-10
RMM:   2    -0.222846495432E+03    0.18481E-08    0.00000E+00     0   0.141E-10
 196 F= -.22284650E+03 E0= -.22284753E+03  d E =0.945874E-10
       N       E                     dE             d eps       ncg     rms          rms(c)
DAV:   1    -0.222846495432E+03    0.13315E-08    0.13091E-10   198   0.183E-10    0.383E-10
RMM:   2    -0.222846495432E+03    0.47294E-09    0.00000E+00     0   0.143E-10
 197 F= -.22284650E+03 E0= -.22284753E+03  d E =-.436557E-10
       N       E                     dE             d eps       ncg     rms          rms(c)
DAV:   1    -0.222846495432E+03    0.72760E-11    0.10922E-11   198   0.211E-10    0.193E-10
RMM:   2    -0.222846495432E+03    0.52387E-09    0.00000E+00     0   0.813E-11
 198 F= -.22284650E+03 E0= -.22284753E+03  d E =0.582077E-10
       N       E                     dE             d eps       ncg     rms          rms(c)
DAV:   1    -0.222846495432E+03   -0.17099E-09    0.44043E-11   198   0.103E-10    0.268E-10
RMM:   2    -0.222846495432E+03    0.64028E-09    0.00000E+00     0   0.804E-11
 199 F= -.22284650E+03 E0= -.22284753E+03  d E =-.545697E-10
       N       E                     dE             d eps       ncg     rms          rms(c)
DAV:   1    -0.222846495432E+03    0.61482E-09    0.13384E-10   198   0.119E-10    0.282E-10
RMM:   2    -0.222846495432E+03    0.83674E-10    0.00000E+00     0   0.105E-10
 200 F= -.22284650E+03 E0= -.22284753E+03  d E =0.582077E-10
       N       E                     dE             d eps       ncg     rms          rms(c)
DAV:   1    -0.222846495431E+03    0.10405E-08    0.27623E-11   198   0.170E-10    0.343E-10
RMM:   2    -0.222846495432E+03   -0.11132E-08    0.00000E+00     0   0.118E-10
 201 F= -.22284650E+03 E0= -.22284753E+03  d E =-.156433E-09
       N       E                     dE             d eps       ncg     rms          rms(c)
DAV:   1    -0.222846495433E+03   -0.19390E-08    0.18526E-11   198   0.193E-10    0.253E-10
RMM:   2    -0.222846495432E+03    0.10004E-08    0.00000E+00     0   0.870E-11
 202 F= -.22284650E+03 E0= -.22284753E+03  d E =0.174623E-09
       N       E                     dE             d eps       ncg     rms          rms(c)
DAV:   1    -0.222846495432E+03    0.11169E-08   -0.16960E-11   198   0.122E-10    0.277E-10
RMM:   2    -0.222846495432E+03   -0.12005E-09    0.00000E+00     0   0.891E-11
 203 F= -.22284650E+03 E0= -.22284753E+03  d E =-.363798E-11
       N       E                     dE             d eps       ncg     rms          rms(c)
DAV:   1    -0.222846495431E+03    0.57480E-09    0.19349E-10   198   0.129E-10    0.334E-10
RMM:   2    -0.222846495432E+03   -0.74579E-09    0.00000E+00     0   0.999E-11
 204 F= -.22284650E+03 E0= -.22284753E+03  d E =-.509317E-10
       N       E                     dE             d eps       ncg     rms          rms(c)
DAV:   1    -0.222846495432E+03   -0.75306E-09    0.15322E-11   198   0.167E-10    0.245E-10
RMM:   2    -0.222846495432E+03    0.25466E-10    0.00000E+00     0   0.108E-10
 205 F= -.22284650E+03 E0= -.22284753E+03  d E =0.181899E-10
       N       E                     dE             d eps       ncg     rms          rms(c)
DAV:   1    -0.222846495432E+03   -0.57480E-09    0.22656E-10   198   0.136E-10    0.347E-10
RMM:   2    -0.222846495432E+03    0.65847E-09    0.00000E+00     0   0.129E-10
 206 F= -.22284650E+03 E0= -.22284753E+03  d E =0.582077E-10
       N       E                     dE             d eps       ncg     rms          rms(c)
DAV:   1    -0.222846495431E+03    0.12733E-08   -0.72838E-12   198   0.209E-10    0.225E-10
RMM:   2    -0.222846495432E+03   -0.65484E-09    0.00000E+00     0   0.844E-11
 207 F= -.22284650E+03 E0= -.22284753E+03  d E =-.400178E-10
       N       E                     dE             d eps       ncg     rms          rms(c)
DAV:   1    -0.222846495432E+03   -0.74215E-09    0.71377E-11   198   0.885E-11    0.362E-10
RMM:   2    -0.222846495432E+03    0.25466E-10    0.00000E+00     0   0.128E-10
 208 F= -.22284650E+03 E0= -.22284753E+03  d E =-.618456E-10
       N       E                     dE             d eps       ncg     rms          rms(c)
DAV:   1    -0.222846495433E+03   -0.72032E-09    0.12524E-11   198   0.225E-10    0.139E-10
RMM:   2    -0.222846495432E+03    0.80763E-09    0.00000E+00     0   0.811E-11
 209 F= -.22284650E+03 E0= -.22284753E+03  d E =0.618456E-10
       N       E                     dE             d eps       ncg     rms          rms(c)
DAV:   1    -0.222846495431E+03    0.12660E-08    0.17610E-10   198   0.831E-11    0.321E-10
RMM:   2    -0.222846495432E+03   -0.38199E-09    0.00000E+00     0   0.112E-10
 210 F= -.22284650E+03 E0= -.22284753E+03  d E =0.763976E-10
       N       E                     dE             d eps       ncg     rms          rms(c)
DAV:   1    -0.222846495432E+03   -0.81127E-09    0.90585E-11   198   0.155E-10    0.280E-10
RMM:   2    -0.222846495432E+03    0.32014E-09    0.00000E+00     0   0.123E-10
 211 F= -.22284650E+03 E0= -.22284753E+03  d E =-.109139E-09
       N       E                     dE             d eps       ncg     rms          rms(c)
DAV:   1    -0.222846495432E+03   -0.34197E-09    0.78299E-11   198   0.182E-10    0.225E-10
RMM:   2    -0.222846495432E+03    0.53114E-09    0.00000E+00     0   0.936E-11
 212 F= -.22284650E+03 E0= -.22284753E+03  d E =-.130967E-09
       N       E                     dE             d eps       ncg     rms          rms(c)
DAV:   1    -0.222846495431E+03    0.10732E-08    0.10638E-11   198   0.146E-10    0.367E-10
RMM:   2    -0.222846495432E+03   -0.40018E-09    0.00000E+00     0   0.135E-10
 213 F= -.22284650E+03 E0= -.22284753E+03  d E =0.141881E-09
       N       E                     dE             d eps       ncg     rms          rms(c)
DAV:   1    -0.222846495431E+03    0.40745E-09   -0.58787E-11   198   0.181E-10    0.227E-10
RMM:   2    -0.222846495432E+03   -0.85856E-09    0.00000E+00     0   0.117E-10
 214 F= -.22284650E+03 E0= -.22284753E+03  d E =-.509317E-10
       N       E                     dE             d eps       ncg     rms          rms(c)
DAV:   1    -0.222846495432E+03   -0.62209E-09    0.23408E-10   198   0.134E-10    0.298E-10
RMM:   2    -0.222846495432E+03   -0.25102E-09    0.00000E+00     0   0.847E-11
 215 F= -.22284650E+03 E0= -.22284753E+03  d E =-.145519E-10
       N       E                     dE             d eps       ncg     rms          rms(c)
DAV:   1    -0.222846495432E+03   -0.56752E-09    0.56921E-11   198   0.120E-10    0.330E-10
RMM:   2    -0.222846495432E+03    0.43292E-09    0.00000E+00     0   0.107E-10
 216 F= -.22284650E+03 E0= -.22284753E+03  d E =0.116415E-09
       N       E                     dE             d eps       ncg     rms          rms(c)
DAV:   1    -0.222846495432E+03   -0.14552E-10    0.17146E-11   198   0.184E-10    0.261E-10
RMM:   2    -0.222846495432E+03    0.43656E-09    0.00000E+00     0   0.102E-10
 217 F= -.22284650E+03 E0= -.22284753E+03  d E =-.109139E-10
       N       E                     dE             d eps       ncg     rms          rms(c)
DAV:   1    -0.222846495431E+03    0.69122E-09    0.12227E-11   198   0.144E-10    0.261E-10
RMM:   2    -0.222846495432E+03   -0.27285E-09    0.00000E+00     0   0.866E-11
 218 F= -.22284650E+03 E0= -.22284753E+03  d E =-.181899E-10
       N       E                     dE             d eps       ncg     rms          rms(c)
DAV:   1    -0.222846495433E+03   -0.10950E-08    0.10913E-10   198   0.126E-10    0.294E-10
RMM:   2    -0.222846495432E+03    0.81855E-09    0.00000E+00     0   0.114E-10
 219 F= -.22284650E+03 E0= -.22284753E+03  d E =-.363798E-11
       N       E                     dE             d eps       ncg     rms          rms(c)
DAV:   1    -0.222846495432E+03    0.52023E-09    0.13830E-10   198   0.169E-10    0.218E-10
RMM:   2    -0.222846495432E+03    0.23647E-09    0.00000E+00     0   0.857E-11
 220 F= -.22284650E+03 E0= -.22284753E+03  d E =-.618456E-10
       N       E                     dE             d eps       ncg     rms          rms(c)
DAV:   1    -0.222846495431E+03    0.80399E-09    0.16467E-11   198   0.101E-10    0.166E-10
RMM:   2    -0.222846495432E+03   -0.62573E-09    0.00000E+00     0   0.711E-11
 221 F= -.22284650E+03 E0= -.22284753E+03  d E =-.582077E-10
       N       E                     dE             d eps       ncg     rms          rms(c)
DAV:   1    -0.222846495431E+03   -0.13461E-09    0.51940E-13   198   0.857E-11    0.299E-10
RMM:   2    -0.222846495432E+03   -0.41837E-09    0.00000E+00     0   0.935E-11
 222 F= -.22284650E+03 E0= -.22284753E+03  d E =0.727596E-10
       N       E                     dE             d eps       ncg     rms          rms(c)
DAV:   1    -0.222846495431E+03    0.52751E-09    0.44043E-12   198   0.130E-10    0.275E-10
RMM:   2    -0.222846495432E+03   -0.93860E-09    0.00000E+00     0   0.104E-10
 223 F= -.22284650E+03 E0= -.22284753E+03  d E =0.727596E-11
       N       E                     dE             d eps       ncg     rms          rms(c)
DAV:   1    -0.222846495432E+03   -0.86584E-09   -0.85642E-11   198   0.154E-10    0.215E-10
RMM:   2    -0.222846495432E+03    0.25466E-10    0.00000E+00     0   0.903E-11
 224 F= -.22284650E+03 E0= -.22284753E+03  d E =0.982254E-10
       N       E                     dE             d eps       ncg     rms          rms(c)
DAV:   1    -0.222846495431E+03    0.53842E-09   -0.17154E-11   198   0.146E-10    0.332E-10
RMM:   2    -0.222846495432E+03   -0.61482E-09    0.00000E+00     0   0.142E-10
 225 F= -.22284650E+03 E0= -.22284753E+03  d E =-.101863E-09
       N       E                     dE             d eps       ncg     rms          rms(c)
DAV:   1    -0.222846495432E+03   -0.71668E-09    0.82400E-11   198   0.173E-10    0.217E-10
RMM:   2    -0.222846495432E+03   -0.21828E-10    0.00000E+00     0   0.829E-11
 226 F= -.22284650E+03 E0= -.22284753E+03  d E =-.123691E-09
       N       E                     dE             d eps       ncg     rms          rms(c)
DAV:   1    -0.222846495431E+03    0.10950E-08    0.85114E-11   198   0.105E-10    0.164E-10
RMM:   2    -0.222846495432E+03   -0.84401E-09    0.00000E+00     0   0.724E-11
 227 F= -.22284650E+03 E0= -.22284753E+03  d E =0.272848E-09
       N       E                     dE             d eps       ncg     rms          rms(c)
DAV:   1    -0.222846495432E+03   -0.10114E-08    0.67883E-12   198   0.837E-11    0.279E-10
RMM:   2    -0.222846495432E+03    0.83674E-10    0.00000E+00     0   0.105E-10
 228 F= -.22284650E+03 E0= -.22284753E+03  d E =-.836735E-10
       N       E                     dE             d eps       ncg     rms          rms(c)
DAV:   1    -0.222846495432E+03   -0.24011E-09    0.63298E-11   198   0.165E-10    0.221E-10
RMM:   2    -0.222846495432E+03    0.26193E-09    0.00000E+00     0   0.775E-11
 229 F= -.22284650E+03 E0= -.22284753E+03  d E =-.618456E-10
       N       E                     dE             d eps       ncg     rms          rms(c)
DAV:   1    -0.222846495431E+03    0.11969E-08    0.48793E-11   198   0.103E-10    0.303E-10
RMM:   2    -0.222846495432E+03   -0.10186E-08    0.00000E+00     0   0.109E-10
 230 F= -.22284650E+03 E0= -.22284753E+03  d E =-.836735E-10
       N       E                     dE             d eps       ncg     rms          rms(c)
DAV:   1    -0.222846495433E+03   -0.19172E-08    0.13852E-11   198   0.179E-10    0.411E-10
RMM:   2    -0.222846495432E+03    0.86948E-09    0.00000E+00     0   0.165E-10
 231 F= -.22284650E+03 E0= -.22284753E+03  d E =-.291038E-10
       N       E                     dE             d eps       ncg     rms          rms(c)
DAV:   1    -0.222846495432E+03    0.11605E-08    0.94627E-11   198   0.276E-10    0.331E-10
RMM:   2    -0.222846495432E+03   -0.10550E-09    0.00000E+00     0   0.123E-10
 232 F= -.22284650E+03 E0= -.22284753E+03  d E =0.185537E-09
       N       E                     dE             d eps       ncg     rms          rms(c)
DAV:   1    -0.222846495432E+03   -0.48021E-09    0.47274E-11   198   0.185E-10    0.255E-10
RMM:   2    -0.222846495432E+03    0.38926E-09    0.00000E+00     0   0.110E-10
 233 F= -.22284650E+03 E0= -.22284753E+03  d E =0.145519E-10
       N       E                     dE             d eps       ncg     rms          rms(c)
DAV:   1    -0.222846495432E+03    0.21464E-09    0.12419E-10   198   0.138E-10    0.272E-10
RMM:   2    -0.222846495432E+03    0.10186E-09    0.00000E+00     0   0.104E-10
 234 F= -.22284650E+03 E0= -.22284753E+03  d E =-.727596E-10
       N       E                     dE             d eps       ncg     rms          rms(c)
DAV:   1    -0.222846495432E+03    0.30195E-09    0.13533E-10   198   0.185E-10    0.359E-10
RMM:   2    -0.222846495432E+03   -0.22192E-09    0.00000E+00     0   0.119E-10
 235 F= -.22284650E+03 E0= -.22284753E+03  d E =-.218279E-10
       N       E                     dE             d eps       ncg     rms          rms(c)
DAV:   1    -0.222846495431E+03    0.83674E-10    0.16010E-10   198   0.175E-10    0.312E-10
RMM:   2    -0.222846495432E+03   -0.45475E-09    0.00000E+00     0   0.131E-10
 236 F= -.22284650E+03 E0= -.22284753E+03  d E =-.149157E-09
       N       E                     dE             d eps       ncg     rms          rms(c)
DAV:   1    -0.222846495432E+03   -0.78580E-09    0.19473E-10   198   0.193E-10    0.336E-10
RMM:   2    -0.222846495432E+03    0.40745E-09    0.00000E+00     0   0.120E-10
 237 F= -.22284650E+03 E0= -.22284753E+03  d E =0.763976E-10
       N       E                     dE             d eps       ncg     rms          rms(c)
DAV:   1    -0.222846495430E+03    0.18081E-08    0.75439E-11   198   0.174E-10    0.171E-10
RMM:   2    -0.222846495432E+03   -0.12842E-08    0.00000E+00     0   0.654E-11
 238 F= -.22284650E+03 E0= -.22284753E+03  d E =0.116415E-09
       N       E                     dE             d eps       ncg     rms          rms(c)
DAV:   1    -0.222846495432E+03   -0.11496E-08    0.14983E-10   198   0.885E-11    0.434E-10
RMM:   2    -0.222846495432E+03   -0.28376E-09    0.00000E+00     0   0.133E-10
 239 F= -.22284650E+03 E0= -.22284753E+03  d E =-.149157E-09
       N       E                     dE             d eps       ncg     rms          rms(c)
DAV:   1    -0.222846495432E+03   -0.55297E-09   -0.12983E-11   198   0.199E-10    0.305E-10
RMM:   2    -0.222846495432E+03    0.44747E-09    0.00000E+00     0   0.111E-10
 240 F= -.22284650E+03 E0= -.22284753E+03  d E =0.178261E-09
       N       E                     dE             d eps       ncg     rms          rms(c)
DAV:   1    -0.222846495431E+03    0.13351E-08    0.22377E-10   198   0.136E-10    0.268E-10
RMM:   2    -0.222846495432E+03   -0.92041E-09    0.00000E+00     0   0.878E-11
 241 F= -.22284650E+03 E0= -.22284753E+03  d E =-.327418E-10
[...]
 439 F= -.22284650E+03 E0= -.22284753E+03  d E =0.145519E-10
       N       E                     dE             d eps       ncg     rms          rms(c)
DAV:   1    -0.222846495431E+03    0.10477E-08    0.15924E-10   198   0.256E-10    0.231E-10
RMM:   2    -0.222846495432E+03   -0.70941E-09    0.00000E+00     0   0.859E-11
 440 F= -.22284650E+03 E0= -.22284753E+03  d E =0.691216E-10
       N       E                     dE             d eps       ncg     rms          rms(c)
DAV:   1    -0.222846495433E+03   -0.15170E-08    0.11868E-10   198   0.115E-10    0.230E-10
RMM:   2    -0.222846495432E+03    0.60754E-09    0.00000E+00     0   0.828E-11
 441 F= -.22284650E+03 E0= -.22284753E+03  d E =-.200089E-09
       N       E                     dE             d eps       ncg     rms          rms(c)
DAV:   1    -0.222846495432E+03    0.73123E-09    0.17254E-10   198   0.102E-10    0.281E-10
RMM:   2    -0.222846495432E+03   -0.80036E-10    0.00000E+00     0   0.907E-11
 442 F= -.22284650E+03 E0= -.22284753E+03  d E =0.436557E-10
       N       E                     dE             d eps       ncg     rms          rms(c)
DAV:   1    -0.222846495432E+03   -0.25466E-10    0.11888E-10   198   0.151E-10    0.235E-10
RMM:   2    -0.222846495432E+03    0.50932E-10    0.00000E+00     0   0.938E-11
 443 F= -.22284650E+03 E0= -.22284753E+03  d E =0.105501E-09
       N       E                     dE             d eps       ncg     rms          rms(c)
DAV:   1    -0.222846495431E+03    0.81855E-09    0.17018E-10   198   0.131E-10    0.271E-10
RMM:   2    -0.222846495432E+03   -0.73487E-09    0.00000E+00     0   0.949E-11
 444 F= -.22284650E+03 E0= -.22284753E+03  d E =0.327418E-10
       N       E                     dE             d eps       ncg     rms          rms(c)
DAV:   1    -0.222846495432E+03   -0.61846E-09    0.12573E-10   198   0.140E-10    0.227E-10
RMM:   2    -0.222846495432E+03   -0.12733E-09    0.00000E+00     0   0.909E-11
 445 F= -.22284650E+03 E0= -.22284753E+03  d E =-.109139E-10
       N       E                     dE             d eps       ncg     rms          rms(c)
DAV:   1    -0.222846495431E+03    0.98589E-09    0.26943E-11   198   0.116E-10    0.294E-10
RMM:   2    -0.222846495432E+03   -0.10186E-08    0.00000E+00     0   0.885E-11
 446 F= -.22284650E+03 E0= -.22284753E+03  d E =0.945874E-10
       N       E                     dE             d eps       ncg     rms          rms(c)
DAV:   1    -0.222846495433E+03   -0.18917E-08    0.43670E-11   198   0.155E-10    0.346E-10
RMM:   2    -0.222846495432E+03    0.69485E-09    0.00000E+00     0   0.107E-10
 447 F= -.22284650E+03 E0= -.22284753E+03  d E =-.178261E-09
       N       E                     dE             d eps       ncg     rms          rms(c)
DAV:   1    -0.222846495431E+03    0.13169E-08    0.93222E-11   198   0.160E-10    0.190E-10
RMM:   2    -0.222846495432E+03   -0.68030E-09    0.00000E+00     0   0.796E-11
 448 F= -.22284650E+03 E0= -.22284753E+03  d E =-.582077E-10
       N       E                     dE             d eps       ncg     rms          rms(c)
DAV:   1    -0.222846495431E+03   -0.27285E-09    0.10881E-10   198   0.996E-11    0.333E-10
RMM:   2    -0.222846495432E+03   -0.29104E-09    0.00000E+00     0   0.753E-11
 449 F= -.22284650E+03 E0= -.22284753E+03  d E =0.116415E-09
       N       E                     dE             d eps       ncg     rms          rms(c)
DAV:   1    -0.222846495432E+03   -0.62937E-09    0.64168E-11   198   0.127E-10    0.215E-10
RMM:   2    -0.222846495432E+03    0.42201E-09    0.00000E+00     0   0.824E-11
 450 F= -.22284650E+03 E0= -.22284753E+03  d E =0.836735E-10
       N       E                     dE             d eps       ncg     rms          rms(c)
DAV:   1    -0.222846495431E+03    0.12878E-08    0.99645E-11   198   0.129E-10    0.389E-10
RMM:   2    -0.222846495432E+03   -0.89858E-09    0.00000E+00     0   0.119E-10
 451 F= -.22284650E+03 E0= -.22284753E+03  d E =-.327418E-10
       N       E                     dE             d eps       ncg     rms          rms(c)
DAV:   1    -0.222846495431E+03   -0.13097E-09    0.46648E-11   198   0.177E-10    0.307E-10
RMM:   2    -0.222846495432E+03   -0.91677E-09    0.00000E+00     0   0.113E-10
 452 F= -.22284650E+03 E0= -.22284753E+03  d E =-.149157E-09
       N       E                     dE             d eps       ncg     rms          rms(c)
DAV:   1    -0.222846495432E+03   -0.74942E-09    0.16857E-10   198   0.157E-10    0.266E-10
RMM:   2    -0.222846495432E+03   -0.11642E-09    0.00000E+00     0   0.905E-11
 453 F= -.22284650E+03 E0= -.22284753E+03  d E =0.509317E-10
       N       E                     dE             d eps       ncg     rms          rms(c)
DAV:   1    -0.222846495432E+03    0.36380E-11    0.56457E-11   198   0.140E-10    0.223E-10
RMM:   2    -0.222846495432E+03   -0.25102E-09    0.00000E+00     0   0.809E-11
 454 F= -.22284650E+03 E0= -.22284753E+03  d E =-.130967E-09
       N       E                     dE             d eps       ncg     rms          rms(c)
DAV:   1    -0.222846495432E+03   -0.37471E-09    0.10984E-10   198   0.108E-10    0.325E-10
RMM:   2    -0.222846495432E+03    0.30195E-09    0.00000E+00     0   0.997E-11
 455 F= -.22284650E+03 E0= -.22284753E+03  d E =0.178261E-09
       N       E                     dE             d eps       ncg     rms          rms(c)
DAV:   1    -0.222846495432E+03   -0.18190E-10    0.12608E-10   198   0.127E-10    0.363E-10
RMM:   2    -0.222846495432E+03    0.30559E-09    0.00000E+00     0   0.118E-10
 456 F= -.22284650E+03 E0= -.22284753E+03  d E =-.145519E-10
       N       E                     dE             d eps       ncg     rms          rms(c)
DAV:   1    -0.222846495432E+03   -0.32014E-09    0.73405E-11   198   0.210E-10    0.205E-10
RMM:   2    -0.222846495432E+03    0.72032E-09    0.00000E+00     0   0.116E-10
 457 F= -.22284650E+03 E0= -.22284753E+03  d E =0.945874E-10
       N       E                     dE             d eps       ncg     rms          rms(c)
DAV:   1    -0.222846495431E+03    0.14006E-08    0.51769E-11   198   0.127E-10    0.347E-10
RMM:   2    -0.222846495432E+03   -0.79672E-09    0.00000E+00     0   0.118E-10
 458 F= -.22284650E+03 E0= -.22284753E+03  d E =-.116415E-09
       N       E                     dE             d eps       ncg     rms          rms(c)
DAV:   1    -0.222846495433E+03   -0.15207E-08    0.37313E-11   198   0.175E-10    0.242E-10
RMM:   2    -0.222846495432E+03    0.79672E-09    0.00000E+00     0   0.103E-10
 459 F= -.22284650E+03 E0= -.22284753E+03  d E =0.727596E-10
       N       E                     dE             d eps       ncg     rms          rms(c)
DAV:   1    -0.222846495431E+03    0.11059E-08    0.12817E-10   198   0.173E-10    0.264E-10
RMM:   2    -0.222846495432E+03   -0.46566E-09    0.00000E+00     0   0.947E-11
 460 F= -.22284650E+03 E0= -.22284753E+03  d E =-.156433E-09
       N       E                     dE             d eps       ncg     rms          rms(c)
DAV:   1    -0.222846495432E+03   -0.42201E-09   -0.89397E-12   198   0.118E-10    0.318E-10
RMM:   2    -0.222846495432E+03   -0.25466E-10    0.00000E+00     0   0.117E-10
 461 F= -.22284650E+03 E0= -.22284753E+03  d E =0.181899E-10
       N       E                     dE             d eps       ncg     rms          rms(c)
DAV:   1    -0.222846495432E+03    0.61846E-10    0.28184E-10   198   0.146E-10    0.309E-10
RMM:   2    -0.222846495432E+03   -0.12733E-09    0.00000E+00     0   0.106E-10
 462 F= -.22284650E+03 E0= -.22284753E+03  d E =-.400178E-10
       N       E                     dE             d eps       ncg     rms          rms(c)
DAV:   1    -0.222846495431E+03    0.41837E-09    0.10865E-10   198   0.193E-10    0.298E-10
RMM:   2    -0.222846495432E+03   -0.37835E-09    0.00000E+00     0   0.873E-11
 463 F= -.22284650E+03 E0= -.22284753E+03  d E =0.167347E-09
       N       E                     dE             d eps       ncg     rms          rms(c)
DAV:   1    -0.222846495432E+03   -0.80399E-09    0.12855E-11   198   0.124E-10    0.311E-10
RMM:   2    -0.222846495432E+03    0.38199E-09    0.00000E+00     0   0.116E-10
 464 F= -.22284650E+03 E0= -.22284753E+03  d E =-.436557E-10
       N       E                     dE             d eps       ncg     rms          rms(c)
DAV:   1    -0.222846495431E+03    0.16153E-08    0.49096E-11   198   0.168E-10    0.367E-10
RMM:   2    -0.222846495432E+03   -0.11678E-08    0.00000E+00     0   0.132E-10
 465 F= -.22284650E+03 E0= -.22284753E+03  d E =0.654836E-10
       N       E                     dE             d eps       ncg     rms          rms(c)
DAV:   1    -0.222846495432E+03   -0.14152E-08   -0.30628E-11   198   0.247E-10    0.206E-10
RMM:   2    -0.222846495432E+03    0.61846E-10    0.00000E+00     0   0.104E-10
 466 F= -.22284650E+03 E0= -.22284753E+03  d E =-.185537E-09
       N       E                     dE             d eps       ncg     rms          rms(c)
DAV:   1    -0.222846495431E+03    0.69849E-09    0.15655E-10   198   0.137E-10    0.323E-10
RMM:   2    -0.222846495432E+03   -0.44020E-09    0.00000E+00     0   0.102E-10
 467 F= -.22284650E+03 E0= -.22284753E+03  d E =0.196451E-09
       N       E                     dE             d eps       ncg     rms          rms(c)
DAV:   1    -0.222846495432E+03   -0.33469E-09    0.94112E-11   198   0.130E-10    0.386E-10
RMM:   2    -0.222846495432E+03   -0.25830E-09    0.00000E+00     0   0.154E-10
 468 F= -.22284650E+03 E0= -.22284753E+03  d E =-.152795E-09
       N       E                     dE             d eps       ncg     rms          rms(c)
DAV:   1    -0.222846495433E+03   -0.13060E-08    0.82835E-11   198   0.252E-10    0.247E-10
RMM:   2    -0.222846495432E+03    0.10295E-08    0.00000E+00     0   0.116E-10
 469 F= -.22284650E+03 E0= -.22284753E+03  d E =-.181899E-10
       N       E                     dE             d eps       ncg     rms          rms(c)
DAV:   1    -0.222846495431E+03    0.23902E-08    0.10046E-10   198   0.185E-10    0.241E-10
RMM:   2    -0.222846495432E+03   -0.13933E-08    0.00000E+00     0   0.105E-10
 470 F= -.22284650E+03 E0= -.22284753E+03  d E =-.327418E-10
       N       E                     dE             d eps       ncg     rms          rms(c)
DAV:   1    -0.222846495432E+03   -0.14516E-08    0.85897E-11   198   0.165E-10    0.199E-10
RMM:   2    -0.222846495432E+03    0.65484E-10    0.00000E+00     0   0.912E-11
 471 F= -.22284650E+03 E0= -.22284753E+03  d E =0.727596E-11
       N       E                     dE             d eps       ncg     rms          rms(c)
DAV:   1    -0.222846495432E+03   -0.18917E-09    0.18209E-11   198   0.113E-10    0.328E-10
RMM:   2    -0.222846495432E+03    0.31287E-09    0.00000E+00     0   0.101E-10
 472 F= -.22284650E+03 E0= -.22284753E+03  d E =0.582077E-10
       N       E                     dE             d eps       ncg     rms          rms(c)
DAV:   1    -0.222846495433E+03   -0.42928E-09    0.66852E-12   198   0.173E-10    0.270E-10
RMM:   2    -0.222846495432E+03    0.70213E-09    0.00000E+00     0   0.931E-11
 473 F= -.22284650E+03 E0= -.22284753E+03  d E =-.400178E-10
       N       E                     dE             d eps       ncg     rms          rms(c)
DAV:   1    -0.222846495433E+03   -0.21464E-09    0.87940E-11   198   0.126E-10    0.283E-10
RMM:   2    -0.222846495432E+03    0.10768E-08    0.00000E+00     0   0.901E-11
 474 F= -.22284650E+03 E0= -.22284753E+03  d E =0.160071E-09
       N       E                     dE             d eps       ncg     rms          rms(c)
DAV:   1    -0.222846495432E+03    0.69849E-09    0.57358E-11   198   0.110E-10    0.228E-10
RMM:   2    -0.222846495432E+03    0.40745E-09    0.00000E+00     0   0.910E-11
 475 F= -.22284650E+03 E0= -.22284753E+03  d E =0.291038E-10
       N       E                     dE             d eps       ncg     rms          rms(c)
DAV:   1    -0.222846495431E+03    0.60754E-09   -0.48941E-11   198   0.157E-10    0.265E-10
RMM:   2    -0.222846495432E+03   -0.42928E-09    0.00000E+00     0   0.101E-10
 476 F= -.22284650E+03 E0= -.22284753E+03  d E =-.229193E-09
       N       E                     dE             d eps       ncg     rms          rms(c)
DAV:   1    -0.222846495431E+03    0.26193E-09    0.81270E-11   198   0.142E-10    0.275E-10
RMM:   2    -0.222846495432E+03   -0.50568E-09    0.00000E+00     0   0.129E-10
 477 F= -.22284650E+03 E0= -.22284753E+03  d E =0.185537E-09
       N       E                     dE             d eps       ncg     rms          rms(c)
DAV:   1    -0.222846495431E+03    0.52023E-09    0.98964E-11   198   0.184E-10    0.239E-10
RMM:   2    -0.222846495432E+03   -0.11059E-08    0.00000E+00     0   0.945E-11
 478 F= -.22284650E+03 E0= -.22284753E+03  d E =-.800355E-10
       N       E                     dE             d eps       ncg     rms          rms(c)
DAV:   1    -0.222846495432E+03   -0.15280E-08    0.58924E-11   198   0.133E-10    0.245E-10
RMM:   2    -0.222846495432E+03    0.52387E-09    0.00000E+00     0   0.963E-11
 479 F= -.22284650E+03 E0= -.22284753E+03  d E =0.101863E-09
       N       E                     dE             d eps       ncg     rms          rms(c)
DAV:   1    -0.222846495432E+03    0.64028E-09    0.13776E-10   198   0.129E-10    0.187E-10
RMM:   2    -0.222846495432E+03   -0.54570E-10    0.00000E+00     0   0.748E-11
 480 F= -.22284650E+03 E0= -.22284753E+03  d E =0.618456E-10
       N       E                     dE             d eps       ncg     rms          rms(c)
DAV:   1    -0.222846495432E+03    0.90949E-10    0.51327E-11   198   0.986E-11    0.294E-10
RMM:   2    -0.222846495432E+03   -0.28740E-09    0.00000E+00     0   0.105E-10
 481 F= -.22284650E+03 E0= -.22284753E+03  d E =-.141881E-09
       N       E                     dE             d eps       ncg     rms          rms(c)
DAV:   1    -0.222846495432E+03   -0.18190E-09    0.22218E-10   198   0.181E-10    0.269E-10
RMM:   2    -0.222846495432E+03   -0.12369E-09    0.00000E+00     0   0.108E-10
 482 F= -.22284650E+03 E0= -.22284753E+03  d E =-.181899E-10
       N       E                     dE             d eps       ncg     rms          rms(c)
DAV:   1    -0.222846495432E+03   -0.29831E-09    0.39175E-11   198   0.155E-10    0.181E-10
RMM:   2    -0.222846495432E+03    0.29831E-09    0.00000E+00     0   0.876E-11
 483 F= -.22284650E+03 E0= -.22284753E+03  d E =0.123691E-09
       N       E                     dE             d eps       ncg     rms          rms(c)
DAV:   1    -0.222846495432E+03    0.26193E-09    0.13186E-10   198   0.940E-11    0.303E-10
RMM:   2    -0.222846495432E+03   -0.43656E-10    0.00000E+00     0   0.116E-10
 484 F= -.22284650E+03 E0= -.22284753E+03  d E =-.800355E-10
       N       E                     dE             d eps       ncg     rms          rms(c)
DAV:   1    -0.222846495432E+03   -0.74942E-09    0.18300E-10   198   0.203E-10    0.249E-10
RMM:   2    -0.222846495432E+03    0.66575E-09    0.00000E+00     0   0.115E-10
 485 F= -.22284650E+03 E0= -.22284753E+03  d E =-.400178E-10
       N       E                     dE             d eps       ncg     rms          rms(c)
DAV:   1    -0.222846495432E+03    0.42564E-09    0.20356E-10   198   0.136E-10    0.332E-10
RMM:   2    -0.222846495432E+03    0.17826E-09    0.00000E+00     0   0.933E-11
 486 F= -.22284650E+03 E0= -.22284753E+03  d E =-.618456E-10
       N       E                     dE             d eps       ncg     rms          rms(c)
DAV:   1    -0.222846495432E+03    0.27285E-09    0.70742E-11   198   0.139E-10    0.245E-10
RMM:   2    -0.222846495432E+03   -0.69122E-10    0.00000E+00     0   0.862E-11
 487 F= -.22284650E+03 E0= -.22284753E+03  d E =0.254659E-10
       N       E                     dE             d eps       ncg     rms          rms(c)
DAV:   1    -0.222846495433E+03   -0.94587E-09    0.99889E-11   198   0.116E-10    0.262E-10
RMM:   2    -0.222846495432E+03    0.84037E-09    0.00000E+00     0   0.115E-10
 488 F= -.22284650E+03 E0= -.22284753E+03  d E =-.363798E-10
       N       E                     dE             d eps       ncg     rms          rms(c)
DAV:   1    -0.222846495431E+03    0.13715E-08    0.88587E-11   198   0.168E-10    0.274E-10
RMM:   2    -0.222846495432E+03   -0.33833E-09    0.00000E+00     0   0.101E-10
 489 F= -.22284650E+03 E0= -.22284753E+03  d E =0.192813E-09
       N       E                     dE             d eps       ncg     rms          rms(c)
DAV:   1    -0.222846495431E+03    0.32014E-09   -0.10468E-10   198   0.155E-10    0.403E-10
RMM:   2    -0.222846495432E+03   -0.72032E-09    0.00000E+00     0   0.149E-10
 490 F= -.22284650E+03 E0= -.22284753E+03  d E =-.618456E-10
       N       E                     dE             d eps       ncg     rms          rms(c)
DAV:   1    -0.222846495432E+03   -0.66575E-09    0.60061E-11   198   0.261E-10    0.214E-10
RMM:   2    -0.222846495432E+03   -0.29104E-10    0.00000E+00     0   0.835E-11
 491 F= -.22284650E+03 E0= -.22284753E+03  d E =0.254659E-10
       N       E                     dE             d eps       ncg     rms          rms(c)
DAV:   1    -0.222846495432E+03   -0.47294E-10    0.14261E-10   198   0.123E-10    0.312E-10
RMM:   2    -0.222846495432E+03   -0.69122E-10    0.00000E+00     0   0.103E-10
 492 F= -.22284650E+03 E0= -.22284753E+03  d E =-.873115E-10
       N       E                     dE             d eps       ncg     rms          rms(c)
DAV:   1    -0.222846495432E+03   -0.21828E-10    0.13438E-10   198   0.151E-10    0.215E-10
RMM:   2    -0.222846495432E+03   -0.12369E-09    0.00000E+00     0   0.976E-11
 493 F= -.22284650E+03 E0= -.22284753E+03  d E =-.763976E-10
       N       E                     dE             d eps       ncg     rms          rms(c)
DAV:   1    -0.222846495431E+03    0.39654E-09    0.18941E-11   198   0.111E-10    0.351E-10
RMM:   2    -0.222846495432E+03   -0.38199E-09    0.00000E+00     0   0.142E-10
 494 F= -.22284650E+03 E0= -.22284753E+03  d E =0.138243E-09
       N       E                     dE             d eps       ncg     rms          rms(c)
DAV:   1    -0.222846495432E+03   -0.11278E-08    0.50313E-11   198   0.245E-10    0.364E-10
RMM:   2    -0.222846495432E+03    0.59299E-09    0.00000E+00     0   0.145E-10
 495 F= -.22284650E+03 E0= -.22284753E+03  d E =-.152795E-09
       N       E                     dE             d eps       ncg     rms          rms(c)
DAV:   1    -0.222846495431E+03    0.10223E-08    0.29454E-11   198   0.216E-10    0.228E-10
RMM:   2    -0.222846495432E+03   -0.40382E-09    0.00000E+00     0   0.872E-11
 496 F= -.22284650E+03 E0= -.22284753E+03  d E =0.254659E-10
       N       E                     dE             d eps       ncg     rms          rms(c)
DAV:   1    -0.222846495432E+03   -0.26193E-09    0.11971E-10   198   0.122E-10    0.430E-10
RMM:   2    -0.222846495432E+03   -0.12369E-09    0.00000E+00     0   0.129E-10
 497 F= -.22284650E+03 E0= -.22284753E+03  d E =0.181899E-10
       N       E                     dE             d eps       ncg     rms          rms(c)
DAV:   1    -0.222846495431E+03    0.66575E-09    0.11902E-11   198   0.225E-10    0.307E-10
RMM:   2    -0.222846495432E+03   -0.62937E-09    0.00000E+00     0   0.112E-10
 498 F= -.22284650E+03 E0= -.22284753E+03  d E =0.160071E-09
       N       E                     dE             d eps       ncg     rms          rms(c)
DAV:   1    -0.222846495431E+03   -0.36380E-11    0.16397E-10   198   0.178E-10    0.297E-10
RMM:   2    -0.222846495432E+03   -0.62573E-09    0.00000E+00     0   0.101E-10
 499 F= -.22284650E+03 E0= -.22284753E+03  d E =0.000000E+00
       N       E                     dE             d eps       ncg     rms          rms(c)
DAV:   1    -0.222846495432E+03   -0.82218E-09   -0.61524E-11   198   0.145E-10    0.302E-10
RMM:   2    -0.222846495432E+03    0.12733E-09    0.00000E+00     0   0.114E-10
 500 F= -.22284650E+03 E0= -.22284753E+03  d E =-.691216E-10
