   6   6   0   0
  0.1789110E+02  0.3589345E-09  0.3589345E-09  0.9621158E-09  0.1500000E-16
   1.0000000000000000E-004
  CAR 
 unknown system                          
     19.91284313    -19.81892954  301      6.67977847      1.00000000
    -19.819  0.0000E+00  0.0000E+00
    -19.686  0.0000E+00  0.0000E+00
    -19.554  0.0000E+00  0.0000E+00
    -19.422  0.0000E+00  0.0000E+00
    -19.289  0.0000E+00  0.0000E+00
    -19.157  0.0000E+00  0.0000E+00
    -19.024  0.0000E+00  0.0000E+00
    -18.892  0.0000E+00  0.0000E+00
    -18.759  0.0000E+00  0.0000E+00
    -18.627  0.0000E+00  0.0000E+00
    -18.495  0.0000E+00  0.0000E+00
    -18.362  0.0000E+00  0.0000E+00
    -18.230  0.1398E-10  0.1851E-11
    -18.097  0.5586E-03  0.7398E-04
    -17.965  0.2470E+00  0.3279E-01
    -17.832  0.1680E+00  0.5504E-01
    -17.700  0.6980E-04  0.5505E-01
    -17.567  0.1332E-12  0.5505E-01
    -17.435  0.0000E+00  0.5505E-01
    -17.303  0.0000E+00  0.5505E-01
    -17.170  0.0000E+00  0.5505E-01
    -17.038  0.0000E+00  0.5505E-01
    -16.905  0.0000E+00  0.5505E-01
    -16.773  0.0000E+00  0.5505E-01
    -16.640  0.0000E+00  0.5505E-01
    -16.508  0.0000E+00  0.5505E-01
    -16.376  0.0000E+00  0.5505E-01
    -16.243  0.0000E+00  0.5505E-01
    -16.111  0.0000E+00  0.5505E-01
    -15.978  0.0000E+00  0.5505E-01
    -15.846  0.0000E+00  0.5505E-01
    -15.713  0.0000E+00  0.5505E-01
    -15.581  0.0000E+00  0.5505E-01
    -15.448  0.0000E+00  0.5505E-01
    -15.316  0.0000E+00  0.5505E-01
    -15.184  0.0000E+00  0.5505E-01
    -15.051  0.0000E+00  0.5505E-01
    -14.919  0.0000E+00  0.5505E-01
    -14.786  0.0000E+00  0.5505E-01
    -14.654  0.0000E+00  0.5505E-01
    -14.521  0.0000E+00  0.5505E-01
    -14.389  0.0000E+00  0.5505E-01
    -14.256  0.0000E+00  0.5505E-01
    -14.124  0.0000E+00  0.5505E-01
    -13.992  0.0000E+00  0.5505E-01
    -13.859  0.0000E+00  0.5505E-01
    -13.727  0.0000E+00  0.5505E-01
    -13.594  0.0000E+00  0.5505E-01
    -13.462  0.0000E+00  0.5505E-01
    -13.329  0.0000E+00  0.5505E-01
    -13.197  0.0000E+00  0.5505E-01
    -13.065  0.0000E+00  0.5505E-01
    -12.932  0.0000E+00  0.5505E-01
    -12.800  0.0000E+00  0.5505E-01
    -12.667  0.0000E+00  0.5505E-01
    -12.535  0.0000E+00  0.5505E-01
    -12.402  0.0000E+00  0.5505E-01
    -12.270  0.0000E+00  0.5505E-01
    -12.137  0.0000E+00  0.5505E-01
    -12.005  0.0000E+00  0.5505E-01
    -11.873  0.0000E+00  0.5505E-01
    -11.740  0.0000E+00  0.5505E-01
    -11.608  0.0000E+00  0.5505E-01
    -11.475  0.0000E+00  0.5505E-01
    -11.343  0.0000E+00  0.5505E-01
    -11.210  0.0000E+00  0.5505E-01
    -11.078  0.0000E+00  0.5505E-01
    -10.946  0.0000E+00  0.5505E-01
    -10.813  0.0000E+00  0.5505E-01
    -10.681  0.0000E+00  0.5505E-01
    -10.548  0.0000E+00  0.5505E-01
    -10.416  0.0000E+00  0.5505E-01
    -10.283  0.0000E+00  0.5505E-01
    -10.151  0.0000E+00  0.5505E-01
    -10.018  0.0000E+00  0.5505E-01
     -9.886  0.0000E+00  0.5505E-01
     -9.754  0.0000E+00  0.5505E-01
     -9.621  0.1048E-13  0.5505E-01
     -9.489  0.2488E-05  0.5505E-01
     -9.356  0.2517E-02  0.5538E-01
     -9.224  0.1329E-02  0.5556E-01
     -9.091  0.4621E-02  0.5617E-01
     -8.959  0.1841E-01  0.5861E-01
     -8.826  0.5991E-04  0.5861E-01
     -8.694  0.4771E-10  0.5861E-01
     -8.562  0.3298E-03  0.5866E-01
     -8.429  0.2122E-01  0.6147E-01
     -8.297  0.4324E-02  0.6204E-01
     -8.164  0.2323E-01  0.6512E-01
     -8.032  0.1479E-01  0.6707E-01
     -7.899  0.9222E-02  0.6830E-01
     -7.767  0.1056E-04  0.6830E-01
     -7.635  0.6389E-02  0.6914E-01
     -7.502  0.6336E-01  0.7753E-01
     -7.370  0.2857E-01  0.8132E-01
     -7.237  0.1588E-01  0.8342E-01
     -7.105  0.2271E-01  0.8643E-01
     -6.972  0.3823E-01  0.9149E-01
     -6.840  0.6843E-01  0.1006E+00
     -6.707  0.6687E-01  0.1094E+00
     -6.575  0.5119E-02  0.1101E+00
     -6.443  0.1736E-07  0.1101E+00
     -6.310  0.0000E+00  0.1101E+00
     -6.178  0.0000E+00  0.1101E+00
     -6.045  0.0000E+00  0.1101E+00
     -5.913  0.0000E+00  0.1101E+00
     -5.780  0.0000E+00  0.1101E+00
     -5.648  0.0000E+00  0.1101E+00
     -5.515  0.0000E+00  0.1101E+00
     -5.383  0.0000E+00  0.1101E+00
     -5.251  0.0000E+00  0.1101E+00
     -5.118  0.0000E+00  0.1101E+00
     -4.986  0.0000E+00  0.1101E+00
     -4.853  0.0000E+00  0.1101E+00
     -4.721  0.0000E+00  0.1101E+00
     -4.588  0.0000E+00  0.1101E+00
     -4.456  0.0000E+00  0.1101E+00
     -4.324  0.0000E+00  0.1101E+00
     -4.191  0.0000E+00  0.1101E+00
     -4.059  0.0000E+00  0.1101E+00
     -3.926  0.0000E+00  0.1101E+00
     -3.794  0.0000E+00  0.1101E+00
     -3.661  0.0000E+00  0.1101E+00
     -3.529  0.0000E+00  0.1101E+00
     -3.396  0.0000E+00  0.1101E+00
     -3.264  0.0000E+00  0.1101E+00
     -3.132  0.7074E-11  0.1101E+00
     -2.999  0.8648E-04  0.1101E+00
     -2.867  0.9924E-02  0.1114E+00
     -2.734  0.1535E-02  0.1116E+00
     -2.602  0.2948E-04  0.1116E+00
     -2.469  0.3171E-01  0.1158E+00
     -2.337  0.2328E-01  0.1189E+00
     -2.205  0.6543E-02  0.1198E+00
     -2.072  0.1057E-01  0.1212E+00
     -1.940  0.1445E-01  0.1231E+00
     -1.807  0.9386E-02  0.1243E+00
     -1.675  0.3435E-01  0.1289E+00
     -1.542  0.5508E-01  0.1362E+00
     -1.410  0.6981E-02  0.1371E+00
     -1.277  0.3064E-04  0.1371E+00
     -1.145  0.1455E-04  0.1371E+00
     -1.013  0.1509E-01  0.1391E+00
     -0.880  0.2456E-01  0.1424E+00
     -0.748  0.8372E-02  0.1435E+00
     -0.615  0.9520E-02  0.1447E+00
     -0.483  0.1719E-03  0.1448E+00
     -0.350  0.1436E-01  0.1467E+00
     -0.218  0.3239E-01  0.1509E+00
     -0.085  0.1108E-01  0.1524E+00
      0.047  0.2294E-01  0.1554E+00
      0.179  0.7732E-02  0.1565E+00
      0.312  0.8252E-02  0.1576E+00
      0.444  0.1355E-01  0.1594E+00
      0.577  0.6922E-02  0.1603E+00
      0.709  0.1875E-02  0.1605E+00
      0.842  0.5932E-01  0.1684E+00
      0.974  0.2269E-01  0.1714E+00
      1.106  0.1198E-01  0.1730E+00
      1.239  0.1394E-01  0.1748E+00
      1.371  0.2586E-01  0.1782E+00
      1.504  0.3663E-01  0.1831E+00
      1.636  0.2929E-01  0.1870E+00
      1.769  0.2562E-01  0.1904E+00
      1.901  0.4513E-01  0.1963E+00
      2.034  0.3294E-01  0.2007E+00
      2.166  0.2466E-01  0.2040E+00
      2.298  0.2298E-01  0.2070E+00
      2.431  0.6154E-01  0.2152E+00
      2.563  0.3019E-01  0.2192E+00
      2.696  0.2299E-01  0.2222E+00
      2.828  0.6707E-01  0.2311E+00
      2.961  0.4436E-01  0.2370E+00
      3.093  0.3325E-01  0.2414E+00
      3.225  0.1925E-01  0.2439E+00
      3.358  0.2128E-01  0.2467E+00
      3.490  0.1786E-01  0.2491E+00
      3.623  0.7943E-01  0.2596E+00
      3.755  0.3926E-01  0.2648E+00
      3.888  0.2642E-01  0.2683E+00
      4.020  0.3556E-01  0.2730E+00
      4.153  0.2094E-01  0.2758E+00
      4.285  0.9999E-02  0.2771E+00
      4.417  0.1716E-01  0.2794E+00
      4.550  0.3118E-02  0.2798E+00
      4.682  0.7438E-07  0.2798E+00
      4.815  0.3525E-12  0.2798E+00
      4.947  0.4336E-04  0.2798E+00
      5.080  0.1847E-01  0.2823E+00
      5.212  0.8955E-02  0.2835E+00
      5.345  0.2056E-01  0.2862E+00
      5.477  0.8151E-04  0.2862E+00
      5.609  0.1063E-05  0.2862E+00
      5.742  0.2366E-02  0.2865E+00
      5.874  0.5831E-02  0.2873E+00
      6.007  0.2427E-01  0.2905E+00
      6.139  0.2982E-01  0.2944E+00
      6.272  0.6809E-02  0.2953E+00
      6.404  0.1653E-02  0.2956E+00
      6.536  0.4998E-02  0.2962E+00
      6.669  0.4531E-01  0.3022E+00
      6.801  0.3104E-01  0.3063E+00
      6.934  0.2677E-01  0.3099E+00
      7.066  0.2224E-02  0.3102E+00
      7.199  0.1165E-01  0.3117E+00
      7.331  0.1605E-02  0.3119E+00
      7.464  0.9556E-05  0.3119E+00
      7.596  0.2449E-02  0.3123E+00
      7.728  0.1390E-02  0.3124E+00
      7.861  0.4544E-06  0.3124E+00
      7.993  0.1032E-03  0.3124E+00
      8.126  0.1061E-01  0.3139E+00
      8.258  0.2007E-01  0.3165E+00
      8.391  0.2090E-01  0.3193E+00
      8.523  0.3130E-01  0.3234E+00
      8.656  0.3349E-01  0.3279E+00
      8.788  0.1642E-01  0.3300E+00
      8.920  0.3415E-01  0.3346E+00
      9.053  0.3932E-01  0.3398E+00
      9.185  0.6181E-01  0.3480E+00
      9.318  0.4984E-01  0.3546E+00
      9.450  0.1269E-01  0.3562E+00
      9.583  0.5033E-01  0.3629E+00
      9.715  0.5883E-01  0.3707E+00
      9.847  0.2265E-01  0.3737E+00
      9.980  0.4469E-01  0.3796E+00
     10.112  0.1983E-01  0.3822E+00
     10.245  0.1583E-01  0.3843E+00
     10.377  0.3529E-01  0.3890E+00
     10.510  0.3307E-01  0.3934E+00
     10.642  0.1393E-01  0.3952E+00
     10.775  0.6254E-01  0.4035E+00
     10.907  0.2037E-01  0.4062E+00
     11.039  0.2463E-01  0.4095E+00
     11.172  0.2343E-01  0.4126E+00
     11.304  0.6056E-01  0.4206E+00
     11.437  0.5562E-01  0.4280E+00
     11.569  0.2662E-01  0.4315E+00
     11.702  0.3834E-01  0.4366E+00
     11.834  0.2647E-01  0.4401E+00
     11.966  0.4200E-01  0.4456E+00
     12.099  0.1075E-01  0.4471E+00
     12.231  0.1944E-01  0.4496E+00
     12.364  0.1921E-01  0.4522E+00
     12.496  0.3599E-01  0.4569E+00
     12.629  0.5300E-01  0.4640E+00
     12.761  0.5008E-02  0.4646E+00
     12.894  0.2331E-01  0.4677E+00
     13.026  0.4096E-01  0.4731E+00
     13.158  0.1148E-01  0.4747E+00
     13.291  0.2714E-01  0.4783E+00
     13.423  0.3021E-01  0.4823E+00
     13.556  0.2875E-01  0.4861E+00
     13.688  0.4557E-01  0.4921E+00
     13.821  0.1833E-01  0.4945E+00
     13.953  0.3459E-01  0.4991E+00
     14.086  0.2422E-01  0.5023E+00
     14.218  0.3821E-01  0.5074E+00
     14.350  0.2534E-01  0.5107E+00
     14.483  0.1896E-01  0.5132E+00
     14.615  0.3180E-01  0.5174E+00
     14.748  0.2466E-01  0.5207E+00
     14.880  0.1250E-01  0.5224E+00
     15.013  0.4986E-01  0.5290E+00
     15.145  0.2229E-01  0.5319E+00
     15.277  0.4322E-01  0.5376E+00
     15.410  0.6471E-01  0.5462E+00
     15.542  0.3155E-01  0.5504E+00
     15.675  0.4535E-01  0.5564E+00
     15.807  0.8811E-02  0.5576E+00
     15.940  0.5385E-03  0.5576E+00
     16.072  0.2073E-01  0.5604E+00
     16.205  0.2383E-01  0.5635E+00
     16.337  0.3560E-01  0.5683E+00
     16.469  0.2134E-01  0.5711E+00
     16.602  0.2071E-02  0.5714E+00
     16.734  0.1357E-01  0.5732E+00
     16.867  0.9127E-02  0.5744E+00
     16.999  0.1765E-01  0.5767E+00
     17.132  0.2005E-02  0.5770E+00
     17.264  0.1325E-01  0.5787E+00
     17.396  0.1359E-02  0.5789E+00
     17.529  0.1325E-01  0.5807E+00
     17.661  0.4208E-01  0.5862E+00
     17.794  0.1198E-02  0.5864E+00
     17.926  0.1592E-08  0.5864E+00
     18.059  0.4998E-03  0.5865E+00
     18.191  0.5223E-02  0.5871E+00
     18.324  0.4946E-04  0.5872E+00
     18.456  0.2541E-11  0.5872E+00
     18.588  0.0000E+00  0.5872E+00
     18.721  0.0000E+00  0.5872E+00
     18.853  0.0000E+00  0.5872E+00
     18.986  0.0000E+00  0.5872E+00
     19.118  0.0000E+00  0.5872E+00
     19.251  0.0000E+00  0.5872E+00
     19.383  0.0000E+00  0.5872E+00
     19.516  0.0000E+00  0.5872E+00
     19.648  0.0000E+00  0.5872E+00
     19.780  0.0000E+00  0.5872E+00
     19.913  0.0000E+00  0.5872E+00
