   6   6   0   0
  0.1789110E+02  0.3589345E-09  0.3589345E-09  0.9621158E-09  0.1500000E-16
   1.0000000000000000E-004
  CAR 
 unknown system                          
     14.35900953    -19.55447232  301      6.67977051      1.00000000
    -19.554  0.0000E+00  0.0000E+00
    -19.441  0.0000E+00  0.0000E+00
    -19.328  0.0000E+00  0.0000E+00
    -19.215  0.0000E+00  0.0000E+00
    -19.102  0.0000E+00  0.0000E+00
    -18.989  0.0000E+00  0.0000E+00
    -18.876  0.0000E+00  0.0000E+00
    -18.763  0.0000E+00  0.0000E+00
    -18.650  0.0000E+00  0.0000E+00
    -18.537  0.0000E+00  0.0000E+00
    -18.424  0.0000E+00  0.0000E+00
    -18.311  0.0000E+00  0.0000E+00
    -18.198  0.3566E-08  0.4032E-09
    -18.085  0.1763E-02  0.1993E-03
    -17.972  0.2560E+00  0.2914E-01
    -17.859  0.2282E+00  0.5494E-01
    -17.746  0.9409E-03  0.5505E-01
    -17.633  0.7443E-09  0.5505E-01
    -17.520  0.0000E+00  0.5505E-01
    -17.407  0.0000E+00  0.5505E-01
    -17.294  0.0000E+00  0.5505E-01
    -17.181  0.0000E+00  0.5505E-01
    -17.067  0.0000E+00  0.5505E-01
    -16.954  0.0000E+00  0.5505E-01
    -16.841  0.0000E+00  0.5505E-01
    -16.728  0.0000E+00  0.5505E-01
    -16.615  0.0000E+00  0.5505E-01
    -16.502  0.0000E+00  0.5505E-01
    -16.389  0.0000E+00  0.5505E-01
    -16.276  0.0000E+00  0.5505E-01
    -16.163  0.0000E+00  0.5505E-01
    -16.050  0.0000E+00  0.5505E-01
    -15.937  0.0000E+00  0.5505E-01
    -15.824  0.0000E+00  0.5505E-01
    -15.711  0.0000E+00  0.5505E-01
    -15.598  0.0000E+00  0.5505E-01
    -15.485  0.0000E+00  0.5505E-01
    -15.372  0.0000E+00  0.5505E-01
    -15.259  0.0000E+00  0.5505E-01
    -15.146  0.0000E+00  0.5505E-01
    -15.033  0.0000E+00  0.5505E-01
    -14.920  0.0000E+00  0.5505E-01
    -14.807  0.0000E+00  0.5505E-01
    -14.694  0.0000E+00  0.5505E-01
    -14.580  0.0000E+00  0.5505E-01
    -14.467  0.0000E+00  0.5505E-01
    -14.354  0.0000E+00  0.5505E-01
    -14.241  0.0000E+00  0.5505E-01
    -14.128  0.0000E+00  0.5505E-01
    -14.015  0.0000E+00  0.5505E-01
    -13.902  0.0000E+00  0.5505E-01
    -13.789  0.0000E+00  0.5505E-01
    -13.676  0.0000E+00  0.5505E-01
    -13.563  0.0000E+00  0.5505E-01
    -13.450  0.0000E+00  0.5505E-01
    -13.337  0.0000E+00  0.5505E-01
    -13.224  0.0000E+00  0.5505E-01
    -13.111  0.0000E+00  0.5505E-01
    -12.998  0.0000E+00  0.5505E-01
    -12.885  0.0000E+00  0.5505E-01
    -12.772  0.0000E+00  0.5505E-01
    -12.659  0.0000E+00  0.5505E-01
    -12.546  0.0000E+00  0.5505E-01
    -12.433  0.0000E+00  0.5505E-01
    -12.320  0.0000E+00  0.5505E-01
    -12.207  0.0000E+00  0.5505E-01
    -12.094  0.0000E+00  0.5505E-01
    -11.980  0.0000E+00  0.5505E-01
    -11.867  0.0000E+00  0.5505E-01
    -11.754  0.0000E+00  0.5505E-01
    -11.641  0.0000E+00  0.5505E-01
    -11.528  0.0000E+00  0.5505E-01
    -11.415  0.0000E+00  0.5505E-01
    -11.302  0.0000E+00  0.5505E-01
    -11.189  0.0000E+00  0.5505E-01
    -11.076  0.0000E+00  0.5505E-01
    -10.963  0.0000E+00  0.5505E-01
    -10.850  0.0000E+00  0.5505E-01
    -10.737  0.0000E+00  0.5505E-01
    -10.624  0.0000E+00  0.5505E-01
    -10.511  0.0000E+00  0.5505E-01
    -10.398  0.0000E+00  0.5505E-01
    -10.285  0.0000E+00  0.5505E-01
    -10.172  0.0000E+00  0.5505E-01
    -10.059  0.0000E+00  0.5505E-01
     -9.946  0.0000E+00  0.5505E-01
     -9.833  0.0000E+00  0.5505E-01
     -9.720  0.0000E+00  0.5505E-01
     -9.607  0.1991E-12  0.5505E-01
     -9.493  0.1825E-05  0.5505E-01
     -9.380  0.1791E-02  0.5525E-01
     -9.267  0.2705E-02  0.5555E-01
     -9.154  0.1474E-03  0.5557E-01
     -9.041  0.1886E-01  0.5770E-01
     -8.928  0.8048E-02  0.5861E-01
     -8.815  0.3650E-05  0.5861E-01
     -8.702  0.1366E-10  0.5861E-01
     -8.589  0.4234E-04  0.5862E-01
     -8.476  0.1548E-01  0.6037E-01
     -8.363  0.1247E-01  0.6178E-01
     -8.250  0.9376E-02  0.6284E-01
     -8.137  0.2203E-01  0.6533E-01
     -8.024  0.1683E-01  0.6723E-01
     -7.911  0.9401E-02  0.6829E-01
     -7.798  0.3525E-04  0.6830E-01
     -7.685  0.3245E-03  0.6833E-01
     -7.572  0.4959E-01  0.7394E-01
     -7.459  0.4107E-01  0.7858E-01
     -7.346  0.2948E-01  0.8192E-01
     -7.233  0.1414E-01  0.8351E-01
     -7.120  0.2397E-01  0.8622E-01
     -7.006  0.1974E-01  0.8846E-01
     -6.893  0.8096E-01  0.9761E-01
     -6.780  0.5723E-01  0.1041E+00
     -6.667  0.5273E-01  0.1100E+00
     -6.554  0.4762E-03  0.1101E+00
     -6.441  0.8865E-09  0.1101E+00
     -6.328  0.0000E+00  0.1101E+00
     -6.215  0.0000E+00  0.1101E+00
     -6.102  0.0000E+00  0.1101E+00
     -5.989  0.0000E+00  0.1101E+00
     -5.876  0.0000E+00  0.1101E+00
     -5.763  0.0000E+00  0.1101E+00
     -5.650  0.0000E+00  0.1101E+00
     -5.537  0.0000E+00  0.1101E+00
     -5.424  0.0000E+00  0.1101E+00
     -5.311  0.0000E+00  0.1101E+00
     -5.198  0.0000E+00  0.1101E+00
     -5.085  0.0000E+00  0.1101E+00
     -4.972  0.0000E+00  0.1101E+00
     -4.859  0.0000E+00  0.1101E+00
     -4.746  0.0000E+00  0.1101E+00
     -4.633  0.0000E+00  0.1101E+00
     -4.519  0.0000E+00  0.1101E+00
     -4.406  0.0000E+00  0.1101E+00
     -4.293  0.0000E+00  0.1101E+00
     -4.180  0.0000E+00  0.1101E+00
     -4.067  0.0000E+00  0.1101E+00
     -3.954  0.0000E+00  0.1101E+00
     -3.841  0.0000E+00  0.1101E+00
     -3.728  0.0000E+00  0.1101E+00
     -3.615  0.0000E+00  0.1101E+00
     -3.502  0.0000E+00  0.1101E+00
     -3.389  0.0000E+00  0.1101E+00
     -3.276  0.0000E+00  0.1101E+00
     -3.163  0.2446E-13  0.1101E+00
     -3.050  0.9109E-06  0.1101E+00
     -2.937  0.3028E-02  0.1104E+00
     -2.824  0.1034E-01  0.1116E+00
     -2.711  0.1587E-03  0.1116E+00
     -2.598  0.5121E-04  0.1116E+00
     -2.485  0.2822E-01  0.1148E+00
     -2.372  0.3236E-01  0.1185E+00
     -2.259  0.1081E-01  0.1197E+00
     -2.146  0.1074E-02  0.1198E+00
     -2.033  0.2336E-01  0.1225E+00
     -1.919  0.5626E-02  0.1231E+00
     -1.806  0.1105E-01  0.1243E+00
     -1.693  0.2511E-01  0.1272E+00
     -1.580  0.7309E-01  0.1354E+00
     -1.467  0.1347E-01  0.1370E+00
     -1.354  0.1211E-02  0.1371E+00
     -1.241  0.1232E-06  0.1371E+00
     -1.128  0.7780E-04  0.1371E+00
     -1.015  0.1691E-01  0.1390E+00
     -0.902  0.2353E-01  0.1417E+00
     -0.789  0.1385E-01  0.1433E+00
     -0.676  0.9897E-02  0.1444E+00
     -0.563  0.3366E-02  0.1447E+00
     -0.450  0.6449E-04  0.1448E+00
     -0.337  0.2352E-01  0.1474E+00
     -0.224  0.3093E-01  0.1509E+00
     -0.111  0.9158E-02  0.1519E+00
      0.002  0.2536E-01  0.1548E+00
      0.115  0.1379E-01  0.1564E+00
      0.228  0.1151E-02  0.1565E+00
      0.341  0.1449E-01  0.1581E+00
      0.454  0.1189E-01  0.1595E+00
      0.568  0.6893E-02  0.1603E+00
      0.681  0.5422E-03  0.1603E+00
      0.794  0.4251E-01  0.1651E+00
      0.907  0.5101E-01  0.1709E+00
      1.020  0.9669E-02  0.1720E+00
      1.133  0.1030E-01  0.1732E+00
      1.246  0.1572E-01  0.1749E+00
      1.359  0.2241E-01  0.1775E+00
      1.472  0.4563E-01  0.1826E+00
      1.585  0.2714E-01  0.1857E+00
      1.698  0.2163E-01  0.1881E+00
      1.811  0.3898E-01  0.1925E+00
      1.924  0.3714E-01  0.1967E+00
      2.037  0.3597E-01  0.2008E+00
      2.150  0.2460E-01  0.2036E+00
      2.263  0.1870E-01  0.2057E+00
      2.376  0.6209E-01  0.2127E+00
      2.489  0.4519E-01  0.2178E+00
      2.602  0.1460E-01  0.2195E+00
      2.715  0.3140E-01  0.2230E+00
      2.828  0.7151E-01  0.2311E+00
      2.941  0.4549E-01  0.2363E+00
      3.055  0.3754E-01  0.2405E+00
      3.168  0.1703E-01  0.2424E+00
      3.281  0.3290E-01  0.2461E+00
      3.394  0.7845E-02  0.2470E+00
      3.507  0.2178E-01  0.2495E+00
      3.620  0.8697E-01  0.2593E+00
      3.733  0.4190E-01  0.2641E+00
      3.846  0.2541E-01  0.2669E+00
      3.959  0.3656E-01  0.2711E+00
      4.072  0.2430E-01  0.2738E+00
      4.185  0.2359E-01  0.2765E+00
      4.298  0.7526E-02  0.2773E+00
      4.411  0.1748E-01  0.2793E+00
      4.524  0.4515E-02  0.2798E+00
      4.637  0.1900E-05  0.2798E+00
      4.750  0.5757E-13  0.2798E+00
      4.863  0.1812E-08  0.2798E+00
      4.976  0.5126E-03  0.2799E+00
      5.089  0.2299E-01  0.2825E+00
      5.202  0.6879E-02  0.2833E+00
      5.315  0.2518E-01  0.2861E+00
      5.428  0.7895E-03  0.2862E+00
      5.542  0.9654E-08  0.2862E+00
      5.655  0.6617E-04  0.2862E+00
      5.768  0.3755E-02  0.2866E+00
      5.881  0.7062E-02  0.2874E+00
      5.994  0.2568E-01  0.2903E+00
      6.107  0.3129E-01  0.2939E+00
      6.220  0.1138E-01  0.2951E+00
      6.333  0.1950E-02  0.2954E+00
      6.446  0.4716E-02  0.2959E+00
      6.559  0.5120E-02  0.2965E+00
      6.672  0.5219E-01  0.3024E+00
      6.785  0.3040E-01  0.3058E+00
      6.898  0.3160E-01  0.3094E+00
      7.011  0.6629E-02  0.3101E+00
      7.124  0.4521E-02  0.3106E+00
      7.237  0.1092E-01  0.3119E+00
      7.350  0.4098E-03  0.3119E+00
      7.463  0.1070E-04  0.3119E+00
      7.576  0.2100E-02  0.3122E+00
      7.689  0.2379E-02  0.3124E+00
      7.802  0.1904E-04  0.3124E+00
      7.915  0.5578E-07  0.3124E+00
      8.028  0.9499E-03  0.3125E+00
      8.142  0.1457E-01  0.3142E+00
      8.255  0.2035E-01  0.3165E+00
      8.368  0.2063E-01  0.3188E+00
      8.481  0.2086E-01  0.3212E+00
      8.594  0.3966E-01  0.3257E+00
      8.707  0.3525E-01  0.3296E+00
      8.820  0.4850E-02  0.3302E+00
      8.933  0.4374E-01  0.3351E+00
      9.046  0.3793E-01  0.3394E+00
      9.159  0.6072E-01  0.3463E+00
      9.272  0.5591E-01  0.3526E+00
      9.385  0.2734E-01  0.3557E+00
      9.498  0.1558E-01  0.3575E+00
      9.611  0.6759E-01  0.3651E+00
      9.724  0.5140E-01  0.3709E+00
      9.837  0.2380E-01  0.3736E+00
      9.950  0.3961E-01  0.3781E+00
     10.063  0.3293E-01  0.3818E+00
     10.176  0.9790E-02  0.3829E+00
     10.289  0.2805E-01  0.3861E+00
     10.402  0.3329E-01  0.3898E+00
     10.515  0.3243E-01  0.3935E+00
     10.629  0.1174E-01  0.3948E+00
     10.742  0.6012E-01  0.4016E+00
     10.855  0.3172E-01  0.4052E+00
     10.968  0.2434E-01  0.4080E+00
     11.081  0.1932E-01  0.4102E+00
     11.194  0.2537E-01  0.4130E+00
     11.307  0.5516E-01  0.4193E+00
     11.420  0.5862E-01  0.4259E+00
     11.533  0.2636E-01  0.4289E+00
     11.646  0.3177E-01  0.4325E+00
     11.759  0.1481E-01  0.4341E+00
     11.872  0.2977E-01  0.4375E+00
     11.985  0.1255E-01  0.4389E+00
     12.098  0.3799E-02  0.4393E+00
     12.211  0.1423E-02  0.4395E+00
     12.324  0.3078E-02  0.4399E+00
     12.437  0.1503E-04  0.4399E+00
     12.550  0.7697E-11  0.4399E+00
     12.663  0.2931E-07  0.4399E+00
     12.776  0.5522E-03  0.4399E+00
     12.889  0.3862E-02  0.4404E+00
     13.002  0.9441E-04  0.4404E+00
     13.116  0.3778E-09  0.4404E+00
     13.229  0.0000E+00  0.4404E+00
     13.342  0.0000E+00  0.4404E+00
     13.455  0.0000E+00  0.4404E+00
     13.568  0.0000E+00  0.4404E+00
     13.681  0.0000E+00  0.4404E+00
     13.794  0.0000E+00  0.4404E+00
     13.907  0.0000E+00  0.4404E+00
     14.020  0.0000E+00  0.4404E+00
     14.133  0.0000E+00  0.4404E+00
     14.246  0.0000E+00  0.4404E+00
     14.359  0.0000E+00  0.4404E+00
