 vasp.6.3.2 27Jun22 (build Jun 14 2024 17:29:11) complex                         
 executed on             LinuxGNU date 2026.03.30  04:13:59
 running on   32 total cores
 distrk:  each k-point on   32 cores,    1 groups
 distr:  one band on NCORE=   1 cores,   32 groups


--------------------------------------------------------------------------------------------------------


 INCAR:
   EDIFF = 1e-06
   ENCUT = 400.0
   IBRION = 6
   ISIF = 3
   ISMEAR = 0
   LCHARG = False
   LREAL = Auto
   LWAVE = False
   NFREE = 4
   NSW = 1
   POTIM = 0.015
   SIGMA = 0.05

 POTCAR:    PAW_PBE Na_pv 19Sep2006               
 POTCAR:    PAW_PBE Si 05Jan2001                  
 POTCAR:    PAW_PBE S 06Sep2000                   
 -----------------------------------------------------------------------------
|                                                                             |
|           W    W    AA    RRRRR   N    N  II  N    N   GGGG   !!!           |
|           W    W   A  A   R    R  NN   N  II  NN   N  G    G  !!!           |
|           W    W  A    A  R    R  N N  N  II  N N  N  G       !!!           |
|           W WW W  AAAAAA  RRRRR   N  N N  II  N  N N  G  GGG   !            |
|           WW  WW  A    A  R   R   N   NN  II  N   NN  G    G                |
|           W    W  A    A  R    R  N    N  II  N    N   GGGG   !!!           |
|                                                                             |
|     For optimal performance we recommend to set                             |
|       NCORE = 2 up to number-of-cores-per-socket                            |
|     NCORE specifies how many cores store one orbital (NPAR=cpu/NCORE).      |
|     This setting can greatly improve the performance of VASP for DFT.       |
|     The default, NCORE=1 might be grossly inefficient on modern             |
|     multi-core architectures or massively parallel machines. Do your        |
|     own testing! More info at https://www.vasp.at/wiki/index.php/NCORE      |
|     Unfortunately you need to use the default for GW and RPA                |
|     calculations (for HF NCORE is supported but not extensively tested      |
|     yet).                                                                   |
|                                                                             |
 -----------------------------------------------------------------------------

 POTCAR:    PAW_PBE Na_pv 19Sep2006               
   SHA256 =  6a2f546d9e11350984debacf3dc457d8cffc0868e817d445faca461816a32b94 Na_pv/POTCAR          
   COPYR  = (c) Copyright 19Sep2006 Georg Kresse                                                    
   COPYR  = This file is part of the software VASP. Any use, copying, and all other rights are regul
   COPYR  = If you do not have a valid VASP license, you may not use, copy or distribute this file. 
   VRHFIN =Na: p6s1                                                                                 
   LEXCH  = PE                                                                                      
   EATOM  =   766.0439 eV,   56.3026 Ry                                                             
                                                                                                    
   TITEL  = PAW_PBE Na_pv 19Sep2006                                                                 
   LULTRA =        F    use ultrasoft PP ?                                                          
   IUNSCR =        1    unscreen: 0-lin 1-nonlin 2-no                                               
   RPACOR =    1.800    partial core radius                                                         
   POMASS =   22.990; ZVAL   =    7.000    mass and valenz                                          
   RCORE  =    2.200    outmost cutoff radius                                                       
   RWIGS  =    2.200; RWIGS  =    1.164    wigner-seitz radius (au A)                               
   ENMAX  =  259.561; ENMIN  =  194.671 eV                                                          
   ICORE  =        2    local potential                                                             
   LCOR   =        T    correct aug charges                                                         
   LPAW   =        T    paw PP                                                                      
   EAUG   =  368.056                                                                                
   DEXC   =    0.000                                                                                
   RMAX   =    2.245    core radius for proj-oper                                                   
   RAUG   =    1.300    factor for augmentation sphere                                              
   RDEP   =    2.259    radius for radial grids                                                     
   RDEPT  =    1.738    core radius for aug-charge                                                  
                                                                                                    
   Atomic configuration                                                                             
    5 entries                                                                                       
     n  l   j            E        occ.                                                              
     1  0  0.50     -1033.6933   2.0000                                                             
     2  0  0.50       -56.7526   2.0000                                                             
     2  1  1.50       -28.6721   6.0000                                                             
     3  0  0.50        -2.7440   1.0000                                                             
     3  2  1.50        -1.3606   0.0000                                                             
   Description                                                                                      
     l       E           TYP  RCUT    TYP  RCUT                                                     
     1    -28.6720912     23  2.000                                                                 
     1      6.8029130     23  2.000                                                                 
     0     -2.7439560     23  2.200                                                                 
     0     34.0145650     23  2.200                                                                 
     2     -1.3605826     23  2.200                                                                 
  local pseudopotential read in
  partial core-charges read in
  partial kinetic energy density read in
  atomic valenz-charges read in
  non local Contribution for L=           1  read in
    real space projection operators read in
  non local Contribution for L=           1  read in
    real space projection operators read in
  non local Contribution for L=           0  read in
    real space projection operators read in
  non local Contribution for L=           0  read in
    real space projection operators read in
    PAW grid and wavefunctions read in

   number of l-projection  operators is LMAX  =           4
   number of lm-projection operators is LMMAX =           8

 POTCAR:    PAW_PBE Si 05Jan2001                  
   SHA256 =  79d9987ad8750f624c4d6acb2a16d13abf6a777132adc04dc6c8399be72b42bb Si/POTCAR             
   COPYR  = (c) Copyright 05Jan2001 Georg Kresse                                                    
   COPYR  = This file is part of the software VASP. Any use, copying, and all other rights are regul
   COPYR  = If you do not have a valid VASP license, you may not use, copy or distribute this file. 
   VRHFIN =Si: s2p2                                                                                 
   LEXCH  = PE                                                                                      
   EATOM  =   103.0669 eV,    7.5752 Ry                                                             
                                                                                                    
   TITEL  = PAW_PBE Si 05Jan2001                                                                    
   LULTRA =        F    use ultrasoft PP ?                                                          
   IUNSCR =        1    unscreen: 0-lin 1-nonlin 2-no                                               
   RPACOR =    1.500    partial core radius                                                         
   POMASS =   28.085; ZVAL   =    4.000    mass and valenz                                          
   RCORE  =    1.900    outmost cutoff radius                                                       
   RWIGS  =    2.480; RWIGS  =    1.312    wigner-seitz radius (au A)                               
   ENMAX  =  245.345; ENMIN  =  184.009 eV                                                          
   ICORE  =        2    local potential                                                             
   LCOR   =        T    correct aug charges                                                         
   LPAW   =        T    paw PP                                                                      
   EAUG   =  322.069                                                                                
   DEXC   =    0.000                                                                                
   RMAX   =    1.950    core radius for proj-oper                                                   
   RAUG   =    1.300    factor for augmentation sphere                                              
   RDEP   =    1.993    radius for radial grids                                                     
   RDEPT  =    1.837    core radius for aug-charge                                                  
                                                                                                    
   Atomic configuration                                                                             
    6 entries                                                                                       
     n  l   j            E        occ.                                                              
     1  0  0.50     -1785.8828   2.0000                                                             
     2  0  0.50      -139.4969   2.0000                                                             
     2  1  1.50       -95.5546   6.0000                                                             
     3  0  0.50       -10.8127   2.0000                                                             
     3  1  0.50        -4.0811   2.0000                                                             
     3  2  1.50        -4.0817   0.0000                                                             
   Description                                                                                      
     l       E           TYP  RCUT    TYP  RCUT                                                     
     0    -10.8127223     23  1.900                                                                 
     0     -7.6451159     23  1.900                                                                 
     1     -4.0811372     23  1.900                                                                 
     1      2.4879257     23  1.900                                                                 
     2     -4.0817478      7  1.900                                                                 
  local pseudopotential read in
  partial core-charges read in
  partial kinetic energy density read in
  atomic valenz-charges read in
  non local Contribution for L=           0  read in
    real space projection operators read in
  non local Contribution for L=           0  read in
    real space projection operators read in
  non local Contribution for L=           1  read in
    real space projection operators read in
  non local Contribution for L=           1  read in
    real space projection operators read in
    PAW grid and wavefunctions read in

   number of l-projection  operators is LMAX  =           4
   number of lm-projection operators is LMMAX =           8

 POTCAR:    PAW_PBE S 06Sep2000                   
   SHA256 =  0fc7481fb0695f01bdc6462160264c5c84044ae9ec85a907d398b887a2bc3132 S/POTCAR              
   COPYR  = (c) Copyright 06Sep2000 Georg Kresse                                                    
   COPYR  = This file is part of the software VASP. Any use, copying, and all other rights are regul
   COPYR  = If you do not have a valid VASP license, you may not use, copy or distribute this file. 
   VRHFIN =S : s2p4                                                                                 
   LEXCH  = PE                                                                                      
   EATOM  =   276.8230 eV,   20.3459 Ry                                                             
                                                                                                    
   TITEL  = PAW_PBE S 06Sep2000                                                                     
   LULTRA =        F    use ultrasoft PP ?                                                          
   IUNSCR =        1    unscreen: 0-lin 1-nonlin 2-no                                               
   RPACOR =    1.500    partial core radius                                                         
   POMASS =   32.066; ZVAL   =    6.000    mass and valenz                                          
   RCORE  =    1.900    outmost cutoff radius                                                       
   RWIGS  =    2.200; RWIGS  =    1.164    wigner-seitz radius (au A)                               
   ENMAX  =  258.689; ENMIN  =  194.016 eV                                                          
   ICORE  =        2    local potential                                                             
   LCOR   =        T    correct aug charges                                                         
   LPAW   =        T    paw PP                                                                      
   EAUG   =  335.092                                                                                
   DEXC   =    0.000                                                                                
   RMAX   =    1.942    core radius for proj-oper                                                   
   RAUG   =    1.300    factor for augmentation sphere                                              
   RDEP   =    1.954    radius for radial grids                                                     
   RDEPT  =    1.744    core radius for aug-charge                                                  
                                                                                                    
   Atomic configuration                                                                             
    6 entries                                                                                       
     n  l   j            E        occ.                                                              
     1  0  0.50     -2405.8406   2.0000                                                             
     2  0  0.50      -211.7007   2.0000                                                             
     2  1  1.50      -156.4958   6.0000                                                             
     3  0  0.50       -17.2562   2.0000                                                             
     3  1  0.50        -7.0085   4.0000                                                             
     3  2  1.50        -6.8029   0.0000                                                             
   Description                                                                                      
     l       E           TYP  RCUT    TYP  RCUT                                                     
     0    -17.2561641     23  1.900                                                                 
     0    -15.8743224     23  1.900                                                                 
     1     -7.0085400     23  1.900                                                                 
     1     -2.7779785     23  1.900                                                                 
     2     -6.8029130     23  1.900                                                                 
  local pseudopotential read in
  partial core-charges read in
  partial kinetic energy density read in
  atomic valenz-charges read in
  non local Contribution for L=           0  read in
    real space projection operators read in
  non local Contribution for L=           0  read in
    real space projection operators read in
  non local Contribution for L=           1  read in
    real space projection operators read in
  non local Contribution for L=           1  read in
    real space projection operators read in
    PAW grid and wavefunctions read in

   number of l-projection  operators is LMAX  =           4
   number of lm-projection operators is LMMAX =           8

 -----------------------------------------------------------------------------
|                                                                             |
|               ----> ADVICE to this user running VASP <----                  |
|                                                                             |
|     You have a (more or less) 'small supercell' and for smaller cells       |
|     it is recommended to use the reciprocal-space projection scheme!        |
|     The real-space optimization is not efficient for small cells and it     |
|     is also less accurate ...                                               |
|     Therefore, set LREAL=.FALSE. in the INCAR file.                         |
|                                                                             |
 -----------------------------------------------------------------------------

 Optimization of the real space projectors (new method)

 maximal supplied QI-value         = 17.01
 optimisation between [QCUT,QGAM] = [ 10.20, 20.41] = [ 29.16,116.64] Ry 
 Optimized for a Real-space Cutoff    1.30 Angstroem

   l    n(q)    QCUT    max X(q) W(low)/X(q) W(high)/X(q)  e(spline) 
   1      7    10.205     4.940    0.23E-03    0.84E-03    0.11E-06
   1      7    10.205     6.253    0.40E-03    0.13E-02    0.18E-06
   0      8    10.205    37.438    0.23E-03    0.37E-03    0.42E-07
   0      8    10.205     9.606    0.16E-03    0.26E-03    0.31E-07
 Optimization of the real space projectors (new method)

 maximal supplied QI-value         = 19.84
 optimisation between [QCUT,QGAM] = [ 10.12, 20.44] = [ 28.68,116.96] Ry 
 Optimized for a Real-space Cutoff    1.23 Angstroem

   l    n(q)    QCUT    max X(q) W(low)/X(q) W(high)/X(q)  e(spline) 
   0      7    10.119   159.560    0.56E-04    0.22E-03    0.45E-07
   0      7    10.119   115.863    0.56E-04    0.21E-03    0.45E-07
   1      7    10.119    88.339    0.34E-03    0.49E-03    0.11E-06
   1      7    10.119    48.592    0.33E-03    0.48E-03    0.11E-06
 Optimization of the real space projectors (new method)

 maximal supplied QI-value         = 19.84
 optimisation between [QCUT,QGAM] = [ 10.12, 20.44] = [ 28.68,116.96] Ry 
 Optimized for a Real-space Cutoff    1.23 Angstroem

   l    n(q)    QCUT    max X(q) W(low)/X(q) W(high)/X(q)  e(spline) 
   0      7    10.119   187.594    0.62E-04    0.28E-03    0.52E-07
   0      7    10.119   164.243    0.61E-04    0.28E-03    0.52E-07
   1      7    10.119    67.533    0.45E-03    0.63E-03    0.13E-06
   1      7    10.119    50.729    0.44E-03    0.62E-03    0.12E-06
  PAW_PBE Na_pv 19Sep2006               :
 energy of atom  1       EATOM= -766.0439
 kinetic energy error for atom=    0.0103 (will be added to EATOM!!)
  PAW_PBE Si 05Jan2001                  :
 energy of atom  2       EATOM= -103.0669
 kinetic energy error for atom=    0.0012 (will be added to EATOM!!)
  PAW_PBE S 06Sep2000                   :
 energy of atom  3       EATOM= -276.8230
 kinetic energy error for atom=    0.0046 (will be added to EATOM!!)


 POSCAR: Na1 Si2 S3
  positions in direct lattice
  velocities in cartesian coordinates
 exchange correlation table for  LEXCH =        8
   RHO(1)=    0.500       N(1)  =     2000
   RHO(2)=  100.500       N(2)  =     4000



--------------------------------------------------------------------------------------------------------


 ion  position               nearest neighbor table
   1  0.000  0.000  0.500-
   2  0.667  0.333  0.155-   6 2.47   6 2.47   6 2.47   5 2.55   5 2.55   5 2.55
   3  0.333  0.667  0.845-   4 2.47   4 2.47   4 2.47   5 2.55   5 2.55   5 2.55
   4  0.667  0.333  0.706-   3 2.47   3 2.47   3 2.47
   5  0.000  0.000  0.000-   3 2.55   3 2.55   3 2.55   2 2.55   2 2.55   2 2.55
   6  0.333  0.667  0.294-   2 2.47   2 2.47   2 2.47

  LATTYP: Found a hexagonal cell.
 ALAT       =     3.5893449389
 C/A-ratio  =     2.6804773289
  
  Lattice vectors:
  
 A1 = (   3.5893449389,   0.0000000000,   0.0000000000)
 A2 = (  -1.7946724694,   3.1084639000,   0.0000000000)
 A3 = (  -0.0000000000,  -0.0000000000,   9.6211577344)


Analysis of symmetry for initial positions (statically):
=====================================================================
 Subroutine PRICEL returns:
 Original cell was already a primitive cell.
 

 Routine SETGRP: Setting up the symmetry group for a 
 hexagonal supercell.


 Subroutine GETGRP returns: Found 12 space group operations
 (whereof 12 operations were pure point group operations)
 out of a pool of 24 trial point group operations.


The static configuration has the point symmetry D_3d.


Analysis of symmetry for dynamics (positions and initial velocities):
=====================================================================
 Subroutine PRICEL returns:
 Original cell was already a primitive cell.
 

 Routine SETGRP: Setting up the symmetry group for a 
 hexagonal supercell.


 Subroutine GETGRP returns: Found 12 space group operations
 (whereof 12 operations were pure point group operations)
 out of a pool of 24 trial point group operations.


The dynamic configuration has the point symmetry D_3d.


 Subroutine INISYM returns: Found 12 space group operations
 (whereof 12 operations are pure point group operations),
 and found     1 'primitive' translations


----------------------------------------------------------------------------------------

                                     Primitive cell                                     

  volume of cell :     107.3466

  direct lattice vectors                    reciprocal lattice vectors
     3.589344939  0.000000000  0.000000000     0.278602368  0.160851152  0.000000000
    -1.794672469  3.108463900  0.000000000    -0.000000000  0.321702304  0.000000000
    -0.000000000 -0.000000000  9.621157734     0.000000000 -0.000000000  0.103937595

  length of vectors
     3.589344939  3.589344939  9.621157734     0.321702304  0.321702304  0.103937595

  position of ions in fractional coordinates (direct lattice)
     0.000000000  0.000000000  0.500000218
     0.666667199  0.333333284  0.155132904
     0.333333284  0.666666567  0.844867532
     0.666667199  0.333333284  0.705523297
     0.000000000  0.000000000  0.000000000
     0.333333284  0.666666567  0.294477139

  ion indices of the primitive-cell ions
   primitive index   ion index
                 1           1
                 2           2
                 3           3
                 4           4
                 5           5
                 6           6

----------------------------------------------------------------------------------------



 KPOINTS: pymatgen with grid density = 600 / numbe

Automatic generation of k-mesh.
 Grid dimensions read from file:
 generate k-points for:    6    6    2

 Generating k-lattice:

  Cartesian coordinates                     Fractional coordinates (reciprocal lattice)
     0.046433728  0.026808525  0.000000000     0.166666667 -0.000000000  0.000000000
    -0.000000000  0.053617051  0.000000000     0.000000000  0.166666667  0.000000000
     0.000000000 -0.000000000  0.051968798     0.000000000  0.000000000  0.500000000

  Length of vectors
     0.053617051  0.053617051  0.051968798

  Shift w.r.t. Gamma in fractional coordinates (k-lattice)
     0.000000000  0.000000000  0.000000000

 
 Subroutine IBZKPT returns following result:
 ===========================================
 
 Found     14 irreducible k-points:
 
 Following reciprocal coordinates:
            Coordinates               Weight
  0.000000  0.000000  0.000000      1.000000
  0.166667  0.000000  0.000000      6.000000
  0.333333  0.000000  0.000000      6.000000
  0.500000  0.000000  0.000000      3.000000
  0.166667  0.166667  0.000000      6.000000
  0.333333  0.166667  0.000000     12.000000
  0.333333  0.333333  0.000000      2.000000
  0.000000  0.000000  0.500000      1.000000
  0.166667  0.000000  0.500000      6.000000
  0.333333  0.000000  0.500000      6.000000
  0.500000  0.000000  0.500000      3.000000
  0.166667  0.166667  0.500000      6.000000
  0.333333  0.166667  0.500000     12.000000
  0.333333  0.333333  0.500000      2.000000
 
 Following cartesian coordinates:
            Coordinates               Weight
  0.000000  0.000000  0.000000      1.000000
  0.046434  0.026809  0.000000      6.000000
  0.092867  0.053617  0.000000      6.000000
  0.139301  0.080426  0.000000      3.000000
  0.046434  0.080426  0.000000      6.000000
  0.092867  0.107234  0.000000     12.000000
  0.092867  0.160851  0.000000      2.000000
  0.000000  0.000000  0.051969      1.000000
  0.046434  0.026809  0.051969      6.000000
  0.092867  0.053617  0.051969      6.000000
  0.139301  0.080426  0.051969      3.000000
  0.046434  0.080426  0.051969      6.000000
  0.092867  0.107234  0.051969     12.000000
  0.092867  0.160851  0.051969      2.000000
 
 
 Subroutine IBZKPT_HF returns following result:
 ==============================================
 
 Found     72 k-points in 1st BZ
 the following     72 k-points will be used (e.g. in the exchange kernel)
 Following reciprocal coordinates:   # in IRBZ
  0.000000  0.000000  0.000000    0.01388889   1 t-inv F
  0.166667  0.000000  0.000000    0.01388889   2 t-inv F
  0.333333  0.000000  0.000000    0.01388889   3 t-inv F
  0.500000  0.000000  0.000000    0.01388889   4 t-inv F
  0.166667  0.166667  0.000000    0.01388889   5 t-inv F
  0.333333  0.166667  0.000000    0.01388889   6 t-inv F
  0.333333  0.333333  0.000000    0.01388889   7 t-inv F
  0.000000  0.000000  0.500000    0.01388889   8 t-inv F
  0.166667  0.000000  0.500000    0.01388889   9 t-inv F
  0.333333  0.000000  0.500000    0.01388889  10 t-inv F
  0.500000  0.000000  0.500000    0.01388889  11 t-inv F
  0.166667  0.166667  0.500000    0.01388889  12 t-inv F
  0.333333  0.166667  0.500000    0.01388889  13 t-inv F
  0.333333  0.333333  0.500000    0.01388889  14 t-inv F
 -0.166667 -0.000000 -0.000000    0.01388889   2 t-inv F
 -0.166667  0.166667  0.000000    0.01388889   2 t-inv F
  0.166667 -0.166667 -0.000000    0.01388889   2 t-inv F
  0.000000 -0.166667  0.000000    0.01388889   2 t-inv F
 -0.000000  0.166667 -0.000000    0.01388889   2 t-inv F
 -0.333333 -0.000000 -0.000000    0.01388889   3 t-inv F
 -0.333333  0.333333  0.000000    0.01388889   3 t-inv F
  0.333333 -0.333333 -0.000000    0.01388889   3 t-inv F
  0.000000 -0.333333  0.000000    0.01388889   3 t-inv F
 -0.000000  0.333333 -0.000000    0.01388889   3 t-inv F
 -0.500000  0.500000  0.000000    0.01388889   4 t-inv F
  0.000000 -0.500000  0.000000    0.01388889   4 t-inv F
 -0.166667 -0.166667 -0.000000    0.01388889   5 t-inv F
 -0.333333  0.166667  0.000000    0.01388889   5 t-inv F
  0.333333 -0.166667 -0.000000    0.01388889   5 t-inv F
  0.166667 -0.333333  0.000000    0.01388889   5 t-inv F
 -0.166667  0.333333 -0.000000    0.01388889   5 t-inv F
 -0.333333 -0.166667 -0.000000    0.01388889   6 t-inv F
 -0.500000  0.333333  0.000000    0.01388889   6 t-inv F
  0.500000 -0.333333 -0.000000    0.01388889   6 t-inv F
  0.166667 -0.500000  0.000000    0.01388889   6 t-inv F
 -0.166667  0.500000 -0.000000    0.01388889   6 t-inv F
  0.333333 -0.500000 -0.000000    0.01388889   6 t-inv F
 -0.333333  0.500000  0.000000    0.01388889   6 t-inv F
 -0.500000  0.166667 -0.000000    0.01388889   6 t-inv F
  0.500000 -0.166667  0.000000    0.01388889   6 t-inv F
  0.166667  0.333333 -0.000000    0.01388889   6 t-inv F
 -0.166667 -0.333333  0.000000    0.01388889   6 t-inv F
 -0.333333 -0.333333 -0.000000    0.01388889   7 t-inv F
 -0.166667 -0.000000 -0.500000    0.01388889   9 t-inv F
 -0.166667  0.166667  0.500000    0.01388889   9 t-inv F
  0.166667 -0.166667 -0.500000    0.01388889   9 t-inv F
  0.000000 -0.166667  0.500000    0.01388889   9 t-inv F
 -0.000000  0.166667 -0.500000    0.01388889   9 t-inv F
 -0.333333 -0.000000 -0.500000    0.01388889  10 t-inv F
 -0.333333  0.333333  0.500000    0.01388889  10 t-inv F
  0.333333 -0.333333 -0.500000    0.01388889  10 t-inv F
  0.000000 -0.333333  0.500000    0.01388889  10 t-inv F
 -0.000000  0.333333 -0.500000    0.01388889  10 t-inv F
 -0.500000  0.500000  0.500000    0.01388889  11 t-inv F
  0.000000 -0.500000  0.500000    0.01388889  11 t-inv F
 -0.166667 -0.166667 -0.500000    0.01388889  12 t-inv F
 -0.333333  0.166667  0.500000    0.01388889  12 t-inv F
  0.333333 -0.166667 -0.500000    0.01388889  12 t-inv F
  0.166667 -0.333333  0.500000    0.01388889  12 t-inv F
 -0.166667  0.333333 -0.500000    0.01388889  12 t-inv F
 -0.333333 -0.166667 -0.500000    0.01388889  13 t-inv F
 -0.500000  0.333333  0.500000    0.01388889  13 t-inv F
  0.500000 -0.333333 -0.500000    0.01388889  13 t-inv F
  0.166667 -0.500000  0.500000    0.01388889  13 t-inv F
 -0.166667  0.500000 -0.500000    0.01388889  13 t-inv F
  0.333333 -0.500000 -0.500000    0.01388889  13 t-inv F
 -0.333333  0.500000  0.500000    0.01388889  13 t-inv F
 -0.500000  0.166667 -0.500000    0.01388889  13 t-inv F
  0.500000 -0.166667  0.500000    0.01388889  13 t-inv F
  0.166667  0.333333 -0.500000    0.01388889  13 t-inv F
 -0.166667 -0.333333  0.500000    0.01388889  13 t-inv F
 -0.333333 -0.333333 -0.500000    0.01388889  14 t-inv F


--------------------------------------------------------------------------------------------------------




 Dimension of arrays:
   k-points           NKPTS =     14   k-points in BZ     NKDIM =     14   number of bands    NBANDS=     32
   number of dos      NEDOS =    301   number of ions     NIONS =      6
   non local maximal  LDIM  =      4   non local SUM 2l+1 LMDIM =      8
   total plane-waves  NPLWV =  15552
   max r-space proj   IRMAX =   1387   max aug-charges    IRDMAX=   5043
   dimension x,y,z NGX =    18 NGY =   18 NGZ =   48
   dimension x,y,z NGXF=    36 NGYF=   36 NGZF=   96
   support grid    NGXF=    36 NGYF=   36 NGZF=   96
   ions per type =               1   2   3
   NGX,Y,Z   is equivalent  to a cutoff of   8.34,  8.34,  8.29 a.u.
   NGXF,Y,Z  is equivalent  to a cutoff of  16.67, 16.67, 16.59 a.u.

 SYSTEM =  unknown system                          
 POSCAR =  Na1 Si2 S3                              

 Startparameter for this run:
   NWRITE =      2    write-flag & timer
   PREC   = normal    normal or accurate (medium, high low for compatibility)
   ISTART =      0    job   : 0-new  1-cont  2-samecut
   ICHARG =      2    charge: 1-file 2-atom 10-const
   ISPIN  =      1    spin polarized calculation?
   LNONCOLLINEAR =      F non collinear calculations
   LSORBIT =      F    spin-orbit coupling
   INIWAV =      1    electr: 0-lowe 1-rand  2-diag
   LASPH  =      F    aspherical Exc in radial PAW
 Electronic Relaxation 1
   ENCUT  =  400.0 eV  29.40 Ry    5.42 a.u.   5.85  5.85 15.69*2*pi/ulx,y,z
   ENINI  =  400.0     initial cutoff
   ENAUG  =  368.1 eV  augmentation charge cutoff
   NELM   =     60;   NELMIN=  2; NELMDL= -5     # of ELM steps 
   EDIFF  = 0.1E-05   stopping-criterion for ELM
   LREAL  =      T    real-space projection
   NLSPLINE    = F    spline interpolate recip. space projectors
   LCOMPAT=      F    compatible to vasp.4.4
   GGA_COMPAT  = T    GGA compatible to vasp.4.4-vasp.4.6
   LMAXPAW     = -100 max onsite density
   LMAXMIX     =    2 max onsite mixed and CHGCAR
   VOSKOWN=      0    Vosko Wilk Nusair interpolation
   ROPT   =   -0.00050  -0.00050  -0.00050
 Ionic relaxation
   EDIFFG = 0.1E-04   stopping-criterion for IOM
   NSW    =    109    number of steps for IOM
   NBLOCK =      1;   KBLOCK =    109    inner block; outer block 
   IBRION =      6    ionic relax: 0-MD 1-quasi-New 2-CG
   NFREE  =      4    steps in history (QN), initial steepest desc. (CG)
   ISIF   =      3    stress and relaxation
   IWAVPR =     11    prediction:  0-non 1-charg 2-wave 3-comb
   ISYM   =      2    0-nonsym 1-usesym 2-fastsym
   LCORR  =      T    Harris-Foulkes like correction to forces

   POTIM  = 0.0150    time-step for ionic-motion
   TEIN   =    0.0    initial temperature
   TEBEG  =    0.0;   TEEND  =   0.0 temperature during run
   SMASS  =  -3.00    Nose mass-parameter (am)
   estimated Nose-frequenzy (Omega)   =  0.10E-29 period in steps = 0.42E+48 mass=  -0.294E-27a.u.
   SCALEE = 1.0000    scale energy and forces
   NPACO  =    256;   APACO  = 10.0  distance and # of slots for P.C.
   PSTRESS=    0.0 pullay stress

  Mass of Ions in am
   POMASS =  22.99 28.09 32.07
  Ionic Valenz
   ZVAL   =   7.00  4.00  6.00
  Atomic Wigner-Seitz radii
   RWIGS  =  -1.00 -1.00 -1.00
  virtual crystal weights 
   VCA    =   1.00  1.00  1.00
   NELECT =      33.0000    total number of electrons
   NUPDOWN=      -1.0000    fix difference up-down

 DOS related values:
   EMIN   =  10.00;   EMAX   =-10.00  energy-range for DOS
   EFERMI =   0.00
   ISMEAR =     0;   SIGMA  =   0.05  broadening in eV -4-tet -1-fermi 0-gaus

 Electronic relaxation 2 (details)
   IALGO  =     38    algorithm
   LDIAG  =      T    sub-space diagonalisation (order eigenvalues)
   LSUBROT=      F    optimize rotation matrix (better conditioning)
   TURBO    =      0    0=normal 1=particle mesh
   IRESTART =      0    0=no restart 2=restart with 2 vectors
   NREBOOT  =      0    no. of reboots
   NMIN     =      0    reboot dimension
   EREF     =   0.00    reference energy to select bands
   IMIX   =      4    mixing-type and parameters
     AMIX     =   0.40;   BMIX     =  1.00
     AMIX_MAG =   1.60;   BMIX_MAG =  1.00
     AMIN     =   0.10
     WC   =   100.;   INIMIX=   1;  MIXPRE=   1;  MAXMIX= -45

 Intra band minimization:
   WEIMIN = 0.0010     energy-eigenvalue tresh-hold
   EBREAK =  0.78E-08  absolut break condition
   DEPER  =   0.30     relativ break condition  

   TIME   =   0.40     timestep for ELM

  volume/ion in A,a.u.               =      17.89       120.74
  Fermi-wavevector in a.u.,A,eV,Ry     =   1.104884  2.087928 16.609566  1.220769
  Thomas-Fermi vector in A             =   2.241363

 Write flags
   LWAVE        =      F    write WAVECAR
   LDOWNSAMPLE  =      F    k-point downsampling of WAVECAR
   LCHARG       =      F    write CHGCAR
   LVTOT        =      F    write LOCPOT, total local potential
   LVHAR        =      F    write LOCPOT, Hartree potential only
   LELF         =      F    write electronic localiz. function (ELF)
   LORBIT       =      0    0 simple, 1 ext, 2 COOP (PROOUT), +10 PAW based schemes


 Dipole corrections
   LMONO  =      F    monopole corrections only (constant potential shift)
   LDIPOL =      F    correct potential (dipole corrections)
   IDIPOL =      0    1-x, 2-y, 3-z, 4-all directions 
   EPSILON=  1.0000000 bulk dielectric constant

 Exchange correlation treatment:
   GGA     =    --    GGA type
   LEXCH   =     8    internal setting for exchange type
   LIBXC   =     F    Libxc                    
   VOSKOWN =     0    Vosko Wilk Nusair interpolation
   LHFCALC =     F    Hartree Fock is set to
   LHFONE  =     F    Hartree Fock one center treatment
   AEXX    =    0.0000 exact exchange contribution

 Linear response parameters
   LEPSILON=     F    determine dielectric tensor
   LRPA    =     F    only Hartree local field effects (RPA)
   LNABLA  =     F    use nabla operator in PAW spheres
   LVEL    =     F    velocity operator in full k-point grid
   CSHIFT  =0.1000    complex shift for real part using Kramers Kronig
   OMEGAMAX=  -1.0    maximum frequency
   DEG_THRESHOLD= 0.2000000E-02 threshold for treating states as degnerate
   RTIME   =   -0.100 relaxation time in fs
  (WPLASMAI=    0.000 imaginary part of plasma frequency in eV, 0.658/RTIME)
   DFIELD  = 0.0000000 0.0000000 0.0000000 field for delta impulse in time

  Optional k-point grid parameters
   LKPOINTS_OPT  =     F    use optional k-point grid
   KPOINTS_OPT_MODE=     1    mode for optional k-point grid

 Orbital magnetization related:
   ORBITALMAG=     F  switch on orbital magnetization
   LCHIMAG   =     F  perturbation theory with respect to B field
   DQ        =  0.001000  dq finite difference perturbation B field
   LLRAUG    =     F  two centre corrections for induced B field



--------------------------------------------------------------------------------------------------------


 finite differences with symmetry
 charge density and potential will be updated during run
 non-spin polarized calculation
 Variant of blocked Davidson
 Davidson routine will perform the subspace rotation
 perform sub-space diagonalisation
    after iterative eigenvector-optimisation
 modified Broyden-mixing scheme, WC =      100.0
 initial mixing is a Kerker type mixing with AMIX =  0.4000 and BMIX =      1.0000
 Hartree-type preconditioning will be used
 using additional bands           15
 real space projection scheme for non local part
 use partial core corrections
 calculate Harris-corrections to forces   (improved forces if not selfconsistent)
 use gradient corrections 
 use of overlap-Matrix (Vanderbilt PP)
 Gauss-broadening in eV      SIGMA  =   0.05


--------------------------------------------------------------------------------------------------------


  energy-cutoff  :      400.00
  volume of cell :      107.35
      direct lattice vectors                 reciprocal lattice vectors
     3.589344939  0.000000000  0.000000000     0.278602368  0.160851152  0.000000000
    -1.794672469  3.108463900  0.000000000    -0.000000000  0.321702304  0.000000000
    -0.000000000 -0.000000000  9.621157734     0.000000000 -0.000000000  0.103937595

  length of vectors
     3.589344939  3.589344939  9.621157734     0.321702304  0.321702304  0.103937595



 k-points in units of 2pi/SCALE and weight: pymatgen with grid density = 600 / numbe
   0.00000000  0.00000000  0.00000000       0.014
   0.04643373  0.02680853  0.00000000       0.083
   0.09286746  0.05361705  0.00000000       0.083
   0.13930118  0.08042558  0.00000000       0.042
   0.04643373  0.08042558  0.00000000       0.083
   0.09286746  0.10723410  0.00000000       0.167
   0.09286746  0.16085115  0.00000000       0.028
   0.00000000  0.00000000  0.05196880       0.014
   0.04643373  0.02680853  0.05196880       0.083
   0.09286746  0.05361705  0.05196880       0.083
   0.13930118  0.08042558  0.05196880       0.042
   0.04643373  0.08042558  0.05196880       0.083
   0.09286746  0.10723410  0.05196880       0.167
   0.09286746  0.16085115  0.05196880       0.028

 k-points in reciprocal lattice and weights: pymatgen with grid density = 600 / numbe
   0.00000000  0.00000000  0.00000000       0.014
   0.16666667  0.00000000  0.00000000       0.083
   0.33333333  0.00000000  0.00000000       0.083
   0.50000000  0.00000000  0.00000000       0.042
   0.16666667  0.16666667  0.00000000       0.083
   0.33333333  0.16666667  0.00000000       0.167
   0.33333333  0.33333333  0.00000000       0.028
   0.00000000  0.00000000  0.50000000       0.014
   0.16666667  0.00000000  0.50000000       0.083
   0.33333333  0.00000000  0.50000000       0.083
   0.50000000  0.00000000  0.50000000       0.042
   0.16666667  0.16666667  0.50000000       0.083
   0.33333333  0.16666667  0.50000000       0.167
   0.33333333  0.33333333  0.50000000       0.028

 position of ions in fractional coordinates (direct lattice) 
   0.00000000  0.00000000  0.50000022
   0.66666720  0.33333328  0.15513290
   0.33333328  0.66666657  0.84486753
   0.66666720  0.33333328  0.70552330
   0.00000000  0.00000000  0.00000000
   0.33333328  0.66666657  0.29447714

 position of ions in cartesian coordinates  (Angst):
   0.00000000  0.00000000  4.81058097
   1.79467447  1.03615448  1.49255814
  -0.00000000  2.07230896  8.12860379
   1.79467447  1.03615448  6.78795093
   0.00000000  0.00000000  0.00000000
  -0.00000000  2.07230896  2.83321100



--------------------------------------------------------------------------------------------------------


 k-point   1 :   0.0000 0.0000 0.0000  plane waves:    1957
 k-point   2 :   0.1667 0.0000 0.0000  plane waves:    1938
 k-point   3 :   0.3333 0.0000 0.0000  plane waves:    1946
 k-point   4 :   0.5000 0.0000 0.0000  plane waves:    1956
 k-point   5 :   0.1667 0.1667 0.0000  plane waves:    1948
 k-point   6 :   0.3333 0.1667 0.0000  plane waves:    1958
 k-point   7 :   0.3333 0.3333 0.0000  plane waves:    1944
 k-point   8 :   0.0000 0.0000 0.5000  plane waves:    1940
 k-point   9 :   0.1667 0.0000 0.5000  plane waves:    1932
 k-point  10 :   0.3333 0.0000 0.5000  plane waves:    1956
 k-point  11 :   0.5000 0.0000 0.5000  plane waves:    1940
 k-point  12 :   0.1667 0.1667 0.5000  plane waves:    1952
 k-point  13 :   0.3333 0.1667 0.5000  plane waves:    1952
 k-point  14 :   0.3333 0.3333 0.5000  plane waves:    1950

 maximum and minimum number of plane-waves per node :      1958     1932

 maximum number of plane-waves:      1958
 maximum index in each direction: 
   IXMAX=    5   IYMAX=    5   IZMAX=   15
   IXMIN=   -6   IYMIN=   -6   IZMIN=  -16


 serial   3D FFT for wavefunctions
 parallel 3D FFT for charge:
    minimum data exchange during FFTs selected (reduces bandwidth)


 total amount of memory used by VASP MPI-rank0    32443. kBytes
=======================================================================

   base      :      30000. kBytes
   nonlr-proj:        609. kBytes
   fftplans  :        282. kBytes
   grid      :       1076. kBytes
   one-center:         18. kBytes
   wavefun   :        458. kBytes

     INWAV:  cpu time      0.0000: real time      0.0002
 Broyden mixing: mesh for mixing (old mesh)
   NGX = 11   NGY = 11   NGZ = 31
  (NGX  = 36   NGY  = 36   NGZ  = 96)
  gives a total of   3751 points

 initial charge density was supplied:
 charge density of overlapping atoms calculated
 number of electron      33.0000000 magnetization 
 keeping initial charge density in first step


--------------------------------------------------------------------------------------------------------


 Maximum index for non-local projection operator         1315
 Maximum index for augmentation-charges          550 (set IRDMAX)


--------------------------------------------------------------------------------------------------------


 First call to EWALD:  gamma=   0.373
 Maximum number of real-space cells 4x 4x 2
 Maximum number of reciprocal cells 2x 2x 5

    FEWALD:  cpu time      0.0019: real time      0.0020


--------------------------------------- Iteration      1(   1)  ---------------------------------------


    POTLOK:  cpu time      0.0090: real time      0.0093
    SETDIJ:  cpu time      0.0013: real time      0.0016
     EDDAV:  cpu time      0.2638: real time      0.2657
       DOS:  cpu time      0.0007: real time      0.0008
    --------------------------------------------
      LOOP:  cpu time      0.2749: real time      0.2774

 eigenvalue-minimisations  :   896
 total energy-change (2. order) : 0.6263539E+02  (-0.1428456E+04)
 number of electron      33.0000000 magnetization 
 augmentation part       33.0000000 magnetization 

 Free energy of the ion-electron system (eV)
  ---------------------------------------------------
  alpha Z        PSCENC =        41.76596968
  Ewald energy   TEWEN  =     -1455.18582242
  -Hartree energ DENC   =      -299.07207955
  -exchange      EXHF   =         0.00000000
  -V(xc)+E(xc)   XCENC  =        43.91443652
  PAW double counting   =      1331.04785384    -1374.86315765
  entropy T*S    EENTRO =        -0.00342543
  eigenvalues    EBANDS =       -27.58866038
  atomic energy  EATOM  =      1802.62027846
  Solvation  Ediel_sol  =         0.00000000
  ---------------------------------------------------
  free energy    TOTEN  =        62.63539306 eV

  energy without entropy =       62.63881850  energy(sigma->0) =       62.63710578


--------------------------------------------------------------------------------------------------------




--------------------------------------- Iteration      1(   2)  ---------------------------------------


     EDDAV:  cpu time      0.4797: real time      0.4802
       DOS:  cpu time      0.0004: real time      0.0005
    --------------------------------------------
      LOOP:  cpu time      0.4800: real time      0.4807

 eigenvalue-minimisations  :  1408
 total energy-change (2. order) :-0.8825086E+02  (-0.8804265E+02)
 number of electron      33.0000000 magnetization 
 augmentation part       33.0000000 magnetization 

 Free energy of the ion-electron system (eV)
  ---------------------------------------------------
  alpha Z        PSCENC =        41.76596968
  Ewald energy   TEWEN  =     -1455.18582242
  -Hartree energ DENC   =      -299.07207955
  -exchange      EXHF   =         0.00000000
  -V(xc)+E(xc)   XCENC  =        43.91443652
  PAW double counting   =      1331.04785384    -1374.86315765
  entropy T*S    EENTRO =        -0.00395616
  eigenvalues    EBANDS =      -115.83899043
  atomic energy  EATOM  =      1802.62027846
  Solvation  Ediel_sol  =         0.00000000
  ---------------------------------------------------
  free energy    TOTEN  =       -25.61546771 eV

  energy without entropy =      -25.61151155  energy(sigma->0) =      -25.61348963


--------------------------------------------------------------------------------------------------------




--------------------------------------- Iteration      1(   3)  ---------------------------------------


     EDDAV:  cpu time      0.3036: real time      0.3056
       DOS:  cpu time      0.0004: real time      0.0005
    --------------------------------------------
      LOOP:  cpu time      0.3040: real time      0.3062

 eigenvalue-minimisations  :   992
 total energy-change (2. order) :-0.1526700E+01  (-0.1525978E+01)
 number of electron      33.0000000 magnetization 
 augmentation part       33.0000000 magnetization 

 Free energy of the ion-electron system (eV)
  ---------------------------------------------------
  alpha Z        PSCENC =        41.76596968
  Ewald energy   TEWEN  =     -1455.18582242
  -Hartree energ DENC   =      -299.07207955
  -exchange      EXHF   =         0.00000000
  -V(xc)+E(xc)   XCENC  =        43.91443652
  PAW double counting   =      1331.04785384    -1374.86315765
  entropy T*S    EENTRO =        -0.00392959
  eigenvalues    EBANDS =      -117.36571679
  atomic energy  EATOM  =      1802.62027846
  Solvation  Ediel_sol  =         0.00000000
  ---------------------------------------------------
  free energy    TOTEN  =       -27.14216749 eV

  energy without entropy =      -27.13823791  energy(sigma->0) =      -27.14020270


--------------------------------------------------------------------------------------------------------




--------------------------------------- Iteration      1(   4)  ---------------------------------------


     EDDAV:  cpu time      0.6811: real time      0.6833
       DOS:  cpu time      0.0004: real time      0.0006
    --------------------------------------------
      LOOP:  cpu time      0.6815: real time      0.6839

 eigenvalue-minimisations  :  1664
 total energy-change (2. order) :-0.7210356E-02  (-0.7210206E-02)
 number of electron      33.0000000 magnetization 
 augmentation part       33.0000000 magnetization 

 Free energy of the ion-electron system (eV)
  ---------------------------------------------------
  alpha Z        PSCENC =        41.76596968
  Ewald energy   TEWEN  =     -1455.18582242
  -Hartree energ DENC   =      -299.07207955
  -exchange      EXHF   =         0.00000000
  -V(xc)+E(xc)   XCENC  =        43.91443652
  PAW double counting   =      1331.04785384    -1374.86315765
  entropy T*S    EENTRO =        -0.00394879
  eigenvalues    EBANDS =      -117.37290794
  atomic energy  EATOM  =      1802.62027846
  Solvation  Ediel_sol  =         0.00000000
  ---------------------------------------------------
  free energy    TOTEN  =       -27.14937785 eV

  energy without entropy =      -27.14542906  energy(sigma->0) =      -27.14740346


--------------------------------------------------------------------------------------------------------




--------------------------------------- Iteration      1(   5)  ---------------------------------------


     EDDAV:  cpu time      0.2882: real time      0.2888
       DOS:  cpu time      0.0003: real time      0.0005
    CHARGE:  cpu time      0.0097: real time      0.0101
    MIXING:  cpu time      0.0023: real time      0.0024
    --------------------------------------------
      LOOP:  cpu time      0.3005: real time      0.3017

 eigenvalue-minimisations  :  1024
 total energy-change (2. order) :-0.8661939E-06  (-0.8663903E-06)
 number of electron      32.9999985 magnetization 
 augmentation part        1.4192869 magnetization 

 Broyden mixing:
  rms(total) = 0.11243E+01    rms(broyden)= 0.11243E+01
  rms(prec ) = 0.11877E+01
  weight for this iteration     100.00

 Free energy of the ion-electron system (eV)
  ---------------------------------------------------
  alpha Z        PSCENC =        41.76596968
  Ewald energy   TEWEN  =     -1455.18582242
  -Hartree energ DENC   =      -299.07207955
  -exchange      EXHF   =         0.00000000
  -V(xc)+E(xc)   XCENC  =        43.91443652
  PAW double counting   =      1331.04785384    -1374.86315765
  entropy T*S    EENTRO =        -0.00394879
  eigenvalues    EBANDS =      -117.37290880
  atomic energy  EATOM  =      1802.62027846
  Solvation  Ediel_sol  =         0.00000000
  ---------------------------------------------------
  free energy    TOTEN  =       -27.14937872 eV

  energy without entropy =      -27.14542992  energy(sigma->0) =      -27.14740432


--------------------------------------------------------------------------------------------------------




--------------------------------------- Iteration      1(   6)  ---------------------------------------


    POTLOK:  cpu time      0.0063: real time      0.0065
    SETDIJ:  cpu time      0.0011: real time      0.0011
     EDDAV:  cpu time      0.5044: real time      0.5061
       DOS:  cpu time      0.0003: real time      0.0003
    CHARGE:  cpu time      0.0082: real time      0.0083
    MIXING:  cpu time      0.0003: real time      0.0004
    --------------------------------------------
      LOOP:  cpu time      0.5207: real time      0.5228

 eigenvalue-minimisations  :  1376
 total energy-change (2. order) : 0.3836189E+00  (-0.1688176E+00)
 number of electron      32.9999986 magnetization 
 augmentation part        1.4696857 magnetization 

 Broyden mixing:
  rms(total) = 0.75388E+00    rms(broyden)= 0.75388E+00
  rms(prec ) = 0.76981E+00
  weight for this iteration     100.00

 eigenvalues of (default mixing * dielectric matrix)
  average eigenvalue GAMMA=   2.6427
  2.6427

 Free energy of the ion-electron system (eV)
  ---------------------------------------------------
  alpha Z        PSCENC =        41.76596968
  Ewald energy   TEWEN  =     -1455.18582242
  -Hartree energ DENC   =      -303.64064133
  -exchange      EXHF   =         0.00000000
  -V(xc)+E(xc)   XCENC  =        44.48977086
  PAW double counting   =      1783.72738594    -1827.68411507
  entropy T*S    EENTRO =        -0.00561394
  eigenvalues    EBANDS =      -112.85297196
  atomic energy  EATOM  =      1802.62027846
  Solvation  Ediel_sol  =         0.00000000
  ---------------------------------------------------
  free energy    TOTEN  =       -26.76575977 eV

  energy without entropy =      -26.76014583  energy(sigma->0) =      -26.76295280


--------------------------------------------------------------------------------------------------------




--------------------------------------- Iteration      1(   7)  ---------------------------------------


    POTLOK:  cpu time      0.0062: real time      0.0064
    SETDIJ:  cpu time      0.0011: real time      0.0011
     EDDAV:  cpu time      0.3947: real time      0.3956
       DOS:  cpu time      0.0003: real time      0.0005
    CHARGE:  cpu time      0.0081: real time      0.0081
    MIXING:  cpu time      0.0002: real time      0.0002
    --------------------------------------------
      LOOP:  cpu time      0.4107: real time      0.4119

 eigenvalue-minimisations  :  1248
 total energy-change (2. order) : 0.1018185E-01  (-0.3758033E-01)
 number of electron      32.9999986 magnetization 
 augmentation part        1.4884337 magnetization 

 Broyden mixing:
  rms(total) = 0.16606E+00    rms(broyden)= 0.16606E+00
  rms(prec ) = 0.17326E+00
  weight for this iteration     100.00

 eigenvalues of (default mixing * dielectric matrix)
  average eigenvalue GAMMA=   1.8093
  1.1885  2.4302

 Free energy of the ion-electron system (eV)
  ---------------------------------------------------
  alpha Z        PSCENC =        41.76596968
  Ewald energy   TEWEN  =     -1455.18582242
  -Hartree energ DENC   =      -305.91669722
  -exchange      EXHF   =         0.00000000
  -V(xc)+E(xc)   XCENC  =        44.98166256
  PAW double counting   =      2603.41873045    -2647.65357917
  entropy T*S    EENTRO =        -0.00641232
  eigenvalues    EBANDS =      -110.77970795
  atomic energy  EATOM  =      1802.62027846
  Solvation  Ediel_sol  =         0.00000000
  ---------------------------------------------------
  free energy    TOTEN  =       -26.75557793 eV

  energy without entropy =      -26.74916561  energy(sigma->0) =      -26.75237177


--------------------------------------------------------------------------------------------------------




--------------------------------------- Iteration      1(   8)  ---------------------------------------


    POTLOK:  cpu time      0.0061: real time      0.0063
    SETDIJ:  cpu time      0.0011: real time      0.0011
     EDDAV:  cpu time      0.5172: real time      0.5201
       DOS:  cpu time      0.0004: real time      0.0005
    CHARGE:  cpu time      0.0086: real time      0.0086
    MIXING:  cpu time      0.0003: real time      0.0003
    --------------------------------------------
      LOOP:  cpu time      0.5337: real time      0.5369

 eigenvalue-minimisations  :  1376
 total energy-change (2. order) : 0.1513593E-02  (-0.2833323E-02)
 number of electron      32.9999986 magnetization 
 augmentation part        1.4854565 magnetization 

 Broyden mixing:
  rms(total) = 0.28943E-01    rms(broyden)= 0.28943E-01
  rms(prec ) = 0.32734E-01
  weight for this iteration     100.00

 eigenvalues of (default mixing * dielectric matrix)
  average eigenvalue GAMMA=   1.5812
  2.4081  0.9745  1.3610

 Free energy of the ion-electron system (eV)
  ---------------------------------------------------
  alpha Z        PSCENC =        41.76596968
  Ewald energy   TEWEN  =     -1455.18582242
  -Hartree energ DENC   =      -305.51877416
  -exchange      EXHF   =         0.00000000
  -V(xc)+E(xc)   XCENC  =        45.03977637
  PAW double counting   =      2806.99276139    -2851.35716507
  entropy T*S    EENTRO =        -0.00626107
  eigenvalues    EBANDS =      -111.10482753
  atomic energy  EATOM  =      1802.62027846
  Solvation  Ediel_sol  =         0.00000000
  ---------------------------------------------------
  free energy    TOTEN  =       -26.75406434 eV

  energy without entropy =      -26.74780327  energy(sigma->0) =      -26.75093380


--------------------------------------------------------------------------------------------------------




--------------------------------------- Iteration      1(   9)  ---------------------------------------


    POTLOK:  cpu time      0.0065: real time      0.0067
    SETDIJ:  cpu time      0.0011: real time      0.0011
     EDDAV:  cpu time      0.5736: real time      0.5775
       DOS:  cpu time      0.0003: real time      0.0004
    CHARGE:  cpu time      0.0084: real time      0.0084
    MIXING:  cpu time      0.0003: real time      0.0003
    --------------------------------------------
      LOOP:  cpu time      0.5902: real time      0.5944

 eigenvalue-minimisations  :  1504
 total energy-change (2. order) :-0.9481551E-04  (-0.4404649E-03)
 number of electron      32.9999986 magnetization 
 augmentation part        1.4824804 magnetization 

 Broyden mixing:
  rms(total) = 0.14655E-01    rms(broyden)= 0.14655E-01
  rms(prec ) = 0.16072E-01
  weight for this iteration     100.00

 eigenvalues of (default mixing * dielectric matrix)
  average eigenvalue GAMMA=   1.5612
  2.1061  2.1061  0.9035  1.1290

 Free energy of the ion-electron system (eV)
  ---------------------------------------------------
  alpha Z        PSCENC =        41.76596968
  Ewald energy   TEWEN  =     -1455.18582242
  -Hartree energ DENC   =      -305.25818752
  -exchange      EXHF   =         0.00000000
  -V(xc)+E(xc)   XCENC  =        45.02893757
  PAW double counting   =      2792.69541302    -2837.08824966
  entropy T*S    EENTRO =        -0.00619828
  eigenvalues    EBANDS =      -111.32629999
  atomic energy  EATOM  =      1802.62027846
  Solvation  Ediel_sol  =         0.00000000
  ---------------------------------------------------
  free energy    TOTEN  =       -26.75415915 eV

  energy without entropy =      -26.74796087  energy(sigma->0) =      -26.75106001


--------------------------------------------------------------------------------------------------------




--------------------------------------- Iteration      1(  10)  ---------------------------------------


    POTLOK:  cpu time      0.0060: real time      0.0063
    SETDIJ:  cpu time      0.0011: real time      0.0011
     EDDAV:  cpu time      0.4392: real time      0.4396
       DOS:  cpu time      0.0003: real time      0.0005
    CHARGE:  cpu time      0.0082: real time      0.0082
    MIXING:  cpu time      0.0003: real time      0.0003
    --------------------------------------------
      LOOP:  cpu time      0.4551: real time      0.4559

 eigenvalue-minimisations  :  1216
 total energy-change (2. order) :-0.2272461E-03  (-0.2733223E-04)
 number of electron      32.9999986 magnetization 
 augmentation part        1.4823577 magnetization 

 Broyden mixing:
  rms(total) = 0.55496E-02    rms(broyden)= 0.55495E-02
  rms(prec ) = 0.67571E-02
  weight for this iteration     100.00

 eigenvalues of (default mixing * dielectric matrix)
  average eigenvalue GAMMA=   1.6046
  2.3645  2.3645  1.3784  0.9114  1.0043

 Free energy of the ion-electron system (eV)
  ---------------------------------------------------
  alpha Z        PSCENC =        41.76596968
  Ewald energy   TEWEN  =     -1455.18582242
  -Hartree energ DENC   =      -305.24585330
  -exchange      EXHF   =         0.00000000
  -V(xc)+E(xc)   XCENC  =        45.03186875
  PAW double counting   =      2773.29356065    -2817.69800842
  entropy T*S    EENTRO =        -0.00621790
  eigenvalues    EBANDS =      -111.33016190
  atomic energy  EATOM  =      1802.62027846
  Solvation  Ediel_sol  =         0.00000000
  ---------------------------------------------------
  free energy    TOTEN  =       -26.75438640 eV

  energy without entropy =      -26.74816850  energy(sigma->0) =      -26.75127745


--------------------------------------------------------------------------------------------------------




--------------------------------------- Iteration      1(  11)  ---------------------------------------


    POTLOK:  cpu time      0.0064: real time      0.0066
    SETDIJ:  cpu time      0.0011: real time      0.0011
     EDDAV:  cpu time      0.5199: real time      0.5220
       DOS:  cpu time      0.0003: real time      0.0005
    CHARGE:  cpu time      0.0082: real time      0.0082
    MIXING:  cpu time      0.0003: real time      0.0003
    --------------------------------------------
      LOOP:  cpu time      0.5361: real time      0.5386

 eigenvalue-minimisations  :  1408
 total energy-change (2. order) :-0.1018511E-03  (-0.1014182E-04)
 number of electron      32.9999986 magnetization 
 augmentation part        1.4825426 magnetization 

 Broyden mixing:
  rms(total) = 0.21701E-02    rms(broyden)= 0.21700E-02
  rms(prec ) = 0.25846E-02
  weight for this iteration     100.00

 eigenvalues of (default mixing * dielectric matrix)
  average eigenvalue GAMMA=   1.6811
  2.6144  2.5639  1.6691  1.0177  1.0835  1.1377

 Free energy of the ion-electron system (eV)
  ---------------------------------------------------
  alpha Z        PSCENC =        41.76596968
  Ewald energy   TEWEN  =     -1455.18582242
  -Hartree energ DENC   =      -305.25773496
  -exchange      EXHF   =         0.00000000
  -V(xc)+E(xc)   XCENC  =        45.03904768
  PAW double counting   =      2769.45993279    -2813.87561962
  entropy T*S    EENTRO =        -0.00622755
  eigenvalues    EBANDS =      -111.31431231
  atomic energy  EATOM  =      1802.62027846
  Solvation  Ediel_sol  =         0.00000000
  ---------------------------------------------------
  free energy    TOTEN  =       -26.75448825 eV

  energy without entropy =      -26.74826070  energy(sigma->0) =      -26.75137447


--------------------------------------------------------------------------------------------------------




--------------------------------------- Iteration      1(  12)  ---------------------------------------


    POTLOK:  cpu time      0.0061: real time      0.0063
    SETDIJ:  cpu time      0.0011: real time      0.0011
     EDDAV:  cpu time      0.5440: real time      0.5446
       DOS:  cpu time      0.0003: real time      0.0005
    CHARGE:  cpu time      0.0081: real time      0.0081
    MIXING:  cpu time      0.0003: real time      0.0003
    --------------------------------------------
      LOOP:  cpu time      0.5599: real time      0.5608

 eigenvalue-minimisations  :  1472
 total energy-change (2. order) :-0.1446495E-04  (-0.2915507E-05)
 number of electron      32.9999986 magnetization 
 augmentation part        1.4826021 magnetization 

 Broyden mixing:
  rms(total) = 0.63385E-03    rms(broyden)= 0.63383E-03
  rms(prec ) = 0.66821E-03
  weight for this iteration     100.00

 eigenvalues of (default mixing * dielectric matrix)
  average eigenvalue GAMMA=   1.6527
  2.6601  2.5377  2.0911  1.3056  0.9668  0.9668  1.0408

 Free energy of the ion-electron system (eV)
  ---------------------------------------------------
  alpha Z        PSCENC =        41.76596968
  Ewald energy   TEWEN  =     -1455.18582242
  -Hartree energ DENC   =      -305.26341703
  -exchange      EXHF   =         0.00000000
  -V(xc)+E(xc)   XCENC  =        45.04225181
  PAW double counting   =      2769.18728374    -2813.60807563
  entropy T*S    EENTRO =        -0.00622723
  eigenvalues    EBANDS =      -111.30674409
  atomic energy  EATOM  =      1802.62027846
  Solvation  Ediel_sol  =         0.00000000
  ---------------------------------------------------
  free energy    TOTEN  =       -26.75450271 eV

  energy without entropy =      -26.74827549  energy(sigma->0) =      -26.75138910


--------------------------------------------------------------------------------------------------------




--------------------------------------- Iteration      1(  13)  ---------------------------------------


    POTLOK:  cpu time      0.0060: real time      0.0062
    SETDIJ:  cpu time      0.0011: real time      0.0011
     EDDAV:  cpu time      0.4414: real time      0.4415
       DOS:  cpu time      0.0003: real time      0.0004
    --------------------------------------------
      LOOP:  cpu time      0.4489: real time      0.4493

 eigenvalue-minimisations  :  1280
 total energy-change (2. order) :-0.5742127E-06  (-0.8696264E-07)
 number of electron      32.9999986 magnetization 
 augmentation part        1.4826021 magnetization 

 Free energy of the ion-electron system (eV)
  ---------------------------------------------------
  alpha Z        PSCENC =        41.76596968
  Ewald energy   TEWEN  =     -1455.18582242
  -Hartree energ DENC   =      -305.26404576
  -exchange      EXHF   =         0.00000000
  -V(xc)+E(xc)   XCENC  =        45.04238823
  PAW double counting   =      2769.20877388    -2813.63001544
  entropy T*S    EENTRO =        -0.00622793
  eigenvalues    EBANDS =      -111.30580200
  atomic energy  EATOM  =      1802.62027846
  Solvation  Ediel_sol  =         0.00000000
  ---------------------------------------------------
  free energy    TOTEN  =       -26.75450329 eV

  energy without entropy =      -26.74827536  energy(sigma->0) =      -26.75138933


--------------------------------------------------------------------------------------------------------




 average (electrostatic) potential at core
  the test charge radii are     0.9254  0.9892  0.9698
  (the norm of the test charge is              1.0000)
       1 -43.7745       2 -84.0265       3 -84.0266       4 -85.7707       5 -86.1524
       6 -85.7707



 E-fermi :   6.6782     XC(G=0):  -9.8507     alpha+bet :-11.8135

 Fermi energy:         6.6782278738

 k-point     1 :       0.0000    0.0000    0.0000
  band No.  band energies     occupation 
      1     -17.9674      2.00000
      2     -17.9673      2.00000
      3     -17.9596      2.00000
      4      -9.3776      2.00000
      5      -8.2707      2.00000
      6      -7.4257      2.00000
      7      -1.8156      2.00000
      8       0.2975      2.00000
      9       3.5777      2.00000
     10       3.5777      2.00000
     11       3.7848      2.00000
     12       3.9257      2.00000
     13       3.9257      2.00000
     14       4.0209      2.00000
     15       4.0209      2.00000
     16       5.2691      2.00000
     17       7.2058      0.00000
     18       7.5527      0.00000
     19       8.1150      0.00000
     20       8.1150      0.00000
     21      10.0134      0.00000
     22      10.0134      0.00000
     23      10.0617      0.00000
     24      10.3271      0.00000
     25      12.1706      0.00000
     26      12.1706      0.00000
     27      12.8109      0.00000
     28      14.4662      0.00000
     29      14.4662      0.00000
     30      14.5210      0.00000
     31      14.5781      0.00000
     32      14.5782      0.00000

 k-point     2 :       0.1667    0.0000    0.0000
  band No.  band energies     occupation 
      1     -17.9791      2.00000
      2     -17.9699      2.00000
      3     -17.9567      2.00000
      4      -9.0664      2.00000
      5      -8.0094      2.00000
      6      -7.2416      2.00000
      7      -1.6694      2.00000
      8       0.0623      2.00000
      9       1.8681      2.00000
     10       2.2395      2.00000
     11       2.7924      2.00000
     12       2.8851      2.00000
     13       3.6176      2.00000
     14       3.7516      2.00000
     15       4.1174      2.00000
     16       6.0605      2.00000
     17       6.8216      0.00005
     18       8.5059      0.00000
     19       8.6515      0.00000
     20       9.1642      0.00000
     21       9.5591      0.00000
     22      10.4869      0.00000
     23      10.9653      0.00000
     24      11.0840      0.00000
     25      11.1738      0.00000
     26      12.5173      0.00000
     27      12.8758      0.00000
     28      12.9274      0.00000
     29      14.0053      0.00000
     30      14.4130      0.00000
     31      14.9881      0.00000
     32      15.3361      0.00000

 k-point     3 :       0.3333    0.0000    0.0000
  band No.  band energies     occupation 
      1     -18.0025      2.00000
      2     -17.9752      2.00000
      3     -17.9510      2.00000
      4      -8.2271      2.00000
      5      -7.3641      2.00000
      6      -6.8876      2.00000
      7      -2.0707      2.00000
      8      -1.0155      2.00000
      9      -0.0603      2.00000
     10       1.4447      2.00000
     11       2.0008      2.00000
     12       2.1175      2.00000
     13       3.0049      2.00000
     14       3.4826      2.00000
     15       3.8794      2.00000
     16       4.3091      2.00000
     17       6.8820      0.00000
     18       8.3563      0.00000
     19       9.0973      0.00000
     20       9.2248      0.00000
     21       9.6146      0.00000
     22      10.4059      0.00000
     23      11.2040      0.00000
     24      11.2308      0.00000
     25      12.6145      0.00000
     26      13.3892      0.00000
     27      14.1841      0.00000
     28      14.7039      0.00000
     29      14.9161      0.00000
     30      15.3835      0.00000
     31      15.6228      0.00000
     32      16.4142      0.00000

 k-point     4 :       0.5000    0.0000    0.0000
  band No.  band energies     occupation 
      1     -18.0141      2.00000
      2     -17.9779      2.00000
      3     -17.9482      2.00000
      4      -7.4646      2.00000
      5      -6.9926      2.00000
      6      -6.8442      2.00000
      7      -2.8948      2.00000
      8      -1.5623      2.00000
      9      -0.7286      2.00000
     10       1.7085      2.00000
     11       1.8041      2.00000
     12       1.8688      2.00000
     13       2.7546      2.00000
     14       3.2418      2.00000
     15       3.5892      2.00000
     16       3.7255      2.00000
     17       6.4277      2.00000
     18       8.1816      0.00000
     19       8.6814      0.00000
     20       9.0715      0.00000
     21       9.5885      0.00000
     22       9.9957      0.00000
     23      11.5139      0.00000
     24      11.9892      0.00000
     25      13.0461      0.00000
     26      13.3481      0.00000
     27      14.6550      0.00000
     28      15.5608      0.00000
     29      16.4443      0.00000
     30      16.7045      0.00000
     31      16.7144      0.00000
     32      17.4390      0.00000

 k-point     5 :       0.1667    0.1667    0.0000
  band No.  band energies     occupation 
      1     -17.9945      2.00000
      2     -17.9762      2.00000
      3     -17.9524      2.00000
      4      -8.4865      2.00000
      5      -7.5485      2.00000
      6      -6.9606      2.00000
      7      -1.6113      2.00000
      8      -0.9125      2.00000
      9       0.8402      2.00000
     10       1.0226      2.00000
     11       1.9845      2.00000
     12       2.3415      2.00000
     13       2.6561      2.00000
     14       3.0821      2.00000
     15       3.9893      2.00000
     16       5.9264      2.00000
     17       6.8067      0.00028
     18       8.5558      0.00000
     19       9.1050      0.00000
     20       9.6549      0.00000
     21      10.3559      0.00000
     22      10.6336      0.00000
     23      11.2062      0.00000
     24      11.3951      0.00000
     25      11.8815      0.00000
     26      11.9464      0.00000
     27      12.1607      0.00000
     28      13.3855      0.00000
     29      15.2507      0.00000
     30      15.3278      0.00000
     31      16.0104      0.00000
     32      17.1697      0.00000

 k-point     6 :       0.3333    0.1667    0.0000
  band No.  band energies     occupation 
      1     -18.0080      2.00000
      2     -17.9840      2.00000
      3     -17.9482      2.00000
      4      -7.5846      2.00000
      5      -6.9625      2.00000
      6      -6.7708      2.00000
      7      -2.4792      2.00000
      8      -1.6818      2.00000
      9      -0.3492      2.00000
     10       0.7726      2.00000
     11       1.3580      2.00000
     12       1.7794      2.00000
     13       2.3249      2.00000
     14       2.7853      2.00000
     15       3.5867      2.00000
     16       5.0521      2.00000
     17       6.6013      1.97040
     18       8.8815      0.00000
     19       9.2693      0.00000
     20       9.5167      0.00000
     21       9.9334      0.00000
     22      10.7152      0.00000
     23      11.3255      0.00000
     24      11.8401      0.00000
     25      12.5619      0.00000
     26      13.4529      0.00000
     27      13.5758      0.00000
     28      14.5341      0.00000
     29      14.8896      0.00000
     30      15.4406      0.00000
     31      16.3141      0.00000
     32      17.6040      0.00000

 k-point     7 :       0.3333    0.3333    0.0000
  band No.  band energies     occupation 
      1     -17.9995      2.00000
      2     -17.9995      2.00000
      3     -17.9467      2.00000
      4      -7.1382      2.00000
      5      -6.7500      2.00000
      6      -6.7500      2.00000
      7      -2.3434      2.00000
      8      -2.3433      2.00000
      9      -0.1438      2.00000
     10       0.3989      2.00000
     11       0.3989      2.00000
     12       1.1161      2.00000
     13       2.6401      2.00000
     14       2.6401      2.00000
     15       3.2529      2.00000
     16       5.8016      2.00000
     17       5.8016      2.00000
     18       8.6648      0.00000
     19      10.2153      0.00000
     20      10.2153      0.00000
     21      11.1553      0.00000
     22      11.1554      0.00000
     23      11.3828      0.00000
     24      12.8162      0.00000
     25      12.8697      0.00000
     26      12.8697      0.00000
     27      14.1329      0.00000
     28      14.1779      0.00000
     29      14.1779      0.00000
     30      14.2624      0.00000
     31      15.4849      0.00000
     32      15.4849      0.00000

 k-point     8 :       0.0000    0.0000    0.5000
  band No.  band energies     occupation 
      1     -17.9674      2.00000
      2     -17.9673      2.00000
      3     -17.9594      2.00000
      4      -9.3575      2.00000
      5      -8.3558      2.00000
      6      -7.3371      2.00000
      7      -2.0340      2.00000
      8       0.8973      2.00000
      9       2.8623      2.00000
     10       3.5774      2.00000
     11       3.5774      2.00000
     12       3.9649      2.00000
     13       3.9650      2.00000
     14       3.9802      2.00000
     15       3.9802      2.00000
     16       6.0637      2.00000
     17       6.9461      0.00000
     18       7.6034      0.00000
     19       8.1223      0.00000
     20       8.1223      0.00000
     21      10.0111      0.00000
     22      10.0111      0.00000
     23      10.0371      0.00000
     24      10.3889      0.00000
     25      12.2508      0.00000
     26      12.2508      0.00000
     27      12.2846      0.00000
     28      14.1359      0.00000
     29      14.1359      0.00000
     30      14.4491      0.00000
     31      14.4491      0.00000
     32      14.9935      0.00000

 k-point     9 :       0.1667    0.0000    0.5000
  band No.  band energies     occupation 
      1     -17.9791      2.00000
      2     -17.9699      2.00000
      3     -17.9567      2.00000
      4      -9.0484      2.00000
      5      -8.0856      2.00000
      6      -7.1656      2.00000
      7      -1.8279      2.00000
      8       0.3054      2.00000
      9       1.8367      2.00000
     10       2.4302      2.00000
     11       2.8001      2.00000
     12       2.9706      2.00000
     13       3.2418      2.00000
     14       3.5828      2.00000
     15       4.1487      2.00000
     16       6.0605      2.00000
     17       7.1403      0.00000
     18       8.3271      0.00000
     19       8.6445      0.00000
     20       9.3297      0.00000
     21       9.7566      0.00000
     22       9.9506      0.00000
     23      10.4716      0.00000
     24      10.9620      0.00000
     25      11.8314      0.00000
     26      12.5435      0.00000
     27      12.9211      0.00000
     28      13.6188      0.00000
     29      14.2330      0.00000
     30      14.2755      0.00000
     31      15.2079      0.00000
     32      15.2296      0.00000

 k-point    10 :       0.3333    0.0000    0.5000
  band No.  band energies     occupation 
      1     -18.0026      2.00000
      2     -17.9753      2.00000
      3     -17.9510      2.00000
      4      -8.2155      2.00000
      5      -7.4133      2.00000
      6      -6.8460      2.00000
      7      -2.0622      2.00000
      8      -1.0353      2.00000
      9      -0.0446      2.00000
     10       1.2073      2.00000
     11       2.0069      2.00000
     12       2.4516      2.00000
     13       2.9769      2.00000
     14       3.4206      2.00000
     15       3.9104      2.00000
     16       4.3950      2.00000
     17       6.6762      1.04613
     18       8.1875      0.00000
     19       9.0248      0.00000
     20       9.0746      0.00000
     21       9.7681      0.00000
     22      10.7423      0.00000
     23      11.3425      0.00000
     24      11.4468      0.00000
     25      12.2703      0.00000
     26      13.6474      0.00000
     27      14.0917      0.00000
     28      14.6399      0.00000
     29      15.0441      0.00000
     30      15.2942      0.00000
     31      15.6113      0.00000
     32      16.0294      0.00000

 k-point    11 :       0.5000    0.0000    0.5000
  band No.  band energies     occupation 
      1     -18.0140      2.00000
      2     -17.9779      2.00000
      3     -17.9481      2.00000
      4      -7.4640      2.00000
      5      -6.9849      2.00000
      6      -6.8534      2.00000
      7      -2.9193      2.00000
      8      -1.4989      2.00000
      9      -0.6830      2.00000
     10       1.5930      2.00000
     11       1.6488      2.00000
     12       1.7141      2.00000
     13       2.7290      2.00000
     14       3.5783      2.00000
     15       3.7558      2.00000
     16       3.8494      2.00000
     17       6.1381      2.00000
     18       8.0690      0.00000
     19       8.9193      0.00000
     20       8.9739      0.00000
     21       9.4545      0.00000
     22      10.1263      0.00000
     23      11.5751      0.00000
     24      11.7603      0.00000
     25      12.9555      0.00000
     26      13.2305      0.00000
     27      15.2249      0.00000
     28      15.3688      0.00000
     29      16.2831      0.00000
     30      16.6977      0.00000
     31      17.4488      0.00000
     32      18.1071      0.00000

 k-point    12 :       0.1667    0.1667    0.5000
  band No.  band energies     occupation 
      1     -17.9944      2.00000
      2     -17.9762      2.00000
      3     -17.9525      2.00000
      4      -8.4727      2.00000
      5      -7.6071      2.00000
      6      -6.9076      2.00000
      7      -1.6494      2.00000
      8      -0.8868      2.00000
      9       0.8341      2.00000
     10       0.8670      2.00000
     11       2.1379      2.00000
     12       2.4953      2.00000
     13       2.7045      2.00000
     14       3.2246      2.00000
     15       3.6492      2.00000
     16       5.9194      2.00000
     17       6.7249      0.18701
     18       8.8924      0.00000
     19       8.9608      0.00000
     20       9.5890      0.00000
     21       9.9030      0.00000
     22      10.8145      0.00000
     23      10.8267      0.00000
     24      11.5522      0.00000
     25      11.6402      0.00000
     26      12.4635      0.00000
     27      13.0036      0.00000
[...]
  z     0.00000     0.00000     0.00000     0.00000     0.00000     0.00000

 INTERNAL STRAIN TENSOR FOR ION    2 for displacements in x,y,z  (eV/Angst):
          X           Y           Z          XY          YZ          ZX
  --------------------------------------------------------------------------------
  x     0.00000    -0.00000     0.00000    -0.09343    -0.00000     0.49268
  y    -0.09343     0.09343     0.00000    -0.00000     0.49268    -0.00000
  z     2.30709     2.30709     0.86207    -0.00000    -0.00000     0.00000

 INTERNAL STRAIN TENSOR FOR ION    3 for displacements in x,y,z  (eV/Angst):
          X           Y           Z          XY          YZ          ZX
  --------------------------------------------------------------------------------
  x    -0.00000     0.00000     0.00000     0.09343     0.00000    -0.49268
  y     0.09343    -0.09343     0.00000     0.00000    -0.49268     0.00000
  z    -2.30709    -2.30709    -0.86207     0.00000     0.00000    -0.00000

 INTERNAL STRAIN TENSOR FOR ION    4 for displacements in x,y,z  (eV/Angst):
          X           Y           Z          XY          YZ          ZX
  --------------------------------------------------------------------------------
  x    -0.00000     0.00000     0.00000     2.89605    -0.00000     3.21703
  y     2.89605    -2.89605     0.00000     0.00000     3.21702    -0.00000
  z     2.14862     2.14862     5.94131    -0.00000     0.00000     0.00000

 INTERNAL STRAIN TENSOR FOR ION    5 for displacements in x,y,z  (eV/Angst):
          X           Y           Z          XY          YZ          ZX
  --------------------------------------------------------------------------------
  x     0.00000     0.00000     0.00000     0.00000     0.00000     0.00000
  y     0.00000     0.00000     0.00000     0.00000     0.00000     0.00000
  z     0.00000     0.00000     0.00000     0.00000     0.00000     0.00000

 INTERNAL STRAIN TENSOR FOR ION    6 for displacements in x,y,z  (eV/Angst):
          X           Y           Z          XY          YZ          ZX
  --------------------------------------------------------------------------------
  x     0.00000    -0.00000     0.00000    -2.89605     0.00000    -3.21703
  y    -2.89605     2.89605     0.00000    -0.00000    -3.21702     0.00000
  z    -2.14862    -2.14862    -5.94131     0.00000     0.00000     0.00000


--------------------------------------------------------------------------------------------------------



 Eigenvectors and eigenvalues of the dynamical matrix
 ----------------------------------------------------


   1 f  =   11.571062 THz    72.703130 2PiTHz  385.969099 cm-1    47.854048 meV
             X         Y         Z           dx          dy          dz
      0.000000  0.000000  4.810581     0.000000    0.000000   -0.000000  
      1.794674  1.036154  1.492558     0.000000    0.000000   -0.585609  
     -0.000000  2.072309  8.128604    -0.000000   -0.000000    0.585609  
      1.794674  1.036154  6.787951    -0.000000   -0.000000   -0.396311  
      0.000000  0.000000  0.000000     0.000000    0.000000   -0.000000  
     -0.000000  2.072309  2.833211    -0.000000   -0.000000    0.396311  

   2 f  =   10.110856 THz    63.528382 2PiTHz  337.261854 cm-1    41.815122 meV
             X         Y         Z           dx          dy          dz
      0.000000  0.000000  4.810581    -0.000000    0.000000    0.122046  
      1.794674  1.036154  1.492558    -0.000000    0.000000   -0.541234  
     -0.000000  2.072309  8.128604     0.000000   -0.000000   -0.541234  
      1.794674  1.036154  6.787951     0.000000    0.000000    0.445236  
      0.000000  0.000000  0.000000    -0.000000   -0.000000    0.052582  
     -0.000000  2.072309  2.833211     0.000000   -0.000000    0.445236  

   3 f  =    6.923218 THz    43.499862 2PiTHz  230.933695 cm-1    28.632116 meV
             X         Y         Z           dx          dy          dz
      0.000000  0.000000  4.810581     0.000003   -0.139391    0.000000  
      1.794674  1.036154  1.492558    -0.000002    0.108337    0.000000  
     -0.000000  2.072309  8.128604    -0.000002    0.108337   -0.000000  
      1.794674  1.036154  6.787951    -0.000008    0.389892   -0.000000  
      0.000000  0.000000  0.000000     0.000017   -0.808124   -0.000000  
     -0.000000  2.072309  2.833211    -0.000008    0.389892    0.000000  

   4 f  =    6.923218 THz    43.499862 2PiTHz  230.933695 cm-1    28.632116 meV
             X         Y         Z           dx          dy          dz
      0.000000  0.000000  4.810581    -0.139391   -0.000003   -0.000000  
      1.794674  1.036154  1.492558     0.108337    0.000002    0.000000  
     -0.000000  2.072309  8.128604     0.108337    0.000002    0.000000  
      1.794674  1.036154  6.787951     0.389892    0.000008    0.000000  
      0.000000  0.000000  0.000000    -0.808124   -0.000017   -0.000000  
     -0.000000  2.072309  2.833211     0.389892    0.000008    0.000000  

   5 f  =    6.660846 THz    41.851329 2PiTHz  222.181905 cm-1    27.547033 meV
             X         Y         Z           dx          dy          dz
      0.000000  0.000000  4.810581     0.000000   -0.000000   -0.777090  
      1.794674  1.036154  1.492558    -0.000000   -0.000000    0.181381  
     -0.000000  2.072309  8.128604    -0.000000    0.000000    0.181381  
      1.794674  1.036154  6.787951    -0.000000   -0.000000    0.344941  
      0.000000  0.000000  0.000000     0.000000    0.000000   -0.303914  
     -0.000000  2.072309  2.833211    -0.000000    0.000000    0.344941  

   6 f  =    6.144994 THz    38.610138 2PiTHz  204.974949 cm-1    25.413643 meV
             X         Y         Z           dx          dy          dz
      0.000000  0.000000  4.810581     0.000000   -0.000000    0.000000  
      1.794674  1.036154  1.492558     0.000000    0.000000   -0.396311  
     -0.000000  2.072309  8.128604    -0.000000   -0.000000    0.396311  
      1.794674  1.036154  6.787951    -0.000000    0.000000    0.585609  
      0.000000  0.000000  0.000000     0.000000   -0.000000    0.000000  
     -0.000000  2.072309  2.833211    -0.000000   -0.000000   -0.585609  

   7 f  =    5.328761 THz    33.481593 2PiTHz  177.748336 cm-1    22.037975 meV
             X         Y         Z           dx          dy          dz
      0.000000  0.000000  4.810581     0.000000   -0.000000    0.000000  
      1.794674  1.036154  1.492558    -0.000002   -0.443933   -0.000000  
     -0.000000  2.072309  8.128604     0.000002    0.443933    0.000000  
      1.794674  1.036154  6.787951    -0.000003   -0.550385    0.000000  
      0.000000  0.000000  0.000000    -0.000000    0.000000   -0.000000  
     -0.000000  2.072309  2.833211     0.000003    0.550385   -0.000000  

   8 f  =    5.328761 THz    33.481593 2PiTHz  177.748336 cm-1    22.037975 meV
             X         Y         Z           dx          dy          dz
      0.000000  0.000000  4.810581    -0.000000   -0.000000   -0.000000  
      1.794674  1.036154  1.492558    -0.443933    0.000002   -0.000000  
     -0.000000  2.072309  8.128604     0.443933   -0.000002   -0.000000  
      1.794674  1.036154  6.787951    -0.550385    0.000003    0.000000  
      0.000000  0.000000  0.000000    -0.000000    0.000000    0.000000  
     -0.000000  2.072309  2.833211     0.550385   -0.000003   -0.000000  

   9 f  =    4.515823 THz    28.373755 2PiTHz  150.631655 cm-1    18.675937 meV
             X         Y         Z           dx          dy          dz
      0.000000  0.000000  4.810581    -0.000000   -0.000000   -0.530967  
      1.794674  1.036154  1.492558     0.000000   -0.000000   -0.161462  
     -0.000000  2.072309  8.128604    -0.000000    0.000000   -0.161462  
      1.794674  1.036154  6.787951     0.000000   -0.000000   -0.169562  
      0.000000  0.000000  0.000000     0.000000   -0.000000    0.780021  
     -0.000000  2.072309  2.833211     0.000000    0.000000   -0.169562  

  10 f  =    4.116703 THz    25.866006 2PiTHz  137.318421 cm-1    17.025307 meV
             X         Y         Z           dx          dy          dz
      0.000000  0.000000  4.810581    -0.000011   -0.780386    0.000000  
      1.794674  1.036154  1.492558    -0.000003   -0.192464   -0.000000  
     -0.000000  2.072309  8.128604    -0.000003   -0.192464    0.000000  
      1.794674  1.036154  6.787951     0.000004    0.299045    0.000000  
      0.000000  0.000000  0.000000     0.000005    0.371561    0.000000  
     -0.000000  2.072309  2.833211     0.000004    0.299045   -0.000000  

  11 f  =    4.116703 THz    25.866006 2PiTHz  137.318421 cm-1    17.025307 meV
             X         Y         Z           dx          dy          dz
      0.000000  0.000000  4.810581    -0.780386    0.000011    0.000000  
      1.794674  1.036154  1.492558    -0.192464    0.000003    0.000000  
     -0.000000  2.072309  8.128604    -0.192464    0.000003    0.000000  
      1.794674  1.036154  6.787951     0.299045   -0.000004    0.000000  
      0.000000  0.000000  0.000000     0.371561   -0.000005   -0.000000  
     -0.000000  2.072309  2.833211     0.299045   -0.000004    0.000000  

  12 f  =    2.814812 THz    17.685983 2PiTHz   93.892009 cm-1    11.641120 meV
             X         Y         Z           dx          dy          dz
      0.000000  0.000000  4.810581     0.000007    0.552351    0.000000  
      1.794674  1.036154  1.492558    -0.000006   -0.469040    0.000000  
     -0.000000  2.072309  8.128604    -0.000006   -0.469040    0.000000  
      1.794674  1.036154  6.787951     0.000005    0.347711    0.000000  
      0.000000  0.000000  0.000000     0.000001    0.114485    0.000000  
     -0.000000  2.072309  2.833211     0.000005    0.347711    0.000000  

  13 f  =    2.814812 THz    17.685983 2PiTHz   93.892009 cm-1    11.641120 meV
             X         Y         Z           dx          dy          dz
      0.000000  0.000000  4.810581     0.552351   -0.000007   -0.000000  
      1.794674  1.036154  1.492558    -0.469040    0.000006   -0.000000  
     -0.000000  2.072309  8.128604    -0.469040    0.000006   -0.000000  
      1.794674  1.036154  6.787951     0.347711   -0.000005    0.000000  
      0.000000  0.000000  0.000000     0.114485   -0.000001   -0.000000  
     -0.000000  2.072309  2.833211     0.347711   -0.000005   -0.000000  

  14 f  =    2.598135 THz    16.324561 2PiTHz   86.664443 cm-1    10.745017 meV
             X         Y         Z           dx          dy          dz
      0.000000  0.000000  4.810581    -0.000000    0.000000   -0.000000  
      1.794674  1.036154  1.492558     0.000010   -0.550385   -0.000000  
     -0.000000  2.072309  8.128604    -0.000010    0.550385   -0.000000  
      1.794674  1.036154  6.787951    -0.000008    0.443933   -0.000000  
      0.000000  0.000000  0.000000    -0.000000   -0.000000   -0.000000  
     -0.000000  2.072309  2.833211     0.000008   -0.443933   -0.000000  

  15 f  =    2.598135 THz    16.324561 2PiTHz   86.664443 cm-1    10.745017 meV
             X         Y         Z           dx          dy          dz
      0.000000  0.000000  4.810581    -0.000000   -0.000000    0.000000  
      1.794674  1.036154  1.492558    -0.550385   -0.000010    0.000000  
     -0.000000  2.072309  8.128604     0.550385    0.000010    0.000000  
      1.794674  1.036154  6.787951     0.443933    0.000008    0.000000  
      0.000000  0.000000  0.000000    -0.000000   -0.000000    0.000000  
     -0.000000  2.072309  2.833211    -0.443933   -0.000008    0.000000  

  16 f/i=    0.525231 THz     3.300125 2PiTHz   17.519827 cm-1     2.172181 meV
             X         Y         Z           dx          dy          dz
      0.000000  0.000000  4.810581     0.257830    0.000315   -0.000000  
      1.794674  1.036154  1.492558     0.480856    0.000587   -0.000000  
     -0.000000  2.072309  8.128604     0.480856    0.000587   -0.000000  
      1.794674  1.036154  6.787951     0.371016    0.000453   -0.000000  
      0.000000  0.000000  0.000000     0.442461    0.000540   -0.000000  
     -0.000000  2.072309  2.833211     0.371016    0.000453   -0.000000  

  17 f/i=    0.525231 THz     3.300125 2PiTHz   17.519827 cm-1     2.172181 meV
             X         Y         Z           dx          dy          dz
      0.000000  0.000000  4.810581     0.000315   -0.257830   -0.000000  
      1.794674  1.036154  1.492558     0.000587   -0.480856   -0.000000  
     -0.000000  2.072309  8.128604     0.000587   -0.480856   -0.000000  
      1.794674  1.036154  6.787951     0.000453   -0.371016   -0.000000  
      0.000000  0.000000  0.000000     0.000540   -0.442461   -0.000000  
     -0.000000  2.072309  2.833211     0.000453   -0.371016   -0.000000  

  18 f/i=    0.652804 THz     4.101685 2PiTHz   21.775181 cm-1     2.699777 meV
             X         Y         Z           dx          dy          dz
      0.000000  0.000000  4.810581     0.000000   -0.000000    0.315134  
      1.794674  1.036154  1.492558     0.000000   -0.000000    0.384833  
     -0.000000  2.072309  8.128604     0.000000   -0.000000    0.384833  
      1.794674  1.036154  6.787951     0.000000   -0.000000    0.392465  
      0.000000  0.000000  0.000000     0.000000   -0.000000    0.544462  
     -0.000000  2.072309  2.833211     0.000000   -0.000000    0.392465  



--------------------------------------------------------------------------------------------------------



 ELASTIC MODULI CONTR FROM IONIC RELAXATION (kBar)
 Direction    XX          YY          ZZ          XY          YZ          ZX
 --------------------------------------------------------------------------------
 XX        -178.4832    140.7713    -33.1293     -0.0000   -152.6455     -0.0000
 YY         140.7713   -178.4832    -33.1293      0.0000    152.6455      0.0000
 ZZ         -33.1293    -33.1293   -145.3325     -0.0000     -0.0000     -0.0000
 XY          -0.0000      0.0000     -0.0000   -159.6272     -0.0000   -152.6456
 YZ        -152.6455    152.6455     -0.0000     -0.0000   -151.7327     -0.0000
 ZX          -0.0000      0.0000     -0.0000   -152.6456     -0.0000   -151.7328
 --------------------------------------------------------------------------------


 TOTAL ELASTIC MODULI (kBar)
 Direction    XX          YY          ZZ          XY          YZ          ZX
 --------------------------------------------------------------------------------
 XX         894.1341    591.6789    283.0179     -0.0000    142.4174     -0.0000
 YY         591.6789    894.1341    283.0179      0.0000   -142.4174      0.0000
 ZZ         283.0179    283.0179   1081.9840     -0.0000     -0.0000     -0.0000
 XY          -0.0000      0.0000     -0.0000    151.2276     -0.0000    142.4173
 YZ         142.4174   -142.4174     -0.0000     -0.0000    279.9089     -0.0000
 ZX          -0.0000      0.0000     -0.0000    142.4173     -0.0000    279.9088
 --------------------------------------------------------------------------------



--------------------------------------------------------------------------------------------------------


  LATTYP: Found a hexagonal cell.
 ALAT       =     3.5893449389
 C/A-ratio  =     2.6804773289
  
  Lattice vectors:
  
 A1 = (   3.5893449389,   0.0000000000,   0.0000000000)
 A2 = (  -1.7946724694,   3.1084639000,   0.0000000000)
 A3 = (  -0.0000000000,  -0.0000000000,   9.6211577344)


Analysis of symmetry for initial positions (statically):
=====================================================================
 Subroutine PRICEL returns:
 Original cell was already a primitive cell.
 

 Routine SETGRP: Setting up the symmetry group for a 
 hexagonal supercell.


 Subroutine GETGRP returns: Found 12 space group operations
 (whereof 12 operations were pure point group operations)
 out of a pool of 24 trial point group operations.


The static configuration has the point symmetry D_3d.


Analysis of symmetry for dynamics (positions and initial velocities):
=====================================================================
 Subroutine PRICEL returns:
 Original cell was already a primitive cell.
 

 Routine SETGRP: Setting up the symmetry group for a 
 hexagonal supercell.


 Subroutine GETGRP returns: Found 12 space group operations
 (whereof 12 operations were pure point group operations)
 out of a pool of 24 trial point group operations.


The dynamic configuration has the point symmetry D_3d.


 Subroutine INISYM returns: Found 12 space group operations
 (whereof 12 operations are pure point group operations),
 and found     1 'primitive' translations


 KPOINTS: pymatgen with grid density = 600 / numbe

Automatic generation of k-mesh.
 Grid dimensions read from file:
 generate k-points for:    6    6    2

 Generating k-lattice:

  Cartesian coordinates                     Fractional coordinates (reciprocal lattice)
     0.046433728  0.026808525  0.000000000     0.166666667 -0.000000000  0.000000000
    -0.000000000  0.053617051  0.000000000     0.000000000  0.166666667  0.000000000
     0.000000000 -0.000000000  0.051968798     0.000000000  0.000000000  0.500000000

  Length of vectors
     0.053617051  0.053617051  0.051968798

  Shift w.r.t. Gamma in fractional coordinates (k-lattice)
     0.000000000  0.000000000  0.000000000

 
 Subroutine IBZKPT returns following result:
 ===========================================
 
 Found     14 irreducible k-points:
 
 Following reciprocal coordinates:
            Coordinates               Weight
  0.000000  0.000000  0.000000      1.000000
  0.166667  0.000000  0.000000      6.000000
  0.333333  0.000000  0.000000      6.000000
  0.500000  0.000000  0.000000      3.000000
  0.166667  0.166667  0.000000      6.000000
  0.333333  0.166667  0.000000     12.000000
  0.333333  0.333333  0.000000      2.000000
  0.000000  0.000000  0.500000      1.000000
  0.166667  0.000000  0.500000      6.000000
  0.333333  0.000000  0.500000      6.000000
  0.500000  0.000000  0.500000      3.000000
  0.166667  0.166667  0.500000      6.000000
  0.333333  0.166667  0.500000     12.000000
  0.333333  0.333333  0.500000      2.000000
 
 Following cartesian coordinates:
            Coordinates               Weight
  0.000000  0.000000  0.000000      1.000000
  0.046434  0.026809  0.000000      6.000000
  0.092867  0.053617  0.000000      6.000000
  0.139301  0.080426  0.000000      3.000000
  0.046434  0.080426  0.000000      6.000000
  0.092867  0.107234  0.000000     12.000000
  0.092867  0.160851  0.000000      2.000000
  0.000000  0.000000  0.051969      1.000000
  0.046434  0.026809  0.051969      6.000000
  0.092867  0.053617  0.051969      6.000000
  0.139301  0.080426  0.051969      3.000000
  0.046434  0.080426  0.051969      6.000000
  0.092867  0.107234  0.051969     12.000000
  0.092867  0.160851  0.051969      2.000000
 
     LOOP+:  cpu time      5.4206: real time      5.4332
    4ORBIT:  cpu time      0.0000: real time      0.0000

 total amount of memory used by VASP MPI-rank0    32443. kBytes
=======================================================================

   base      :      30000. kBytes
   nonlr-proj:        609. kBytes
   fftplans  :        282. kBytes
   grid      :       1076. kBytes
   one-center:         18. kBytes
   wavefun   :        458. kBytes

  
  
 General timing and accounting informations for this job:
 ========================================================
  
                  Total CPU time used (sec):      362.121
                            User time (sec):      361.014
                          System time (sec):        1.108
                         Elapsed time (sec):      369.969
  
                   Maximum memory used (kb):      129304.
                   Average memory used (kb):          N/A
  
                          Minor page faults:        38984
                          Major page faults:          135
                 Voluntary context switches:         1500
