  39  39   0   0
  0.2439952E+02  0.6834254E-09  0.1767185E-08  0.7880486E-09  0.0000000E+00
   1.0000000000000000E-004
  CAR 
 NEB_refined                             
      9.50785874    -23.85853457  301      1.06771928      1.00000000
    -23.859  0.0000E+00  0.0000E+00
    -23.747  0.0000E+00  0.0000E+00
    -23.636  0.0000E+00  0.0000E+00
    -23.525 -0.1131E-30 -0.1258E-31
    -23.414 -0.8574E-27 -0.9537E-28
    -23.302 -0.3478E-23 -0.3869E-24
    -23.191 -0.7586E-20 -0.8441E-21
    -23.080 -0.8891E-17 -0.9897E-18
    -22.969 -0.5418E-14 -0.6036E-15
    -22.858 -0.1814E-11 -0.2024E-12
    -22.746 -0.3241E-09 -0.3625E-10
    -22.635 -0.3075E-07 -0.3456E-08
    -22.524 -0.1536E-05 -0.1743E-06
    -22.413 -0.3980E-04 -0.4600E-05
    -22.301 -0.5175E-03 -0.6216E-04
    -22.190 -0.3096E-02 -0.4065E-03
    -22.079 -0.5624E-02 -0.1032E-02
    -21.968  0.1718E-01  0.8792E-03
    -21.857  0.8420E-01  0.1024E-01
    -21.745  0.1239E+00  0.2402E-01
    -21.634  0.8921E-01  0.3394E-01
    -21.523  0.9045E-01  0.4400E-01
    -21.412  0.2154E+00  0.6796E-01
    -21.300  0.4140E+00  0.1140E+00
    -21.189  0.5146E+00  0.1712E+00
    -21.078  0.3773E+00  0.2132E+00
    -20.967  0.1422E+00  0.2290E+00
    -20.856  0.1039E-01  0.2302E+00
    -20.744 -0.1312E-01  0.2287E+00
    -20.633 -0.5377E-02  0.2281E+00
    -20.522 -0.8978E-03  0.2280E+00
    -20.411 -0.7409E-04  0.2280E+00
    -20.299 -0.3159E-05  0.2280E+00
    -20.188 -0.7075E-07  0.2280E+00
    -20.077 -0.8402E-09  0.2280E+00
    -19.966 -0.5317E-11  0.2280E+00
    -19.855 -0.1799E-13  0.2280E+00
    -19.743 -0.2396E-16  0.2280E+00
    -19.632  0.0000E+00  0.2280E+00
    -19.521  0.0000E+00  0.2280E+00
    -19.410  0.0000E+00  0.2280E+00
    -19.298  0.0000E+00  0.2280E+00
    -19.187  0.0000E+00  0.2280E+00
    -19.076  0.0000E+00  0.2280E+00
    -18.965  0.0000E+00  0.2280E+00
    -18.854  0.0000E+00  0.2280E+00
    -18.742  0.0000E+00  0.2280E+00
    -18.631  0.0000E+00  0.2280E+00
    -18.520  0.0000E+00  0.2280E+00
    -18.409  0.0000E+00  0.2280E+00
    -18.297  0.0000E+00  0.2280E+00
    -18.186  0.0000E+00  0.2280E+00
    -18.075  0.0000E+00  0.2280E+00
    -17.964  0.0000E+00  0.2280E+00
    -17.853  0.0000E+00  0.2280E+00
    -17.741  0.0000E+00  0.2280E+00
    -17.630  0.0000E+00  0.2280E+00
    -17.519  0.0000E+00  0.2280E+00
    -17.408  0.0000E+00  0.2280E+00
    -17.296  0.0000E+00  0.2280E+00
    -17.185  0.0000E+00  0.2280E+00
    -17.074  0.0000E+00  0.2280E+00
    -16.963  0.0000E+00  0.2280E+00
    -16.852  0.0000E+00  0.2280E+00
    -16.740  0.0000E+00  0.2280E+00
    -16.629  0.0000E+00  0.2280E+00
    -16.518  0.0000E+00  0.2280E+00
    -16.407  0.0000E+00  0.2280E+00
    -16.295  0.0000E+00  0.2280E+00
    -16.184  0.0000E+00  0.2280E+00
    -16.073  0.0000E+00  0.2280E+00
    -15.962  0.0000E+00  0.2280E+00
    -15.851  0.0000E+00  0.2280E+00
    -15.739  0.0000E+00  0.2280E+00
    -15.628  0.0000E+00  0.2280E+00
    -15.517  0.0000E+00  0.2280E+00
    -15.406  0.0000E+00  0.2280E+00
    -15.294  0.0000E+00  0.2280E+00
    -15.183  0.0000E+00  0.2280E+00
    -15.072  0.0000E+00  0.2280E+00
    -14.961  0.0000E+00  0.2280E+00
    -14.850  0.0000E+00  0.2280E+00
    -14.738  0.0000E+00  0.2280E+00
    -14.627  0.0000E+00  0.2280E+00
    -14.516  0.0000E+00  0.2280E+00
    -14.405  0.0000E+00  0.2280E+00
    -14.294  0.0000E+00  0.2280E+00
    -14.182 -0.5332E-31  0.2280E+00
    -14.071 -0.4299E-27  0.2280E+00
    -13.960 -0.1863E-23  0.2280E+00
    -13.849 -0.4336E-20  0.2280E+00
    -13.737 -0.5418E-17  0.2280E+00
    -13.626 -0.3517E-14  0.2280E+00
    -13.515 -0.1253E-11  0.2280E+00
    -13.404 -0.2379E-09  0.2280E+00
    -13.293 -0.2395E-07  0.2280E+00
    -13.181 -0.1271E-05  0.2280E+00
    -13.070 -0.3504E-04  0.2280E+00
    -12.959 -0.4897E-03  0.2279E+00
    -12.848 -0.3245E-02  0.2276E+00
    -12.736 -0.7804E-02  0.2267E+00
    -12.625  0.1097E-01  0.2279E+00
    -12.514  0.9108E-01  0.2381E+00
    -12.403  0.1885E+00  0.2590E+00
    -12.292  0.2101E+00  0.2824E+00
    -12.180  0.1536E+00  0.2995E+00
    -12.069  0.7235E-01  0.3075E+00
    -11.958  0.1294E-01  0.3090E+00
    -11.847 -0.5091E-02  0.3084E+00
    -11.735 -0.2974E-02  0.3081E+00
    -11.624 -0.5566E-03  0.3080E+00
    -11.513 -0.4841E-04  0.3080E+00
    -11.402 -0.2119E-05  0.3080E+00
    -11.291 -0.4810E-07  0.3080E+00
    -11.179 -0.5753E-09  0.3080E+00
    -11.068 -0.3892E-10  0.3080E+00
    -10.957 -0.3641E-08  0.3080E+00
    -10.846 -0.1971E-06  0.3080E+00
    -10.734 -0.5530E-05  0.3080E+00
    -10.623 -0.7847E-04  0.3080E+00
    -10.512 -0.5322E-03  0.3079E+00
    -10.401 -0.1390E-02  0.3078E+00
    -10.290  0.1172E-02  0.3079E+00
    -10.178  0.1449E-01  0.3095E+00
    -10.067  0.3546E-01  0.3135E+00
     -9.956  0.4622E-01  0.3186E+00
     -9.845  0.3503E-01  0.3225E+00
     -9.733  0.1181E-01  0.3238E+00
     -9.622 -0.4929E-02  0.3233E+00
     -9.511  0.6542E-02  0.3240E+00
     -9.400  0.6955E-01  0.3317E+00
     -9.289  0.1406E+00  0.3474E+00
     -9.177  0.1358E+00  0.3625E+00
     -9.066  0.7248E-01  0.3705E+00
     -8.955  0.1885E-01  0.3726E+00
     -8.844 -0.1888E-02  0.3724E+00
     -8.732 -0.2855E-02  0.3721E+00
     -8.621 -0.7676E-03  0.3720E+00
     -8.510 -0.9218E-04  0.3720E+00
     -8.399 -0.5539E-05  0.3720E+00
     -8.288 -0.1728E-06  0.3720E+00
     -8.176 -0.2845E-08  0.3720E+00
     -8.065 -0.2491E-10  0.3720E+00
     -7.954 -0.1164E-12  0.3720E+00
     -7.843 -0.2875E-15  0.3720E+00
     -7.731  0.0000E+00  0.3720E+00
     -7.620  0.0000E+00  0.3720E+00
     -7.509  0.0000E+00  0.3720E+00
     -7.398  0.0000E+00  0.3720E+00
     -7.287  0.0000E+00  0.3720E+00
     -7.175  0.0000E+00  0.3720E+00
     -7.064  0.0000E+00  0.3720E+00
     -6.953  0.0000E+00  0.3720E+00
     -6.842  0.0000E+00  0.3720E+00
     -6.730  0.0000E+00  0.3720E+00
     -6.619  0.0000E+00  0.3720E+00
     -6.508  0.0000E+00  0.3720E+00
     -6.397  0.0000E+00  0.3720E+00
     -6.286  0.0000E+00  0.3720E+00
     -6.174  0.0000E+00  0.3720E+00
     -6.063  0.0000E+00  0.3720E+00
     -5.952  0.0000E+00  0.3720E+00
     -5.841  0.0000E+00  0.3720E+00
     -5.729  0.0000E+00  0.3720E+00
     -5.618  0.0000E+00  0.3720E+00
     -5.507  0.0000E+00  0.3720E+00
     -5.396  0.0000E+00  0.3720E+00
     -5.285  0.0000E+00  0.3720E+00
     -5.173  0.0000E+00  0.3720E+00
     -5.062  0.0000E+00  0.3720E+00
     -4.951 -0.6026E-31  0.3720E+00
     -4.840 -0.4366E-27  0.3720E+00
     -4.728 -0.1696E-23  0.3720E+00
     -4.617 -0.3526E-20  0.3720E+00
     -4.506 -0.3922E-17  0.3720E+00
     -4.395 -0.2256E-14  0.3720E+00
     -4.284 -0.7089E-12  0.3720E+00
     -4.172 -0.1181E-09  0.3720E+00
     -4.061 -0.1036E-07  0.3720E+00
     -3.950 -0.4740E-06  0.3720E+00
     -3.839 -0.1112E-04  0.3720E+00
     -3.727 -0.1293E-03  0.3720E+00
     -3.616 -0.6822E-03  0.3719E+00
     -3.505 -0.1080E-02  0.3718E+00
     -3.394  0.3153E-02  0.3721E+00
     -3.283  0.1623E-01  0.3739E+00
     -3.171  0.3445E-01  0.3778E+00
     -3.060  0.4594E-01  0.3829E+00
     -2.949  0.3565E-01  0.3868E+00
     -2.838  0.1253E-01  0.3882E+00
     -2.726 -0.2688E-03  0.3882E+00
     -2.615 -0.1465E-02  0.3881E+00
     -2.504 -0.4053E-03  0.3880E+00
     -2.393 -0.4782E-04  0.3880E+00
     -2.282 -0.2783E-05  0.3880E+00
     -2.170 -0.1516E-06  0.3880E+00
     -2.059 -0.2289E-05  0.3880E+00
     -1.948 -0.3881E-04  0.3880E+00
     -1.837 -0.3180E-03  0.3880E+00
     -1.725 -0.1099E-02  0.3878E+00
     -1.614 -0.4715E-03  0.3878E+00
     -1.503  0.6678E-02  0.3885E+00
     -1.392  0.2421E-01  0.3912E+00
     -1.281  0.5376E-01  0.3972E+00
     -1.169  0.8015E-01  0.4061E+00
     -1.058  0.8064E-01  0.4151E+00
     -0.947  0.5638E-01  0.4214E+00
     -0.836  0.2694E-01  0.4244E+00
     -0.725  0.2513E-01  0.4271E+00
     -0.613  0.3946E-01  0.4315E+00
     -0.502  0.2932E-01  0.4348E+00
     -0.391  0.7328E-02  0.4356E+00
     -0.280  0.1661E-01  0.4375E+00
     -0.168  0.6223E-01  0.4444E+00
     -0.057  0.1043E+00  0.4560E+00
      0.054  0.1214E+00  0.4695E+00
      0.165  0.1170E+00  0.4825E+00
      0.276  0.1062E+00  0.4943E+00
      0.388  0.1120E+00  0.5068E+00
      0.499  0.1128E+00  0.5193E+00
      0.610  0.8719E-01  0.5290E+00
      0.721  0.6711E-01  0.5365E+00
      0.833  0.7731E-01  0.5451E+00
      0.944  0.8744E-01  0.5548E+00
      1.055  0.6047E-01  0.5615E+00
      1.166  0.2230E-01  0.5640E+00
      1.277  0.2744E-02  0.5643E+00
      1.389 -0.1683E-02  0.5641E+00
      1.500 -0.9456E-03  0.5640E+00
      1.611 -0.1919E-03  0.5640E+00
      1.722 -0.1828E-04  0.5640E+00
      1.834 -0.8700E-06  0.5640E+00
      1.945 -0.2126E-07  0.5640E+00
      2.056 -0.2712E-09  0.5640E+00
      2.167 -0.2164E-10  0.5640E+00
      2.278 -0.2194E-08  0.5640E+00
      2.390 -0.1270E-06  0.5640E+00
      2.501 -0.3785E-05  0.5640E+00
      2.612 -0.5610E-04  0.5640E+00
      2.723 -0.3796E-03  0.5640E+00
      2.835 -0.8043E-03  0.5639E+00
      2.946  0.2123E-02  0.5641E+00
      3.057  0.1138E-01  0.5654E+00
      3.168  0.1604E-01  0.5671E+00
      3.279  0.8202E-02  0.5681E+00
      3.391  0.5014E-03  0.5681E+00
      3.502 -0.7770E-03  0.5680E+00
      3.613 -0.2905E-03  0.5680E+00
      3.724 -0.5021E-03  0.5679E+00
      3.836 -0.1521E-02  0.5678E+00
      3.947  0.6305E-03  0.5678E+00
      4.058  0.1504E-01  0.5695E+00
      4.169  0.3579E-01  0.5735E+00
      4.280  0.3824E-01  0.5777E+00
      4.392  0.1963E-01  0.5799E+00
      4.503  0.2911E-02  0.5803E+00
      4.614 -0.1462E-02  0.5801E+00
      4.725 -0.6959E-03  0.5800E+00
      4.837 -0.1180E-03  0.5800E+00
      4.948 -0.6756E-04  0.5800E+00
      5.059 -0.4442E-03  0.5799E+00
      5.170 -0.1374E-02  0.5798E+00
      5.281  0.3238E-03  0.5798E+00
      5.393  0.1252E-01  0.5812E+00
      5.504  0.3327E-01  0.5849E+00
      5.615  0.4363E-01  0.5898E+00
      5.726  0.3865E-01  0.5941E+00
      5.838  0.3994E-01  0.5985E+00
      5.949  0.5250E-01  0.6044E+00
      6.060  0.5784E-01  0.6108E+00
      6.171  0.4778E-01  0.6161E+00
      6.282  0.2682E-01  0.6191E+00
      6.394  0.8187E-02  0.6200E+00
      6.505  0.1009E-01  0.6211E+00
      6.616  0.2934E-01  0.6244E+00
      6.727  0.4292E-01  0.6292E+00
      6.839  0.4535E-01  0.6342E+00
      6.950  0.4253E-01  0.6389E+00
      7.061  0.4191E-01  0.6436E+00
      7.172  0.4975E-01  0.6491E+00
      7.283  0.5606E-01  0.6554E+00
      7.395  0.5840E-01  0.6619E+00
      7.506  0.5506E-01  0.6680E+00
      7.617  0.3296E-01  0.6716E+00
      7.728  0.6926E-02  0.6724E+00
      7.840 -0.2146E-02  0.6722E+00
      7.951 -0.1290E-02  0.6720E+00
      8.062 -0.2295E-03  0.6720E+00
      8.173 -0.1867E-04  0.6720E+00
      8.284 -0.7581E-06  0.6720E+00
      8.396 -0.1589E-07  0.6720E+00
      8.507 -0.1746E-09  0.6720E+00
      8.618 -0.1015E-11  0.6720E+00
      8.729 -0.3146E-14  0.6720E+00
      8.841  0.0000E+00  0.6720E+00
      8.952  0.0000E+00  0.6720E+00
      9.063  0.0000E+00  0.6720E+00
      9.174  0.0000E+00  0.6720E+00
      9.285  0.0000E+00  0.6720E+00
      9.397  0.0000E+00  0.6720E+00
      9.508  0.0000E+00  0.6720E+00
