 vasp.6.3.2 27Jun22 (build Jun 14 2024 17:29:11) complex                         
 POSCAR found type information on POSCAR NaInS 
 09/POSCAR found :  3 types and      39 ions
 -----------------------------------------------------------------------------
|                                                                             |
|           W    W    AA    RRRRR   N    N  II  N    N   GGGG   !!!           |
|           W    W   A  A   R    R  NN   N  II  NN   N  G    G  !!!           |
|           W    W  A    A  R    R  N N  N  II  N N  N  G       !!!           |
|           W WW W  AAAAAA  RRRRR   N  N N  II  N  N N  G  GGG   !            |
|           WW  WW  A    A  R   R   N   NN  II  N   NN  G    G                |
|           W    W  A    A  R    R  N    N  II  N    N   GGGG   !!!           |
|                                                                             |
|     The value NPAR = 9 specified in the INCAR file was overwritten,         |
|     because it was not compatible with the 3 processes available:           |
|     NPAR = 3                                                                |
|     was used instead, please check that this makes sense for your           |
|     machine.                                                                |
|                                                                             |
 -----------------------------------------------------------------------------

 LDA part: xc-table for Pade appr. of Perdew
 POSCAR found type information on POSCAR NaInS 
 00/POSCAR found :  3 types and      39 ions
 POSCAR found type information on POSCAR NaInS 
 10/POSCAR found :  3 types and      39 ions
 POSCAR, INCAR and KPOINTS ok, starting setup
 FFT: planning ... GRIDC
 FFT: planning ... GRID_SOFT
 FFT: planning ... GRID
 WAVECAR not read
 entering main loop
       N       E                     dE             d eps       ncg     rms          rms(c)
DAV:   1     0.287749959594E+04    0.28775E+04   -0.11459E+05   345   0.151E+03
DAV:   2     0.326854588281E+03   -0.25506E+04   -0.24621E+04   345   0.437E+02
DAV:   3    -0.110376957011E+03   -0.43723E+03   -0.42958E+03   387   0.195E+02
DAV:   4    -0.147204063093E+03   -0.36827E+02   -0.36514E+02   411   0.509E+01
DAV:   5    -0.148592922423E+03   -0.13889E+01   -0.13865E+01   492   0.109E+01    0.194E+01
RMM:   6    -0.139727690321E+03    0.88652E+01   -0.17563E+01   380   0.727E+00    0.121E+01
RMM:   7    -0.139607566593E+03    0.12012E+00   -0.14765E+01   399   0.522E+00    0.723E+00
RMM:   8    -0.139653820632E+03   -0.46254E-01   -0.11615E+00   397   0.313E+00    0.353E+00
RMM:   9    -0.139593180255E+03    0.60640E-01   -0.88161E-01   400   0.186E+00    0.206E+00
RMM:  10    -0.139466500212E+03    0.12668E+00   -0.15519E-01   417   0.120E+00    0.119E+00
RMM:  11    -0.139446238256E+03    0.20262E-01   -0.91561E-02   460   0.543E-01    0.859E-01
RMM:  12    -0.139445266476E+03    0.97178E-03   -0.21583E-02   501   0.295E-01    0.729E-01
RMM:  13    -0.139446919259E+03   -0.16528E-02   -0.38917E-03   448   0.142E-01    0.522E-01
RMM:  14    -0.139458675720E+03   -0.11756E-01   -0.12492E-02   425   0.200E-01    0.530E-01
RMM:  15    -0.139450746011E+03    0.79297E-02   -0.28361E-03   363   0.971E-02    0.149E-01
RMM:  16    -0.139450960509E+03   -0.21450E-03   -0.90754E-04   382   0.723E-02    0.141E-01
RMM:  17    -0.139451479542E+03   -0.51903E-03   -0.12821E-03   392   0.540E-02    0.146E-01
RMM:  18    -0.139450877862E+03    0.60168E-03   -0.24343E-04   318   0.319E-02    0.561E-02
RMM:  19    -0.139450828282E+03    0.49580E-04   -0.92474E-05   331   0.197E-02    0.200E-02
RMM:  20    -0.139450830121E+03   -0.18391E-05   -0.15547E-05   211   0.118E-02
   1 F= -.13945083E+03 E0= -.13946327E+03  d E =-.139451E+03
quench:  g(F)=  0.000E+00 g(S)=  0.000E+00 dE (1.order)= 0.000E+00
 bond charge predicted
       N       E                     dE             d eps       ncg     rms          rms(c)
DAV:   1    -0.139450825127E+03    0.31549E-05   -0.22091E-05   213   0.135E-02    0.274E-02
RMM:   2    -0.139450828912E+03   -0.37853E-05   -0.11701E-05   199   0.961E-03
   2 F= -.13945083E+03 E0= -.13946330E+03  d E =0.120874E-05
quench:  g(F)=  0.000E+00 g(S)=  0.000E+00 dE (1.order)= 0.000E+00
 bond charge predicted
       N       E                     dE             d eps       ncg     rms          rms(c)
DAV:   1    -0.139450830975E+03   -0.58479E-05   -0.82302E-05   249   0.131E-02    0.168E-02
RMM:   2    -0.139450840478E+03   -0.95030E-05   -0.62375E-06   197   0.585E-03
   3 F= -.13945084E+03 E0= -.13946333E+03  d E =-.115656E-04
quench:  g(F)=  0.000E+00 g(S)=  0.000E+00 dE (1.order)= 0.000E+00
 bond charge predicted
       N       E                     dE             d eps       ncg     rms          rms(c)
DAV:   1    -0.139450828703E+03    0.22719E-05   -0.10512E-04   231   0.149E-02    0.865E-03
RMM:   2    -0.139450829595E+03   -0.89195E-06   -0.44575E-06   178   0.452E-03
   4 F= -.13945083E+03 E0= -.13946329E+03  d E =0.108829E-04
quench:  g(F)=  0.000E+00 g(S)=  0.000E+00 dE (1.order)= 0.000E+00
 bond charge predicted
       N       E                     dE             d eps       ncg     rms          rms(c)
DAV:   1    -0.139450830006E+03   -0.13033E-05   -0.74344E-06   231   0.579E-03    0.513E-03
RMM:   2    -0.139450831028E+03   -0.10214E-05   -0.54252E-07   114   0.233E-03
   5 F= -.13945083E+03 E0= -.13946330E+03  d E =-.143277E-05
quench:  g(F)=  0.000E+00 g(S)=  0.000E+00 dE (1.order)= 0.000E+00
 bond charge predicted
       N       E                     dE             d eps       ncg     rms          rms(c)
DAV:   1    -0.139450829821E+03    0.18514E-06   -0.10485E-05   213   0.491E-03    0.282E-03
RMM:   2    -0.139450829907E+03   -0.85864E-07   -0.45767E-07    92   0.185E-03
   6 F= -.13945083E+03 E0= -.13946329E+03  d E =0.112067E-05
quench:  g(F)=  0.000E+00 g(S)=  0.000E+00 dE (1.order)= 0.000E+00
 bond charge predicted
       N       E                     dE             d eps       ncg     rms          rms(c)
DAV:   1    -0.139450829968E+03   -0.14665E-06   -0.62386E-07   213   0.202E-03    0.144E-03
RMM:   2    -0.139450830050E+03   -0.82757E-07   -0.23828E-08    40   0.117E-03
   7 F= -.13945083E+03 E0= -.13946329E+03  d E =-.143540E-06
quench:  g(F)=  0.000E+00 g(S)=  0.000E+00 dE (1.order)= 0.000E+00
 bond charge predicted
       N       E                     dE             d eps       ncg     rms          rms(c)
DAV:   1    -0.139450829936E+03    0.31228E-07   -0.10627E-06   213   0.165E-03    0.671E-04
RMM:   2    -0.139450829937E+03   -0.72760E-10    0.21247-255    22   0.904E-04
   8 F= -.13945083E+03 E0= -.13946329E+03  d E =0.113912E-06
quench:  g(F)=  0.000E+00 g(S)=  0.000E+00 dE (1.order)= 0.000E+00
 bond charge predicted
       N       E                     dE             d eps       ncg     rms          rms(c)
DAV:   1    -0.139450829949E+03   -0.12446E-07   -0.14262E-07   213   0.922E-04    0.667E-04
RMM:   2    -0.139450829947E+03    0.16480E-08    0.44006-113    21   0.699E-04
   9 F= -.13945083E+03 E0= -.13946329E+03  d E =-.107248E-07
quench:  g(F)=  0.000E+00 g(S)=  0.000E+00 dE (1.order)= 0.000E+00
 bond charge predicted
       N       E                     dE             d eps       ncg     rms          rms(c)
DAV:   1    -0.139450829932E+03    0.16738E-07   -0.15327E-07   186   0.896E-04    0.376E-04
RMM:   2    -0.139450829932E+03    0.56389E-09    0.10436-255    17   0.463E-04
  10 F= -.13945083E+03 E0= -.13946329E+03  d E =0.156542E-07
quench:  g(F)=  0.000E+00 g(S)=  0.000E+00 dE (1.order)= 0.000E+00
 bond charge predicted
       N       E                     dE             d eps       ncg     rms          rms(c)
DAV:   1    -0.139450829934E+03   -0.20482E-08   -0.38555E-08   186   0.485E-04    0.491E-04
RMM:   2    -0.139450829930E+03    0.43947E-08    0.51749-256    17   0.396E-04
  11 F= -.13945083E+03 E0= -.13946329E+03  d E =0.178261E-08
quench:  g(F)=  0.000E+00 g(S)=  0.000E+00 dE (1.order)= 0.000E+00
 bond charge predicted
       N       E                     dE             d eps       ncg     rms          rms(c)
DAV:   1    -0.139450829927E+03    0.75597E-08   -0.44778E-08   186   0.487E-04    0.278E-04
RMM:   2    -0.139450829928E+03   -0.11350E-08    0.82543-279    15   0.258E-04
  12 F= -.13945083E+03 E0= -.13946329E+03  d E =0.202999E-08
quench:  g(F)=  0.000E+00 g(S)=  0.000E+00 dE (1.order)= 0.000E+00
 bond charge predicted
       N       E                     dE             d eps       ncg     rms          rms(c)
DAV:   1    -0.139450829927E+03   -0.48021E-09   -0.19181E-08   186   0.298E-04    0.224E-04
RMM:   2    -0.139450829924E+03    0.27721E-08    0.00000E+00    14   0.212E-04
  13 F= -.13945083E+03 E0= -.13946329E+03  d E =0.342698E-08
quench:  g(F)=  0.000E+00 g(S)=  0.000E+00 dE (1.order)= 0.000E+00
 bond charge predicted
       N       E                     dE             d eps       ncg     rms          rms(c)
DAV:   1    -0.139450829924E+03    0.36198E-08   -0.98263E-09   186   0.234E-04    0.184E-04
RMM:   2    -0.139450829924E+03   -0.83674E-09    0.00000E+00    14   0.179E-04
  14 F= -.13945083E+03 E0= -.13946329E+03  d E =0.109139E-10
quench:  g(F)=  0.000E+00 g(S)=  0.000E+00 dE (1.order)= 0.000E+00
 bond charge predicted
       N       E                     dE             d eps       ncg     rms          rms(c)
DAV:   1    -0.139450829925E+03   -0.11096E-08   -0.89333E-09   186   0.214E-04    0.104E-04
RMM:   2    -0.139450829922E+03    0.24047E-08    0.00000E+00    12   0.125E-04
  15 F= -.13945083E+03 E0= -.13946329E+03  d E =0.213186E-08
quench:  g(F)=  0.000E+00 g(S)=  0.000E+00 dE (1.order)= 0.000E+00
 bond charge predicted
       N       E                     dE             d eps       ncg     rms          rms(c)
DAV:   1    -0.139450829922E+03    0.28922E-08   -0.26583E-09   186   0.134E-04    0.101E-04
RMM:   2    -0.139450829922E+03   -0.37835E-09    0.00000E+00    12   0.105E-04
  16 F= -.13945083E+03 E0= -.13946329E+03  d E =0.109139E-09
quench:  g(F)=  0.000E+00 g(S)=  0.000E+00 dE (1.order)= 0.000E+00
 bond charge predicted
       N       E                     dE             d eps       ncg     rms          rms(c)
DAV:   1    -0.139450829922E+03   -0.33106E-09   -0.20398E-09   186   0.119E-04    0.586E-05
RMM:   2    -0.139450829921E+03    0.83310E-09    0.00000E+00    10   0.694E-05
  17 F= -.13945083E+03 E0= -.13946329E+03  d E =0.880391E-09
quench:  g(F)=  0.000E+00 g(S)=  0.000E+00 dE (1.order)= 0.000E+00
 bond charge predicted
       N       E                     dE             d eps       ncg     rms          rms(c)
DAV:   1    -0.139450829920E+03    0.19172E-08   -0.91099E-10   186   0.789E-05    0.529E-05
RMM:   2    -0.139450829921E+03   -0.11751E-08    0.00000E+00    10   0.595E-05
  18 F= -.13945083E+03 E0= -.13946329E+03  d E =-.909495E-10
quench:  g(F)=  0.000E+00 g(S)=  0.000E+00 dE (1.order)= 0.000E+00
 bond charge predicted
       N       E                     dE             d eps       ncg     rms          rms(c)
DAV:   1    -0.139450829922E+03   -0.13752E-08   -0.52180E-10   186   0.660E-05    0.384E-05
RMM:   2    -0.139450829921E+03    0.83310E-09    0.00000E+00     9   0.444E-05
  19 F= -.13945083E+03 E0= -.13946329E+03  d E =0.633008E-09
quench:  g(F)=  0.000E+00 g(S)=  0.000E+00 dE (1.order)= 0.000E+00
 bond charge predicted
       N       E                     dE             d eps       ncg     rms          rms(c)
DAV:   1    -0.139450829920E+03    0.18117E-08   -0.54228E-10   186   0.537E-05    0.203E-05
RMM:   2    -0.139450829921E+03   -0.94951E-09    0.00000E+00     8   0.353E-05
  20 F= -.13945083E+03 E0= -.13946329E+03  d E =0.291038E-10
quench:  g(F)=  0.000E+00 g(S)=  0.000E+00 dE (1.order)= 0.000E+00
 bond charge predicted
       N       E                     dE             d eps       ncg     rms          rms(c)
DAV:   1    -0.139450829921E+03   -0.16553E-08   -0.94442E-11   186   0.367E-05    0.260E-05
RMM:   2    -0.139450829920E+03    0.10477E-08    0.00000E+00     7   0.280E-05
  21 F= -.13945083E+03 E0= -.13946329E+03  d E =0.341970E-09
quench:  g(F)=  0.000E+00 g(S)=  0.000E+00 dE (1.order)= 0.000E+00
 bond charge predicted
       N       E                     dE             d eps       ncg     rms          rms(c)
DAV:   1    -0.139450829921E+03    0.64392E-09   -0.58391E-11   186   0.318E-05    0.138E-05
RMM:   2    -0.139450829920E+03    0.29468E-09    0.00000E+00     7   0.201E-05
  22 F= -.13945083E+03 E0= -.13946329E+03  d E =-.109139E-09
quench:  g(F)=  0.000E+00 g(S)=  0.000E+00 dE (1.order)= 0.000E+00
 bond charge predicted
       N       E                     dE             d eps       ncg     rms          rms(c)
DAV:   1    -0.139450829920E+03    0.64756E-09   -0.39989E-11   186   0.226E-05    0.899E-06
RMM:   2    -0.139450829920E+03   -0.20736E-09    0.00000E+00     6   0.160E-05
  23 F= -.13945083E+03 E0= -.13946329E+03  d E =0.145519E-09
quench:  g(F)=  0.000E+00 g(S)=  0.000E+00 dE (1.order)= 0.000E+00
 bond charge predicted
       N       E                     dE             d eps       ncg     rms          rms(c)
DAV:   1    -0.139450829920E+03   -0.72760E-10    0.75676E-11   186   0.169E-05    0.102E-05
RMM:   2    -0.139450829920E+03   -0.17099E-09    0.00000E+00     6   0.133E-05
  24 F= -.13945083E+03 E0= -.13946329E+03  d E =-.363798E-10
quench:  g(F)=  0.000E+00 g(S)=  0.000E+00 dE (1.order)= 0.000E+00
 bond charge predicted
       N       E                     dE             d eps       ncg     rms          rms(c)
DAV:   1    -0.139450829921E+03   -0.94224E-09   -0.25787E-11   186   0.152E-05    0.547E-06
RMM:   2    -0.139450829920E+03    0.78944E-09    0.00000E+00     5   0.932E-06
  25 F= -.13945083E+03 E0= -.13946329E+03  d E =0.181899E-10
quench:  g(F)=  0.000E+00 g(S)=  0.000E+00 dE (1.order)= 0.000E+00
 bond charge predicted
       N       E                     dE             d eps       ncg     rms          rms(c)
DAV:   1    -0.139450829921E+03    0.53478E-09   -0.23508E-11   186   0.102E-05    0.497E-06
RMM:   2    -0.139450829920E+03    0.37107E-09    0.00000E+00     4   0.786E-06
  26 F= -.13945083E+03 E0= -.13946329E+03  d E =0.116415E-09
quench:  g(F)=  0.000E+00 g(S)=  0.000E+00 dE (1.order)= 0.000E+00
 bond charge predicted
       N       E                     dE             d eps       ncg     rms          rms(c)
DAV:   1    -0.139450829920E+03    0.16371E-09   -0.40216E-11   186   0.859E-06    0.360E-06
RMM:   2    -0.139450829920E+03    0.18917E-09    0.00000E+00     4   0.610E-06
  27 F= -.13945083E+03 E0= -.13946329E+03  d E =-.181899E-10
quench:  g(F)=  0.000E+00 g(S)=  0.000E+00 dE (1.order)= 0.000E+00
 bond charge predicted
       N       E                     dE             d eps       ncg     rms          rms(c)
DAV:   1    -0.139450829921E+03   -0.68758E-09   -0.45099E-11   186   0.695E-06    0.208E-06
RMM:   2    -0.139450829920E+03    0.97498E-09    0.00000E+00     4   0.484E-06
  28 F= -.13945083E+03 E0= -.13946329E+03  d E =0.982254E-10
quench:  g(F)=  0.000E+00 g(S)=  0.000E+00 dE (1.order)= 0.000E+00
 bond charge predicted
       N       E                     dE             d eps       ncg     rms          rms(c)
DAV:   1    -0.139450829919E+03    0.19791E-08   -0.57960E-11   186   0.507E-06    0.272E-06
RMM:   2    -0.139450829920E+03   -0.98953E-09    0.00000E+00     4   0.389E-06
  29 F= -.13945083E+03 E0= -.13946329E+03  d E =0.145519E-10
quench:  g(F)=  0.000E+00 g(S)=  0.000E+00 dE (1.order)= 0.000E+00
 bond charge predicted
       N       E                     dE             d eps       ncg     rms          rms(c)
DAV:   1    -0.139450829920E+03   -0.80399E-09   -0.69363E-11   186   0.436E-06    0.144E-06
RMM:   2    -0.139450829920E+03   -0.36744E-09    0.00000E+00     4   0.296E-06
  30 F= -.13945083E+03 E0= -.13946329E+03  d E =-.181899E-09
quench:  g(F)=  0.000E+00 g(S)=  0.000E+00 dE (1.order)= 0.000E+00
 bond charge predicted
       N       E                     dE             d eps       ncg     rms          rms(c)
DAV:   1    -0.139450829921E+03   -0.11532E-08   -0.14807E-10   186   0.324E-06    0.994E-07
RMM:   2    -0.139450829920E+03    0.83310E-09    0.00000E+00     4   0.235E-06
  31 F= -.13945083E+03 E0= -.13946329E+03  d E =0.472937E-10
quench:  g(F)=  0.000E+00 g(S)=  0.000E+00 dE (1.order)= 0.000E+00
 bond charge predicted
       N       E                     dE             d eps       ncg     rms          rms(c)
DAV:   1    -0.139450829920E+03    0.73487E-09    0.43507E-11   186   0.248E-06    0.110E-06
RMM:   2    -0.139450829920E+03    0.36380E-10    0.00000E+00     4   0.196E-06
  32 F= -.13945083E+03 E0= -.13946329E+03  d E =-.618456E-10
quench:  g(F)=  0.000E+00 g(S)=  0.000E+00 dE (1.order)= 0.000E+00
 bond charge predicted
       N       E                     dE             d eps       ncg     rms          rms(c)
DAV:   1    -0.139450829920E+03    0.70941E-09   -0.19841E-11   186   0.219E-06    0.614E-07
RMM:   2    -0.139450829920E+03   -0.79672E-09    0.00000E+00     4   0.145E-06
  33 F= -.13945083E+03 E0= -.13946329E+03  d E =-.123691E-09
quench:  g(F)=  0.000E+00 g(S)=  0.000E+00 dE (1.order)= 0.000E+00
 bond charge predicted
       N       E                     dE             d eps       ncg     rms          rms(c)
DAV:   1    -0.139450829920E+03   -0.27285E-09   -0.67759E-12   186   0.155E-06    0.587E-07
RMM:   2    -0.139450829920E+03   -0.32378E-09    0.00000E+00     4   0.122E-06
  34 F= -.13945083E+03 E0= -.13946329E+03  d E =0.200089E-09
quench:  g(F)=  0.000E+00 g(S)=  0.000E+00 dE (1.order)= 0.000E+00
 bond charge predicted
       N       E                     dE             d eps       ncg     rms          rms(c)
DAV:   1    -0.139450829919E+03    0.51296E-09    0.50254E-11   180   0.133E-06    0.421E-07
RMM:   2    -0.139450829920E+03   -0.84765E-09    0.00000E+00     4   0.975E-07
  35 F= -.13945083E+03 E0= -.13946329E+03  d E =-.109139E-10
quench:  g(F)=  0.000E+00 g(S)=  0.000E+00 dE (1.order)= 0.000E+00
 bond charge predicted
       N       E                     dE             d eps       ncg     rms          rms(c)
DAV:   1    -0.139450829921E+03   -0.14697E-08   -0.47637E-13   186   0.108E-06    0.237E-07
RMM:   2    -0.139450829920E+03    0.57116E-09    0.00000E+00     4   0.778E-07
  36 F= -.13945083E+03 E0= -.13946329E+03  d E =-.509317E-10
quench:  g(F)=  0.000E+00 g(S)=  0.000E+00 dE (1.order)= 0.000E+00
 bond charge predicted
       N       E                     dE             d eps       ncg     rms          rms(c)
DAV:   1    -0.139450829920E+03    0.98953E-09    0.14774E-11   180   0.810E-07    0.302E-07
RMM:   2    -0.139450829920E+03   -0.21464E-09    0.00000E+00     3   0.625E-07
  37 F= -.13945083E+03 E0= -.13946329E+03  d E =0.203727E-09
quench:  g(F)=  0.000E+00 g(S)=  0.000E+00 dE (1.order)= 0.000E+00
 bond charge predicted
       N       E                     dE             d eps       ncg     rms          rms(c)
DAV:   1    -0.139450829921E+03   -0.13279E-08   -0.53460E-12   186   0.681E-07    0.161E-07
RMM:   2    -0.139450829920E+03    0.87675E-09    0.00000E+00     4   0.483E-07
  38 F= -.13945083E+03 E0= -.13946329E+03  d E =-.236469E-09
quench:  g(F)=  0.000E+00 g(S)=  0.000E+00 dE (1.order)= 0.000E+00
 bond charge predicted
       N       E                     dE             d eps       ncg     rms          rms(c)
DAV:   1    -0.139450829920E+03    0.11896E-08    0.43927E-11   186   0.515E-07    0.125E-07
RMM:   2    -0.139450829920E+03   -0.22555E-09    0.00000E+00     3   0.385E-07
  39 F= -.13945083E+03 E0= -.13946329E+03  d E =0.873115E-10
quench:  g(F)=  0.000E+00 g(S)=  0.000E+00 dE (1.order)= 0.000E+00
 bond charge predicted
       N       E                     dE             d eps       ncg     rms          rms(c)
DAV:   1    -0.139450829919E+03    0.48749E-09   -0.87723E-11   186   0.408E-07    0.120E-07
RMM:   2    -0.139450829920E+03   -0.65847E-09    0.00000E+00     3   0.322E-07
  40 F= -.13945083E+03 E0= -.13946329E+03  d E =0.545697E-10
quench:  g(F)=  0.000E+00 g(S)=  0.000E+00 dE (1.order)= 0.000E+00
 bond charge predicted
       N       E                     dE             d eps       ncg     rms          rms(c)
DAV:   1    -0.139450829920E+03   -0.28012E-09   -0.16762E-10   180   0.348E-07    0.698E-08
RMM:   2    -0.139450829920E+03   -0.36744E-09    0.00000E+00     2   0.245E-07
  41 F= -.13945083E+03 E0= -.13946329E+03  d E =0.109139E-10
quench:  g(F)=  0.000E+00 g(S)=  0.000E+00 dE (1.order)= 0.000E+00
 bond charge predicted
       N       E                     dE             d eps       ncg     rms          rms(c)
DAV:   1    -0.139450829920E+03   -0.41109E-09    0.30365E-11   168   0.258E-07    0.780E-08
RMM:   2    -0.139450829920E+03   -0.65484E-10    0.00000E+00     2   0.207E-07
  42 F= -.13945083E+03 E0= -.13946329E+03  d E =-.109139E-09
quench:  g(F)=  0.000E+00 g(S)=  0.000E+00 dE (1.order)= 0.000E+00
 bond charge predicted
       N       E                     dE             d eps       ncg     rms          rms(c)
DAV:   1    -0.139450829920E+03    0.36380E-11   -0.16293E-11   168   0.224E-07    0.475E-08
RMM:   2    -0.139450829920E+03    0.21828E-10    0.00000E+00     2   0.158E-07
  43 F= -.13945083E+03 E0= -.13946329E+03  d E =0.909495E-10
quench:  g(F)=  0.000E+00 g(S)=  0.000E+00 dE (1.order)= 0.000E+00
 bond charge predicted
       N       E                     dE             d eps       ncg     rms          rms(c)
DAV:   1    -0.139450829920E+03    0.38563E-09    0.10471E-11   168   0.174E-07    0.264E-08
RMM:   2    -0.139450829920E+03   -0.40382E-09    0.00000E+00     2   0.132E-07
  44 F= -.13945083E+03 E0= -.13946329E+03  d E =-.400178E-10
quench:  g(F)=  0.000E+00 g(S)=  0.000E+00 dE (1.order)= 0.000E+00
 bond charge predicted
       N       E                     dE             d eps       ncg     rms          rms(c)
DAV:   1    -0.139450829920E+03   -0.57116E-09   -0.19201E-10   168   0.137E-07    0.354E-08
RMM:   2    -0.139450829920E+03    0.23283E-09    0.00000E+00     2   0.106E-07
  45 F= -.13945083E+03 E0= -.13946329E+03  d E =0.654836E-10
quench:  g(F)=  0.000E+00 g(S)=  0.000E+00 dE (1.order)= 0.000E+00
 bond charge predicted
       N       E                     dE             d eps       ncg     rms          rms(c)
DAV:   1    -0.139450829920E+03    0.32378E-09   -0.17442E-11   168   0.114E-07    0.194E-08
RMM:   2    -0.139450829920E+03   -0.10186E-09    0.00000E+00     2   0.826E-08
  46 F= -.13945083E+03 E0= -.13946329E+03  d E =-.109139E-10
quench:  g(F)=  0.000E+00 g(S)=  0.000E+00 dE (1.order)= 0.000E+00
 bond charge predicted
       N       E                     dE             d eps       ncg     rms          rms(c)
DAV:   1    -0.139450829920E+03   -0.21828E-09   -0.70906E-11   168   0.870E-08    0.147E-08
RMM:   2    -0.139450829920E+03    0.22555E-09    0.00000E+00     2   0.667E-08
  47 F= -.13945083E+03 E0= -.13946329E+03  d E =0.109139E-09
quench:  g(F)=  0.000E+00 g(S)=  0.000E+00 dE (1.order)= 0.000E+00
 bond charge predicted
       N       E                     dE             d eps       ncg     rms          rms(c)
DAV:   1    -0.139450829920E+03    0.69485E-09   -0.37798E-11   168   0.703E-08    0.139E-08
RMM:   2    -0.139450829920E+03   -0.58208E-09    0.00000E+00     2   0.553E-08
  48 F= -.13945083E+03 E0= -.13946329E+03  d E =-.112777E-09
quench:  g(F)=  0.000E+00 g(S)=  0.000E+00 dE (1.order)= 0.000E+00
 bond charge predicted
       N       E                     dE             d eps       ncg     rms          rms(c)
DAV:   1    -0.139450829920E+03   -0.73123E-09    0.87040E-12   168   0.590E-08    0.861E-09
RMM:   2    -0.139450829920E+03    0.24374E-09    0.00000E+00     2   0.431E-08
  49 F= -.13945083E+03 E0= -.13946329E+03  d E =0.945874E-10
quench:  g(F)=  0.000E+00 g(S)=  0.000E+00 dE (1.order)= 0.000E+00
 bond charge predicted
       N       E                     dE             d eps       ncg     rms          rms(c)
DAV:   1    -0.139450829920E+03   -0.12005E-09   -0.11035E-10   168   0.451E-08    0.985E-09
RMM:   2    -0.139450829920E+03    0.28012E-09    0.00000E+00     2   0.364E-08
  50 F= -.13945083E+03 E0= -.13946329E+03  d E =-.836735E-10
quench:  g(F)=  0.000E+00 g(S)=  0.000E+00 dE (1.order)= 0.000E+00
 bond charge predicted
       N       E                     dE             d eps       ncg     rms          rms(c)
DAV:   1    -0.139450829920E+03    0.61846E-09   -0.13713E-11   168   0.392E-08    0.627E-09
RMM:   2    -0.139450829920E+03   -0.20009E-09    0.00000E+00     2   0.281E-08
  51 F= -.13945083E+03 E0= -.13946329E+03  d E =0.138243E-09
quench:  g(F)=  0.000E+00 g(S)=  0.000E+00 dE (1.order)= 0.000E+00
 bond charge predicted
       N       E                     dE             d eps       ncg     rms          rms(c)
DAV:   1    -0.139450829920E+03    0.61846E-10   -0.77383E-11   168   0.304E-08    0.377E-09
RMM:   2    -0.139450829920E+03   -0.28740E-09    0.00000E+00     2   0.232E-08
  52 F= -.13945083E+03 E0= -.13946329E+03  d E =-.254659E-10
quench:  g(F)=  0.000E+00 g(S)=  0.000E+00 dE (1.order)= 0.000E+00
 bond charge predicted
       N       E                     dE             d eps       ncg     rms          rms(c)
DAV:   1    -0.139450829920E+03   -0.37107E-09   -0.53564E-11   168   0.243E-08    0.464E-09
RMM:   2    -0.139450829920E+03    0.98225E-10    0.00000E+00     2   0.189E-08
  53 F= -.13945083E+03 E0= -.13946329E+03  d E =0.145519E-10
quench:  g(F)=  0.000E+00 g(S)=  0.000E+00 dE (1.order)= 0.000E+00
 bond charge predicted
       N       E                     dE             d eps       ncg     rms          rms(c)
DAV:   1    -0.139450829920E+03   -0.11278E-09   -0.11277E-10   168   0.202E-08    0.266E-09
RMM:   2    -0.139450829920E+03    0.10186E-09    0.00000E+00     2   0.148E-08
  54 F= -.13945083E+03 E0= -.13946329E+03  d E =-.109139E-09
quench:  g(F)=  0.000E+00 g(S)=  0.000E+00 dE (1.order)= 0.000E+00
 bond charge predicted
       N       E                     dE             d eps       ncg     rms          rms(c)
DAV:   1    -0.139450829919E+03    0.97862E-09   -0.79078E-11   168   0.155E-08    0.206E-09
RMM:   2    -0.139450829920E+03   -0.98225E-09    0.00000E+00     2   0.120E-08
  55 F= -.13945083E+03 E0= -.13946329E+03  d E =-.105501E-09
quench:  g(F)=  0.000E+00 g(S)=  0.000E+00 dE (1.order)= 0.000E+00
 bond charge predicted
       N       E                     dE             d eps       ncg     rms          rms(c)
DAV:   1    -0.139450829920E+03   -0.11278E-08   -0.10217E-10   168   0.127E-08    0.175E-09
RMM:   2    -0.139450829920E+03    0.36380E-09    0.00000E+00     2   0.982E-09
  56 F= -.13945083E+03 E0= -.13946329E+03  d E =0.218279E-09
quench:  g(F)=  0.000E+00 g(S)=  0.000E+00 dE (1.order)= 0.000E+00
 bond charge predicted
       N       E                     dE             d eps       ncg     rms          rms(c)
DAV:   1    -0.139450829921E+03   -0.23283E-09   -0.19533E-10   168   0.104E-08    0.144E-09
RMM:   2    -0.139450829920E+03    0.56025E-09    0.00000E+00     2   0.798E-09
  57 F= -.13945083E+03 E0= -.13946329E+03  d E =-.363798E-10
quench:  g(F)=  0.000E+00 g(S)=  0.000E+00 dE (1.order)= 0.000E+00
 bond charge predicted
       N       E                     dE             d eps       ncg     rms          rms(c)
DAV:   1    -0.139450829921E+03   -0.17099E-09   -0.45054E-11   168   0.839E-09    0.112E-09
RMM:   2    -0.139450829920E+03    0.58935E-09    0.00000E+00     2   0.648E-09
  58 F= -.13945083E+03 E0= -.13946329E+03  d E =-.141881E-09
quench:  g(F)=  0.000E+00 g(S)=  0.000E+00 dE (1.order)= 0.000E+00
 bond charge predicted
       N       E                     dE             d eps       ncg     rms          rms(c)
DAV:   1    -0.139450829920E+03    0.32014E-09   -0.10144E-10   168   0.681E-09    0.970E-10
RMM:   2    -0.139450829920E+03    0.43292E-09    0.00000E+00     2   0.530E-09
  59 F= -.13945083E+03 E0= -.13946329E+03  d E =0.163709E-09
quench:  g(F)=  0.000E+00 g(S)=  0.000E+00 dE (1.order)= 0.000E+00
 bond charge predicted
       N       E                     dE             d eps       ncg     rms          rms(c)
DAV:   1    -0.139450829919E+03    0.99317E-09   -0.81726E-11   168   0.563E-09    0.841E-10
RMM:   2    -0.139450829920E+03   -0.53478E-09    0.00000E+00     2   0.433E-09
  60 F= -.13945083E+03 E0= -.13946329E+03  d E =0.254659E-10
quench:  g(F)=  0.000E+00 g(S)=  0.000E+00 dE (1.order)= 0.000E+00
 bond charge predicted
       N       E                     dE             d eps       ncg     rms          rms(c)
DAV:   1    -0.139450829920E+03   -0.66939E-09   -0.17159E-10   168   0.462E-09    0.588E-10
RMM:   2    -0.139450829920E+03   -0.32742E-10    0.00000E+00     2   0.341E-09
  61 F= -.13945083E+03 E0= -.13946329E+03  d E =-.167347E-09
quench:  g(F)=  0.000E+00 g(S)=  0.000E+00 dE (1.order)= 0.000E+00
 bond charge predicted
       N       E                     dE             d eps       ncg     rms          rms(c)
DAV:   1    -0.139450829921E+03   -0.69122E-09   -0.29338E-14   168   0.359E-09    0.594E-10
RMM:   2    -0.139450829920E+03    0.64756E-09    0.00000E+00     2   0.285E-09
  62 F= -.13945083E+03 E0= -.13946329E+03  d E =-.109139E-10
quench:  g(F)=  0.000E+00 g(S)=  0.000E+00 dE (1.order)= 0.000E+00
 bond charge predicted
       N       E                     dE             d eps       ncg     rms          rms(c)
DAV:   1    -0.139450829920E+03    0.33833E-09   -0.61424E-11   168   0.301E-09    0.369E-10
RMM:   2    -0.139450829920E+03    0.40018E-09    0.00000E+00     2   0.224E-09
  63 F= -.13945083E+03 E0= -.13946329E+03  d E =0.909495E-10
quench:  g(F)=  0.000E+00 g(S)=  0.000E+00 dE (1.order)= 0.000E+00
 bond charge predicted
       N       E                     dE             d eps       ncg     rms          rms(c)
DAV:   1    -0.139450829921E+03   -0.33106E-09   -0.94965E-11   168   0.232E-09    0.405E-10
RMM:   2    -0.139450829920E+03    0.81491E-09    0.00000E+00     2   0.187E-09
  64 F= -.13945083E+03 E0= -.13946329E+03  d E =0.836735E-10
quench:  g(F)=  0.000E+00 g(S)=  0.000E+00 dE (1.order)= 0.000E+00
 bond charge predicted
       N       E                     dE             d eps       ncg     rms          rms(c)
DAV:   1    -0.139450829921E+03    0.11278E-09    0.74435E-11   168   0.197E-09    0.311E-10
RMM:   2    -0.139450829920E+03    0.61482E-09    0.00000E+00     2   0.149E-09
  65 F= -.13945083E+03 E0= -.13946329E+03  d E =-.873115E-10
quench:  g(F)=  0.000E+00 g(S)=  0.000E+00 dE (1.order)= 0.000E+00
 bond charge predicted
       N       E                     dE             d eps       ncg     rms          rms(c)
DAV:   1    -0.139450829920E+03    0.83310E-09   -0.47561E-11   168   0.160E-09    0.243E-10
RMM:   2    -0.139450829920E+03   -0.20009E-09    0.00000E+00     2   0.122E-09
  66 F= -.13945083E+03 E0= -.13946329E+03  d E =0.181899E-10
quench:  g(F)=  0.000E+00 g(S)=  0.000E+00 dE (1.order)= 0.000E+00
 bond charge predicted
       N       E                     dE             d eps       ncg     rms          rms(c)
DAV:   1    -0.139450829920E+03   -0.25830E-09   -0.35306E-11   168   0.127E-09    0.289E-10
RMM:   2    -0.139450829920E+03   -0.36380E-11    0.00000E+00     2   0.990E-10
  67 F= -.13945083E+03 E0= -.13946329E+03  d E =-.618456E-10
quench:  g(F)=  0.000E+00 g(S)=  0.000E+00 dE (1.order)= 0.000E+00
 bond charge predicted
       N       E                     dE             d eps       ncg     rms          rms(c)
DAV:   1    -0.139450829920E+03    0.13461E-09   -0.73008E-11   168   0.106E-09    0.339E-10
RMM:   2    -0.139450829920E+03   -0.65484E-10    0.00000E+00     2   0.824E-10
  68 F= -.13945083E+03 E0= -.13946329E+03  d E =0.727596E-10
quench:  g(F)=  0.000E+00 g(S)=  0.000E+00 dE (1.order)= 0.000E+00
 bond charge predicted
       N       E                     dE             d eps       ncg     rms          rms(c)
DAV:   1    -0.139450829920E+03   -0.41473E-09   -0.87821E-11   168   0.909E-10    0.238E-10
RMM:   2    -0.139450829920E+03    0.32378E-09    0.00000E+00     2   0.662E-10
  69 F= -.13945083E+03 E0= -.13946329E+03  d E =-.254659E-10
quench:  g(F)=  0.000E+00 g(S)=  0.000E+00 dE (1.order)= 0.000E+00
 bond charge predicted
       N       E                     dE             d eps       ncg     rms          rms(c)
DAV:   1    -0.139450829920E+03    0.80036E-09   -0.56208E-11   168   0.725E-10    0.206E-10
RMM:   2    -0.139450829920E+03   -0.44383E-09    0.00000E+00     2   0.558E-10
  70 F= -.13945083E+03 E0= -.13946329E+03  d E =0.327418E-10
quench:  g(F)=  0.000E+00 g(S)=  0.000E+00 dE (1.order)= 0.000E+00
 bond charge predicted
       N       E                     dE             d eps       ncg     rms          rms(c)
DAV:   1    -0.139450829921E+03   -0.13388E-08   -0.25634E-11   168   0.616E-10    0.162E-10
RMM:   2    -0.139450829920E+03    0.84037E-09    0.00000E+00     2   0.469E-10
  71 F= -.13945083E+03 E0= -.13946329E+03  d E =-.545697E-10
quench:  g(F)=  0.000E+00 g(S)=  0.000E+00 dE (1.order)= 0.000E+00
 bond charge predicted
       N       E                     dE             d eps       ncg     rms          rms(c)
DAV:   1    -0.139450829920E+03    0.56389E-09   -0.36888E-11   168   0.503E-10    0.236E-10
RMM:   2    -0.139450829920E+03    0.22919E-09    0.00000E+00     2   0.407E-10
  72 F= -.13945083E+03 E0= -.13946329E+03  d E =-.472937E-10
quench:  g(F)=  0.000E+00 g(S)=  0.000E+00 dE (1.order)= 0.000E+00
 bond charge predicted
       N       E                     dE             d eps       ncg     rms          rms(c)
DAV:   1    -0.139450829919E+03    0.88767E-09   -0.23345E-11   168   0.446E-10    0.303E-10
RMM:   2    -0.139450829920E+03   -0.62209E-09    0.00000E+00     2   0.349E-10
  73 F= -.13945083E+03 E0= -.13946329E+03  d E =0.363798E-10
quench:  g(F)=  0.000E+00 g(S)=  0.000E+00 dE (1.order)= 0.000E+00
 bond charge predicted
       N       E                     dE             d eps       ncg     rms          rms(c)
DAV:   1    -0.139450829921E+03   -0.13242E-08    0.19986E-11   168   0.426E-10    0.330E-10
RMM:   2    -0.139450829920E+03    0.77489E-09    0.00000E+00     1   0.301E-10
  74 F= -.13945083E+03 E0= -.13946329E+03  d E =0.727596E-10
quench:  g(F)=  0.000E+00 g(S)=  0.000E+00 dE (1.order)= 0.000E+00
 bond charge predicted
       N       E                     dE             d eps       ncg     rms          rms(c)
DAV:   1    -0.139450829920E+03    0.38926E-09   -0.91600E-11   168   0.410E-10    0.205E-10
RMM:   2    -0.139450829920E+03    0.26193E-09    0.00000E+00     2   0.254E-10
  75 F= -.13945083E+03 E0= -.13946329E+03  d E =-.123691E-09
quench:  g(F)=  0.000E+00 g(S)=  0.000E+00 dE (1.order)= 0.000E+00
 bond charge predicted
       N       E                     dE             d eps       ncg     rms          rms(c)
DAV:   1    -0.139450829920E+03    0.46566E-09   -0.41583E-11   168   0.296E-10    0.197E-10
RMM:   2    -0.139450829920E+03   -0.47294E-10    0.00000E+00     1   0.226E-10
  76 F= -.13945083E+03 E0= -.13946329E+03  d E =0.156433E-09
quench:  g(F)=  0.000E+00 g(S)=  0.000E+00 dE (1.order)= 0.000E+00
 bond charge predicted
       N       E                     dE             d eps       ncg     rms          rms(c)
DAV:   1    -0.139450829920E+03   -0.29104E-10   -0.10311E-10   168   0.256E-10    0.201E-10
RMM:   2    -0.139450829920E+03   -0.47294E-10    0.00000E+00     2   0.198E-10
  77 F= -.13945083E+03 E0= -.13946329E+03  d E =-.291038E-10
quench:  g(F)=  0.000E+00 g(S)=  0.000E+00 dE (1.order)= 0.000E+00
 bond charge predicted
       N       E                     dE             d eps       ncg     rms          rms(c)
DAV:   1    -0.139450829920E+03   -0.34197E-09    0.10655E-11   168   0.209E-10    0.160E-10
RMM:   2    -0.139450829920E+03    0.24374E-09    0.00000E+00     1   0.157E-10
  78 F= -.13945083E+03 E0= -.13946329E+03  d E =-.509317E-10
quench:  g(F)=  0.000E+00 g(S)=  0.000E+00 dE (1.order)= 0.000E+00
 bond charge predicted
       N       E                     dE             d eps       ncg     rms          rms(c)
DAV:   1    -0.139450829920E+03    0.87311E-10   -0.32833E-11   168   0.178E-10    0.231E-10
RMM:   2    -0.139450829920E+03    0.15643E-09    0.00000E+00     1   0.166E-10
  79 F= -.13945083E+03 E0= -.13946329E+03  d E =0.000000E+00
quench:  g(F)=  0.000E+00 g(S)=  0.000E+00 dE (1.order)= 0.000E+00
 bond charge predicted
       N       E                     dE             d eps       ncg     rms          rms(c)
DAV:   1    -0.139450829920E+03   -0.36380E-11   -0.54426E-11   168   0.225E-10    0.125E-10
RMM:   2    -0.139450829920E+03    0.25102E-09    0.00000E+00     1   0.134E-10
  80 F= -.13945083E+03 E0= -.13946329E+03  d E =0.909495E-10
quench:  g(F)=  0.000E+00 g(S)=  0.000E+00 dE (1.order)= 0.000E+00
 bond charge predicted
       N       E                     dE             d eps       ncg     rms          rms(c)
DAV:   1    -0.139450829919E+03    0.15607E-08   -0.82344E-11   168   0.165E-10    0.152E-10
RMM:   2    -0.139450829920E+03   -0.13788E-08    0.00000E+00     1   0.110E-10
  81 F= -.13945083E+03 E0= -.13946329E+03  d E =-.691216E-10
quench:  g(F)=  0.000E+00 g(S)=  0.000E+00 dE (1.order)= 0.000E+00
 bond charge predicted
       N       E                     dE             d eps       ncg     rms          rms(c)
DAV:   1    -0.139450829920E+03   -0.13206E-08   -0.92393E-12   168   0.123E-10    0.202E-10
RMM:   2    -0.139450829920E+03   -0.80036E-10    0.00000E+00     1   0.111E-10
  82 F= -.13945083E+03 E0= -.13946329E+03  d E =-.218279E-10
quench:  g(F)=  0.000E+00 g(S)=  0.000E+00 dE (1.order)= 0.000E+00
 bond charge predicted
       N       E                     dE             d eps       ncg     rms          rms(c)
DAV:   1    -0.139450829920E+03   -0.32014E-09   -0.41573E-11   168   0.167E-10    0.185E-10
RMM:   2    -0.139450829920E+03    0.30559E-09    0.00000E+00     1   0.109E-10
  83 F= -.13945083E+03 E0= -.13946329E+03  d E =0.654836E-10
quench:  g(F)=  0.000E+00 g(S)=  0.000E+00 dE (1.order)= 0.000E+00
 bond charge predicted
       N       E                     dE             d eps       ncg     rms          rms(c)
DAV:   1    -0.139450829921E+03   -0.52023E-09    0.23264E-12   168   0.117E-10    0.182E-10
RMM:   2    -0.139450829920E+03    0.78580E-09    0.00000E+00     1   0.118E-10
  84 F= -.13945083E+03 E0= -.13946329E+03  d E =-.400178E-10
quench:  g(F)=  0.000E+00 g(S)=  0.000E+00 dE (1.order)= 0.000E+00
 bond charge predicted
       N       E                     dE             d eps       ncg     rms          rms(c)
DAV:   1    -0.139450829921E+03    0.76398E-10   -0.50649E-11   168   0.141E-10    0.217E-10
RMM:   2    -0.139450829920E+03    0.70941E-09    0.00000E+00     1   0.102E-10
  85 F= -.13945083E+03 E0= -.13946329E+03  d E =0.000000E+00
quench:  g(F)=  0.000E+00 g(S)=  0.000E+00 dE (1.order)= 0.000E+00
 bond charge predicted
       N       E                     dE             d eps       ncg     rms          rms(c)
DAV:   1    -0.139450829921E+03    0.16735E-09   -0.47497E-12   168   0.183E-10    0.187E-10
RMM:   2    -0.139450829920E+03    0.54206E-09    0.00000E+00     1   0.115E-10
  86 F= -.13945083E+03 E0= -.13946329E+03  d E =0.000000E+00
quench:  g(F)=  0.000E+00 g(S)=  0.000E+00 dE (1.order)= 0.000E+00
 bond charge predicted
       N       E                     dE             d eps       ncg     rms          rms(c)
DAV:   1    -0.139450829921E+03   -0.15280E-09   -0.93311E-11   168   0.167E-10    0.152E-10
RMM:   2    -0.139450829920E+03    0.76398E-09    0.00000E+00     1   0.105E-10
  87 F= -.13945083E+03 E0= -.13946329E+03  d E =0.691216E-10
quench:  g(F)=  0.000E+00 g(S)=  0.000E+00 dE (1.order)= 0.000E+00
 bond charge predicted
       N       E                     dE             d eps       ncg     rms          rms(c)
DAV:   1    -0.139450829920E+03    0.48021E-09   -0.29275E-11   168   0.144E-10    0.188E-10
RMM:   2    -0.139450829920E+03    0.22919E-09    0.00000E+00     1   0.107E-10
  88 F= -.13945083E+03 E0= -.13946329E+03  d E =-.545697E-10
quench:  g(F)=  0.000E+00 g(S)=  0.000E+00 dE (1.order)= 0.000E+00
 bond charge predicted
       N       E                     dE             d eps       ncg     rms          rms(c)
DAV:   1    -0.139450829920E+03    0.25466E-10   -0.62378E-11   168   0.132E-10    0.155E-10
RMM:   2    -0.139450829920E+03    0.22192E-09    0.00000E+00     1   0.113E-10
  89 F= -.13945083E+03 E0= -.13946329E+03  d E =0.181899E-10
quench:  g(F)=  0.000E+00 g(S)=  0.000E+00 dE (1.order)= 0.000E+00
 bond charge predicted
       N       E                     dE             d eps       ncg     rms          rms(c)
DAV:   1    -0.139450829921E+03   -0.86948E-09    0.19523E-11   168   0.142E-10    0.216E-10
RMM:   2    -0.139450829920E+03    0.11132E-08    0.00000E+00     1   0.112E-10
  90 F= -.13945083E+03 E0= -.13946329E+03  d E =0.218279E-10
quench:  g(F)=  0.000E+00 g(S)=  0.000E+00 dE (1.order)= 0.000E+00
 bond charge predicted
       N       E                     dE             d eps       ncg     rms          rms(c)
DAV:   1    -0.139450829921E+03    0.56752E-09    0.89438E-12   168   0.153E-10    0.284E-10
RMM:   2    -0.139450829920E+03    0.56752E-09    0.00000E+00     1   0.133E-10
  91 F= -.13945083E+03 E0= -.13946329E+03  d E =0.218279E-10
quench:  g(F)=  0.000E+00 g(S)=  0.000E+00 dE (1.order)= 0.000E+00
 bond charge predicted
       N       E                     dE             d eps       ncg     rms          rms(c)
DAV:   1    -0.139450829920E+03    0.49840E-09   -0.74181E-11   168   0.170E-10    0.263E-10
RMM:   2    -0.139450829920E+03   -0.14552E-10    0.00000E+00     1   0.121E-10
  92 F= -.13945083E+03 E0= -.13946329E+03  d E =-.836735E-10
quench:  g(F)=  0.000E+00 g(S)=  0.000E+00 dE (1.order)= 0.000E+00
 bond charge predicted
       N       E                     dE             d eps       ncg     rms          rms(c)
DAV:   1    -0.139450829920E+03    0.23647E-09   -0.73832E-11   168   0.209E-10    0.148E-10
RMM:   2    -0.139450829920E+03   -0.36744E-09    0.00000E+00     1   0.951E-11
  93 F= -.13945083E+03 E0= -.13946329E+03  d E =-.116415E-09
quench:  g(F)=  0.000E+00 g(S)=  0.000E+00 dE (1.order)= 0.000E+00
 bond charge predicted
       N       E                     dE             d eps       ncg     rms          rms(c)
DAV:   1    -0.139450829919E+03    0.50568E-09   -0.27058E-11   168   0.114E-10    0.306E-10
RMM:   2    -0.139450829920E+03   -0.72032E-09    0.00000E+00     1   0.115E-10
  94 F= -.13945083E+03 E0= -.13946329E+03  d E =0.152795E-09
quench:  g(F)=  0.000E+00 g(S)=  0.000E+00 dE (1.order)= 0.000E+00
 bond charge predicted
       N       E                     dE             d eps       ncg     rms          rms(c)
DAV:   1    -0.139450829919E+03    0.14552E-09   -0.14118E-10   168   0.195E-10    0.252E-10
RMM:   2    -0.139450829920E+03   -0.93496E-09    0.00000E+00     1   0.117E-10
  95 F= -.13945083E+03 E0= -.13946329E+03  d E =-.691216E-10
quench:  g(F)=  0.000E+00 g(S)=  0.000E+00 dE (1.order)= 0.000E+00
 bond charge predicted
       N       E                     dE             d eps       ncg     rms          rms(c)
DAV:   1    -0.139450829921E+03   -0.16953E-08   -0.32297E-11   168   0.174E-10    0.172E-10
RMM:   2    -0.139450829920E+03    0.82582E-09    0.00000E+00     1   0.121E-10
  96 F= -.13945083E+03 E0= -.13946329E+03  d E =0.654836E-10
quench:  g(F)=  0.000E+00 g(S)=  0.000E+00 dE (1.order)= 0.000E+00
 bond charge predicted
       N       E                     dE             d eps       ncg     rms          rms(c)
DAV:   1    -0.139450829920E+03    0.94224E-09   -0.33730E-12   168   0.152E-10    0.168E-10
RMM:   2    -0.139450829920E+03   -0.83674E-10    0.00000E+00     1   0.102E-10
  97 F= -.13945083E+03 E0= -.13946329E+03  d E =0.327418E-10
quench:  g(F)=  0.000E+00 g(S)=  0.000E+00 dE (1.order)= 0.000E+00
 bond charge predicted
       N       E                     dE             d eps       ncg     rms          rms(c)
DAV:   1    -0.139450829920E+03    0.43656E-10   -0.72154E-11   168   0.136E-10    0.196E-10
RMM:   2    -0.139450829920E+03   -0.21828E-09    0.00000E+00     1   0.116E-10
  98 F= -.13945083E+03 E0= -.13946329E+03  d E =-.909495E-10
quench:  g(F)=  0.000E+00 g(S)=  0.000E+00 dE (1.order)= 0.000E+00
 bond charge predicted
       N       E                     dE             d eps       ncg     rms          rms(c)
DAV:   1    -0.139450829920E+03    0.16371E-09    0.50741E-12   168   0.173E-10    0.144E-10
RMM:   2    -0.139450829920E+03   -0.47294E-09    0.00000E+00     1   0.103E-10
  99 F= -.13945083E+03 E0= -.13946329E+03  d E =-.909495E-10
quench:  g(F)=  0.000E+00 g(S)=  0.000E+00 dE (1.order)= 0.000E+00
 bond charge predicted
       N       E                     dE             d eps       ncg     rms          rms(c)
DAV:   1    -0.139450829919E+03    0.73123E-09   -0.14018E-11   168   0.107E-10    0.260E-10
RMM:   2    -0.139450829920E+03   -0.10550E-08    0.00000E+00     1   0.115E-10
 100 F= -.13945083E+03 E0= -.13946329E+03  d E =0.149157E-09
quench:  g(F)=  0.000E+00 g(S)=  0.000E+00 dE (1.order)= 0.000E+00
 bond charge predicted
       N       E                     dE             d eps       ncg     rms          rms(c)
DAV:   1    -0.139450829920E+03   -0.82218E-09   -0.77730E-11   168   0.162E-10    0.202E-10
RMM:   2    -0.139450829920E+03   -0.30923E-09    0.00000E+00     1   0.115E-10
 101 F= -.13945083E+03 E0= -.13946329E+03  d E =-.763976E-10
quench:  g(F)=  0.000E+00 g(S)=  0.000E+00 dE (1.order)= 0.000E+00
 bond charge predicted
       N       E                     dE             d eps       ncg     rms          rms(c)
DAV:   1    -0.139450829919E+03    0.31650E-09   -0.47101E-11   168   0.156E-10    0.197E-10
RMM:   2    -0.139450829920E+03   -0.53478E-09    0.00000E+00     1   0.105E-10
 102 F= -.13945083E+03 E0= -.13946329E+03  d E =0.909495E-10
quench:  g(F)=  0.000E+00 g(S)=  0.000E+00 dE (1.order)= 0.000E+00
 bond charge predicted
       N       E                     dE             d eps       ncg     rms          rms(c)
DAV:   1    -0.139450829921E+03   -0.12624E-08   -0.60140E-11   168   0.151E-10    0.292E-10
RMM:   2    -0.139450829920E+03    0.69849E-09    0.00000E+00     1   0.127E-10
 103 F= -.13945083E+03 E0= -.13946329E+03  d E =-.291038E-10
quench:  g(F)=  0.000E+00 g(S)=  0.000E+00 dE (1.order)= 0.000E+00
 bond charge predicted
       N       E                     dE             d eps       ncg     rms          rms(c)
DAV:   1    -0.139450829920E+03    0.61482E-09    0.80017E-11   168   0.169E-10    0.249E-10
RMM:   2    -0.139450829920E+03    0.12733E-09    0.00000E+00     1   0.113E-10
 104 F= -.13945083E+03 E0= -.13946329E+03  d E =0.436557E-10
quench:  g(F)=  0.000E+00 g(S)=  0.000E+00 dE (1.order)= 0.000E+00
 bond charge predicted
       N       E                     dE             d eps       ncg     rms          rms(c)
DAV:   1    -0.139450829920E+03    0.50568E-09   -0.13732E-10   168   0.214E-10    0.240E-10
RMM:   2    -0.139450829920E+03   -0.54570E-09    0.00000E+00     1   0.118E-10
 105 F= -.13945083E+03 E0= -.13946329E+03  d E =-.167347E-09
quench:  g(F)=  0.000E+00 g(S)=  0.000E+00 dE (1.order)= 0.000E+00
 bond charge predicted
       N       E                     dE             d eps       ncg     rms          rms(c)
DAV:   1    -0.139450829921E+03   -0.99681E-09   -0.45279E-11   168   0.171E-10    0.253E-10
RMM:   2    -0.139450829920E+03    0.52023E-09    0.00000E+00     1   0.132E-10
 106 F= -.13945083E+03 E0= -.13946329E+03  d E =0.691216E-10
quench:  g(F)=  0.000E+00 g(S)=  0.000E+00 dE (1.order)= 0.000E+00
 bond charge predicted
       N       E                     dE             d eps       ncg     rms          rms(c)
DAV:   1    -0.139450829920E+03    0.53842E-09   -0.12520E-10   168   0.159E-10    0.203E-10
RMM:   2    -0.139450829920E+03   -0.72760E-11    0.00000E+00     1   0.121E-10
 107 F= -.13945083E+03 E0= -.13946329E+03  d E =0.109139E-10
quench:  g(F)=  0.000E+00 g(S)=  0.000E+00 dE (1.order)= 0.000E+00
 bond charge predicted
       N       E                     dE             d eps       ncg     rms          rms(c)
DAV:   1    -0.139450829920E+03    0.28012E-09   -0.92022E-12   168   0.145E-10    0.198E-10
RMM:   2    -0.139450829920E+03   -0.25102E-09    0.00000E+00     1   0.940E-11
 108 F= -.13945083E+03 E0= -.13946329E+03  d E =0.363798E-10
quench:  g(F)=  0.000E+00 g(S)=  0.000E+00 dE (1.order)= 0.000E+00
 bond charge predicted
       N       E                     dE             d eps       ncg     rms          rms(c)
DAV:   1    -0.139450829919E+03    0.41109E-09   -0.50242E-11   168   0.132E-10    0.200E-10
RMM:   2    -0.139450829920E+03   -0.80036E-09    0.00000E+00     1   0.113E-10
 109 F= -.13945083E+03 E0= -.13946329E+03  d E =-.138243E-09
quench:  g(F)=  0.000E+00 g(S)=  0.000E+00 dE (1.order)= 0.000E+00
 bond charge predicted
       N       E                     dE             d eps       ncg     rms          rms(c)
DAV:   1    -0.139450829921E+03   -0.14370E-08   -0.10371E-10   168   0.189E-10    0.219E-10
RMM:   2    -0.139450829920E+03    0.72396E-09    0.00000E+00     1   0.115E-10
 110 F= -.13945083E+03 E0= -.13946329E+03  d E =0.873115E-10
quench:  g(F)=  0.000E+00 g(S)=  0.000E+00 dE (1.order)= 0.000E+00
 bond charge predicted
       N       E                     dE             d eps       ncg     rms          rms(c)
DAV:   1    -0.139450829920E+03    0.55661E-09   -0.10303E-10   168   0.152E-10    0.197E-10
RMM:   2    -0.139450829920E+03    0.23647E-09    0.00000E+00     1   0.108E-10
 111 F= -.13945083E+03 E0= -.13946329E+03  d E =0.691216E-10
quench:  g(F)=  0.000E+00 g(S)=  0.000E+00 dE (1.order)= 0.000E+00
 bond charge predicted
       N       E                     dE             d eps       ncg     rms          rms(c)
DAV:   1    -0.139450829921E+03   -0.34561E-09   -0.46231E-11   168   0.154E-10    0.212E-10
RMM:   2    -0.139450829920E+03    0.53842E-09    0.00000E+00     1   0.101E-10
 112 F= -.13945083E+03 E0= -.13946329E+03  d E =-.436557E-10
quench:  g(F)=  0.000E+00 g(S)=  0.000E+00 dE (1.order)= 0.000E+00
 bond charge predicted
       N       E                     dE             d eps       ncg     rms          rms(c)
DAV:   1    -0.139450829921E+03   -0.28012E-09   -0.25081E-11   168   0.141E-10    0.185E-10
RMM:   2    -0.139450829920E+03    0.75306E-09    0.00000E+00     1   0.829E-11
 113 F= -.13945083E+03 E0= -.13946329E+03  d E =-.654836E-10
quench:  g(F)=  0.000E+00 g(S)=  0.000E+00 dE (1.order)= 0.000E+00
 bond charge predicted
       N       E                     dE             d eps       ncg     rms          rms(c)
DAV:   1    -0.139450829920E+03    0.64392E-09   -0.77599E-11   168   0.132E-10    0.256E-10
RMM:   2    -0.139450829920E+03    0.90949E-10    0.00000E+00     1   0.114E-10
 114 F= -.13945083E+03 E0= -.13946329E+03  d E =-.181899E-10
quench:  g(F)=  0.000E+00 g(S)=  0.000E+00 dE (1.order)= 0.000E+00
 bond charge predicted
       N       E                     dE             d eps       ncg     rms          rms(c)
DAV:   1    -0.139450829920E+03   -0.21100E-09   -0.45655E-11   168   0.181E-10    0.263E-10
RMM:   2    -0.139450829920E+03    0.40745E-09    0.00000E+00     1   0.109E-10
 115 F= -.13945083E+03 E0= -.13946329E+03  d E =0.105501E-09
quench:  g(F)=  0.000E+00 g(S)=  0.000E+00 dE (1.order)= 0.000E+00
 bond charge predicted
       N       E                     dE             d eps       ncg     rms          rms(c)
DAV:   1    -0.139450829920E+03    0.74579E-09   -0.58175E-11   168   0.193E-10    0.244E-10
RMM:   2    -0.139450829920E+03   -0.40018E-09    0.00000E+00     1   0.113E-10
 116 F= -.13945083E+03 E0= -.13946329E+03  d E =-.618456E-10
quench:  g(F)=  0.000E+00 g(S)=  0.000E+00 dE (1.order)= 0.000E+00
 bond charge predicted
       N       E                     dE             d eps       ncg     rms          rms(c)
DAV:   1    -0.139450829920E+03   -0.33469E-09   -0.11616E-10   168   0.164E-10    0.205E-10
RMM:   2    -0.139450829920E+03   -0.54570E-10    0.00000E+00     1   0.105E-10
 117 F= -.13945083E+03 E0= -.13946329E+03  d E =0.109139E-10
quench:  g(F)=  0.000E+00 g(S)=  0.000E+00 dE (1.order)= 0.000E+00
 bond charge predicted
       N       E                     dE             d eps       ncg     rms          rms(c)
DAV:   1    -0.139450829919E+03    0.61482E-09    0.33349E-11   168   0.140E-10    0.244E-10
RMM:   2    -0.139450829920E+03   -0.56752E-09    0.00000E+00     1   0.116E-10
 118 F= -.13945083E+03 E0= -.13946329E+03  d E =0.101863E-09
quench:  g(F)=  0.000E+00 g(S)=  0.000E+00 dE (1.order)= 0.000E+00
 bond charge predicted
       N       E                     dE             d eps       ncg     rms          rms(c)
DAV:   1    -0.139450829920E+03   -0.32742E-09   -0.47518E-11   168   0.216E-10    0.308E-10
RMM:   2    -0.139450829920E+03   -0.27285E-09    0.00000E+00     1   0.163E-10
 119 F= -.13945083E+03 E0= -.13946329E+03  d E =-.327418E-10
quench:  g(F)=  0.000E+00 g(S)=  0.000E+00 dE (1.order)= 0.000E+00
 bond charge predicted
       N       E                     dE             d eps       ncg     rms          rms(c)
DAV:   1    -0.139450829920E+03   -0.14916E-09   -0.44517E-11   168   0.203E-10    0.285E-10
RMM:   2    -0.139450829920E+03   -0.19645E-09    0.00000E+00     1   0.116E-10
 120 F= -.13945083E+03 E0= -.13946329E+03  d E =-.727596E-10
quench:  g(F)=  0.000E+00 g(S)=  0.000E+00 dE (1.order)= 0.000E+00
 bond charge predicted
       N       E                     dE             d eps       ncg     rms          rms(c)
DAV:   1    -0.139450829921E+03   -0.71304E-09   -0.51825E-11   168   0.186E-10    0.227E-10
RMM:   2    -0.139450829920E+03    0.48749E-09    0.00000E+00     1   0.123E-10
 121 F= -.13945083E+03 E0= -.13946329E+03  d E =-.291038E-10
quench:  g(F)=  0.000E+00 g(S)=  0.000E+00 dE (1.order)= 0.000E+00
 bond charge predicted
       N       E                     dE             d eps       ncg     rms          rms(c)
DAV:   1    -0.139450829920E+03    0.54570E-09   -0.68289E-11   168   0.209E-10    0.302E-10
RMM:   2    -0.139450829920E+03    0.54570E-10    0.00000E+00     1   0.129E-10
 122 F= -.13945083E+03 E0= -.13946329E+03  d E =0.112777E-09
quench:  g(F)=  0.000E+00 g(S)=  0.000E+00 dE (1.order)= 0.000E+00
 bond charge predicted
       N       E                     dE             d eps       ncg     rms          rms(c)
DAV:   1    -0.139450829919E+03    0.67666E-09   -0.66024E-11   168   0.191E-10    0.256E-10
RMM:   2    -0.139450829920E+03   -0.77853E-09    0.00000E+00     1   0.119E-10
 123 F= -.13945083E+03 E0= -.13946329E+03  d E =-.156433E-09
quench:  g(F)=  0.000E+00 g(S)=  0.000E+00 dE (1.order)= 0.000E+00
 bond charge predicted
       N       E                     dE             d eps       ncg     rms          rms(c)
DAV:   1    -0.139450829921E+03   -0.14734E-08   -0.16200E-12   168   0.191E-10    0.247E-10
RMM:   2    -0.139450829920E+03    0.79308E-09    0.00000E+00     1   0.116E-10
 124 F= -.13945083E+03 E0= -.13946329E+03  d E =0.982254E-10
quench:  g(F)=  0.000E+00 g(S)=  0.000E+00 dE (1.order)= 0.000E+00
 bond charge predicted
       N       E                     dE             d eps       ncg     rms          rms(c)
DAV:   1    -0.139450829920E+03    0.78217E-09   -0.37612E-11   168   0.173E-10    0.269E-10
RMM:   2    -0.139450829920E+03    0.25466E-10    0.00000E+00     1   0.120E-10
 125 F= -.13945083E+03 E0= -.13946329E+03  d E =0.145519E-10
quench:  g(F)=  0.000E+00 g(S)=  0.000E+00 dE (1.order)= 0.000E+00
 bond charge predicted
       N       E                     dE             d eps       ncg     rms          rms(c)
DAV:   1    -0.139450829920E+03   -0.83674E-10    0.11204E-11   168   0.162E-10    0.155E-10
RMM:   2    -0.139450829920E+03    0.94587E-10    0.00000E+00     1   0.908E-11
 126 F= -.13945083E+03 E0= -.13946329E+03  d E =-.145519E-10
quench:  g(F)=  0.000E+00 g(S)=  0.000E+00 dE (1.order)= 0.000E+00
 bond charge predicted
       N       E                     dE             d eps       ncg     rms          rms(c)
DAV:   1    -0.139450829921E+03   -0.61846E-09   -0.12573E-10   168   0.142E-10    0.184E-10
RMM:   2    -0.139450829920E+03    0.64028E-09    0.00000E+00     1   0.106E-10
 127 F= -.13945083E+03 E0= -.13946329E+03  d E =-.727596E-10
quench:  g(F)=  0.000E+00 g(S)=  0.000E+00 dE (1.order)= 0.000E+00
 bond charge predicted
       N       E                     dE             d eps       ncg     rms          rms(c)
DAV:   1    -0.139450829920E+03    0.33106E-09   -0.10036E-11   168   0.161E-10    0.293E-10
RMM:   2    -0.139450829920E+03    0.30559E-09    0.00000E+00     1   0.131E-10
 128 F= -.13945083E+03 E0= -.13946329E+03  d E =-.363798E-11
quench:  g(F)=  0.000E+00 g(S)=  0.000E+00 dE (1.order)= 0.000E+00
 bond charge predicted
       N       E                     dE             d eps       ncg     rms          rms(c)
DAV:   1    -0.139450829921E+03   -0.58571E-09   -0.30274E-12   168   0.258E-10    0.198E-10
RMM:   2    -0.139450829920E+03    0.97498E-09    0.00000E+00     1   0.956E-11
 129 F= -.13945083E+03 E0= -.13946329E+03  d E =0.836735E-10
quench:  g(F)=  0.000E+00 g(S)=  0.000E+00 dE (1.order)= 0.000E+00
 bond charge predicted
       N       E                     dE             d eps       ncg     rms          rms(c)
DAV:   1    -0.139450829921E+03    0.47294E-09   -0.30089E-11   168   0.161E-10    0.144E-10
RMM:   2    -0.139450829920E+03    0.50932E-09    0.00000E+00     1   0.962E-11
 130 F= -.13945083E+03 E0= -.13946329E+03  d E =0.727596E-11
quench:  g(F)=  0.000E+00 g(S)=  0.000E+00 dE (1.order)= 0.000E+00
 bond charge predicted
       N       E                     dE             d eps       ncg     rms          rms(c)
DAV:   1    -0.139450829919E+03    0.10878E-08   -0.10136E-10   168   0.134E-10    0.251E-10
RMM:   2    -0.139450829920E+03   -0.62937E-09    0.00000E+00     1   0.116E-10
 131 F= -.13945083E+03 E0= -.13946329E+03  d E =-.509317E-10
quench:  g(F)=  0.000E+00 g(S)=  0.000E+00 dE (1.order)= 0.000E+00
 bond charge predicted
       N       E                     dE             d eps       ncg     rms          rms(c)
DAV:   1    -0.139450829920E+03   -0.48749E-09    0.34603E-11   168   0.156E-10    0.169E-10
RMM:   2    -0.139450829920E+03   -0.20373E-09    0.00000E+00     0   0.860E-11
 132 F= -.13945083E+03 E0= -.13946329E+03  d E =-.618456E-10
quench:  g(F)=  0.000E+00 g(S)=  0.000E+00 dE (1.order)= 0.000E+00
 bond charge predicted
       N       E                     dE             d eps       ncg     rms          rms(c)
DAV:   1    -0.139450829919E+03    0.61846E-09   -0.10300E-10   168   0.138E-10    0.198E-10
RMM:   2    -0.139450829920E+03   -0.78217E-09    0.00000E+00     0   0.110E-10
 133 F= -.13945083E+03 E0= -.13946329E+03  d E =0.400178E-10
quench:  g(F)=  0.000E+00 g(S)=  0.000E+00 dE (1.order)= 0.000E+00
 bond charge predicted
       N       E                     dE             d eps       ncg     rms          rms(c)
DAV:   1    -0.139450829921E+03   -0.11605E-08   -0.26304E-11   168   0.132E-10    0.210E-10
RMM:   2    -0.139450829920E+03    0.52751E-09    0.00000E+00     1   0.127E-10
 134 F= -.13945083E+03 E0= -.13946329E+03  d E =0.149157E-09
quench:  g(F)=  0.000E+00 g(S)=  0.000E+00 dE (1.order)= 0.000E+00
 bond charge predicted
       N       E                     dE             d eps       ncg     rms          rms(c)
DAV:   1    -0.139450829920E+03    0.25102E-09   -0.83296E-11   168   0.198E-10    0.264E-10
RMM:   2    -0.139450829920E+03    0.98225E-10    0.00000E+00     1   0.146E-10
 135 F= -.13945083E+03 E0= -.13946329E+03  d E =-.178261E-09
quench:  g(F)=  0.000E+00 g(S)=  0.000E+00 dE (1.order)= 0.000E+00
 bond charge predicted
       N       E                     dE             d eps       ncg     rms          rms(c)
DAV:   1    -0.139450829919E+03    0.80399E-09   -0.76098E-11   168   0.209E-10    0.399E-10
RMM:   2    -0.139450829920E+03   -0.64392E-09    0.00000E+00     1   0.144E-10
 136 F= -.13945083E+03 E0= -.13946329E+03  d E =0.618456E-10
quench:  g(F)=  0.000E+00 g(S)=  0.000E+00 dE (1.order)= 0.000E+00
 bond charge predicted
       N       E                     dE             d eps       ncg     rms          rms(c)
DAV:   1    -0.139450829920E+03   -0.79308E-09   -0.15900E-10   168   0.271E-10    0.216E-10
RMM:   2    -0.139450829920E+03    0.20009E-09    0.00000E+00     0   0.131E-10
 137 F= -.13945083E+03 E0= -.13946329E+03  d E =0.509317E-10
quench:  g(F)=  0.000E+00 g(S)=  0.000E+00 dE (1.order)= 0.000E+00
 bond charge predicted
       N       E                     dE             d eps       ncg     rms          rms(c)
DAV:   1    -0.139450829920E+03    0.60027E-09   -0.16995E-11   168   0.146E-10    0.260E-10
RMM:   2    -0.139450829920E+03   -0.49113E-09    0.00000E+00     0   0.115E-10
 138 F= -.13945083E+03 E0= -.13946329E+03  d E =-.909495E-10
quench:  g(F)=  0.000E+00 g(S)=  0.000E+00 dE (1.order)= 0.000E+00
 bond charge predicted
       N       E                     dE             d eps       ncg     rms          rms(c)
DAV:   1    -0.139450829921E+03   -0.97498E-09   -0.34836E-11   168   0.145E-10    0.226E-10
RMM:   2    -0.139450829920E+03    0.52387E-09    0.00000E+00     0   0.117E-10
 139 F= -.13945083E+03 E0= -.13946329E+03  d E =0.400178E-10
quench:  g(F)=  0.000E+00 g(S)=  0.000E+00 dE (1.order)= 0.000E+00
 bond charge predicted
       N       E                     dE             d eps       ncg     rms          rms(c)
DAV:   1    -0.139450829920E+03    0.23283E-09    0.58826E-11   168   0.145E-10    0.241E-10
RMM:   2    -0.139450829920E+03    0.31650E-09    0.00000E+00     0   0.115E-10
 140 F= -.13945083E+03 E0= -.13946329E+03  d E =0.254659E-10
quench:  g(F)=  0.000E+00 g(S)=  0.000E+00 dE (1.order)= 0.000E+00
 bond charge predicted
       N       E                     dE             d eps       ncg     rms          rms(c)
DAV:   1    -0.139450829922E+03   -0.15680E-08   -0.88098E-11   168   0.213E-10    0.259E-10
RMM:   2    -0.139450829920E+03    0.19172E-08    0.00000E+00     0   0.132E-10
 141 F= -.13945083E+03 E0= -.13946329E+03  d E =0.327418E-10
quench:  g(F)=  0.000E+00 g(S)=  0.000E+00 dE (1.order)= 0.000E+00
 bond charge predicted
       N       E                     dE             d eps       ncg     rms          rms(c)
DAV:   1    -0.139450829920E+03    0.18117E-08   -0.42087E-11   168   0.198E-10    0.194E-10
RMM:   2    -0.139450829920E+03    0.54570E-10    0.00000E+00     0   0.101E-10
 142 F= -.13945083E+03 E0= -.13946329E+03  d E =-.509317E-10
quench:  g(F)=  0.000E+00 g(S)=  0.000E+00 dE (1.order)= 0.000E+00
 bond charge predicted
       N       E                     dE             d eps       ncg     rms          rms(c)
DAV:   1    -0.139450829919E+03    0.10550E-08   -0.33020E-11   168   0.154E-10    0.231E-10
RMM:   2    -0.139450829920E+03   -0.98589E-09    0.00000E+00     0   0.109E-10
 143 F= -.13945083E+03 E0= -.13946329E+03  d E =0.145519E-10
quench:  g(F)=  0.000E+00 g(S)=  0.000E+00 dE (1.order)= 0.000E+00
 bond charge predicted
       N       E                     dE             d eps       ncg     rms          rms(c)
DAV:   1    -0.139450829921E+03   -0.14115E-08   -0.69181E-11   168   0.163E-10    0.211E-10
RMM:   2    -0.139450829920E+03    0.43292E-09    0.00000E+00     0   0.963E-11
 144 F= -.13945083E+03 E0= -.13946329E+03  d E =0.727596E-11
quench:  g(F)=  0.000E+00 g(S)=  0.000E+00 dE (1.order)= 0.000E+00
 bond charge predicted
       N       E                     dE             d eps       ncg     rms          rms(c)
DAV:   1    -0.139450829920E+03    0.72032E-09   -0.30952E-11   168   0.176E-10    0.200E-10
RMM:   2    -0.139450829920E+03   -0.21100E-09    0.00000E+00     0   0.941E-11
 145 F= -.13945083E+03 E0= -.13946329E+03  d E =0.763976E-10
quench:  g(F)=  0.000E+00 g(S)=  0.000E+00 dE (1.order)= 0.000E+00
 bond charge predicted
       N       E                     dE             d eps       ncg     rms          rms(c)
DAV:   1    -0.139450829919E+03    0.36380E-09   -0.24371E-11   168   0.172E-10    0.195E-10
RMM:   2    -0.139450829920E+03   -0.55661E-09    0.00000E+00     0   0.110E-10
 146 F= -.13945083E+03 E0= -.13946329E+03  d E =0.181899E-10
quench:  g(F)=  0.000E+00 g(S)=  0.000E+00 dE (1.order)= 0.000E+00
 bond charge predicted
       N       E                     dE             d eps       ncg     rms          rms(c)
DAV:   1    -0.139450829921E+03   -0.11532E-08   -0.58148E-11   168   0.200E-10    0.198E-10
RMM:   2    -0.139450829920E+03    0.61846E-09    0.00000E+00     0   0.111E-10
 147 F= -.13945083E+03 E0= -.13946329E+03  d E =0.218279E-10
quench:  g(F)=  0.000E+00 g(S)=  0.000E+00 dE (1.order)= 0.000E+00
 bond charge predicted
       N       E                     dE             d eps       ncg     rms          rms(c)
DAV:   1    -0.139450829920E+03    0.37835E-09   -0.10938E-10   168   0.169E-10    0.260E-10
RMM:   2    -0.139450829920E+03    0.23647E-09    0.00000E+00     0   0.118E-10
 148 F= -.13945083E+03 E0= -.13946329E+03  d E =-.363798E-11
quench:  g(F)=  0.000E+00 g(S)=  0.000E+00 dE (1.order)= 0.000E+00
 bond charge predicted
       N       E                     dE             d eps       ncg     rms          rms(c)
DAV:   1    -0.139450829921E+03   -0.67666E-09   -0.36799E-11   168   0.196E-10    0.286E-10
RMM:   2    -0.139450829920E+03    0.72396E-09    0.00000E+00     0   0.138E-10
 149 F= -.13945083E+03 E0= -.13946329E+03  d E =-.189175E-09
quench:  g(F)=  0.000E+00 g(S)=  0.000E+00 dE (1.order)= 0.000E+00
 bond charge predicted
       N       E                     dE             d eps       ncg     rms          rms(c)
DAV:   1    -0.139450829920E+03    0.54206E-09   -0.40316E-11   168   0.190E-10    0.228E-10
RMM:   2    -0.139450829920E+03    0.19645E-09    0.00000E+00     0   0.130E-10
 150 F= -.13945083E+03 E0= -.13946329E+03  d E =0.145519E-10
quench:  g(F)=  0.000E+00 g(S)=  0.000E+00 dE (1.order)= 0.000E+00
 bond charge predicted
       N       E                     dE             d eps       ncg     rms          rms(c)
DAV:   1    -0.139450829920E+03    0.50932E-09   -0.42356E-11   168   0.153E-10    0.198E-10
RMM:   2    -0.139450829920E+03   -0.27285E-09    0.00000E+00     0   0.109E-10
 151 F= -.13945083E+03 E0= -.13946329E+03  d E =0.400178E-10
quench:  g(F)=  0.000E+00 g(S)=  0.000E+00 dE (1.order)= 0.000E+00
 bond charge predicted
       N       E                     dE             d eps       ncg     rms          rms(c)
DAV:   1    -0.139450829920E+03   -0.43656E-10   -0.79627E-11   168   0.139E-10    0.143E-10
RMM:   2    -0.139450829920E+03   -0.24374E-09    0.00000E+00     0   0.901E-11
 152 F= -.13945083E+03 E0= -.13946329E+03  d E =-.145519E-10
quench:  g(F)=  0.000E+00 g(S)=  0.000E+00 dE (1.order)= 0.000E+00
 bond charge predicted
       N       E                     dE             d eps       ncg     rms          rms(c)
DAV:   1    -0.139450829921E+03   -0.84401E-09    0.25024E-13   168   0.997E-11    0.177E-10
RMM:   2    -0.139450829920E+03    0.74942E-09    0.00000E+00     0   0.873E-11
 153 F= -.13945083E+03 E0= -.13946329E+03  d E =0.149157E-09
quench:  g(F)=  0.000E+00 g(S)=  0.000E+00 dE (1.order)= 0.000E+00
 bond charge predicted
       N       E                     dE             d eps       ncg     rms          rms(c)
DAV:   1    -0.139450829920E+03    0.43656E-09    0.50020E-11   168   0.133E-10    0.304E-10
RMM:   2    -0.139450829920E+03    0.19281E-09    0.00000E+00     0   0.135E-10
 154 F= -.13945083E+03 E0= -.13946329E+03  d E =-.120053E-09
quench:  g(F)=  0.000E+00 g(S)=  0.000E+00 dE (1.order)= 0.000E+00
 bond charge predicted
       N       E                     dE             d eps       ncg     rms          rms(c)
DAV:   1    -0.139450829919E+03    0.88039E-09   -0.48469E-11   168   0.205E-10    0.184E-10
RMM:   2    -0.139450829920E+03   -0.68030E-09    0.00000E+00     0   0.123E-10
 155 F= -.13945083E+03 E0= -.13946329E+03  d E =0.727596E-11
quench:  g(F)=  0.000E+00 g(S)=  0.000E+00 dE (1.order)= 0.000E+00
 bond charge predicted
       N       E                     dE             d eps       ncg     rms          rms(c)
DAV:   1    -0.139450829919E+03   -0.54570E-10    0.17282E-11   168   0.139E-10    0.160E-10
RMM:   2    -0.139450829920E+03   -0.71668E-09    0.00000E+00     0   0.797E-11
 156 F= -.13945083E+03 E0= -.13946329E+03  d E =-.909495E-10
quench:  g(F)=  0.000E+00 g(S)=  0.000E+00 dE (1.order)= 0.000E+00
 bond charge predicted
       N       E                     dE             d eps       ncg     rms          rms(c)
DAV:   1    -0.139450829920E+03   -0.39290E-09    0.22918E-11   168   0.130E-10    0.209E-10
RMM:   2    -0.139450829920E+03   -0.24738E-09    0.00000E+00     0   0.103E-10
 157 F= -.13945083E+03 E0= -.13946329E+03  d E =0.763976E-10
quench:  g(F)=  0.000E+00 g(S)=  0.000E+00 dE (1.order)= 0.000E+00
 bond charge predicted
       N       E                     dE             d eps       ncg     rms          rms(c)
DAV:   1    -0.139450829919E+03    0.75306E-09   -0.10407E-10   168   0.150E-10    0.184E-10
RMM:   2    -0.139450829920E+03   -0.96770E-09    0.00000E+00     0   0.957E-11
 158 F= -.13945083E+03 E0= -.13946329E+03  d E =0.327418E-10
quench:  g(F)=  0.000E+00 g(S)=  0.000E+00 dE (1.order)= 0.000E+00
 bond charge predicted
       N       E                     dE             d eps       ncg     rms          rms(c)
DAV:   1    -0.139450829920E+03   -0.76398E-09   -0.54330E-11   168   0.165E-10    0.209E-10
RMM:   2    -0.139450829920E+03   -0.19281E-09    0.00000E+00     0   0.103E-10
 159 F= -.13945083E+03 E0= -.13946329E+03  d E =0.109139E-10
quench:  g(F)=  0.000E+00 g(S)=  0.000E+00 dE (1.order)= 0.000E+00
 bond charge predicted
       N       E                     dE             d eps       ncg     rms          rms(c)
DAV:   1    -0.139450829920E+03    0.19281E-09   -0.40738E-11   168   0.128E-10    0.172E-10
RMM:   2    -0.139450829920E+03   -0.36016E-09    0.00000E+00     0   0.936E-11
 160 F= -.13945083E+03 E0= -.13946329E+03  d E =0.254659E-10
quench:  g(F)=  0.000E+00 g(S)=  0.000E+00 dE (1.order)= 0.000E+00
 bond charge predicted
       N       E                     dE             d eps       ncg     rms          rms(c)
DAV:   1    -0.139450829921E+03   -0.10477E-08   -0.86116E-11   168   0.122E-10    0.327E-10
RMM:   2    -0.139450829920E+03    0.68758E-09    0.00000E+00     0   0.115E-10
 161 F= -.13945083E+03 E0= -.13946329E+03  d E =0.000000E+00
quench:  g(F)=  0.000E+00 g(S)=  0.000E+00 dE (1.order)= 0.000E+00
 bond charge predicted
       N       E                     dE             d eps       ncg     rms          rms(c)
DAV:   1    -0.139450829922E+03   -0.82582E-09   -0.75069E-11   168   0.207E-10    0.341E-10
RMM:   2    -0.139450829920E+03    0.15025E-08    0.00000E+00     0   0.133E-10
 162 F= -.13945083E+03 E0= -.13946329E+03  d E =-.109139E-10
quench:  g(F)=  0.000E+00 g(S)=  0.000E+00 dE (1.order)= 0.000E+00
 bond charge predicted
       N       E                     dE             d eps       ncg     rms          rms(c)
DAV:   1    -0.139450829920E+03    0.14479E-08   -0.54771E-11   168   0.180E-10    0.179E-10
RMM:   2    -0.139450829920E+03    0.32742E-10    0.00000E+00     0   0.100E-10
 163 F= -.13945083E+03 E0= -.13946329E+03  d E =-.218279E-10
quench:  g(F)=  0.000E+00 g(S)=  0.000E+00 dE (1.order)= 0.000E+00
 bond charge predicted
       N       E                     dE             d eps       ncg     rms          rms(c)
DAV:   1    -0.139450829920E+03    0.34561E-09   -0.16883E-11   168   0.142E-10    0.168E-10
RMM:   2    -0.139450829920E+03   -0.31287E-09    0.00000E+00     0   0.914E-11
 164 F= -.13945083E+03 E0= -.13946329E+03  d E =0.000000E+00
quench:  g(F)=  0.000E+00 g(S)=  0.000E+00 dE (1.order)= 0.000E+00
 bond charge predicted
       N       E                     dE             d eps       ncg     rms          rms(c)
DAV:   1    -0.139450829920E+03   -0.33106E-09   -0.42993E-11   168   0.108E-10    0.158E-10
RMM:   2    -0.139450829920E+03   -0.61846E-10    0.00000E+00     0   0.888E-11
 165 F= -.13945083E+03 E0= -.13946329E+03  d E =-.800355E-10
quench:  g(F)=  0.000E+00 g(S)=  0.000E+00 dE (1.order)= 0.000E+00
 bond charge predicted
       N       E                     dE             d eps       ncg     rms          rms(c)
DAV:   1    -0.139450829920E+03   -0.21828E-09   -0.41589E-11   168   0.143E-10    0.203E-10
RMM:   2    -0.139450829920E+03    0.17462E-09    0.00000E+00     0   0.995E-11
 166 F= -.13945083E+03 E0= -.13946329E+03  d E =0.181899E-10
quench:  g(F)=  0.000E+00 g(S)=  0.000E+00 dE (1.order)= 0.000E+00
 bond charge predicted
       N       E                     dE             d eps       ncg     rms          rms(c)
DAV:   1    -0.139450829920E+03    0.16007E-09   -0.45802E-11   168   0.146E-10    0.193E-10
RMM:   2    -0.139450829920E+03   -0.10914E-10    0.00000E+00     0   0.104E-10
 167 F= -.13945083E+03 E0= -.13946329E+03  d E =-.254659E-10
quench:  g(F)=  0.000E+00 g(S)=  0.000E+00 dE (1.order)= 0.000E+00
 bond charge predicted
       N       E                     dE             d eps       ncg     rms          rms(c)
DAV:   1    -0.139450829920E+03   -0.20736E-09   -0.60415E-11   168   0.172E-10    0.140E-10
RMM:   2    -0.139450829920E+03    0.16007E-09    0.00000E+00     0   0.110E-10
 168 F= -.13945083E+03 E0= -.13946329E+03  d E =-.363798E-10
quench:  g(F)=  0.000E+00 g(S)=  0.000E+00 dE (1.order)= 0.000E+00
 bond charge predicted
       N       E                     dE             d eps       ncg     rms          rms(c)
DAV:   1    -0.139450829920E+03    0.23647E-09   -0.10806E-10   168   0.138E-10    0.294E-10
RMM:   2    -0.139450829920E+03   -0.21828E-10    0.00000E+00     0   0.120E-10
 169 F= -.13945083E+03 E0= -.13946329E+03  d E =0.545697E-10
quench:  g(F)=  0.000E+00 g(S)=  0.000E+00 dE (1.order)= 0.000E+00
 bond charge predicted
       N       E                     dE             d eps       ncg     rms          rms(c)
DAV:   1    -0.139450829922E+03   -0.17753E-08   -0.17823E-10   168   0.181E-10    0.176E-10
RMM:   2    -0.139450829920E+03    0.17535E-08    0.00000E+00     0   0.967E-11
 170 F= -.13945083E+03 E0= -.13946329E+03  d E =0.000000E+00
quench:  g(F)=  0.000E+00 g(S)=  0.000E+00 dE (1.order)= 0.000E+00
 bond charge predicted
       N       E                     dE             d eps       ncg     rms          rms(c)
DAV:   1    -0.139450829919E+03    0.25866E-08   -0.18147E-11   168   0.162E-10    0.156E-10
RMM:   2    -0.139450829920E+03   -0.71304E-09    0.00000E+00     0   0.108E-10
 171 F= -.13945083E+03 E0= -.13946329E+03  d E =0.120053E-09
quench:  g(F)=  0.000E+00 g(S)=  0.000E+00 dE (1.order)= 0.000E+00
 bond charge predicted
       N       E                     dE             d eps       ncg     rms          rms(c)
DAV:   1    -0.139450829921E+03   -0.16807E-08   -0.43800E-11   168   0.156E-10    0.154E-10
RMM:   2    -0.139450829920E+03    0.89130E-09    0.00000E+00     0   0.108E-10
 172 F= -.13945083E+03 E0= -.13946329E+03  d E =-.763976E-10
quench:  g(F)=  0.000E+00 g(S)=  0.000E+00 dE (1.order)= 0.000E+00
 bond charge predicted
       N       E                     dE             d eps       ncg     rms          rms(c)
DAV:   1    -0.139450829920E+03    0.14625E-08   -0.55887E-11   168   0.141E-10    0.244E-10
RMM:   2    -0.139450829920E+03   -0.64028E-09    0.00000E+00     0   0.108E-10
 173 F= -.13945083E+03 E0= -.13946329E+03  d E =-.691216E-10
quench:  g(F)=  0.000E+00 g(S)=  0.000E+00 dE (1.order)= 0.000E+00
 bond charge predicted
       N       E                     dE             d eps       ncg     rms          rms(c)
DAV:   1    -0.139450829921E+03   -0.10768E-08   -0.11982E-11   168   0.171E-10    0.225E-10
RMM:   2    -0.139450829920E+03    0.57480E-09    0.00000E+00     0   0.115E-10
 174 F= -.13945083E+03 E0= -.13946329E+03  d E =0.138243E-09
quench:  g(F)=  0.000E+00 g(S)=  0.000E+00 dE (1.order)= 0.000E+00
 bond charge predicted
       N       E                     dE             d eps       ncg     rms          rms(c)
DAV:   1    -0.139450829921E+03   -0.14916E-09   -0.59040E-11   168   0.180E-10    0.214E-10
RMM:   2    -0.139450829920E+03    0.61482E-09    0.00000E+00     0   0.111E-10
 175 F= -.13945083E+03 E0= -.13946329E+03  d E =-.109139E-09
quench:  g(F)=  0.000E+00 g(S)=  0.000E+00 dE (1.order)= 0.000E+00
 bond charge predicted
       N       E                     dE             d eps       ncg     rms          rms(c)
DAV:   1    -0.139450829920E+03    0.92768E-09   -0.24705E-11   168   0.143E-10    0.248E-10
RMM:   2    -0.139450829920E+03   -0.24738E-09    0.00000E+00     0   0.121E-10
 176 F= -.13945083E+03 E0= -.13946329E+03  d E =0.654836E-10
quench:  g(F)=  0.000E+00 g(S)=  0.000E+00 dE (1.order)= 0.000E+00
 bond charge predicted
       N       E                     dE             d eps       ncg     rms          rms(c)
DAV:   1    -0.139450829920E+03   -0.17826E-09   -0.58939E-11   168   0.203E-10    0.191E-10
RMM:   2    -0.139450829920E+03   -0.61846E-10    0.00000E+00     0   0.105E-10
 177 F= -.13945083E+03 E0= -.13946329E+03  d E =0.727596E-11
quench:  g(F)=  0.000E+00 g(S)=  0.000E+00 dE (1.order)= 0.000E+00
 bond charge predicted
       N       E                     dE             d eps       ncg     rms          rms(c)
DAV:   1    -0.139450829920E+03    0.24374E-09   -0.55351E-11   168   0.165E-10    0.179E-10
RMM:   2    -0.139450829920E+03   -0.24374E-09    0.00000E+00     0   0.130E-10
 178 F= -.13945083E+03 E0= -.13946329E+03  d E =0.618456E-10
quench:  g(F)=  0.000E+00 g(S)=  0.000E+00 dE (1.order)= 0.000E+00
 bond charge predicted
       N       E                     dE             d eps       ncg     rms          rms(c)
DAV:   1    -0.139450829919E+03    0.26557E-09   -0.46745E-11   168   0.153E-10    0.152E-10
RMM:   2    -0.139450829920E+03   -0.58208E-09    0.00000E+00     0   0.109E-10
 179 F= -.13945083E+03 E0= -.13946329E+03  d E =-.727596E-10
quench:  g(F)=  0.000E+00 g(S)=  0.000E+00 dE (1.order)= 0.000E+00
 bond charge predicted
       N       E                     dE             d eps       ncg     rms          rms(c)
DAV:   1    -0.139450829920E+03   -0.13824E-09   -0.75157E-12   168   0.132E-10    0.284E-10
RMM:   2    -0.139450829920E+03   -0.51296E-09    0.00000E+00     0   0.123E-10
 180 F= -.13945083E+03 E0= -.13946329E+03  d E =-.691216E-10
quench:  g(F)=  0.000E+00 g(S)=  0.000E+00 dE (1.order)= 0.000E+00
 bond charge predicted
       N       E                     dE             d eps       ncg     rms          rms(c)
DAV:   1    -0.139450829920E+03   -0.82582E-09   -0.89075E-11   168   0.225E-10    0.153E-10
RMM:   2    -0.139450829920E+03    0.47294E-09    0.00000E+00     0   0.123E-10
 181 F= -.13945083E+03 E0= -.13946329E+03  d E =0.160071E-09
quench:  g(F)=  0.000E+00 g(S)=  0.000E+00 dE (1.order)= 0.000E+00
 bond charge predicted
       N       E                     dE             d eps       ncg     rms          rms(c)
DAV:   1    -0.139450829921E+03   -0.23647E-09   -0.81452E-11   168   0.127E-10    0.247E-10
RMM:   2    -0.139450829920E+03    0.53478E-09    0.00000E+00     0   0.105E-10
 182 F= -.13945083E+03 E0= -.13946329E+03  d E =-.174623E-09
quench:  g(F)=  0.000E+00 g(S)=  0.000E+00 dE (1.order)= 0.000E+00
 bond charge predicted
       N       E                     dE             d eps       ncg     rms          rms(c)
DAV:   1    -0.139450829920E+03    0.67303E-09   -0.67035E-11   168   0.190E-10    0.281E-10
RMM:   2    -0.139450829920E+03   -0.43656E-10    0.00000E+00     0   0.127E-10
 183 F= -.13945083E+03 E0= -.13946329E+03  d E =0.945874E-10
quench:  g(F)=  0.000E+00 g(S)=  0.000E+00 dE (1.order)= 0.000E+00
 bond charge predicted
       N       E                     dE             d eps       ncg     rms          rms(c)
DAV:   1    -0.139450829920E+03    0.25102E-09   -0.73818E-11   168   0.213E-10    0.385E-10
RMM:   2    -0.139450829920E+03   -0.25830E-09    0.00000E+00     0   0.153E-10
 184 F= -.13945083E+03 E0= -.13946329E+03  d E =0.363798E-10
quench:  g(F)=  0.000E+00 g(S)=  0.000E+00 dE (1.order)= 0.000E+00
[...]
 bond charge predicted
       N       E                     dE             d eps       ncg     rms          rms(c)
DAV:   1    -0.139450829920E+03    0.14552E-09   -0.79672E-11   168   0.128E-10    0.268E-10
RMM:   2    -0.139450829920E+03   -0.50932E-10    0.00000E+00     0   0.110E-10
 453 F= -.13945083E+03 E0= -.13946329E+03  d E =-.763976E-10
quench:  g(F)=  0.000E+00 g(S)=  0.000E+00 dE (1.order)= 0.000E+00
 bond charge predicted
       N       E                     dE             d eps       ncg     rms          rms(c)
DAV:   1    -0.139450829919E+03    0.13424E-08    0.24925E-11   168   0.167E-10    0.317E-10
RMM:   2    -0.139450829920E+03   -0.13242E-08    0.00000E+00     0   0.128E-10
 454 F= -.13945083E+03 E0= -.13946329E+03  d E =0.691216E-10
quench:  g(F)=  0.000E+00 g(S)=  0.000E+00 dE (1.order)= 0.000E+00
 bond charge predicted
       N       E                     dE             d eps       ncg     rms          rms(c)
DAV:   1    -0.139450829919E+03   -0.40018E-09   -0.10170E-10   168   0.200E-10    0.230E-10
RMM:   2    -0.139450829920E+03   -0.83310E-09    0.00000E+00     0   0.995E-11
 455 F= -.13945083E+03 E0= -.13946329E+03  d E =0.909495E-10
quench:  g(F)=  0.000E+00 g(S)=  0.000E+00 dE (1.order)= 0.000E+00
 bond charge predicted
       N       E                     dE             d eps       ncg     rms          rms(c)
DAV:   1    -0.139450829920E+03   -0.53478E-09   -0.18526E-11   168   0.196E-10    0.242E-10
RMM:   2    -0.139450829920E+03   -0.41837E-09    0.00000E+00     0   0.125E-10
 456 F= -.13945083E+03 E0= -.13946329E+03  d E =-.120053E-09
quench:  g(F)=  0.000E+00 g(S)=  0.000E+00 dE (1.order)= 0.000E+00
 bond charge predicted
       N       E                     dE             d eps       ncg     rms          rms(c)
DAV:   1    -0.139450829920E+03   -0.58208E-09   -0.38515E-11   168   0.186E-10    0.187E-10
RMM:   2    -0.139450829920E+03    0.13097E-09    0.00000E+00     0   0.100E-10
 457 F= -.13945083E+03 E0= -.13946329E+03  d E =-.327418E-10
quench:  g(F)=  0.000E+00 g(S)=  0.000E+00 dE (1.order)= 0.000E+00
 bond charge predicted
       N       E                     dE             d eps       ncg     rms          rms(c)
DAV:   1    -0.139450829920E+03    0.50568E-09   -0.11341E-10   168   0.129E-10    0.160E-10
RMM:   2    -0.139450829920E+03   -0.30559E-09    0.00000E+00     0   0.977E-11
 458 F= -.13945083E+03 E0= -.13946329E+03  d E =0.691216E-10
quench:  g(F)=  0.000E+00 g(S)=  0.000E+00 dE (1.order)= 0.000E+00
 bond charge predicted
       N       E                     dE             d eps       ncg     rms          rms(c)
DAV:   1    -0.139450829920E+03   -0.36380E-10   -0.21463E-11   168   0.131E-10    0.256E-10
RMM:   2    -0.139450829920E+03   -0.25466E-09    0.00000E+00     0   0.964E-11
 459 F= -.13945083E+03 E0= -.13946329E+03  d E =0.145519E-10
quench:  g(F)=  0.000E+00 g(S)=  0.000E+00 dE (1.order)= 0.000E+00
 bond charge predicted
       N       E                     dE             d eps       ncg     rms          rms(c)
DAV:   1    -0.139450829920E+03    0.21828E-10   -0.18733E-11   168   0.147E-10    0.211E-10
RMM:   2    -0.139450829920E+03   -0.22192E-09    0.00000E+00     0   0.109E-10
 460 F= -.13945083E+03 E0= -.13946329E+03  d E =0.545697E-10
quench:  g(F)=  0.000E+00 g(S)=  0.000E+00 dE (1.order)= 0.000E+00
 bond charge predicted
       N       E                     dE             d eps       ncg     rms          rms(c)
DAV:   1    -0.139450829920E+03   -0.66575E-09   -0.94955E-12   168   0.194E-10    0.301E-10
RMM:   2    -0.139450829920E+03    0.36744E-09    0.00000E+00     0   0.156E-10
 461 F= -.13945083E+03 E0= -.13946329E+03  d E =-.763976E-10
quench:  g(F)=  0.000E+00 g(S)=  0.000E+00 dE (1.order)= 0.000E+00
 bond charge predicted
       N       E                     dE             d eps       ncg     rms          rms(c)
DAV:   1    -0.139450829919E+03    0.15170E-08   -0.61375E-11   168   0.237E-10    0.340E-10
RMM:   2    -0.139450829920E+03   -0.12042E-08    0.00000E+00     0   0.151E-10
 462 F= -.13945083E+03 E0= -.13946329E+03  d E =-.545697E-10
quench:  g(F)=  0.000E+00 g(S)=  0.000E+00 dE (1.order)= 0.000E+00
 bond charge predicted
       N       E                     dE             d eps       ncg     rms          rms(c)
DAV:   1    -0.139450829919E+03   -0.34925E-09    0.51809E-11   168   0.202E-10    0.241E-10
RMM:   2    -0.139450829920E+03   -0.71304E-09    0.00000E+00     0   0.137E-10
 463 F= -.13945083E+03 E0= -.13946329E+03  d E =0.141881E-09
quench:  g(F)=  0.000E+00 g(S)=  0.000E+00 dE (1.order)= 0.000E+00
 bond charge predicted
       N       E                     dE             d eps       ncg     rms          rms(c)
DAV:   1    -0.139450829921E+03   -0.14843E-08    0.17446E-11   168   0.178E-10    0.234E-10
RMM:   2    -0.139450829920E+03    0.71304E-09    0.00000E+00     0   0.109E-10
 464 F= -.13945083E+03 E0= -.13946329E+03  d E =-.582077E-10
quench:  g(F)=  0.000E+00 g(S)=  0.000E+00 dE (1.order)= 0.000E+00
 bond charge predicted
       N       E                     dE             d eps       ncg     rms          rms(c)
DAV:   1    -0.139450829920E+03    0.53114E-09   -0.62786E-11   168   0.138E-10    0.199E-10
RMM:   2    -0.139450829920E+03    0.94587E-10    0.00000E+00     0   0.880E-11
 465 F= -.13945083E+03 E0= -.13946329E+03  d E =-.873115E-10
quench:  g(F)=  0.000E+00 g(S)=  0.000E+00 dE (1.order)= 0.000E+00
 bond charge predicted
       N       E                     dE             d eps       ncg     rms          rms(c)
DAV:   1    -0.139450829921E+03   -0.58935E-09   -0.49575E-11   168   0.167E-10    0.288E-10
RMM:   2    -0.139450829920E+03    0.69122E-09    0.00000E+00     0   0.126E-10
 466 F= -.13945083E+03 E0= -.13946329E+03  d E =0.727596E-11
quench:  g(F)=  0.000E+00 g(S)=  0.000E+00 dE (1.order)= 0.000E+00
 bond charge predicted
       N       E                     dE             d eps       ncg     rms          rms(c)
DAV:   1    -0.139450829921E+03    0.16371E-09    0.17392E-11   168   0.157E-10    0.159E-10
RMM:   2    -0.139450829920E+03    0.52751E-09    0.00000E+00     0   0.870E-11
 467 F= -.13945083E+03 E0= -.13946329E+03  d E =0.000000E+00
quench:  g(F)=  0.000E+00 g(S)=  0.000E+00 dE (1.order)= 0.000E+00
 bond charge predicted
       N       E                     dE             d eps       ncg     rms          rms(c)
DAV:   1    -0.139450829920E+03    0.26557E-09   -0.91526E-11   168   0.122E-10    0.238E-10
RMM:   2    -0.139450829920E+03    0.29104E-09    0.00000E+00     0   0.111E-10
 468 F= -.13945083E+03 E0= -.13946329E+03  d E =0.291038E-10
quench:  g(F)=  0.000E+00 g(S)=  0.000E+00 dE (1.order)= 0.000E+00
 bond charge predicted
       N       E                     dE             d eps       ncg     rms          rms(c)
DAV:   1    -0.139450829920E+03    0.29831E-09   -0.13999E-10   168   0.251E-10    0.142E-10
RMM:   2    -0.139450829920E+03   -0.72760E-11    0.00000E+00     0   0.943E-11
 469 F= -.13945083E+03 E0= -.13946329E+03  d E =0.000000E+00
quench:  g(F)=  0.000E+00 g(S)=  0.000E+00 dE (1.order)= 0.000E+00
 bond charge predicted
       N       E                     dE             d eps       ncg     rms          rms(c)
DAV:   1    -0.139450829920E+03   -0.14916E-09   -0.51419E-11   168   0.114E-10    0.267E-10
RMM:   2    -0.139450829920E+03    0.16735E-09    0.00000E+00     0   0.106E-10
 470 F= -.13945083E+03 E0= -.13946329E+03  d E =0.254659E-10
quench:  g(F)=  0.000E+00 g(S)=  0.000E+00 dE (1.order)= 0.000E+00
 bond charge predicted
       N       E                     dE             d eps       ncg     rms          rms(c)
DAV:   1    -0.139450829919E+03    0.89130E-09   -0.44778E-11   168   0.152E-10    0.255E-10
RMM:   2    -0.139450829920E+03   -0.64392E-09    0.00000E+00     0   0.116E-10
 471 F= -.13945083E+03 E0= -.13946329E+03  d E =0.800355E-10
quench:  g(F)=  0.000E+00 g(S)=  0.000E+00 dE (1.order)= 0.000E+00
 bond charge predicted
       N       E                     dE             d eps       ncg     rms          rms(c)
DAV:   1    -0.139450829920E+03   -0.54570E-09    0.31467E-12   168   0.168E-10    0.165E-10
RMM:   2    -0.139450829920E+03   -0.12733E-09    0.00000E+00     0   0.898E-11
 472 F= -.13945083E+03 E0= -.13946329E+03  d E =-.291038E-10
quench:  g(F)=  0.000E+00 g(S)=  0.000E+00 dE (1.order)= 0.000E+00
 bond charge predicted
       N       E                     dE             d eps       ncg     rms          rms(c)
DAV:   1    -0.139450829919E+03    0.45475E-09   -0.36682E-11   168   0.156E-10    0.263E-10
RMM:   2    -0.139450829920E+03   -0.68758E-09    0.00000E+00     0   0.122E-10
 473 F= -.13945083E+03 E0= -.13946329E+03  d E =-.105501E-09
quench:  g(F)=  0.000E+00 g(S)=  0.000E+00 dE (1.order)= 0.000E+00
 bond charge predicted
       N       E                     dE             d eps       ncg     rms          rms(c)
DAV:   1    -0.139450829920E+03   -0.10186E-08   -0.70166E-11   168   0.202E-10    0.203E-10
RMM:   2    -0.139450829920E+03    0.28012E-09    0.00000E+00     0   0.104E-10
 474 F= -.13945083E+03 E0= -.13946329E+03  d E =-.509317E-10
quench:  g(F)=  0.000E+00 g(S)=  0.000E+00 dE (1.order)= 0.000E+00
 bond charge predicted
       N       E                     dE             d eps       ncg     rms          rms(c)
DAV:   1    -0.139450829920E+03    0.23647E-09   -0.34004E-11   168   0.147E-10    0.226E-10
RMM:   2    -0.139450829920E+03    0.80036E-10    0.00000E+00     0   0.110E-10
 475 F= -.13945083E+03 E0= -.13946329E+03  d E =0.363798E-10
quench:  g(F)=  0.000E+00 g(S)=  0.000E+00 dE (1.order)= 0.000E+00
 bond charge predicted
       N       E                     dE             d eps       ncg     rms          rms(c)
DAV:   1    -0.139450829920E+03   -0.10914E-10   -0.21919E-11   168   0.184E-10    0.210E-10
RMM:   2    -0.139450829920E+03    0.87311E-10    0.00000E+00     0   0.112E-10
 476 F= -.13945083E+03 E0= -.13946329E+03  d E =-.363798E-11
quench:  g(F)=  0.000E+00 g(S)=  0.000E+00 dE (1.order)= 0.000E+00
 bond charge predicted
       N       E                     dE             d eps       ncg     rms          rms(c)
DAV:   1    -0.139450829920E+03    0.22555E-09   -0.47751E-11   168   0.162E-10    0.190E-10
RMM:   2    -0.139450829920E+03   -0.47294E-10    0.00000E+00     0   0.913E-11
 477 F= -.13945083E+03 E0= -.13946329E+03  d E =0.909495E-10
quench:  g(F)=  0.000E+00 g(S)=  0.000E+00 dE (1.order)= 0.000E+00
 bond charge predicted
       N       E                     dE             d eps       ncg     rms          rms(c)
DAV:   1    -0.139450829920E+03    0.30923E-09    0.63237E-12   168   0.142E-10    0.204E-10
RMM:   2    -0.139450829920E+03   -0.35652E-09    0.00000E+00     0   0.115E-10
 478 F= -.13945083E+03 E0= -.13946329E+03  d E =0.000000E+00
quench:  g(F)=  0.000E+00 g(S)=  0.000E+00 dE (1.order)= 0.000E+00
 bond charge predicted
       N       E                     dE             d eps       ncg     rms          rms(c)
DAV:   1    -0.139450829920E+03    0.47294E-10   -0.46561E-11   168   0.135E-10    0.188E-10
RMM:   2    -0.139450829920E+03   -0.47294E-09    0.00000E+00     0   0.922E-11
 479 F= -.13945083E+03 E0= -.13946329E+03  d E =-.691216E-10
quench:  g(F)=  0.000E+00 g(S)=  0.000E+00 dE (1.order)= 0.000E+00
 bond charge predicted
       N       E                     dE             d eps       ncg     rms          rms(c)
DAV:   1    -0.139450829920E+03   -0.47658E-09    0.10425E-11   168   0.134E-10    0.192E-10
RMM:   2    -0.139450829920E+03    0.12005E-09    0.00000E+00     0   0.968E-11
 480 F= -.13945083E+03 E0= -.13946329E+03  d E =0.116415E-09
quench:  g(F)=  0.000E+00 g(S)=  0.000E+00 dE (1.order)= 0.000E+00
 bond charge predicted
       N       E                     dE             d eps       ncg     rms          rms(c)
DAV:   1    -0.139450829920E+03    0.51296E-09   -0.11959E-10   168   0.159E-10    0.210E-10
RMM:   2    -0.139450829920E+03   -0.49840E-09    0.00000E+00     0   0.114E-10
 481 F= -.13945083E+03 E0= -.13946329E+03  d E =-.105501E-09
quench:  g(F)=  0.000E+00 g(S)=  0.000E+00 dE (1.order)= 0.000E+00
 bond charge predicted
       N       E                     dE             d eps       ncg     rms          rms(c)
DAV:   1    -0.139450829921E+03   -0.13206E-08   -0.14053E-11   168   0.144E-10    0.219E-10
RMM:   2    -0.139450829920E+03    0.78580E-09    0.00000E+00     0   0.932E-11
 482 F= -.13945083E+03 E0= -.13946329E+03  d E =-.363798E-10
quench:  g(F)=  0.000E+00 g(S)=  0.000E+00 dE (1.order)= 0.000E+00
 bond charge predicted
       N       E                     dE             d eps       ncg     rms          rms(c)
DAV:   1    -0.139450829920E+03    0.61118E-09   -0.45797E-11   168   0.145E-10    0.224E-10
RMM:   2    -0.139450829920E+03    0.30923E-09    0.00000E+00     0   0.113E-10
 483 F= -.13945083E+03 E0= -.13946329E+03  d E =0.134605E-09
quench:  g(F)=  0.000E+00 g(S)=  0.000E+00 dE (1.order)= 0.000E+00
 bond charge predicted
       N       E                     dE             d eps       ncg     rms          rms(c)
DAV:   1    -0.139450829919E+03    0.14770E-08   -0.63025E-12   168   0.163E-10    0.266E-10
RMM:   2    -0.139450829920E+03   -0.12551E-08    0.00000E+00     0   0.114E-10
 484 F= -.13945083E+03 E0= -.13946329E+03  d E =-.873115E-10
quench:  g(F)=  0.000E+00 g(S)=  0.000E+00 dE (1.order)= 0.000E+00
 bond charge predicted
       N       E                     dE             d eps       ncg     rms          rms(c)
DAV:   1    -0.139450829920E+03   -0.16298E-08   -0.27828E-11   168   0.177E-10    0.263E-10
RMM:   2    -0.139450829920E+03    0.38199E-09    0.00000E+00     0   0.114E-10
 485 F= -.13945083E+03 E0= -.13946329E+03  d E =0.727596E-11
quench:  g(F)=  0.000E+00 g(S)=  0.000E+00 dE (1.order)= 0.000E+00
 bond charge predicted
       N       E                     dE             d eps       ncg     rms          rms(c)
DAV:   1    -0.139450829919E+03    0.11896E-08   -0.89114E-11   168   0.150E-10    0.199E-10
RMM:   2    -0.139450829920E+03   -0.81127E-09    0.00000E+00     0   0.821E-11
 486 F= -.13945083E+03 E0= -.13946329E+03  d E =-.363798E-11
quench:  g(F)=  0.000E+00 g(S)=  0.000E+00 dE (1.order)= 0.000E+00
 bond charge predicted
       N       E                     dE             d eps       ncg     rms          rms(c)
DAV:   1    -0.139450829920E+03   -0.64756E-09   -0.25184E-11   168   0.134E-10    0.345E-10
RMM:   2    -0.139450829920E+03   -0.17462E-09    0.00000E+00     0   0.127E-10
 487 F= -.13945083E+03 E0= -.13946329E+03  d E =-.109139E-10
quench:  g(F)=  0.000E+00 g(S)=  0.000E+00 dE (1.order)= 0.000E+00
 bond charge predicted
       N       E                     dE             d eps       ncg     rms          rms(c)
DAV:   1    -0.139450829920E+03   -0.25102E-09   -0.85711E-11   168   0.227E-10    0.249E-10
RMM:   2    -0.139450829920E+03    0.87311E-10    0.00000E+00     0   0.103E-10
 488 F= -.13945083E+03 E0= -.13946329E+03  d E =0.109139E-10
quench:  g(F)=  0.000E+00 g(S)=  0.000E+00 dE (1.order)= 0.000E+00
 bond charge predicted
       N       E                     dE             d eps       ncg     rms          rms(c)
DAV:   1    -0.139450829919E+03    0.84401E-09   -0.20827E-11   168   0.187E-10    0.210E-10
RMM:   2    -0.139450829920E+03   -0.67303E-09    0.00000E+00     0   0.100E-10
 489 F= -.13945083E+03 E0= -.13946329E+03  d E =0.836735E-10
quench:  g(F)=  0.000E+00 g(S)=  0.000E+00 dE (1.order)= 0.000E+00
 bond charge predicted
       N       E                     dE             d eps       ncg     rms          rms(c)
DAV:   1    -0.139450829920E+03   -0.18917E-09   -0.32281E-11   168   0.185E-10    0.164E-10
RMM:   2    -0.139450829920E+03   -0.60754E-09    0.00000E+00     0   0.105E-10
 490 F= -.13945083E+03 E0= -.13946329E+03  d E =-.123691E-09
quench:  g(F)=  0.000E+00 g(S)=  0.000E+00 dE (1.order)= 0.000E+00
 bond charge predicted
       N       E                     dE             d eps       ncg     rms          rms(c)
DAV:   1    -0.139450829922E+03   -0.22555E-08   -0.75267E-11   168   0.125E-10    0.388E-10
RMM:   2    -0.139450829920E+03    0.16298E-08    0.00000E+00     0   0.146E-10
 491 F= -.13945083E+03 E0= -.13946329E+03  d E =-.181899E-10
quench:  g(F)=  0.000E+00 g(S)=  0.000E+00 dE (1.order)= 0.000E+00
 bond charge predicted
       N       E                     dE             d eps       ncg     rms          rms(c)
DAV:   1    -0.139450829920E+03    0.13788E-08   -0.70189E-12   168   0.202E-10    0.230E-10
RMM:   2    -0.139450829920E+03    0.25466E-09    0.00000E+00     0   0.112E-10
 492 F= -.13945083E+03 E0= -.13946329E+03  d E =0.363798E-11
quench:  g(F)=  0.000E+00 g(S)=  0.000E+00 dE (1.order)= 0.000E+00
 bond charge predicted
       N       E                     dE             d eps       ncg     rms          rms(c)
DAV:   1    -0.139450829920E+03    0.14916E-09   -0.90016E-11   168   0.177E-10    0.169E-10
RMM:   2    -0.139450829920E+03    0.21828E-09    0.00000E+00     0   0.114E-10
 493 F= -.13945083E+03 E0= -.13946329E+03  d E =0.112777E-09
quench:  g(F)=  0.000E+00 g(S)=  0.000E+00 dE (1.order)= 0.000E+00
 bond charge predicted
       N       E                     dE             d eps       ncg     rms          rms(c)
DAV:   1    -0.139450829919E+03    0.97134E-09   -0.88968E-12   168   0.144E-10    0.132E-10
RMM:   2    -0.139450829920E+03   -0.76761E-09    0.00000E+00     0   0.102E-10
 494 F= -.13945083E+03 E0= -.13946329E+03  d E =-.145519E-10
quench:  g(F)=  0.000E+00 g(S)=  0.000E+00 dE (1.order)= 0.000E+00
 bond charge predicted
       N       E                     dE             d eps       ncg     rms          rms(c)
DAV:   1    -0.139450829920E+03   -0.74215E-09    0.75668E-12   168   0.148E-10    0.114E-10
RMM:   2    -0.139450829920E+03    0.61846E-10    0.00000E+00     0   0.107E-10
 495 F= -.13945083E+03 E0= -.13946329E+03  d E =0.873115E-10
quench:  g(F)=  0.000E+00 g(S)=  0.000E+00 dE (1.order)= 0.000E+00
 bond charge predicted
       N       E                     dE             d eps       ncg     rms          rms(c)
DAV:   1    -0.139450829920E+03   -0.25102E-09   -0.88665E-11   168   0.143E-10    0.242E-10
RMM:   2    -0.139450829920E+03    0.32378E-09    0.00000E+00     0   0.107E-10
 496 F= -.13945083E+03 E0= -.13946329E+03  d E =0.109139E-10
quench:  g(F)=  0.000E+00 g(S)=  0.000E+00 dE (1.order)= 0.000E+00
 bond charge predicted
       N       E                     dE             d eps       ncg     rms          rms(c)
DAV:   1    -0.139450829921E+03   -0.36744E-09   -0.47291E-11   168   0.172E-10    0.225E-10
RMM:   2    -0.139450829920E+03    0.49113E-09    0.00000E+00     0   0.106E-10
 497 F= -.13945083E+03 E0= -.13946329E+03  d E =-.200089E-09
quench:  g(F)=  0.000E+00 g(S)=  0.000E+00 dE (1.order)= 0.000E+00
 bond charge predicted
       N       E                     dE             d eps       ncg     rms          rms(c)
DAV:   1    -0.139450829920E+03    0.88403E-09   -0.78921E-11   168   0.148E-10    0.241E-10
RMM:   2    -0.139450829920E+03   -0.22192E-09    0.00000E+00     0   0.125E-10
 498 F= -.13945083E+03 E0= -.13946329E+03  d E =0.170985E-09
quench:  g(F)=  0.000E+00 g(S)=  0.000E+00 dE (1.order)= 0.000E+00
 bond charge predicted
       N       E                     dE             d eps       ncg     rms          rms(c)
DAV:   1    -0.139450829920E+03   -0.44383E-09   -0.97160E-11   168   0.195E-10    0.329E-10
RMM:   2    -0.139450829920E+03    0.15280E-09    0.00000E+00     0   0.147E-10
 499 F= -.13945083E+03 E0= -.13946329E+03  d E =-.691216E-10
quench:  g(F)=  0.000E+00 g(S)=  0.000E+00 dE (1.order)= 0.000E+00
 bond charge predicted
       N       E                     dE             d eps       ncg     rms          rms(c)
DAV:   1    -0.139450829921E+03   -0.74942E-09   -0.42732E-11   168   0.188E-10    0.333E-10
RMM:   2    -0.139450829920E+03    0.89858E-09    0.00000E+00     0   0.131E-10
 500 F= -.13945083E+03 E0= -.13946329E+03  d E =-.363798E-11
quench:  g(F)=  0.000E+00 g(S)=  0.000E+00 dE (1.order)= 0.000E+00
