 vasp.6.3.2 27Jun22 (build Jun 14 2024 17:29:11) complex                         
 POSCAR found type information on POSCAR NaAlS 
 09/POSCAR found :  3 types and      79 ions
 LDA part: xc-table for Pade appr. of Perdew
 POSCAR found type information on POSCAR NaAlS 
 00/POSCAR found :  3 types and      79 ions
 POSCAR found type information on POSCAR NaAlS 
 10/POSCAR found :  3 types and      79 ions
 POSCAR, INCAR and KPOINTS ok, starting setup
 FFT: planning ... GRIDC
 FFT: planning ... GRID_SOFT
 FFT: planning ... GRID
 WAVECAR not read
 entering main loop
       N       E                     dE             d eps       ncg     rms          rms(c)
DAV:   1     0.514112807814E+04    0.51411E+04   -0.22072E+05   615   0.163E+03
DAV:   2     0.470463617250E+03   -0.46707E+04   -0.45015E+04   633   0.441E+02
DAV:   3    -0.268601422755E+03   -0.73907E+03   -0.72761E+03   702   0.184E+02
DAV:   4    -0.320592132049E+03   -0.51991E+02   -0.51478E+02   672   0.431E+01
DAV:   5    -0.322923668236E+03   -0.23315E+01   -0.23265E+01   825   0.963E+00    0.269E+01
RMM:   6    -0.305244419129E+03    0.17679E+02   -0.30054E+01   636   0.588E+00    0.178E+01
RMM:   7    -0.304440829850E+03    0.80359E+00   -0.37736E+01   652   0.550E+00    0.112E+01
RMM:   8    -0.303971361172E+03    0.46947E+00   -0.25136E+00   727   0.288E+00    0.654E+00
RMM:   9    -0.303900492548E+03    0.70869E-01   -0.25144E+00   635   0.185E+00    0.237E+00
RMM:  10    -0.303759448471E+03    0.14104E+00   -0.25720E-01   712   0.105E+00    0.178E+00
RMM:  11    -0.303732798363E+03    0.26650E-01   -0.10873E-01   786   0.455E-01    0.126E+00
RMM:  12    -0.303734290592E+03   -0.14922E-02   -0.93543E-02   686   0.316E-01    0.847E-01
RMM:  13    -0.303731360816E+03    0.29298E-02   -0.17834E-02   673   0.203E-01    0.556E-01
RMM:  14    -0.303735325470E+03   -0.39647E-02   -0.15267E-02   655   0.171E-01    0.337E-01
RMM:  15    -0.303733646435E+03    0.16790E-02   -0.37301E-03   755   0.913E-02    0.306E-01
RMM:  16    -0.303733399768E+03    0.24667E-03   -0.26699E-03   649   0.660E-02    0.165E-01
RMM:  17    -0.303733855914E+03   -0.45615E-03   -0.14581E-03   626   0.545E-02    0.111E-01
RMM:  18    -0.303733718827E+03    0.13709E-03   -0.29086E-04   735   0.296E-02    0.562E-02
RMM:  19    -0.303733816013E+03   -0.97187E-04   -0.13816E-04   672   0.175E-02    0.526E-02
RMM:  20    -0.303733686738E+03    0.12928E-03   -0.47010E-05   630   0.129E-02    0.169E-02
RMM:  21    -0.303733683960E+03    0.27771E-05   -0.21821E-05   687   0.735E-03    0.966E-03
RMM:  22    -0.303733683185E+03    0.77523E-06   -0.33128E-06   444   0.340E-03
   1 F= -.30373368E+03 E0= -.30378128E+03  d E =-.303734E+03
quench:  g(F)=  0.000E+00 g(S)=  0.000E+00 dE (1.order)= 0.000E+00
 bond charge predicted
       N       E                     dE             d eps       ncg     rms          rms(c)
DAV:   1    -0.303733684523E+03   -0.56279E-06   -0.18558E-06   354   0.422E-03    0.427E-03
RMM:   2    -0.303733685890E+03   -0.13672E-05   -0.25801E-06   445   0.221E-03    0.775E-03
RMM:   3    -0.303733683750E+03    0.21401E-05   -0.91776E-07   352   0.164E-03    0.180E-03
RMM:   4    -0.303733683662E+03    0.88090E-07   -0.31223E-07   341   0.133E-03
   2 F= -.30373368E+03 E0= -.30378127E+03  d E =-.476990E-06
quench:  g(F)=  0.000E+00 g(S)=  0.000E+00 dE (1.order)= 0.000E+00
 bond charge predicted
       N       E                     dE             d eps       ncg     rms          rms(c)
DAV:   1    -0.303733683579E+03    0.17155E-06   -0.13512E-07   384   0.137E-03    0.822E-04
RMM:   2    -0.303733683550E+03    0.29017E-07   -0.19662E-08   194   0.491E-04
   3 F= -.30373368E+03 E0= -.30378127E+03  d E =0.112479E-06
quench:  g(F)=  0.000E+00 g(S)=  0.000E+00 dE (1.order)= 0.000E+00
 bond charge predicted
       N       E                     dE             d eps       ncg     rms          rms(c)
DAV:   1    -0.303733683538E+03    0.40687E-07   -0.45893E-08   402   0.586E-04    0.515E-04
RMM:   2    -0.303733683538E+03    0.57480E-09   -0.11383E-10    83   0.338E-04
   4 F= -.30373368E+03 E0= -.30378127E+03  d E =0.122454E-07
quench:  g(F)=  0.000E+00 g(S)=  0.000E+00 dE (1.order)= 0.000E+00
 bond charge predicted
       N       E                     dE             d eps       ncg     rms          rms(c)
DAV:   1    -0.303733683534E+03    0.43146E-08   -0.27831E-08   393   0.442E-04    0.310E-04
RMM:   2    -0.303733683532E+03    0.20300E-08    0.70954-197    69   0.254E-04
   5 F= -.30373368E+03 E0= -.30378127E+03  d E =0.576983E-08
quench:  g(F)=  0.000E+00 g(S)=  0.000E+00 dE (1.order)= 0.000E+00
 bond charge predicted
       N       E                     dE             d eps       ncg     rms          rms(c)
DAV:   1    -0.303733683531E+03    0.29249E-08   -0.16602E-08   384   0.298E-04    0.232E-04
RMM:   2    -0.303733683530E+03    0.40745E-09    0.40803-197    54   0.204E-04
   6 F= -.30373368E+03 E0= -.30378126E+03  d E =0.130240E-08
quench:  g(F)=  0.000E+00 g(S)=  0.000E+00 dE (1.order)= 0.000E+00
 bond charge predicted
       N       E                     dE             d eps       ncg     rms          rms(c)
DAV:   1    -0.303733683530E+03    0.43656E-09   -0.77368E-09   375   0.233E-04    0.146E-04
RMM:   2    -0.303733683529E+03    0.12224E-08    0.55996-221    42   0.148E-04
   7 F= -.30373368E+03 E0= -.30378126E+03  d E =0.125146E-08
quench:  g(F)=  0.000E+00 g(S)=  0.000E+00 dE (1.order)= 0.000E+00
 bond charge predicted
       N       E                     dE             d eps       ncg     rms          rms(c)
DAV:   1    -0.303733683528E+03    0.20736E-08   -0.41980E-09   366   0.167E-04    0.796E-05
RMM:   2    -0.303733683528E+03    0.33469E-09    0.52793-221    38   0.114E-04
   8 F= -.30373368E+03 E0= -.30378126E+03  d E =0.118598E-08
quench:  g(F)=  0.000E+00 g(S)=  0.000E+00 dE (1.order)= 0.000E+00
 bond charge predicted
       N       E                     dE             d eps       ncg     rms          rms(c)
DAV:   1    -0.303733683527E+03    0.10405E-08   -0.19485E-09   339   0.121E-04    0.831E-05
RMM:   2    -0.303733683527E+03    0.51659E-09    0.19361-289    33   0.797E-05
   9 F= -.30373368E+03 E0= -.30378126E+03  d E =0.122236E-08
quench:  g(F)=  0.000E+00 g(S)=  0.000E+00 dE (1.order)= 0.000E+00
 bond charge predicted
       N       E                     dE             d eps       ncg     rms          rms(c)
DAV:   1    -0.303733683526E+03    0.93860E-09   -0.12209E-09   339   0.939E-05    0.450E-05
RMM:   2    -0.303733683527E+03   -0.19645E-09    0.10591-289    28   0.515E-05
  10 F= -.30373368E+03 E0= -.30378126E+03  d E =0.225555E-09
quench:  g(F)=  0.000E+00 g(S)=  0.000E+00 dE (1.order)= 0.000E+00
 bond charge predicted
       N       E                     dE             d eps       ncg     rms          rms(c)
DAV:   1    -0.303733683526E+03   -0.11642E-09   -0.41241E-10   339   0.596E-05    0.311E-05
RMM:   2    -0.303733683526E+03    0.65484E-09    0.97673-290    26   0.419E-05
  11 F= -.30373368E+03 E0= -.30378126E+03  d E =0.734872E-09
quench:  g(F)=  0.000E+00 g(S)=  0.000E+00 dE (1.order)= 0.000E+00
 bond charge predicted
       N       E                     dE             d eps       ncg     rms          rms(c)
DAV:   1    -0.303733683526E+03    0.59663E-09   -0.35028E-10   339   0.471E-05    0.271E-05
RMM:   2    -0.303733683526E+03   -0.17462E-09    0.45044-290    23   0.294E-05
  12 F= -.30373368E+03 E0= -.30378126E+03  d E =-.232831E-09
quench:  g(F)=  0.000E+00 g(S)=  0.000E+00 dE (1.order)= 0.000E+00
 bond charge predicted
       N       E                     dE             d eps       ncg     rms          rms(c)
DAV:   1    -0.303733683526E+03    0.17462E-09   -0.58534E-10   339   0.371E-05    0.126E-05
RMM:   2    -0.303733683526E+03   -0.21100E-09    0.00000E+00    19   0.215E-05
  13 F= -.30373368E+03 E0= -.30378126E+03  d E =0.138243E-09
quench:  g(F)=  0.000E+00 g(S)=  0.000E+00 dE (1.order)= 0.000E+00
 bond charge predicted
       N       E                     dE             d eps       ncg     rms          rms(c)
DAV:   1    -0.303733683524E+03    0.12806E-08   -0.52324E-10   339   0.229E-05    0.158E-05
RMM:   2    -0.303733683525E+03   -0.81491E-09    0.00000E+00    18   0.169E-05
  14 F= -.30373368E+03 E0= -.30378126E+03  d E =0.676664E-09
quench:  g(F)=  0.000E+00 g(S)=  0.000E+00 dE (1.order)= 0.000E+00
 bond charge predicted
       N       E                     dE             d eps       ncg     rms          rms(c)
DAV:   1    -0.303733683525E+03   -0.40745E-09   -0.45117E-10   339   0.213E-05    0.794E-06
RMM:   2    -0.303733683526E+03   -0.71304E-09    0.00000E+00    18   0.109E-05
  15 F= -.30373368E+03 E0= -.30378126E+03  d E =-.305590E-09
quench:  g(F)=  0.000E+00 g(S)=  0.000E+00 dE (1.order)= 0.000E+00
 bond charge predicted
       N       E                     dE             d eps       ncg     rms          rms(c)
DAV:   1    -0.303733683525E+03    0.18917E-09   -0.39987E-10   339   0.130E-05    0.380E-06
RMM:   2    -0.303733683526E+03   -0.12951E-08    0.00000E+00    16   0.911E-06
  16 F= -.30373368E+03 E0= -.30378126E+03  d E =-.392902E-09
quench:  g(F)=  0.000E+00 g(S)=  0.000E+00 dE (1.order)= 0.000E+00
 bond charge predicted
       N       E                     dE             d eps       ncg     rms          rms(c)
DAV:   1    -0.303733683526E+03   -0.14261E-08   -0.49316E-10   339   0.104E-05    0.494E-06
RMM:   2    -0.303733683526E+03    0.34197E-09    0.00000E+00    13   0.691E-06
  17 F= -.30373368E+03 E0= -.30378126E+03  d E =0.211003E-09
quench:  g(F)=  0.000E+00 g(S)=  0.000E+00 dE (1.order)= 0.000E+00
 bond charge predicted
       N       E                     dE             d eps       ncg     rms          rms(c)
DAV:   1    -0.303733683526E+03   -0.16007E-09   -0.40975E-10   312   0.822E-06    0.224E-06
RMM:   2    -0.303733683526E+03    0.18190E-09    0.00000E+00    13   0.487E-06
  18 F= -.30373368E+03 E0= -.30378126E+03  d E =-.320142E-09
quench:  g(F)=  0.000E+00 g(S)=  0.000E+00 dE (1.order)= 0.000E+00
 bond charge predicted
       N       E                     dE             d eps       ncg     rms          rms(c)
DAV:   1    -0.303733683525E+03    0.12951E-08   -0.43610E-10   312   0.536E-06    0.187E-06
RMM:   2    -0.303733683526E+03   -0.80763E-09    0.00000E+00    13   0.400E-06
  19 F= -.30373368E+03 E0= -.30378126E+03  d E =0.305590E-09
quench:  g(F)=  0.000E+00 g(S)=  0.000E+00 dE (1.order)= 0.000E+00
 bond charge predicted
       N       E                     dE             d eps       ncg     rms          rms(c)
DAV:   1    -0.303733683525E+03   -0.33469E-09   -0.58312E-10   312   0.475E-06    0.148E-06
RMM:   2    -0.303733683525E+03   -0.21828E-10    0.00000E+00    13   0.298E-06
  20 F= -.30373368E+03 E0= -.30378126E+03  d E =0.451109E-09
quench:  g(F)=  0.000E+00 g(S)=  0.000E+00 dE (1.order)= 0.000E+00
 bond charge predicted
       N       E                     dE             d eps       ncg     rms          rms(c)
DAV:   1    -0.303733683526E+03   -0.67666E-09    0.14646E-11   312   0.353E-06    0.694E-07
RMM:   2    -0.303733683526E+03    0.24011E-09    0.00000E+00    13   0.231E-06
  21 F= -.30373368E+03 E0= -.30378126E+03  d E =-.414730E-09
quench:  g(F)=  0.000E+00 g(S)=  0.000E+00 dE (1.order)= 0.000E+00
 bond charge predicted
       N       E                     dE             d eps       ncg     rms          rms(c)
DAV:   1    -0.303733683525E+03    0.93132E-09   -0.67217E-10   312   0.254E-06    0.101E-06
RMM:   2    -0.303733683526E+03   -0.82946E-09    0.00000E+00    13   0.184E-06
  22 F= -.30373368E+03 E0= -.30378126E+03  d E =-.138243E-09
quench:  g(F)=  0.000E+00 g(S)=  0.000E+00 dE (1.order)= 0.000E+00
 bond charge predicted
       N       E                     dE             d eps       ncg     rms          rms(c)
DAV:   1    -0.303733683525E+03   -0.21100E-09   -0.44192E-10   312   0.226E-06    0.523E-07
RMM:   2    -0.303733683526E+03   -0.88767E-09    0.00000E+00    13   0.133E-06
  23 F= -.30373368E+03 E0= -.30378126E+03  d E =-.269210E-09
quench:  g(F)=  0.000E+00 g(S)=  0.000E+00 dE (1.order)= 0.000E+00
 bond charge predicted
       N       E                     dE             d eps       ncg     rms          rms(c)
DAV:   1    -0.303733683526E+03   -0.71304E-09   -0.86956E-11   312   0.152E-06    0.271E-07
RMM:   2    -0.303733683526E+03   -0.10914E-09    0.00000E+00    13   0.108E-06
  24 F= -.30373368E+03 E0= -.30378126E+03  d E =0.654836E-10
quench:  g(F)=  0.000E+00 g(S)=  0.000E+00 dE (1.order)= 0.000E+00
 bond charge predicted
       N       E                     dE             d eps       ncg     rms          rms(c)
DAV:   1    -0.303733683525E+03    0.50932E-09   -0.16448E-11   312   0.128E-06    0.313E-07
RMM:   2    -0.303733683526E+03   -0.39290E-09    0.00000E+00    13   0.850E-07
  25 F= -.30373368E+03 E0= -.30378126E+03  d E =0.225555E-09
quench:  g(F)=  0.000E+00 g(S)=  0.000E+00 dE (1.order)= 0.000E+00
 bond charge predicted
       N       E                     dE             d eps       ncg     rms          rms(c)
DAV:   1    -0.303733683525E+03    0.29104E-10   -0.35374E-10   312   0.983E-07    0.170E-07
RMM:   2    -0.303733683526E+03   -0.55297E-09    0.00000E+00    13   0.646E-07
  26 F= -.30373368E+03 E0= -.30378126E+03  d E =-.130967E-09
quench:  g(F)=  0.000E+00 g(S)=  0.000E+00 dE (1.order)= 0.000E+00
 bond charge predicted
       N       E                     dE             d eps       ncg     rms          rms(c)
DAV:   1    -0.303733683524E+03    0.10114E-08   -0.48754E-10   312   0.721E-07    0.163E-07
RMM:   2    -0.303733683525E+03   -0.98225E-09    0.00000E+00    12   0.537E-07
  27 F= -.30373368E+03 E0= -.30378126E+03  d E =0.582077E-09
quench:  g(F)=  0.000E+00 g(S)=  0.000E+00 dE (1.order)= 0.000E+00
 bond charge predicted
       N       E                     dE             d eps       ncg     rms          rms(c)
DAV:   1    -0.303733683525E+03   -0.65484E-09   -0.33699E-10   312   0.641E-07    0.127E-07
RMM:   2    -0.303733683526E+03   -0.66939E-09    0.00000E+00    12   0.409E-07
  28 F= -.30373368E+03 E0= -.30378126E+03  d E =-.341970E-09
quench:  g(F)=  0.000E+00 g(S)=  0.000E+00 dE (1.order)= 0.000E+00
 bond charge predicted
       N       E                     dE             d eps       ncg     rms          rms(c)
DAV:   1    -0.303733683527E+03   -0.14770E-08   -0.67717E-10   312   0.475E-07    0.706E-08
RMM:   2    -0.303733683526E+03    0.72032E-09    0.00000E+00    12   0.325E-07
  29 F= -.30373368E+03 E0= -.30378126E+03  d E =-.873115E-10
quench:  g(F)=  0.000E+00 g(S)=  0.000E+00 dE (1.order)= 0.000E+00
 bond charge predicted
       N       E                     dE             d eps       ncg     rms          rms(c)
DAV:   1    -0.303733683526E+03    0.52387E-09   -0.80785E-10   312   0.366E-07    0.958E-08
RMM:   2    -0.303733683526E+03    0.34197E-09    0.00000E+00    12   0.268E-07
  30 F= -.30373368E+03 E0= -.30378126E+03  d E =0.145519E-09
quench:  g(F)=  0.000E+00 g(S)=  0.000E+00 dE (1.order)= 0.000E+00
 bond charge predicted
       N       E                     dE             d eps       ncg     rms          rms(c)
DAV:   1    -0.303733683526E+03   -0.21100E-09   -0.48339E-10   312   0.321E-07    0.551E-08
RMM:   2    -0.303733683526E+03    0.54570E-09    0.00000E+00    11   0.196E-07
  31 F= -.30373368E+03 E0= -.30378126E+03  d E =-.727596E-11
quench:  g(F)=  0.000E+00 g(S)=  0.000E+00 dE (1.order)= 0.000E+00
 bond charge predicted
       N       E                     dE             d eps       ncg     rms          rms(c)
DAV:   1    -0.303733683525E+03    0.14188E-08    0.77851E-11   312   0.221E-07    0.365E-08
RMM:   2    -0.303733683526E+03   -0.89494E-09    0.00000E+00    11   0.161E-07
  32 F= -.30373368E+03 E0= -.30378126E+03  d E =-.218279E-10
quench:  g(F)=  0.000E+00 g(S)=  0.000E+00 dE (1.order)= 0.000E+00
 bond charge predicted
       N       E                     dE             d eps       ncg     rms          rms(c)
DAV:   1    -0.303733683525E+03   -0.20373E-09   -0.37337E-10   312   0.188E-07    0.340E-08
RMM:   2    -0.303733683526E+03   -0.78580E-09    0.00000E+00     9   0.127E-07
  33 F= -.30373368E+03 E0= -.30378126E+03  d E =-.945874E-10
quench:  g(F)=  0.000E+00 g(S)=  0.000E+00 dE (1.order)= 0.000E+00
 bond charge predicted
       N       E                     dE             d eps       ncg     rms          rms(c)
DAV:   1    -0.303733683526E+03   -0.14625E-08   -0.49291E-10   312   0.145E-07    0.224E-08
RMM:   2    -0.303733683526E+03    0.50932E-09    0.00000E+00     9   0.992E-08
  34 F= -.30373368E+03 E0= -.30378126E+03  d E =-.167347E-09
quench:  g(F)=  0.000E+00 g(S)=  0.000E+00 dE (1.order)= 0.000E+00
 bond charge predicted
       N       E                     dE             d eps       ncg     rms          rms(c)
DAV:   1    -0.303733683526E+03    0.91677E-09   -0.67234E-10   312   0.112E-07    0.210E-08
RMM:   2    -0.303733683526E+03   -0.29104E-09    0.00000E+00     8   0.812E-08
  35 F= -.30373368E+03 E0= -.30378126E+03  d E =0.116415E-09
quench:  g(F)=  0.000E+00 g(S)=  0.000E+00 dE (1.order)= 0.000E+00
 bond charge predicted
       N       E                     dE             d eps       ncg     rms          rms(c)
DAV:   1    -0.303733683525E+03    0.94587E-10   -0.85966E-10   312   0.952E-08    0.166E-08
RMM:   2    -0.303733683526E+03   -0.40018E-09    0.00000E+00     9   0.632E-08
  36 F= -.30373368E+03 E0= -.30378126E+03  d E =-.145519E-10
quench:  g(F)=  0.000E+00 g(S)=  0.000E+00 dE (1.order)= 0.000E+00
 bond charge predicted
       N       E                     dE             d eps       ncg     rms          rms(c)
DAV:   1    -0.303733683526E+03   -0.21100E-09   -0.51943E-10   312   0.730E-08    0.112E-08
RMM:   2    -0.303733683526E+03   -0.10186E-09    0.00000E+00     7   0.508E-08
  37 F= -.30373368E+03 E0= -.30378126E+03  d E =0.873115E-10
quench:  g(F)=  0.000E+00 g(S)=  0.000E+00 dE (1.order)= 0.000E+00
 bond charge predicted
       N       E                     dE             d eps       ncg     rms          rms(c)
DAV:   1    -0.303733683526E+03    0.14552E-10   -0.16993E-10   312   0.580E-08    0.121E-08
RMM:   2    -0.303733683526E+03   -0.43656E-10    0.00000E+00     7   0.419E-08
  38 F= -.30373368E+03 E0= -.30378126E+03  d E =0.727596E-10
quench:  g(F)=  0.000E+00 g(S)=  0.000E+00 dE (1.order)= 0.000E+00
 bond charge predicted
       N       E                     dE             d eps       ncg     rms          rms(c)
DAV:   1    -0.303733683526E+03   -0.80036E-10   -0.13272E-10   312   0.492E-08    0.787E-09
RMM:   2    -0.303733683526E+03    0.43656E-10    0.00000E+00     7   0.315E-08
  39 F= -.30373368E+03 E0= -.30378126E+03  d E =0.727596E-11
quench:  g(F)=  0.000E+00 g(S)=  0.000E+00 dE (1.order)= 0.000E+00
 bond charge predicted
       N       E                     dE             d eps       ncg     rms          rms(c)
DAV:   1    -0.303733683525E+03    0.45839E-09   -0.24293E-10   312   0.354E-08    0.643E-09
RMM:   2    -0.303733683526E+03   -0.43656E-09    0.00000E+00     7   0.261E-08
  40 F= -.30373368E+03 E0= -.30378126E+03  d E =-.218279E-10
quench:  g(F)=  0.000E+00 g(S)=  0.000E+00 dE (1.order)= 0.000E+00
 bond charge predicted
       N       E                     dE             d eps       ncg     rms          rms(c)
DAV:   1    -0.303733683528E+03   -0.26630E-08   -0.22384E-10   312   0.306E-08    0.531E-09
RMM:   2    -0.303733683526E+03    0.22192E-08    0.00000E+00     6   0.203E-08
  41 F= -.30373368E+03 E0= -.30378126E+03  d E =-.727596E-11
quench:  g(F)=  0.000E+00 g(S)=  0.000E+00 dE (1.order)= 0.000E+00
 bond charge predicted
       N       E                     dE             d eps       ncg     rms          rms(c)
DAV:   1    -0.303733683525E+03    0.25539E-08    0.55661E-12   312   0.231E-08    0.368E-09
RMM:   2    -0.303733683526E+03   -0.38563E-09    0.00000E+00     6   0.161E-08
  42 F= -.30373368E+03 E0= -.30378126E+03  d E =-.509317E-10
quench:  g(F)=  0.000E+00 g(S)=  0.000E+00 dE (1.order)= 0.000E+00
 bond charge predicted
       N       E                     dE             d eps       ncg     rms          rms(c)
DAV:   1    -0.303733683525E+03    0.34925E-09   -0.17577E-10   312   0.185E-08    0.366E-09
RMM:   2    -0.303733683526E+03   -0.66939E-09    0.00000E+00     6   0.132E-08
  43 F= -.30373368E+03 E0= -.30378126E+03  d E =0.654836E-10
quench:  g(F)=  0.000E+00 g(S)=  0.000E+00 dE (1.order)= 0.000E+00
 bond charge predicted
       N       E                     dE             d eps       ncg     rms          rms(c)
DAV:   1    -0.303733683527E+03   -0.24447E-08   -0.30163E-10   312   0.154E-08    0.268E-09
RMM:   2    -0.303733683526E+03    0.17171E-08    0.00000E+00     6   0.101E-08
  44 F= -.30373368E+03 E0= -.30378126E+03  d E =-.582077E-10
quench:  g(F)=  0.000E+00 g(S)=  0.000E+00 dE (1.order)= 0.000E+00
 bond charge predicted
       N       E                     dE             d eps       ncg     rms          rms(c)
DAV:   1    -0.303733683525E+03    0.23356E-08   -0.43255E-11   312   0.117E-08    0.186E-09
RMM:   2    -0.303733683526E+03   -0.69122E-09    0.00000E+00     6   0.819E-09
  45 F= -.30373368E+03 E0= -.30378126E+03  d E =-.727596E-10
quench:  g(F)=  0.000E+00 g(S)=  0.000E+00 dE (1.order)= 0.000E+00
 bond charge predicted
       N       E                     dE             d eps       ncg     rms          rms(c)
DAV:   1    -0.303733683525E+03   -0.34197E-09   -0.23841E-10   312   0.105E-08    0.216E-09
RMM:   2    -0.303733683526E+03   -0.23283E-09    0.00000E+00     6   0.680E-09
  46 F= -.30373368E+03 E0= -.30378126E+03  d E =0.116415E-09
quench:  g(F)=  0.000E+00 g(S)=  0.000E+00 dE (1.order)= 0.000E+00
 bond charge predicted
       N       E                     dE             d eps       ncg     rms          rms(c)
DAV:   1    -0.303733683526E+03   -0.65484E-09   -0.26641E-10   312   0.822E-09    0.131E-09
RMM:   2    -0.303733683526E+03    0.43656E-09    0.00000E+00     6   0.513E-09
  47 F= -.30373368E+03 E0= -.30378126E+03  d E =0.145519E-10
quench:  g(F)=  0.000E+00 g(S)=  0.000E+00 dE (1.order)= 0.000E+00
 bond charge predicted
       N       E                     dE             d eps       ncg     rms          rms(c)
DAV:   1    -0.303733683525E+03    0.80036E-09   -0.49762E-10   312   0.569E-09    0.100E-09
RMM:   2    -0.303733683526E+03   -0.53114E-09    0.00000E+00     6   0.426E-09
  48 F= -.30373368E+03 E0= -.30378126E+03  d E =-.167347E-09
quench:  g(F)=  0.000E+00 g(S)=  0.000E+00 dE (1.order)= 0.000E+00
 bond charge predicted
       N       E                     dE             d eps       ncg     rms          rms(c)
DAV:   1    -0.303733683526E+03   -0.61118E-09   -0.13646E-10   312   0.594E-09    0.118E-09
RMM:   2    -0.303733683526E+03    0.94587E-10    0.00000E+00     5   0.350E-09
  49 F= -.30373368E+03 E0= -.30378126E+03  d E =0.145519E-10
quench:  g(F)=  0.000E+00 g(S)=  0.000E+00 dE (1.order)= 0.000E+00
 bond charge predicted
       N       E                     dE             d eps       ncg     rms          rms(c)
DAV:   1    -0.303733683525E+03    0.95315E-09    0.10361E-11   312   0.461E-09    0.734E-10
RMM:   2    -0.303733683526E+03   -0.74942E-09    0.00000E+00     6   0.265E-09
  50 F= -.30373368E+03 E0= -.30378126E+03  d E =0.109139E-09
quench:  g(F)=  0.000E+00 g(S)=  0.000E+00 dE (1.order)= 0.000E+00
 bond charge predicted
       N       E                     dE             d eps       ncg     rms          rms(c)
DAV:   1    -0.303733683525E+03   -0.29104E-10   -0.21443E-10   312   0.305E-09    0.604E-10
RMM:   2    -0.303733683526E+03   -0.77853E-09    0.00000E+00     5   0.223E-09
  51 F= -.30373368E+03 E0= -.30378126E+03  d E =-.582077E-10
quench:  g(F)=  0.000E+00 g(S)=  0.000E+00 dE (1.order)= 0.000E+00
 bond charge predicted
       N       E                     dE             d eps       ncg     rms          rms(c)
DAV:   1    -0.303733683526E+03   -0.81491E-09   -0.11767E-10   312   0.249E-09    0.508E-10
RMM:   2    -0.303733683526E+03    0.00000E+00    0.00000E+00     5   0.173E-09
  52 F= -.30373368E+03 E0= -.30378126E+03  d E =-.363798E-10
quench:  g(F)=  0.000E+00 g(S)=  0.000E+00 dE (1.order)= 0.000E+00
 bond charge predicted
       N       E                     dE             d eps       ncg     rms          rms(c)
DAV:   1    -0.303733683525E+03    0.10041E-08   -0.10632E-11   312   0.202E-09    0.508E-10
RMM:   2    -0.303733683526E+03   -0.97498E-09    0.00000E+00     5   0.143E-09
  53 F= -.30373368E+03 E0= -.30378126E+03  d E =0.291038E-10
quench:  g(F)=  0.000E+00 g(S)=  0.000E+00 dE (1.order)= 0.000E+00
 bond charge predicted
       N       E                     dE             d eps       ncg     rms          rms(c)
DAV:   1    -0.303733683525E+03   -0.65484E-09   -0.20987E-10   312   0.170E-09    0.443E-10
RMM:   2    -0.303733683526E+03   -0.32014E-09    0.00000E+00     5   0.114E-09
  54 F= -.30373368E+03 E0= -.30378126E+03  d E =0.000000E+00
quench:  g(F)=  0.000E+00 g(S)=  0.000E+00 dE (1.order)= 0.000E+00
 bond charge predicted
       N       E                     dE             d eps       ncg     rms          rms(c)
DAV:   1    -0.303733683526E+03   -0.85856E-09   -0.42408E-11   312   0.140E-09    0.271E-10
RMM:   2    -0.303733683526E+03    0.60390E-09    0.00000E+00     5   0.910E-10
  55 F= -.30373368E+03 E0= -.30378126E+03  d E =0.654836E-10
quench:  g(F)=  0.000E+00 g(S)=  0.000E+00 dE (1.order)= 0.000E+00
 bond charge predicted
       N       E                     dE             d eps       ncg     rms          rms(c)
DAV:   1    -0.303733683526E+03    0.13097E-09   -0.32160E-10   312   0.105E-09    0.366E-10
RMM:   2    -0.303733683526E+03    0.44383E-09    0.00000E+00     5   0.711E-10
  56 F= -.30373368E+03 E0= -.30378126E+03  d E =-.291038E-10
quench:  g(F)=  0.000E+00 g(S)=  0.000E+00 dE (1.order)= 0.000E+00
 bond charge predicted
       N       E                     dE             d eps       ncg     rms          rms(c)
DAV:   1    -0.303733683526E+03   -0.36380E-10   -0.18409E-10   312   0.841E-10    0.373E-10
RMM:   2    -0.303733683526E+03    0.37107E-09    0.00000E+00     4   0.582E-10
  57 F= -.30373368E+03 E0= -.30378126E+03  d E =-.109139E-09
quench:  g(F)=  0.000E+00 g(S)=  0.000E+00 dE (1.order)= 0.000E+00
 bond charge predicted
       N       E                     dE             d eps       ncg     rms          rms(c)
DAV:   1    -0.303733683526E+03    0.33469E-09   -0.34150E-10   312   0.699E-10    0.267E-10
RMM:   2    -0.303733683526E+03    0.15280E-09    0.00000E+00     4   0.467E-10
  58 F= -.30373368E+03 E0= -.30378126E+03  d E =0.116415E-09
quench:  g(F)=  0.000E+00 g(S)=  0.000E+00 dE (1.order)= 0.000E+00
 bond charge predicted
       N       E                     dE             d eps       ncg     rms          rms(c)
DAV:   1    -0.303733683525E+03    0.78580E-09   -0.40096E-10   312   0.542E-10    0.203E-10
RMM:   2    -0.303733683526E+03   -0.71304E-09    0.00000E+00     4   0.399E-10
  59 F= -.30373368E+03 E0= -.30378126E+03  d E =-.800355E-10
quench:  g(F)=  0.000E+00 g(S)=  0.000E+00 dE (1.order)= 0.000E+00
 bond charge predicted
       N       E                     dE             d eps       ncg     rms          rms(c)
DAV:   1    -0.303733683528E+03   -0.25757E-08    0.13148E-11   312   0.484E-10    0.303E-10
RMM:   2    -0.303733683526E+03    0.19427E-08    0.00000E+00     4   0.327E-10
  60 F= -.30373368E+03 E0= -.30378126E+03  d E =0.800355E-10
quench:  g(F)=  0.000E+00 g(S)=  0.000E+00 dE (1.order)= 0.000E+00
 bond charge predicted
       N       E                     dE             d eps       ncg     rms          rms(c)
DAV:   1    -0.303733683526E+03    0.13024E-08   -0.74648E-11   312   0.483E-10    0.252E-10
RMM:   2    -0.303733683526E+03    0.59663E-09    0.00000E+00     4   0.255E-10
  61 F= -.30373368E+03 E0= -.30378126E+03  d E =-.436557E-10
quench:  g(F)=  0.000E+00 g(S)=  0.000E+00 dE (1.order)= 0.000E+00
 bond charge predicted
       N       E                     dE             d eps       ncg     rms          rms(c)
DAV:   1    -0.303733683525E+03    0.12660E-08   -0.68694E-11   312   0.298E-10    0.365E-10
RMM:   2    -0.303733683526E+03   -0.57480E-09    0.00000E+00     4   0.235E-10
  62 F= -.30373368E+03 E0= -.30378126E+03  d E =0.945874E-10
quench:  g(F)=  0.000E+00 g(S)=  0.000E+00 dE (1.order)= 0.000E+00
 bond charge predicted
       N       E                     dE             d eps       ncg     rms          rms(c)
DAV:   1    -0.303733683525E+03   -0.12369E-09   -0.20615E-10   312   0.341E-10    0.216E-10
RMM:   2    -0.303733683526E+03   -0.51659E-09    0.00000E+00     4   0.195E-10
  63 F= -.30373368E+03 E0= -.30378126E+03  d E =-.654836E-10
quench:  g(F)=  0.000E+00 g(S)=  0.000E+00 dE (1.order)= 0.000E+00
 bond charge predicted
       N       E                     dE             d eps       ncg     rms          rms(c)
DAV:   1    -0.303733683526E+03   -0.10041E-08   -0.33113E-10   312   0.248E-10    0.348E-10
RMM:   2    -0.303733683526E+03    0.53114E-09    0.00000E+00     4   0.178E-10
  64 F= -.30373368E+03 E0= -.30378126E+03  d E =0.436557E-10
quench:  g(F)=  0.000E+00 g(S)=  0.000E+00 dE (1.order)= 0.000E+00
 bond charge predicted
       N       E                     dE             d eps       ncg     rms          rms(c)
DAV:   1    -0.303733683526E+03    0.13824E-09   -0.55296E-11   312   0.236E-10    0.311E-10
RMM:   2    -0.303733683526E+03    0.19645E-09    0.00000E+00     4   0.148E-10
  65 F= -.30373368E+03 E0= -.30378126E+03  d E =-.196451E-09
quench:  g(F)=  0.000E+00 g(S)=  0.000E+00 dE (1.order)= 0.000E+00
 bond charge predicted
       N       E                     dE             d eps       ncg     rms          rms(c)
DAV:   1    -0.303733683526E+03   -0.72760E-11    0.87228E-12   312   0.213E-10    0.220E-10
RMM:   2    -0.303733683526E+03    0.29831E-09    0.00000E+00     4   0.133E-10
  66 F= -.30373368E+03 E0= -.30378126E+03  d E =0.945874E-10
quench:  g(F)=  0.000E+00 g(S)=  0.000E+00 dE (1.order)= 0.000E+00
 bond charge predicted
       N       E                     dE             d eps       ncg     rms          rms(c)
DAV:   1    -0.303733683525E+03    0.77853E-09    0.26716E-11   312   0.218E-10    0.319E-10
RMM:   2    -0.303733683526E+03   -0.45839E-09    0.00000E+00     4   0.150E-10
  67 F= -.30373368E+03 E0= -.30378126E+03  d E =0.218279E-10
quench:  g(F)=  0.000E+00 g(S)=  0.000E+00 dE (1.order)= 0.000E+00
 bond charge predicted
       N       E                     dE             d eps       ncg     rms          rms(c)
DAV:   1    -0.303733683526E+03   -0.68394E-09   -0.23843E-11   312   0.285E-10    0.265E-10
RMM:   2    -0.303733683526E+03    0.15280E-09    0.00000E+00     4   0.117E-10
  68 F= -.30373368E+03 E0= -.30378126E+03  d E =-.727596E-10
quench:  g(F)=  0.000E+00 g(S)=  0.000E+00 dE (1.order)= 0.000E+00
 bond charge predicted
       N       E                     dE             d eps       ncg     rms          rms(c)
DAV:   1    -0.303733683525E+03    0.85856E-09   -0.14036E-11   312   0.179E-10    0.373E-10
RMM:   2    -0.303733683526E+03   -0.61118E-09    0.00000E+00     4   0.120E-10
  69 F= -.30373368E+03 E0= -.30378126E+03  d E =0.945874E-10
quench:  g(F)=  0.000E+00 g(S)=  0.000E+00 dE (1.order)= 0.000E+00
 bond charge predicted
       N       E                     dE             d eps       ncg     rms          rms(c)
DAV:   1    -0.303733683526E+03   -0.86584E-09   -0.17245E-10   312   0.294E-10    0.438E-10
RMM:   2    -0.303733683526E+03    0.17462E-09    0.00000E+00     4   0.127E-10
  70 F= -.30373368E+03 E0= -.30378126E+03  d E =-.800355E-10
quench:  g(F)=  0.000E+00 g(S)=  0.000E+00 dE (1.order)= 0.000E+00
 bond charge predicted
       N       E                     dE             d eps       ncg     rms          rms(c)
DAV:   1    -0.303733683527E+03   -0.48749E-09   -0.31524E-10   312   0.222E-10    0.411E-10
RMM:   2    -0.303733683526E+03    0.70577E-09    0.00000E+00     3   0.130E-10
  71 F= -.30373368E+03 E0= -.30378126E+03  d E =0.436557E-10
quench:  g(F)=  0.000E+00 g(S)=  0.000E+00 dE (1.order)= 0.000E+00
 bond charge predicted
       N       E                     dE             d eps       ncg     rms          rms(c)
DAV:   1    -0.303733683527E+03   -0.53842E-09   -0.60114E-11   312   0.394E-10    0.199E-10
RMM:   2    -0.303733683526E+03    0.12733E-08    0.00000E+00     4   0.107E-10
  72 F= -.30373368E+03 E0= -.30378126E+03  d E =0.291038E-10
quench:  g(F)=  0.000E+00 g(S)=  0.000E+00 dE (1.order)= 0.000E+00
 bond charge predicted
       N       E                     dE             d eps       ncg     rms          rms(c)
DAV:   1    -0.303733683526E+03    0.14770E-08   -0.10463E-10   312   0.190E-10    0.264E-10
RMM:   2    -0.303733683526E+03   -0.21100E-09    0.00000E+00     3   0.870E-11
  73 F= -.30373368E+03 E0= -.30378126E+03  d E =-.727596E-11
quench:  g(F)=  0.000E+00 g(S)=  0.000E+00 dE (1.order)= 0.000E+00
 bond charge predicted
       N       E                     dE             d eps       ncg     rms          rms(c)
DAV:   1    -0.303733683527E+03   -0.16153E-08    0.14609E-10   312   0.140E-10    0.222E-10
RMM:   2    -0.303733683526E+03    0.14625E-08    0.00000E+00     4   0.788E-11
  74 F= -.30373368E+03 E0= -.30378126E+03  d E =0.582077E-10
quench:  g(F)=  0.000E+00 g(S)=  0.000E+00 dE (1.order)= 0.000E+00
 bond charge predicted
       N       E                     dE             d eps       ncg     rms          rms(c)
DAV:   1    -0.303733683524E+03    0.33251E-08   -0.15395E-10   312   0.124E-10    0.297E-10
RMM:   2    -0.303733683526E+03   -0.18190E-08    0.00000E+00     3   0.982E-11
  75 F= -.30373368E+03 E0= -.30378126E+03  d E =0.436557E-10
quench:  g(F)=  0.000E+00 g(S)=  0.000E+00 dE (1.order)= 0.000E+00
 bond charge predicted
       N       E                     dE             d eps       ncg     rms          rms(c)
DAV:   1    -0.303733683526E+03   -0.17753E-08   -0.30354E-10   312   0.276E-10    0.288E-10
RMM:   2    -0.303733683526E+03   -0.10186E-09    0.00000E+00     3   0.115E-10
  76 F= -.30373368E+03 E0= -.30378126E+03  d E =-.582077E-10
quench:  g(F)=  0.000E+00 g(S)=  0.000E+00 dE (1.order)= 0.000E+00
 bond charge predicted
       N       E                     dE             d eps       ncg     rms          rms(c)
DAV:   1    -0.303733683526E+03    0.21828E-10   -0.32764E-10   312   0.319E-10    0.341E-10
RMM:   2    -0.303733683526E+03   -0.25466E-09    0.00000E+00     3   0.969E-11
  77 F= -.30373368E+03 E0= -.30378126E+03  d E =-.130967E-09
quench:  g(F)=  0.000E+00 g(S)=  0.000E+00 dE (1.order)= 0.000E+00
 bond charge predicted
       N       E                     dE             d eps       ncg     rms          rms(c)
DAV:   1    -0.303733683526E+03   -0.79308E-09   -0.30205E-10   312   0.260E-10    0.224E-10
RMM:   2    -0.303733683526E+03    0.61846E-09    0.00000E+00     3   0.985E-11
  78 F= -.30373368E+03 E0= -.30378126E+03  d E =0.800355E-10
quench:  g(F)=  0.000E+00 g(S)=  0.000E+00 dE (1.order)= 0.000E+00
 bond charge predicted
       N       E                     dE             d eps       ncg     rms          rms(c)
DAV:   1    -0.303733683524E+03    0.25611E-08   -0.57780E-11   312   0.193E-10    0.245E-10
RMM:   2    -0.303733683526E+03   -0.19645E-08    0.00000E+00     3   0.815E-11
  79 F= -.30373368E+03 E0= -.30378126E+03  d E =-.218279E-10
quench:  g(F)=  0.000E+00 g(S)=  0.000E+00 dE (1.order)= 0.000E+00
 bond charge predicted
       N       E                     dE             d eps       ncg     rms          rms(c)
DAV:   1    -0.303733683525E+03   -0.10696E-08    0.86437E-11   312   0.149E-10    0.259E-10
RMM:   2    -0.303733683526E+03   -0.82218E-09    0.00000E+00     3   0.845E-11
  80 F= -.30373368E+03 E0= -.30378126E+03  d E =0.727596E-10
quench:  g(F)=  0.000E+00 g(S)=  0.000E+00 dE (1.order)= 0.000E+00
 bond charge predicted
       N       E                     dE             d eps       ncg     rms          rms(c)
DAV:   1    -0.303733683526E+03   -0.11350E-08   -0.26228E-11   312   0.192E-10    0.245E-10
RMM:   2    -0.303733683526E+03    0.33469E-09    0.00000E+00     3   0.740E-11
  81 F= -.30373368E+03 E0= -.30378126E+03  d E =0.218279E-10
quench:  g(F)=  0.000E+00 g(S)=  0.000E+00 dE (1.order)= 0.000E+00
 bond charge predicted
       N       E                     dE             d eps       ncg     rms          rms(c)
DAV:   1    -0.303733683526E+03    0.37107E-09   -0.63737E-11   312   0.194E-10    0.207E-10
RMM:   2    -0.303733683526E+03   -0.17462E-09    0.00000E+00     3   0.765E-11
  82 F= -.30373368E+03 E0= -.30378126E+03  d E =-.138243E-09
quench:  g(F)=  0.000E+00 g(S)=  0.000E+00 dE (1.order)= 0.000E+00
 bond charge predicted
       N       E                     dE             d eps       ncg     rms          rms(c)
DAV:   1    -0.303733683525E+03    0.71304E-09   -0.14991E-10   312   0.184E-10    0.213E-10
RMM:   2    -0.303733683526E+03   -0.80763E-09    0.00000E+00     3   0.855E-11
  83 F= -.30373368E+03 E0= -.30378126E+03  d E =0.800355E-10
quench:  g(F)=  0.000E+00 g(S)=  0.000E+00 dE (1.order)= 0.000E+00
 bond charge predicted
       N       E                     dE             d eps       ncg     rms          rms(c)
DAV:   1    -0.303733683526E+03   -0.14625E-08   -0.16966E-10   312   0.233E-10    0.261E-10
RMM:   2    -0.303733683526E+03    0.74942E-09    0.00000E+00     3   0.105E-10
  84 F= -.30373368E+03 E0= -.30378126E+03  d E =0.945874E-10
quench:  g(F)=  0.000E+00 g(S)=  0.000E+00 dE (1.order)= 0.000E+00
 bond charge predicted
       N       E                     dE             d eps       ncg     rms          rms(c)
DAV:   1    -0.303733683525E+03    0.15571E-08   -0.23920E-10   312   0.287E-10    0.252E-10
RMM:   2    -0.303733683526E+03   -0.84401E-09    0.00000E+00     3   0.994E-11
  85 F= -.30373368E+03 E0= -.30378126E+03  d E =-.363798E-10
quench:  g(F)=  0.000E+00 g(S)=  0.000E+00 dE (1.order)= 0.000E+00
 bond charge predicted
       N       E                     dE             d eps       ncg     rms          rms(c)
DAV:   1    -0.303733683525E+03    0.36380E-10   -0.13860E-10   312   0.281E-10    0.236E-10
RMM:   2    -0.303733683526E+03   -0.93132E-09    0.00000E+00     3   0.812E-11
  86 F= -.30373368E+03 E0= -.30378126E+03  d E =-.509317E-10
quench:  g(F)=  0.000E+00 g(S)=  0.000E+00 dE (1.order)= 0.000E+00
 bond charge predicted
       N       E                     dE             d eps       ncg     rms          rms(c)
DAV:   1    -0.303733683525E+03    0.33469E-09   -0.35701E-10   312   0.220E-10    0.201E-10
RMM:   2    -0.303733683526E+03   -0.12951E-08    0.00000E+00     3   0.890E-11
  87 F= -.30373368E+03 E0= -.30378126E+03  d E =-.291038E-10
quench:  g(F)=  0.000E+00 g(S)=  0.000E+00 dE (1.order)= 0.000E+00
 bond charge predicted
       N       E                     dE             d eps       ncg     rms          rms(c)
DAV:   1    -0.303733683527E+03   -0.22046E-08   -0.14042E-10   312   0.207E-10    0.308E-10
RMM:   2    -0.303733683526E+03    0.89494E-09    0.00000E+00     3   0.810E-11
  88 F= -.30373368E+03 E0= -.30378126E+03  d E =-.145519E-10
quench:  g(F)=  0.000E+00 g(S)=  0.000E+00 dE (1.order)= 0.000E+00
 bond charge predicted
       N       E                     dE             d eps       ncg     rms          rms(c)
DAV:   1    -0.303733683526E+03    0.34197E-09   -0.29104E-10   312   0.168E-10    0.245E-10
RMM:   2    -0.303733683526E+03    0.63301E-09    0.00000E+00     3   0.798E-11
  89 F= -.30373368E+03 E0= -.30378126E+03  d E =0.800355E-10
quench:  g(F)=  0.000E+00 g(S)=  0.000E+00 dE (1.order)= 0.000E+00
 bond charge predicted
       N       E                     dE             d eps       ncg     rms          rms(c)
DAV:   1    -0.303733683526E+03    0.51659E-09   -0.18152E-10   312   0.234E-10    0.196E-10
RMM:   2    -0.303733683526E+03    0.13097E-09    0.00000E+00     3   0.852E-11
  90 F= -.30373368E+03 E0= -.30378126E+03  d E =0.145519E-10
quench:  g(F)=  0.000E+00 g(S)=  0.000E+00 dE (1.order)= 0.000E+00
 bond charge predicted
       N       E                     dE             d eps       ncg     rms          rms(c)
DAV:   1    -0.303733683526E+03   -0.42201E-09   -0.96408E-12   312   0.186E-10    0.211E-10
RMM:   2    -0.303733683526E+03    0.46566E-09    0.00000E+00     3   0.819E-11
  91 F= -.30373368E+03 E0= -.30378126E+03  d E =-.873115E-10
quench:  g(F)=  0.000E+00 g(S)=  0.000E+00 dE (1.order)= 0.000E+00
 bond charge predicted
       N       E                     dE             d eps       ncg     rms          rms(c)
DAV:   1    -0.303733683526E+03    0.24738E-09   -0.18097E-10   312   0.194E-10    0.195E-10
RMM:   2    -0.303733683526E+03    0.21828E-09    0.00000E+00     3   0.782E-11
  92 F= -.30373368E+03 E0= -.30378126E+03  d E =0.000000E+00
quench:  g(F)=  0.000E+00 g(S)=  0.000E+00 dE (1.order)= 0.000E+00
 bond charge predicted
       N       E                     dE             d eps       ncg     rms          rms(c)
DAV:   1    -0.303733683525E+03    0.11496E-08   -0.16188E-11   312   0.200E-10    0.267E-10
RMM:   2    -0.303733683526E+03   -0.82946E-09    0.00000E+00     2   0.760E-11
  93 F= -.30373368E+03 E0= -.30378126E+03  d E =0.101863E-09
quench:  g(F)=  0.000E+00 g(S)=  0.000E+00 dE (1.order)= 0.000E+00
 bond charge predicted
       N       E                     dE             d eps       ncg     rms          rms(c)
DAV:   1    -0.303733683527E+03   -0.22410E-08   -0.20378E-11   312   0.208E-10    0.214E-10
RMM:   2    -0.303733683526E+03    0.12951E-08    0.00000E+00     2   0.734E-11
  94 F= -.30373368E+03 E0= -.30378126E+03  d E =-.116415E-09
quench:  g(F)=  0.000E+00 g(S)=  0.000E+00 dE (1.order)= 0.000E+00
 bond charge predicted
       N       E                     dE             d eps       ncg     rms          rms(c)
DAV:   1    -0.303733683527E+03    0.61846E-09   -0.23353E-10   312   0.186E-10    0.183E-10
RMM:   2    -0.303733683526E+03    0.67666E-09    0.00000E+00     2   0.725E-11
  95 F= -.30373368E+03 E0= -.30378126E+03  d E =0.000000E+00
quench:  g(F)=  0.000E+00 g(S)=  0.000E+00 dE (1.order)= 0.000E+00
 bond charge predicted
       N       E                     dE             d eps       ncg     rms          rms(c)
DAV:   1    -0.303733683526E+03    0.32014E-09   -0.44552E-11   312   0.124E-10    0.251E-10
RMM:   2    -0.303733683526E+03    0.37107E-09    0.00000E+00     2   0.754E-11
  96 F= -.30373368E+03 E0= -.30378126E+03  d E =0.145519E-10
quench:  g(F)=  0.000E+00 g(S)=  0.000E+00 dE (1.order)= 0.000E+00
 bond charge predicted
       N       E                     dE             d eps       ncg     rms          rms(c)
DAV:   1    -0.303733683526E+03    0.62573E-09   -0.19815E-10   312   0.149E-10    0.200E-10
RMM:   2    -0.303733683526E+03   -0.20373E-09    0.00000E+00     2   0.781E-11
  97 F= -.30373368E+03 E0= -.30378126E+03  d E =0.509317E-10
quench:  g(F)=  0.000E+00 g(S)=  0.000E+00 dE (1.order)= 0.000E+00
 bond charge predicted
       N       E                     dE             d eps       ncg     rms          rms(c)
DAV:   1    -0.303733683525E+03    0.74942E-09   -0.38465E-11   312   0.217E-10    0.159E-10
RMM:   2    -0.303733683526E+03   -0.88039E-09    0.00000E+00     2   0.811E-11
  98 F= -.30373368E+03 E0= -.30378126E+03  d E =0.727596E-10
quench:  g(F)=  0.000E+00 g(S)=  0.000E+00 dE (1.order)= 0.000E+00
 bond charge predicted
       N       E                     dE             d eps       ncg     rms          rms(c)
DAV:   1    -0.303733683526E+03   -0.13897E-08   -0.28424E-10   312   0.166E-10    0.240E-10
RMM:   2    -0.303733683526E+03    0.41473E-09    0.00000E+00     2   0.723E-11
  99 F= -.30373368E+03 E0= -.30378126E+03  d E =-.945874E-10
quench:  g(F)=  0.000E+00 g(S)=  0.000E+00 dE (1.order)= 0.000E+00
 bond charge predicted
       N       E                     dE             d eps       ncg     rms          rms(c)
DAV:   1    -0.303733683525E+03    0.73487E-09   -0.14685E-10   312   0.158E-10    0.282E-10
RMM:   2    -0.303733683526E+03   -0.39290E-09    0.00000E+00     2   0.692E-11
 100 F= -.30373368E+03 E0= -.30378126E+03  d E =-.727596E-10
quench:  g(F)=  0.000E+00 g(S)=  0.000E+00 dE (1.order)= 0.000E+00
 bond charge predicted
       N       E                     dE             d eps       ncg     rms          rms(c)
DAV:   1    -0.303733683525E+03    0.38563E-09   -0.15787E-12   312   0.184E-10    0.232E-10
RMM:   2    -0.303733683526E+03   -0.66939E-09    0.00000E+00     2   0.705E-11
 101 F= -.30373368E+03 E0= -.30378126E+03  d E =0.109139E-09
quench:  g(F)=  0.000E+00 g(S)=  0.000E+00 dE (1.order)= 0.000E+00
 bond charge predicted
       N       E                     dE             d eps       ncg     rms          rms(c)
DAV:   1    -0.303733683524E+03    0.13606E-08   -0.14289E-10   312   0.141E-10    0.259E-10
RMM:   2    -0.303733683526E+03   -0.21391E-08    0.00000E+00     2   0.625E-11
 102 F= -.30373368E+03 E0= -.30378126E+03  d E =-.109139E-09
quench:  g(F)=  0.000E+00 g(S)=  0.000E+00 dE (1.order)= 0.000E+00
 bond charge predicted
       N       E                     dE             d eps       ncg     rms          rms(c)
DAV:   1    -0.303733683526E+03   -0.23865E-08   -0.90371E-11   312   0.138E-10    0.224E-10
RMM:   2    -0.303733683526E+03    0.39290E-09    0.00000E+00     2   0.752E-11
 103 F= -.30373368E+03 E0= -.30378126E+03  d E =0.145519E-09
quench:  g(F)=  0.000E+00 g(S)=  0.000E+00 dE (1.order)= 0.000E+00
 bond charge predicted
       N       E                     dE             d eps       ncg     rms          rms(c)
DAV:   1    -0.303733683525E+03    0.87311E-09   -0.45316E-10   312   0.158E-10    0.373E-10
RMM:   2    -0.303733683526E+03   -0.67666E-09    0.00000E+00     2   0.918E-11
 104 F= -.30373368E+03 E0= -.30378126E+03  d E =-.196451E-09
quench:  g(F)=  0.000E+00 g(S)=  0.000E+00 dE (1.order)= 0.000E+00
 bond charge predicted
       N       E                     dE             d eps       ncg     rms          rms(c)
DAV:   1    -0.303733683527E+03   -0.14334E-08   -0.58238E-11   312   0.209E-10    0.219E-10
RMM:   2    -0.303733683526E+03    0.93860E-09    0.00000E+00     2   0.761E-11
 105 F= -.30373368E+03 E0= -.30378126E+03  d E =0.181899E-09
quench:  g(F)=  0.000E+00 g(S)=  0.000E+00 dE (1.order)= 0.000E+00
 bond charge predicted
       N       E                     dE             d eps       ncg     rms          rms(c)
DAV:   1    -0.303733683525E+03    0.16516E-08    0.14831E-11   312   0.134E-10    0.326E-10
RMM:   2    -0.303733683526E+03   -0.76398E-09    0.00000E+00     2   0.106E-10
 106 F= -.30373368E+03 E0= -.30378126E+03  d E =-.509317E-10
quench:  g(F)=  0.000E+00 g(S)=  0.000E+00 dE (1.order)= 0.000E+00
 bond charge predicted
       N       E                     dE             d eps       ncg     rms          rms(c)
DAV:   1    -0.303733683526E+03   -0.11714E-08   -0.16859E-10   312   0.269E-10    0.302E-10
RMM:   2    -0.303733683526E+03    0.47294E-09    0.00000E+00     2   0.912E-11
 107 F= -.30373368E+03 E0= -.30378126E+03  d E =0.654836E-10
quench:  g(F)=  0.000E+00 g(S)=  0.000E+00 dE (1.order)= 0.000E+00
 bond charge predicted
       N       E                     dE             d eps       ncg     rms          rms(c)
DAV:   1    -0.303733683526E+03    0.33469E-09   -0.19567E-10   312   0.189E-10    0.208E-10
RMM:   2    -0.303733683526E+03    0.94587E-10    0.00000E+00     2   0.736E-11
 108 F= -.30373368E+03 E0= -.30378126E+03  d E =-.436557E-10
quench:  g(F)=  0.000E+00 g(S)=  0.000E+00 dE (1.order)= 0.000E+00
 bond charge predicted
       N       E                     dE             d eps       ncg     rms          rms(c)
DAV:   1    -0.303733683526E+03   -0.21828E-09    0.94246E-11   312   0.168E-10    0.244E-10
RMM:   2    -0.303733683526E+03    0.27649E-09    0.00000E+00     2   0.839E-11
 109 F= -.30373368E+03 E0= -.30378126E+03  d E =-.363798E-10
quench:  g(F)=  0.000E+00 g(S)=  0.000E+00 dE (1.order)= 0.000E+00
 bond charge predicted
       N       E                     dE             d eps       ncg     rms          rms(c)
DAV:   1    -0.303733683526E+03    0.15280E-09   -0.18751E-10   312   0.157E-10    0.308E-10
RMM:   2    -0.303733683526E+03    0.10186E-09    0.00000E+00     2   0.926E-11
 110 F= -.30373368E+03 E0= -.30378126E+03  d E =-.218279E-10
quench:  g(F)=  0.000E+00 g(S)=  0.000E+00 dE (1.order)= 0.000E+00
 bond charge predicted
       N       E                     dE             d eps       ncg     rms          rms(c)
DAV:   1    -0.303733683525E+03    0.11933E-08   -0.50393E-11   312   0.252E-10    0.199E-10
RMM:   2    -0.303733683526E+03   -0.11569E-08    0.00000E+00     2   0.741E-11
 111 F= -.30373368E+03 E0= -.30378126E+03  d E =-.654836E-10
quench:  g(F)=  0.000E+00 g(S)=  0.000E+00 dE (1.order)= 0.000E+00
 bond charge predicted
       N       E                     dE             d eps       ncg     rms          rms(c)
DAV:   1    -0.303733683525E+03   -0.58935E-09    0.73274E-11   312   0.179E-10    0.190E-10
RMM:   2    -0.303733683526E+03   -0.37835E-09    0.00000E+00     2   0.652E-11
 112 F= -.30373368E+03 E0= -.30378126E+03  d E =0.189175E-09
quench:  g(F)=  0.000E+00 g(S)=  0.000E+00 dE (1.order)= 0.000E+00
 bond charge predicted
       N       E                     dE             d eps       ncg     rms          rms(c)
DAV:   1    -0.303733683526E+03   -0.90222E-09   -0.25830E-10   312   0.979E-11    0.321E-10
RMM:   2    -0.303733683526E+03    0.47294E-09    0.00000E+00     2   0.824E-11
 113 F= -.30373368E+03 E0= -.30378126E+03  d E =-.509317E-10
quench:  g(F)=  0.000E+00 g(S)=  0.000E+00 dE (1.order)= 0.000E+00
 bond charge predicted
       N       E                     dE             d eps       ncg     rms          rms(c)
DAV:   1    -0.303733683524E+03    0.19063E-08   -0.33997E-11   312   0.151E-10    0.253E-10
RMM:   2    -0.303733683526E+03   -0.14697E-08    0.00000E+00     2   0.822E-11
 114 F= -.30373368E+03 E0= -.30378126E+03  d E =-.363798E-10
quench:  g(F)=  0.000E+00 g(S)=  0.000E+00 dE (1.order)= 0.000E+00
 bond charge predicted
       N       E                     dE             d eps       ncg     rms          rms(c)
DAV:   1    -0.303733683526E+03   -0.19063E-08   -0.85244E-11   312   0.182E-10    0.258E-10
RMM:   2    -0.303733683526E+03    0.37835E-09    0.00000E+00     2   0.738E-11
 115 F= -.30373368E+03 E0= -.30378126E+03  d E =-.582077E-10
quench:  g(F)=  0.000E+00 g(S)=  0.000E+00 dE (1.order)= 0.000E+00
 bond charge predicted
       N       E                     dE             d eps       ncg     rms          rms(c)
DAV:   1    -0.303733683525E+03    0.17099E-08   -0.95263E-11   312   0.155E-10    0.327E-10
RMM:   2    -0.303733683526E+03   -0.12151E-08    0.00000E+00     2   0.842E-11
 116 F= -.30373368E+03 E0= -.30378126E+03  d E =0.116415E-09
quench:  g(F)=  0.000E+00 g(S)=  0.000E+00 dE (1.order)= 0.000E+00
 bond charge predicted
       N       E                     dE             d eps       ncg     rms          rms(c)
DAV:   1    -0.303733683526E+03   -0.12733E-08   -0.14065E-10   312   0.224E-10    0.232E-10
RMM:   2    -0.303733683526E+03    0.29104E-10    0.00000E+00     2   0.852E-11
 117 F= -.30373368E+03 E0= -.30378126E+03  d E =-.291038E-10
quench:  g(F)=  0.000E+00 g(S)=  0.000E+00 dE (1.order)= 0.000E+00
 bond charge predicted
       N       E                     dE             d eps       ncg     rms          rms(c)
DAV:   1    -0.303733683525E+03    0.55297E-09   -0.15039E-10   312   0.139E-10    0.319E-10
RMM:   2    -0.303733683526E+03   -0.60390E-09    0.00000E+00     2   0.966E-11
 118 F= -.30373368E+03 E0= -.30378126E+03  d E =-.800355E-10
quench:  g(F)=  0.000E+00 g(S)=  0.000E+00 dE (1.order)= 0.000E+00
 bond charge predicted
       N       E                     dE             d eps       ncg     rms          rms(c)
DAV:   1    -0.303733683526E+03   -0.10550E-08    0.56373E-11   312   0.203E-10    0.244E-10
RMM:   2    -0.303733683526E+03    0.44383E-09    0.00000E+00     2   0.946E-11
 119 F= -.30373368E+03 E0= -.30378126E+03  d E =-.727596E-11
quench:  g(F)=  0.000E+00 g(S)=  0.000E+00 dE (1.order)= 0.000E+00
 bond charge predicted
       N       E                     dE             d eps       ncg     rms          rms(c)
DAV:   1    -0.303733683526E+03   -0.15280E-09   -0.13245E-10   312   0.205E-10    0.229E-10
RMM:   2    -0.303733683526E+03    0.56752E-09    0.00000E+00     2   0.832E-11
 120 F= -.30373368E+03 E0= -.30378126E+03  d E =-.291038E-10
quench:  g(F)=  0.000E+00 g(S)=  0.000E+00 dE (1.order)= 0.000E+00
 bond charge predicted
       N       E                     dE             d eps       ncg     rms          rms(c)
DAV:   1    -0.303733683526E+03    0.58935E-09   -0.30480E-11   312   0.200E-10    0.248E-10
RMM:   2    -0.303733683526E+03    0.36380E-10    0.00000E+00     2   0.900E-11
 121 F= -.30373368E+03 E0= -.30378126E+03  d E =0.582077E-10
quench:  g(F)=  0.000E+00 g(S)=  0.000E+00 dE (1.order)= 0.000E+00
 bond charge predicted
       N       E                     dE             d eps       ncg     rms          rms(c)
DAV:   1    -0.303733683527E+03   -0.67666E-09   -0.29654E-11   312   0.154E-10    0.391E-10
RMM:   2    -0.303733683526E+03    0.77853E-09    0.00000E+00     2   0.988E-11
 122 F= -.30373368E+03 E0= -.30378126E+03  d E =0.654836E-10
quench:  g(F)=  0.000E+00 g(S)=  0.000E+00 dE (1.order)= 0.000E+00
 bond charge predicted
       N       E                     dE             d eps       ncg     rms          rms(c)
DAV:   1    -0.303733683526E+03    0.93132E-09   -0.37018E-10   312   0.184E-10    0.430E-10
RMM:   2    -0.303733683526E+03   -0.16735E-09    0.00000E+00     2   0.114E-10
 123 F= -.30373368E+03 E0= -.30378126E+03  d E =-.145519E-10
quench:  g(F)=  0.000E+00 g(S)=  0.000E+00 dE (1.order)= 0.000E+00
 bond charge predicted
       N       E                     dE             d eps       ncg     rms          rms(c)
DAV:   1    -0.303733683525E+03    0.83674E-09   -0.11887E-10   312   0.214E-10    0.279E-10
RMM:   2    -0.303733683526E+03   -0.91677E-09    0.00000E+00     2   0.814E-11
 124 F= -.30373368E+03 E0= -.30378126E+03  d E =0.873115E-10
quench:  g(F)=  0.000E+00 g(S)=  0.000E+00 dE (1.order)= 0.000E+00
 bond charge predicted
       N       E                     dE             d eps       ncg     rms          rms(c)
DAV:   1    -0.303733683525E+03   -0.12369E-09   -0.29504E-10   312   0.154E-10    0.235E-10
RMM:   2    -0.303733683526E+03   -0.94587E-09    0.00000E+00     2   0.733E-11
 125 F= -.30373368E+03 E0= -.30378126E+03  d E =-.152795E-09
quench:  g(F)=  0.000E+00 g(S)=  0.000E+00 dE (1.order)= 0.000E+00
 bond charge predicted
       N       E                     dE             d eps       ncg     rms          rms(c)
DAV:   1    -0.303733683527E+03   -0.16516E-08   -0.22236E-10   312   0.111E-10    0.275E-10
RMM:   2    -0.303733683526E+03    0.74215E-09    0.00000E+00     2   0.890E-11
 126 F= -.30373368E+03 E0= -.30378126E+03  d E =0.363798E-10
quench:  g(F)=  0.000E+00 g(S)=  0.000E+00 dE (1.order)= 0.000E+00
 bond charge predicted
       N       E                     dE             d eps       ncg     rms          rms(c)
DAV:   1    -0.303733683526E+03    0.93860E-09   -0.28779E-10   312   0.247E-10    0.170E-10
RMM:   2    -0.303733683526E+03   -0.10186E-09    0.00000E+00     2   0.737E-11
 127 F= -.30373368E+03 E0= -.30378126E+03  d E =0.945874E-10
quench:  g(F)=  0.000E+00 g(S)=  0.000E+00 dE (1.order)= 0.000E+00
 bond charge predicted
       N       E                     dE             d eps       ncg     rms          rms(c)
DAV:   1    -0.303733683526E+03   -0.37835E-09   -0.16124E-10   312   0.101E-10    0.287E-10
RMM:   2    -0.303733683526E+03    0.65484E-10    0.00000E+00     2   0.883E-11
 128 F= -.30373368E+03 E0= -.30378126E+03  d E =-.211003E-09
quench:  g(F)=  0.000E+00 g(S)=  0.000E+00 dE (1.order)= 0.000E+00
 bond charge predicted
       N       E                     dE             d eps       ncg     rms          rms(c)
DAV:   1    -0.303733683526E+03   -0.21828E-10   -0.61245E-11   312   0.193E-10    0.308E-10
RMM:   2    -0.303733683526E+03    0.20373E-09    0.00000E+00     2   0.944E-11
 129 F= -.30373368E+03 E0= -.30378126E+03  d E =0.116415E-09
quench:  g(F)=  0.000E+00 g(S)=  0.000E+00 dE (1.order)= 0.000E+00
 bond charge predicted
       N       E                     dE             d eps       ncg     rms          rms(c)
DAV:   1    -0.303733683525E+03    0.97498E-09   -0.16193E-10   312   0.206E-10    0.207E-10
RMM:   2    -0.303733683526E+03   -0.79308E-09    0.00000E+00     2   0.697E-11
 130 F= -.30373368E+03 E0= -.30378126E+03  d E =-.218279E-10
quench:  g(F)=  0.000E+00 g(S)=  0.000E+00 dE (1.order)= 0.000E+00
 bond charge predicted
       N       E                     dE             d eps       ncg     rms          rms(c)
DAV:   1    -0.303733683525E+03    0.41473E-09   -0.67291E-11   312   0.144E-10    0.241E-10
RMM:   2    -0.303733683526E+03   -0.12005E-08    0.00000E+00     2   0.719E-11
 131 F= -.30373368E+03 E0= -.30378126E+03  d E =0.727596E-11
quench:  g(F)=  0.000E+00 g(S)=  0.000E+00 dE (1.order)= 0.000E+00
 bond charge predicted
       N       E                     dE             d eps       ncg     rms          rms(c)
DAV:   1    -0.303733683525E+03   -0.54570E-09   -0.35099E-11   312   0.187E-10    0.220E-10
RMM:   2    -0.303733683526E+03   -0.63301E-09    0.00000E+00     2   0.879E-11
 132 F= -.30373368E+03 E0= -.30378126E+03  d E =0.218279E-10
quench:  g(F)=  0.000E+00 g(S)=  0.000E+00 dE (1.order)= 0.000E+00
 bond charge predicted
       N       E                     dE             d eps       ncg     rms          rms(c)
DAV:   1    -0.303733683525E+03    0.21828E-09    0.59629E-11   312   0.232E-10    0.298E-10
RMM:   2    -0.303733683526E+03   -0.80763E-09    0.00000E+00     2   0.872E-11
 133 F= -.30373368E+03 E0= -.30378126E+03  d E =0.436557E-10
quench:  g(F)=  0.000E+00 g(S)=  0.000E+00 dE (1.order)= 0.000E+00
 bond charge predicted
       N       E                     dE             d eps       ncg     rms          rms(c)
DAV:   1    -0.303733683527E+03   -0.16807E-08    0.27910E-11   312   0.268E-10    0.299E-10
RMM:   2    -0.303733683526E+03    0.83674E-09    0.00000E+00     2   0.899E-11
 134 F= -.30373368E+03 E0= -.30378126E+03  d E =-.363798E-10
quench:  g(F)=  0.000E+00 g(S)=  0.000E+00 dE (1.order)= 0.000E+00
 bond charge predicted
       N       E                     dE             d eps       ncg     rms          rms(c)
DAV:   1    -0.303733683525E+03    0.15934E-08   -0.28589E-10   312   0.310E-10    0.272E-10
RMM:   2    -0.303733683526E+03   -0.77125E-09    0.00000E+00     2   0.907E-11
 135 F= -.30373368E+03 E0= -.30378126E+03  d E =-.145519E-10
quench:  g(F)=  0.000E+00 g(S)=  0.000E+00 dE (1.order)= 0.000E+00
 bond charge predicted
       N       E                     dE             d eps       ncg     rms          rms(c)
DAV:   1    -0.303733683525E+03   -0.13824E-09   -0.12742E-11   312   0.261E-10    0.213E-10
RMM:   2    -0.303733683526E+03   -0.59663E-09    0.00000E+00     2   0.732E-11
 136 F= -.30373368E+03 E0= -.30378126E+03  d E =0.363798E-10
quench:  g(F)=  0.000E+00 g(S)=  0.000E+00 dE (1.order)= 0.000E+00
 bond charge predicted
       N       E                     dE             d eps       ncg     rms          rms(c)
DAV:   1    -0.303733683525E+03    0.13097E-09    0.26623E-11   312   0.206E-10    0.182E-10
RMM:   2    -0.303733683526E+03   -0.73487E-09    0.00000E+00     2   0.660E-11
 137 F= -.30373368E+03 E0= -.30378126E+03  d E =-.727596E-11
quench:  g(F)=  0.000E+00 g(S)=  0.000E+00 dE (1.order)= 0.000E+00
 bond charge predicted
       N       E                     dE             d eps       ncg     rms          rms(c)
DAV:   1    -0.303733683525E+03   -0.37835E-09    0.33859E-11   312   0.129E-10    0.308E-10
RMM:   2    -0.303733683526E+03   -0.34925E-09    0.00000E+00     2   0.824E-11
 138 F= -.30373368E+03 E0= -.30378126E+03  d E =0.727596E-11
quench:  g(F)=  0.000E+00 g(S)=  0.000E+00 dE (1.order)= 0.000E+00
 bond charge predicted
       N       E                     dE             d eps       ncg     rms          rms(c)
DAV:   1    -0.303733683524E+03    0.10405E-08   -0.21778E-10   312   0.235E-10    0.194E-10
RMM:   2    -0.303733683526E+03   -0.13897E-08    0.00000E+00     2   0.756E-11
 139 F= -.30373368E+03 E0= -.30378126E+03  d E =0.000000E+00
quench:  g(F)=  0.000E+00 g(S)=  0.000E+00 dE (1.order)= 0.000E+00
 bond charge predicted
       N       E                     dE             d eps       ncg     rms          rms(c)
DAV:   1    -0.303733683526E+03   -0.11933E-08    0.17947E-10   312   0.171E-10    0.261E-10
RMM:   2    -0.303733683526E+03   -0.27649E-09    0.00000E+00     2   0.829E-11
 140 F= -.30373368E+03 E0= -.30378126E+03  d E =-.800355E-10
quench:  g(F)=  0.000E+00 g(S)=  0.000E+00 dE (1.order)= 0.000E+00
 bond charge predicted
       N       E                     dE             d eps       ncg     rms          rms(c)
DAV:   1    -0.303733683526E+03   -0.31287E-09    0.17283E-10   312   0.184E-10    0.332E-10
RMM:   2    -0.303733683526E+03    0.87311E-10    0.00000E+00     2   0.848E-11
 141 F= -.30373368E+03 E0= -.30378126E+03  d E =0.509317E-10
quench:  g(F)=  0.000E+00 g(S)=  0.000E+00 dE (1.order)= 0.000E+00
 bond charge predicted
       N       E                     dE             d eps       ncg     rms          rms(c)
DAV:   1    -0.303733683526E+03    0.10186E-09    0.82406E-11   312   0.223E-10    0.272E-10
RMM:   2    -0.303733683526E+03    0.58208E-10    0.00000E+00     2   0.792E-11
 142 F= -.30373368E+03 E0= -.30378126E+03  d E =0.727596E-10
quench:  g(F)=  0.000E+00 g(S)=  0.000E+00 dE (1.order)= 0.000E+00
 bond charge predicted
       N       E                     dE             d eps       ncg     rms          rms(c)
DAV:   1    -0.303733683527E+03   -0.81491E-09   -0.11171E-11   312   0.219E-10    0.294E-10
RMM:   2    -0.303733683526E+03    0.74215E-09    0.00000E+00     2   0.106E-10
 143 F= -.30373368E+03 E0= -.30378126E+03  d E =-.130967E-09
quench:  g(F)=  0.000E+00 g(S)=  0.000E+00 dE (1.order)= 0.000E+00
 bond charge predicted
       N       E                     dE             d eps       ncg     rms          rms(c)
DAV:   1    -0.303733683526E+03    0.78580E-09   -0.14398E-10   312   0.345E-10    0.253E-10
RMM:   2    -0.303733683526E+03    0.50932E-10    0.00000E+00     2   0.101E-10
 144 F= -.30373368E+03 E0= -.30378126E+03  d E =0.945874E-10
quench:  g(F)=  0.000E+00 g(S)=  0.000E+00 dE (1.order)= 0.000E+00
 bond charge predicted
       N       E                     dE             d eps       ncg     rms          rms(c)
DAV:   1    -0.303733683527E+03   -0.80763E-09   -0.15667E-10   312   0.275E-10    0.192E-10
RMM:   2    -0.303733683526E+03    0.86584E-09    0.00000E+00     2   0.723E-11
 145 F= -.30373368E+03 E0= -.30378126E+03  d E =0.727596E-11
quench:  g(F)=  0.000E+00 g(S)=  0.000E+00 dE (1.order)= 0.000E+00
 bond charge predicted
       N       E                     dE             d eps       ncg     rms          rms(c)
DAV:   1    -0.303733683526E+03    0.92405E-09   -0.68231E-11   312   0.170E-10    0.154E-10
RMM:   2    -0.303733683526E+03   -0.17462E-09    0.00000E+00     2   0.621E-11
 146 F= -.30373368E+03 E0= -.30378126E+03  d E =-.116415E-09
quench:  g(F)=  0.000E+00 g(S)=  0.000E+00 dE (1.order)= 0.000E+00
 bond charge predicted
       N       E                     dE             d eps       ncg     rms          rms(c)
DAV:   1    -0.303733683527E+03   -0.87311E-09   -0.79995E-11   312   0.105E-10    0.267E-10
RMM:   2    -0.303733683526E+03    0.78580E-09    0.00000E+00     2   0.677E-11
 147 F= -.30373368E+03 E0= -.30378126E+03  d E =0.873115E-10
quench:  g(F)=  0.000E+00 g(S)=  0.000E+00 dE (1.order)= 0.000E+00
 bond charge predicted
       N       E                     dE             d eps       ncg     rms          rms(c)
DAV:   1    -0.303733683526E+03    0.86584E-09   -0.23991E-11   312   0.149E-10    0.314E-10
RMM:   2    -0.303733683526E+03   -0.29104E-10    0.00000E+00     2   0.879E-11
 148 F= -.30373368E+03 E0= -.30378126E+03  d E =0.509317E-10
quench:  g(F)=  0.000E+00 g(S)=  0.000E+00 dE (1.order)= 0.000E+00
 bond charge predicted
       N       E                     dE             d eps       ncg     rms          rms(c)
DAV:   1    -0.303733683526E+03   -0.66211E-09   -0.21610E-10   312   0.259E-10    0.268E-10
RMM:   2    -0.303733683526E+03    0.49477E-09    0.00000E+00     2   0.700E-11
 149 F= -.30373368E+03 E0= -.30378126E+03  d E =-.138243E-09
quench:  g(F)=  0.000E+00 g(S)=  0.000E+00 dE (1.order)= 0.000E+00
 bond charge predicted
       N       E                     dE             d eps       ncg     rms          rms(c)
DAV:   1    -0.303733683525E+03    0.12224E-08   -0.83865E-12   312   0.191E-10    0.223E-10
RMM:   2    -0.303733683526E+03   -0.64756E-09    0.00000E+00     2   0.758E-11
 150 F= -.30373368E+03 E0= -.30378126E+03  d E =0.800355E-10
quench:  g(F)=  0.000E+00 g(S)=  0.000E+00 dE (1.order)= 0.000E+00
 bond charge predicted
       N       E                     dE             d eps       ncg     rms          rms(c)
DAV:   1    -0.303733683525E+03    0.24011E-09   -0.18202E-10   312   0.216E-10    0.229E-10
RMM:   2    -0.303733683526E+03   -0.90222E-09    0.00000E+00     2   0.701E-11
 151 F= -.30373368E+03 E0= -.30378126E+03  d E =-.145519E-10
quench:  g(F)=  0.000E+00 g(S)=  0.000E+00 dE (1.order)= 0.000E+00
 bond charge predicted
       N       E                     dE             d eps       ncg     rms          rms(c)
DAV:   1    -0.303733683526E+03   -0.69849E-09    0.73106E-11   312   0.170E-10    0.262E-10
RMM:   2    -0.303733683526E+03   -0.23283E-09    0.00000E+00     2   0.746E-11
 152 F= -.30373368E+03 E0= -.30378126E+03  d E =-.291038E-10
quench:  g(F)=  0.000E+00 g(S)=  0.000E+00 dE (1.order)= 0.000E+00
 bond charge predicted
       N       E                     dE             d eps       ncg     rms          rms(c)
DAV:   1    -0.303733683527E+03   -0.14043E-08   -0.28328E-10   312   0.144E-10    0.319E-10
RMM:   2    -0.303733683526E+03    0.11350E-08    0.00000E+00     2   0.868E-11
 153 F= -.30373368E+03 E0= -.30378126E+03  d E =-.363798E-10
quench:  g(F)=  0.000E+00 g(S)=  0.000E+00 dE (1.order)= 0.000E+00
 bond charge predicted
       N       E                     dE             d eps       ncg     rms          rms(c)
DAV:   1    -0.303733683526E+03    0.92405E-09   -0.34293E-10   312   0.153E-10    0.424E-10
RMM:   2    -0.303733683526E+03    0.28376E-09    0.00000E+00     2   0.108E-10
 154 F= -.30373368E+03 E0= -.30378126E+03  d E =0.727596E-10
quench:  g(F)=  0.000E+00 g(S)=  0.000E+00 dE (1.order)= 0.000E+00
 bond charge predicted
       N       E                     dE             d eps       ncg     rms          rms(c)
DAV:   1    -0.303733683527E+03   -0.62573E-09   -0.79560E-11   312   0.188E-10    0.234E-10
RMM:   2    -0.303733683526E+03    0.10041E-08    0.00000E+00     2   0.848E-11
 155 F= -.30373368E+03 E0= -.30378126E+03  d E =0.945874E-10
quench:  g(F)=  0.000E+00 g(S)=  0.000E+00 dE (1.order)= 0.000E+00
 bond charge predicted
       N       E                     dE             d eps       ncg     rms          rms(c)
DAV:   1    -0.303733683526E+03    0.32014E-09   -0.18506E-10   312   0.197E-10    0.262E-10
RMM:   2    -0.303733683526E+03    0.48749E-09    0.00000E+00     2   0.752E-11
 156 F= -.30373368E+03 E0= -.30378126E+03  d E =-.196451E-09
quench:  g(F)=  0.000E+00 g(S)=  0.000E+00 dE (1.order)= 0.000E+00
 bond charge predicted
       N       E                     dE             d eps       ncg     rms          rms(c)
DAV:   1    -0.303733683526E+03    0.55297E-09   -0.14933E-11   312   0.135E-10    0.364E-10
RMM:   2    -0.303733683526E+03   -0.21828E-10    0.00000E+00     2   0.938E-11
 157 F= -.30373368E+03 E0= -.30378126E+03  d E =0.436557E-10
quench:  g(F)=  0.000E+00 g(S)=  0.000E+00 dE (1.order)= 0.000E+00
 bond charge predicted
       N       E                     dE             d eps       ncg     rms          rms(c)
DAV:   1    -0.303733683524E+03    0.17317E-08   -0.27549E-10   312   0.269E-10    0.244E-10
RMM:   2    -0.303733683526E+03   -0.16589E-08    0.00000E+00     2   0.923E-11
 158 F= -.30373368E+03 E0= -.30378126E+03  d E =0.945874E-10
quench:  g(F)=  0.000E+00 g(S)=  0.000E+00 dE (1.order)= 0.000E+00
 bond charge predicted
       N       E                     dE             d eps       ncg     rms          rms(c)
DAV:   1    -0.303733683526E+03   -0.18408E-08   -0.13604E-10   312   0.163E-10    0.274E-10
RMM:   2    -0.303733683526E+03    0.24011E-09    0.00000E+00     2   0.905E-11
 159 F= -.30373368E+03 E0= -.30378126E+03  d E =0.582077E-10
quench:  g(F)=  0.000E+00 g(S)=  0.000E+00 dE (1.order)= 0.000E+00
 bond charge predicted
       N       E                     dE             d eps       ncg     rms          rms(c)
DAV:   1    -0.303733683526E+03    0.15280E-09   -0.10977E-10   312   0.200E-10    0.278E-10
RMM:   2    -0.303733683526E+03   -0.65484E-10    0.00000E+00     2   0.990E-11
 160 F= -.30373368E+03 E0= -.30378126E+03  d E =-.152795E-09
quench:  g(F)=  0.000E+00 g(S)=  0.000E+00 dE (1.order)= 0.000E+00
 bond charge predicted
       N       E                     dE             d eps       ncg     rms          rms(c)
DAV:   1    -0.303733683525E+03    0.72032E-09   -0.38077E-10   312   0.265E-10    0.316E-10
RMM:   2    -0.303733683526E+03   -0.85129E-09    0.00000E+00     2   0.112E-10
 161 F= -.30373368E+03 E0= -.30378126E+03  d E =-.654836E-10
quench:  g(F)=  0.000E+00 g(S)=  0.000E+00 dE (1.order)= 0.000E+00
 bond charge predicted
       N       E                     dE             d eps       ncg     rms          rms(c)
DAV:   1    -0.303733683526E+03   -0.99681E-09   -0.16026E-10   312   0.281E-10    0.252E-10
RMM:   2    -0.303733683526E+03    0.18917E-09    0.00000E+00     2   0.796E-11
 162 F= -.30373368E+03 E0= -.30378126E+03  d E =0.436557E-10
quench:  g(F)=  0.000E+00 g(S)=  0.000E+00 dE (1.order)= 0.000E+00
 bond charge predicted
       N       E                     dE             d eps       ncg     rms          rms(c)
DAV:   1    -0.303733683526E+03    0.40018E-09   -0.18452E-10   312   0.152E-10    0.205E-10
RMM:   2    -0.303733683526E+03   -0.72760E-10    0.00000E+00     2   0.592E-11
 163 F= -.30373368E+03 E0= -.30378126E+03  d E =0.138243E-09
quench:  g(F)=  0.000E+00 g(S)=  0.000E+00 dE (1.order)= 0.000E+00
 bond charge predicted
       N       E                     dE             d eps       ncg     rms          rms(c)
DAV:   1    -0.303733683525E+03    0.94587E-09   -0.31318E-10   312   0.802E-11    0.255E-10
RMM:   2    -0.303733683526E+03   -0.10550E-08    0.00000E+00     2   0.694E-11
 164 F= -.30373368E+03 E0= -.30378126E+03  d E =-.363798E-10
quench:  g(F)=  0.000E+00 g(S)=  0.000E+00 dE (1.order)= 0.000E+00
 bond charge predicted
       N       E                     dE             d eps       ncg     rms          rms(c)
DAV:   1    -0.303733683526E+03   -0.16371E-08   -0.57490E-11   312   0.170E-10    0.203E-10
RMM:   2    -0.303733683526E+03    0.49477E-09    0.00000E+00     2   0.643E-11
 165 F= -.30373368E+03 E0= -.30378126E+03  d E =-.873115E-10
quench:  g(F)=  0.000E+00 g(S)=  0.000E+00 dE (1.order)= 0.000E+00
 bond charge predicted
       N       E                     dE             d eps       ncg     rms          rms(c)
DAV:   1    -0.303733683525E+03    0.88039E-09   -0.24963E-10   312   0.104E-10    0.313E-10
RMM:   2    -0.303733683526E+03   -0.26193E-09    0.00000E+00     2   0.809E-11
 166 F= -.30373368E+03 E0= -.30378126E+03  d E =0.123691E-09
quench:  g(F)=  0.000E+00 g(S)=  0.000E+00 dE (1.order)= 0.000E+00
 bond charge predicted
       N       E                     dE             d eps       ncg     rms          rms(c)
DAV:   1    -0.303733683527E+03   -0.13315E-08   -0.25814E-11   312   0.146E-10    0.340E-10
RMM:   2    -0.303733683526E+03    0.88039E-09    0.00000E+00     2   0.838E-11
 167 F= -.30373368E+03 E0= -.30378126E+03  d E =-.189175E-09
quench:  g(F)=  0.000E+00 g(S)=  0.000E+00 dE (1.order)= 0.000E+00
 bond charge predicted
       N       E                     dE             d eps       ncg     rms          rms(c)
DAV:   1    -0.303733683527E+03    0.94587E-10   -0.40731E-11   312   0.197E-10    0.423E-10
RMM:   2    -0.303733683526E+03    0.91677E-09    0.00000E+00     2   0.103E-10
 168 F= -.30373368E+03 E0= -.30378126E+03  d E =0.130967E-09
quench:  g(F)=  0.000E+00 g(S)=  0.000E+00 dE (1.order)= 0.000E+00
 bond charge predicted
       N       E                     dE             d eps       ncg     rms          rms(c)
DAV:   1    -0.303733683525E+03    0.13606E-08   -0.25343E-10   312   0.307E-10    0.281E-10
RMM:   2    -0.303733683526E+03   -0.38563E-09    0.00000E+00     2   0.918E-11
 169 F= -.30373368E+03 E0= -.30378126E+03  d E =0.582077E-10
quench:  g(F)=  0.000E+00 g(S)=  0.000E+00 dE (1.order)= 0.000E+00
 bond charge predicted
       N       E                     dE             d eps       ncg     rms          rms(c)
DAV:   1    -0.303733683526E+03   -0.60390E-09   -0.81465E-11   312   0.203E-10    0.249E-10
RMM:   2    -0.303733683526E+03    0.10914E-09    0.00000E+00     2   0.864E-11
 170 F= -.30373368E+03 E0= -.30378126E+03  d E =-.109139E-09
quench:  g(F)=  0.000E+00 g(S)=  0.000E+00 dE (1.order)= 0.000E+00
 bond charge predicted
       N       E                     dE             d eps       ncg     rms          rms(c)
DAV:   1    -0.303733683527E+03   -0.76398E-09   -0.15809E-10   312   0.248E-10    0.320E-10
RMM:   2    -0.303733683526E+03    0.86584E-09    0.00000E+00     2   0.111E-10
 171 F= -.30373368E+03 E0= -.30378126E+03  d E =-.727596E-11
quench:  g(F)=  0.000E+00 g(S)=  0.000E+00 dE (1.order)= 0.000E+00
 bond charge predicted
       N       E                     dE             d eps       ncg     rms          rms(c)
DAV:   1    -0.303733683526E+03    0.11132E-08   -0.22803E-10   312   0.281E-10    0.337E-10
RMM:   2    -0.303733683526E+03   -0.28376E-09    0.00000E+00     2   0.909E-11
 172 F= -.30373368E+03 E0= -.30378126E+03  d E =-.363798E-10
quench:  g(F)=  0.000E+00 g(S)=  0.000E+00 dE (1.order)= 0.000E+00
 bond charge predicted
       N       E                     dE             d eps       ncg     rms          rms(c)
DAV:   1    -0.303733683525E+03    0.17462E-09   -0.26150E-11   312   0.167E-10    0.230E-10
RMM:   2    -0.303733683526E+03   -0.27649E-09    0.00000E+00     2   0.783E-11
 173 F= -.30373368E+03 E0= -.30378126E+03  d E =0.181899E-09
quench:  g(F)=  0.000E+00 g(S)=  0.000E+00 dE (1.order)= 0.000E+00
 bond charge predicted
       N       E                     dE             d eps       ncg     rms          rms(c)
DAV:   1    -0.303733683526E+03   -0.36380E-09   -0.88557E-11   312   0.157E-10    0.385E-10
RMM:   2    -0.303733683526E+03   -0.29104E-10    0.00000E+00     2   0.125E-10
 174 F= -.30373368E+03 E0= -.30378126E+03  d E =-.116415E-09
quench:  g(F)=  0.000E+00 g(S)=  0.000E+00 dE (1.order)= 0.000E+00
 bond charge predicted
       N       E                     dE             d eps       ncg     rms          rms(c)
DAV:   1    -0.303733683527E+03   -0.80036E-09    0.21644E-10   312   0.419E-10    0.218E-10
RMM:   2    -0.303733683526E+03    0.80763E-09    0.00000E+00     2   0.900E-11
 175 F= -.30373368E+03 E0= -.30378126E+03  d E =0.363798E-10
quench:  g(F)=  0.000E+00 g(S)=  0.000E+00 dE (1.order)= 0.000E+00
 bond charge predicted
       N       E                     dE             d eps       ncg     rms          rms(c)
DAV:   1    -0.303733683526E+03    0.72760E-09   -0.19413E-10   312   0.132E-10    0.248E-10
RMM:   2    -0.303733683526E+03    0.14552E-09    0.00000E+00     2   0.789E-11
 176 F= -.30373368E+03 E0= -.30378126E+03  d E =0.654836E-10
quench:  g(F)=  0.000E+00 g(S)=  0.000E+00 dE (1.order)= 0.000E+00
 bond charge predicted
       N       E                     dE             d eps       ncg     rms          rms(c)
DAV:   1    -0.303733683526E+03   -0.19645E-09   -0.61267E-11   312   0.146E-10    0.264E-10
RMM:   2    -0.303733683526E+03    0.18917E-09    0.00000E+00     2   0.945E-11
 177 F= -.30373368E+03 E0= -.30378126E+03  d E =-.152795E-09
quench:  g(F)=  0.000E+00 g(S)=  0.000E+00 dE (1.order)= 0.000E+00
 bond charge predicted
       N       E                     dE             d eps       ncg     rms          rms(c)
DAV:   1    -0.303733683525E+03    0.59663E-09   -0.17409E-10   312   0.244E-10    0.218E-10
RMM:   2    -0.303733683526E+03   -0.37107E-09    0.00000E+00     2   0.857E-11
 178 F= -.30373368E+03 E0= -.30378126E+03  d E =0.363798E-10
quench:  g(F)=  0.000E+00 g(S)=  0.000E+00 dE (1.order)= 0.000E+00
 bond charge predicted
       N       E                     dE             d eps       ncg     rms          rms(c)
DAV:   1    -0.303733683525E+03    0.59663E-09   -0.30848E-10   312   0.185E-10    0.308E-10
RMM:   2    -0.303733683526E+03   -0.92405E-09    0.00000E+00     2   0.819E-11
 179 F= -.30373368E+03 E0= -.30378126E+03  d E =0.436557E-10
quench:  g(F)=  0.000E+00 g(S)=  0.000E+00 dE (1.order)= 0.000E+00
 bond charge predicted
       N       E                     dE             d eps       ncg     rms          rms(c)
DAV:   1    -0.303733683527E+03   -0.18263E-08   -0.33868E-11   312   0.158E-10    0.354E-10
RMM:   2    -0.303733683526E+03    0.87311E-09    0.00000E+00     2   0.895E-11
 180 F= -.30373368E+03 E0= -.30378126E+03  d E =-.291038E-10
quench:  g(F)=  0.000E+00 g(S)=  0.000E+00 dE (1.order)= 0.000E+00
 bond charge predicted
       N       E                     dE             d eps       ncg     rms          rms(c)
DAV:   1    -0.303733683525E+03    0.15716E-08   -0.69711E-11   312   0.224E-10    0.245E-10
RMM:   2    -0.303733683526E+03   -0.66211E-09    0.00000E+00     2   0.775E-11
 181 F= -.30373368E+03 E0= -.30378126E+03  d E =0.363798E-10
quench:  g(F)=  0.000E+00 g(S)=  0.000E+00 dE (1.order)= 0.000E+00
 bond charge predicted
       N       E                     dE             d eps       ncg     rms          rms(c)
DAV:   1    -0.303733683526E+03   -0.13024E-08   -0.73292E-11   312   0.191E-10    0.234E-10
RMM:   2    -0.303733683526E+03    0.57480E-09    0.00000E+00     2   0.894E-11
 182 F= -.30373368E+03 E0= -.30378126E+03  d E =-.654836E-10
quench:  g(F)=  0.000E+00 g(S)=  0.000E+00 dE (1.order)= 0.000E+00
 bond charge predicted
       N       E                     dE             d eps       ncg     rms          rms(c)
DAV:   1    -0.303733683526E+03    0.11642E-09   -0.74974E-11   312   0.181E-10    0.245E-10
RMM:   2    -0.303733683526E+03    0.50932E-09    0.00000E+00     2   0.733E-11
 183 F= -.30373368E+03 E0= -.30378126E+03  d E =0.509317E-10
quench:  g(F)=  0.000E+00 g(S)=  0.000E+00 dE (1.order)= 0.000E+00
 bond charge predicted
       N       E                     dE             d eps       ncg     rms          rms(c)
DAV:   1    -0.303733683526E+03    0.35652E-09    0.11423E-10   312   0.169E-10    0.271E-10
RMM:   2    -0.303733683526E+03    0.94587E-10    0.00000E+00     2   0.786E-11
 184 F= -.30373368E+03 E0= -.30378126E+03  d E =-.582077E-10
quench:  g(F)=  0.000E+00 g(S)=  0.000E+00 dE (1.order)= 0.000E+00
 bond charge predicted
       N       E                     dE             d eps       ncg     rms          rms(c)
DAV:   1    -0.303733683526E+03   -0.27649E-09   -0.23056E-10   312   0.242E-10    0.353E-10
RMM:   2    -0.303733683526E+03    0.47294E-09    0.00000E+00     2   0.899E-11
 185 F= -.30373368E+03 E0= -.30378126E+03  d E =0.101863E-09
quench:  g(F)=  0.000E+00 g(S)=  0.000E+00 dE (1.order)= 0.000E+00
 bond charge predicted
       N       E                     dE             d eps       ncg     rms          rms(c)
DAV:   1    -0.303733683526E+03    0.67666E-09   -0.53496E-10   312   0.194E-10    0.199E-10
RMM:   2    -0.303733683526E+03   -0.35652E-09    0.00000E+00     2   0.792E-11
 186 F= -.30373368E+03 E0= -.30378126E+03  d E =-.152795E-09
quench:  g(F)=  0.000E+00 g(S)=  0.000E+00 dE (1.order)= 0.000E+00
 bond charge predicted
[...]
 bond charge predicted
       N       E                     dE             d eps       ncg     rms          rms(c)
DAV:   1    -0.303733683527E+03   -0.21755E-08   -0.16907E-10   294   0.165E-10    0.250E-10
RMM:   2    -0.303733683526E+03    0.12587E-08    0.00000E+00     1   0.854E-11
 647 F= -.30373368E+03 E0= -.30378126E+03  d E =-.218279E-10
quench:  g(F)=  0.000E+00 g(S)=  0.000E+00 dE (1.order)= 0.000E+00
 bond charge predicted
       N       E                     dE             d eps       ncg     rms          rms(c)
DAV:   1    -0.303733683525E+03    0.19863E-08   -0.26547E-10   294   0.174E-10    0.271E-10
RMM:   2    -0.303733683526E+03   -0.64756E-09    0.00000E+00     1   0.785E-11
 648 F= -.30373368E+03 E0= -.30378126E+03  d E =0.800355E-10
quench:  g(F)=  0.000E+00 g(S)=  0.000E+00 dE (1.order)= 0.000E+00
 bond charge predicted
       N       E                     dE             d eps       ncg     rms          rms(c)
DAV:   1    -0.303733683525E+03    0.43656E-09   -0.50977E-12   294   0.132E-10    0.267E-10
RMM:   2    -0.303733683526E+03   -0.11423E-08    0.00000E+00     1   0.719E-11
 649 F= -.30373368E+03 E0= -.30378126E+03  d E =-.582077E-10
quench:  g(F)=  0.000E+00 g(S)=  0.000E+00 dE (1.order)= 0.000E+00
 bond charge predicted
       N       E                     dE             d eps       ncg     rms          rms(c)
DAV:   1    -0.303733683525E+03   -0.55297E-09   -0.11650E-10   294   0.149E-10    0.212E-10
RMM:   2    -0.303733683526E+03   -0.54570E-09    0.00000E+00     1   0.768E-11
 650 F= -.30373368E+03 E0= -.30378126E+03  d E =0.436557E-10
quench:  g(F)=  0.000E+00 g(S)=  0.000E+00 dE (1.order)= 0.000E+00
 bond charge predicted
       N       E                     dE             d eps       ncg     rms          rms(c)
DAV:   1    -0.303733683526E+03   -0.93860E-09    0.32505E-11   294   0.158E-10    0.252E-10
RMM:   2    -0.303733683526E+03    0.32742E-09    0.00000E+00     1   0.734E-11
 651 F= -.30373368E+03 E0= -.30378126E+03  d E =-.654836E-10
quench:  g(F)=  0.000E+00 g(S)=  0.000E+00 dE (1.order)= 0.000E+00
 bond charge predicted
       N       E                     dE             d eps       ncg     rms          rms(c)
DAV:   1    -0.303733683527E+03   -0.80763E-09   -0.66628E-11   294   0.130E-10    0.252E-10
RMM:   2    -0.303733683526E+03    0.11132E-08    0.00000E+00     1   0.775E-11
 652 F= -.30373368E+03 E0= -.30378126E+03  d E =-.218279E-10
quench:  g(F)=  0.000E+00 g(S)=  0.000E+00 dE (1.order)= 0.000E+00
 bond charge predicted
       N       E                     dE             d eps       ncg     rms          rms(c)
DAV:   1    -0.303733683525E+03    0.16444E-08    0.47874E-11   294   0.197E-10    0.329E-10
RMM:   2    -0.303733683526E+03   -0.45111E-09    0.00000E+00     1   0.797E-11
 653 F= -.30373368E+03 E0= -.30378126E+03  d E =0.800355E-10
quench:  g(F)=  0.000E+00 g(S)=  0.000E+00 dE (1.order)= 0.000E+00
 bond charge predicted
       N       E                     dE             d eps       ncg     rms          rms(c)
DAV:   1    -0.303733683526E+03   -0.48749E-09   -0.48157E-10   294   0.198E-10    0.239E-10
RMM:   2    -0.303733683526E+03    0.10186E-09    0.00000E+00     1   0.804E-11
 654 F= -.30373368E+03 E0= -.30378126E+03  d E =0.654836E-10
quench:  g(F)=  0.000E+00 g(S)=  0.000E+00 dE (1.order)= 0.000E+00
 bond charge predicted
       N       E                     dE             d eps       ncg     rms          rms(c)
DAV:   1    -0.303733683525E+03    0.53114E-09   -0.15220E-10   294   0.153E-10    0.308E-10
RMM:   2    -0.303733683526E+03   -0.49477E-09    0.00000E+00     1   0.955E-11
 655 F= -.30373368E+03 E0= -.30378126E+03  d E =-.654836E-10
quench:  g(F)=  0.000E+00 g(S)=  0.000E+00 dE (1.order)= 0.000E+00
 bond charge predicted
       N       E                     dE             d eps       ncg     rms          rms(c)
DAV:   1    -0.303733683526E+03   -0.80036E-09   -0.32545E-10   294   0.341E-10    0.210E-10
RMM:   2    -0.303733683526E+03    0.32014E-09    0.00000E+00     1   0.720E-11
 656 F= -.30373368E+03 E0= -.30378126E+03  d E =0.145519E-10
quench:  g(F)=  0.000E+00 g(S)=  0.000E+00 dE (1.order)= 0.000E+00
 bond charge predicted
       N       E                     dE             d eps       ncg     rms          rms(c)
DAV:   1    -0.303733683525E+03    0.77125E-09    0.88175E-11   294   0.131E-10    0.259E-10
RMM:   2    -0.303733683526E+03   -0.58935E-09    0.00000E+00     1   0.842E-11
 657 F= -.30373368E+03 E0= -.30378126E+03  d E =-.138243E-09
quench:  g(F)=  0.000E+00 g(S)=  0.000E+00 dE (1.order)= 0.000E+00
 bond charge predicted
       N       E                     dE             d eps       ncg     rms          rms(c)
DAV:   1    -0.303733683525E+03   -0.18190E-09   -0.25441E-10   294   0.195E-10    0.271E-10
RMM:   2    -0.303733683526E+03   -0.22555E-09    0.00000E+00     1   0.779E-11
 658 F= -.30373368E+03 E0= -.30378126E+03  d E =0.181899E-09
quench:  g(F)=  0.000E+00 g(S)=  0.000E+00 dE (1.order)= 0.000E+00
 bond charge predicted
       N       E                     dE             d eps       ncg     rms          rms(c)
DAV:   1    -0.303733683526E+03   -0.94587E-10    0.52518E-11   294   0.223E-10    0.247E-10
RMM:   2    -0.303733683526E+03   -0.18917E-09    0.00000E+00     1   0.910E-11
 659 F= -.30373368E+03 E0= -.30378126E+03  d E =-.582077E-10
quench:  g(F)=  0.000E+00 g(S)=  0.000E+00 dE (1.order)= 0.000E+00
 bond charge predicted
       N       E                     dE             d eps       ncg     rms          rms(c)
DAV:   1    -0.303733683525E+03    0.23283E-09   -0.36661E-10   294   0.230E-10    0.255E-10
RMM:   2    -0.303733683526E+03   -0.53114E-09    0.00000E+00     1   0.851E-11
 660 F= -.30373368E+03 E0= -.30378126E+03  d E =-.109139E-09
quench:  g(F)=  0.000E+00 g(S)=  0.000E+00 dE (1.order)= 0.000E+00
 bond charge predicted
       N       E                     dE             d eps       ncg     rms          rms(c)
DAV:   1    -0.303733683527E+03   -0.14843E-08    0.73417E-11   294   0.265E-10    0.247E-10
RMM:   2    -0.303733683526E+03    0.96043E-09    0.00000E+00     1   0.839E-11
 661 F= -.30373368E+03 E0= -.30378126E+03  d E =0.727596E-11
quench:  g(F)=  0.000E+00 g(S)=  0.000E+00 dE (1.order)= 0.000E+00
 bond charge predicted
       N       E                     dE             d eps       ncg     rms          rms(c)
DAV:   1    -0.303733683526E+03    0.11787E-08   -0.99084E-11   294   0.156E-10    0.229E-10
RMM:   2    -0.303733683526E+03   -0.12369E-09    0.00000E+00     1   0.803E-11
 662 F= -.30373368E+03 E0= -.30378126E+03  d E =0.945874E-10
quench:  g(F)=  0.000E+00 g(S)=  0.000E+00 dE (1.order)= 0.000E+00
 bond charge predicted
       N       E                     dE             d eps       ncg     rms          rms(c)
DAV:   1    -0.303733683527E+03   -0.16225E-08   -0.33863E-10   294   0.182E-10    0.192E-10
RMM:   2    -0.303733683526E+03    0.15207E-08    0.00000E+00     1   0.811E-11
 663 F= -.30373368E+03 E0= -.30378126E+03  d E =0.218279E-10
quench:  g(F)=  0.000E+00 g(S)=  0.000E+00 dE (1.order)= 0.000E+00
 bond charge predicted
       N       E                     dE             d eps       ncg     rms          rms(c)
DAV:   1    -0.303733683527E+03    0.68394E-09    0.94911E-12   294   0.135E-10    0.212E-10
RMM:   2    -0.303733683526E+03    0.90222E-09    0.00000E+00     1   0.694E-11
 664 F= -.30373368E+03 E0= -.30378126E+03  d E =0.654836E-10
quench:  g(F)=  0.000E+00 g(S)=  0.000E+00 dE (1.order)= 0.000E+00
 bond charge predicted
       N       E                     dE             d eps       ncg     rms          rms(c)
DAV:   1    -0.303733683527E+03   -0.26921E-09   -0.13072E-10   294   0.170E-10    0.317E-10
RMM:   2    -0.303733683526E+03    0.10259E-08    0.00000E+00     1   0.769E-11
 665 F= -.30373368E+03 E0= -.30378126E+03  d E =-.145519E-09
quench:  g(F)=  0.000E+00 g(S)=  0.000E+00 dE (1.order)= 0.000E+00
 bond charge predicted
       N       E                     dE             d eps       ncg     rms          rms(c)
DAV:   1    -0.303733683525E+03    0.14115E-08    0.18614E-11   294   0.178E-10    0.312E-10
RMM:   2    -0.303733683526E+03   -0.22555E-09    0.00000E+00     1   0.869E-11
 666 F= -.30373368E+03 E0= -.30378126E+03  d E =0.160071E-09
quench:  g(F)=  0.000E+00 g(S)=  0.000E+00 dE (1.order)= 0.000E+00
 bond charge predicted
       N       E                     dE             d eps       ncg     rms          rms(c)
DAV:   1    -0.303733683527E+03   -0.10623E-08   -0.29434E-10   294   0.295E-10    0.261E-10
RMM:   2    -0.303733683526E+03    0.69849E-09    0.00000E+00     1   0.893E-11
 667 F= -.30373368E+03 E0= -.30378126E+03  d E =-.138243E-09
quench:  g(F)=  0.000E+00 g(S)=  0.000E+00 dE (1.order)= 0.000E+00
 bond charge predicted
       N       E                     dE             d eps       ncg     rms          rms(c)
DAV:   1    -0.303733683526E+03    0.38563E-09   -0.92974E-12   294   0.239E-10    0.198E-10
RMM:   2    -0.303733683526E+03    0.37107E-09    0.00000E+00     1   0.675E-11
 668 F= -.30373368E+03 E0= -.30378126E+03  d E =0.582077E-10
quench:  g(F)=  0.000E+00 g(S)=  0.000E+00 dE (1.order)= 0.000E+00
 bond charge predicted
       N       E                     dE             d eps       ncg     rms          rms(c)
DAV:   1    -0.303733683526E+03   -0.28376E-09   -0.22139E-10   294   0.119E-10    0.280E-10
RMM:   2    -0.303733683526E+03    0.61846E-09    0.00000E+00     1   0.706E-11
 669 F= -.30373368E+03 E0= -.30378126E+03  d E =-.363798E-10
quench:  g(F)=  0.000E+00 g(S)=  0.000E+00 dE (1.order)= 0.000E+00
 bond charge predicted
       N       E                     dE             d eps       ncg     rms          rms(c)
DAV:   1    -0.303733683526E+03    0.23283E-09   -0.16012E-10   294   0.145E-10    0.296E-10
RMM:   2    -0.303733683526E+03    0.38563E-09    0.00000E+00     1   0.916E-11
 670 F= -.30373368E+03 E0= -.30378126E+03  d E =0.000000E+00
quench:  g(F)=  0.000E+00 g(S)=  0.000E+00 dE (1.order)= 0.000E+00
 bond charge predicted
       N       E                     dE             d eps       ncg     rms          rms(c)
DAV:   1    -0.303733683526E+03    0.46566E-09   -0.25902E-10   294   0.249E-10    0.243E-10
RMM:   2    -0.303733683526E+03   -0.13097E-09    0.00000E+00     1   0.737E-11
 671 F= -.30373368E+03 E0= -.30378126E+03  d E =-.509317E-10
quench:  g(F)=  0.000E+00 g(S)=  0.000E+00 dE (1.order)= 0.000E+00
 bond charge predicted
       N       E                     dE             d eps       ncg     rms          rms(c)
DAV:   1    -0.303733683525E+03    0.59663E-09    0.60991E-11   294   0.167E-10    0.266E-10
RMM:   2    -0.303733683526E+03   -0.69122E-09    0.00000E+00     1   0.677E-11
 672 F= -.30373368E+03 E0= -.30378126E+03  d E =0.363798E-10
quench:  g(F)=  0.000E+00 g(S)=  0.000E+00 dE (1.order)= 0.000E+00
 bond charge predicted
       N       E                     dE             d eps       ncg     rms          rms(c)
DAV:   1    -0.303733683526E+03   -0.58208E-09   -0.14140E-10   294   0.183E-10    0.166E-10
RMM:   2    -0.303733683526E+03   -0.16735E-09    0.00000E+00     1   0.650E-11
 673 F= -.30373368E+03 E0= -.30378126E+03  d E =-.582077E-10
quench:  g(F)=  0.000E+00 g(S)=  0.000E+00 dE (1.order)= 0.000E+00
 bond charge predicted
       N       E                     dE             d eps       ncg     rms          rms(c)
DAV:   1    -0.303733683527E+03   -0.88039E-09   -0.76701E-11   294   0.136E-10    0.215E-10
RMM:   2    -0.303733683526E+03    0.77125E-09    0.00000E+00     1   0.658E-11
 674 F= -.30373368E+03 E0= -.30378126E+03  d E =0.582077E-10
quench:  g(F)=  0.000E+00 g(S)=  0.000E+00 dE (1.order)= 0.000E+00
 bond charge predicted
       N       E                     dE             d eps       ncg     rms          rms(c)
DAV:   1    -0.303733683526E+03    0.10550E-08   -0.25040E-10   294   0.151E-10    0.253E-10
RMM:   2    -0.303733683526E+03   -0.18190E-09    0.00000E+00     1   0.783E-11
 675 F= -.30373368E+03 E0= -.30378126E+03  d E =0.101863E-09
quench:  g(F)=  0.000E+00 g(S)=  0.000E+00 dE (1.order)= 0.000E+00
 bond charge predicted
       N       E                     dE             d eps       ncg     rms          rms(c)
DAV:   1    -0.303733683526E+03   -0.82946E-09   -0.18935E-10   294   0.178E-10    0.280E-10
RMM:   2    -0.303733683526E+03    0.61118E-09    0.00000E+00     1   0.925E-11
 676 F= -.30373368E+03 E0= -.30378126E+03  d E =-.363798E-10
quench:  g(F)=  0.000E+00 g(S)=  0.000E+00 dE (1.order)= 0.000E+00
 bond charge predicted
       N       E                     dE             d eps       ncg     rms          rms(c)
DAV:   1    -0.303733683525E+03    0.11278E-08    0.23370E-11   294   0.119E-10    0.399E-10
RMM:   2    -0.303733683526E+03   -0.52387E-09    0.00000E+00     1   0.940E-11
 677 F= -.30373368E+03 E0= -.30378126E+03  d E =-.727596E-11
quench:  g(F)=  0.000E+00 g(S)=  0.000E+00 dE (1.order)= 0.000E+00
 bond charge predicted
       N       E                     dE             d eps       ncg     rms          rms(c)
DAV:   1    -0.303733683526E+03   -0.11642E-08   -0.24212E-10   294   0.221E-10    0.255E-10
RMM:   2    -0.303733683526E+03    0.49477E-09    0.00000E+00     1   0.783E-11
 678 F= -.30373368E+03 E0= -.30378126E+03  d E =-.145519E-09
quench:  g(F)=  0.000E+00 g(S)=  0.000E+00 dE (1.order)= 0.000E+00
 bond charge predicted
       N       E                     dE             d eps       ncg     rms          rms(c)
DAV:   1    -0.303733683527E+03   -0.77125E-09   -0.48411E-11   294   0.159E-10    0.268E-10
RMM:   2    -0.303733683526E+03    0.14552E-08    0.00000E+00     1   0.859E-11
 679 F= -.30373368E+03 E0= -.30378126E+03  d E =0.189175E-09
quench:  g(F)=  0.000E+00 g(S)=  0.000E+00 dE (1.order)= 0.000E+00
 bond charge predicted
       N       E                     dE             d eps       ncg     rms          rms(c)
DAV:   1    -0.303733683526E+03    0.15643E-08   -0.29419E-10   294   0.203E-10    0.220E-10
RMM:   2    -0.303733683526E+03   -0.27649E-09    0.00000E+00     1   0.985E-11
 680 F= -.30373368E+03 E0= -.30378126E+03  d E =-.167347E-09
quench:  g(F)=  0.000E+00 g(S)=  0.000E+00 dE (1.order)= 0.000E+00
 bond charge predicted
       N       E                     dE             d eps       ncg     rms          rms(c)
DAV:   1    -0.303733683526E+03   -0.60390E-09    0.12333E-10   294   0.177E-10    0.225E-10
RMM:   2    -0.303733683526E+03    0.46566E-09    0.00000E+00     1   0.709E-11
 681 F= -.30373368E+03 E0= -.30378126E+03  d E =0.138243E-09
quench:  g(F)=  0.000E+00 g(S)=  0.000E+00 dE (1.order)= 0.000E+00
 bond charge predicted
       N       E                     dE             d eps       ncg     rms          rms(c)
DAV:   1    -0.303733683526E+03   -0.11642E-09   -0.49875E-11   294   0.111E-10    0.208E-10
RMM:   2    -0.303733683526E+03    0.51659E-09    0.00000E+00     1   0.800E-11
 682 F= -.30373368E+03 E0= -.30378126E+03  d E =-.654836E-10
quench:  g(F)=  0.000E+00 g(S)=  0.000E+00 dE (1.order)= 0.000E+00
 bond charge predicted
       N       E                     dE             d eps       ncg     rms          rms(c)
DAV:   1    -0.303733683525E+03    0.90222E-09   -0.20009E-10   294   0.161E-10    0.311E-10
RMM:   2    -0.303733683526E+03   -0.41473E-09    0.00000E+00     1   0.841E-11
 683 F= -.30373368E+03 E0= -.30378126E+03  d E =-.291038E-10
quench:  g(F)=  0.000E+00 g(S)=  0.000E+00 dE (1.order)= 0.000E+00
 bond charge predicted
       N       E                     dE             d eps       ncg     rms          rms(c)
DAV:   1    -0.303733683526E+03   -0.75670E-09   -0.44752E-11   294   0.249E-10    0.226E-10
RMM:   2    -0.303733683526E+03    0.34197E-09    0.00000E+00     1   0.640E-11
 684 F= -.30373368E+03 E0= -.30378126E+03  d E =0.000000E+00
quench:  g(F)=  0.000E+00 g(S)=  0.000E+00 dE (1.order)= 0.000E+00
 bond charge predicted
       N       E                     dE             d eps       ncg     rms          rms(c)
DAV:   1    -0.303733683525E+03    0.71304E-09   -0.56886E-12   294   0.155E-10    0.312E-10
RMM:   2    -0.303733683526E+03   -0.31287E-09    0.00000E+00     1   0.774E-11
 685 F= -.30373368E+03 E0= -.30378126E+03  d E =0.582077E-10
quench:  g(F)=  0.000E+00 g(S)=  0.000E+00 dE (1.order)= 0.000E+00
 bond charge predicted
       N       E                     dE             d eps       ncg     rms          rms(c)
DAV:   1    -0.303733683527E+03   -0.16589E-08   -0.26489E-10   294   0.189E-10    0.270E-10
RMM:   2    -0.303733683526E+03    0.12806E-08    0.00000E+00     1   0.856E-11
 686 F= -.30373368E+03 E0= -.30378126E+03  d E =-.654836E-10
quench:  g(F)=  0.000E+00 g(S)=  0.000E+00 dE (1.order)= 0.000E+00
 bond charge predicted
       N       E                     dE             d eps       ncg     rms          rms(c)
DAV:   1    -0.303733683525E+03    0.24593E-08   -0.10089E-10   294   0.244E-10    0.172E-10
RMM:   2    -0.303733683526E+03   -0.11860E-08    0.00000E+00     1   0.775E-11
 687 F= -.30373368E+03 E0= -.30378126E+03  d E =-.727596E-11
quench:  g(F)=  0.000E+00 g(S)=  0.000E+00 dE (1.order)= 0.000E+00
 bond charge predicted
       N       E                     dE             d eps       ncg     rms          rms(c)
DAV:   1    -0.303733683524E+03    0.62573E-09   -0.67789E-11   294   0.136E-10    0.307E-10
RMM:   2    -0.303733683526E+03   -0.17244E-08    0.00000E+00     1   0.837E-11
 688 F= -.30373368E+03 E0= -.30378126E+03  d E =0.873115E-10
quench:  g(F)=  0.000E+00 g(S)=  0.000E+00 dE (1.order)= 0.000E+00
 bond charge predicted
       N       E                     dE             d eps       ncg     rms          rms(c)
DAV:   1    -0.303733683526E+03   -0.16953E-08   -0.20686E-10   294   0.255E-10    0.216E-10
RMM:   2    -0.303733683526E+03    0.14552E-10    0.00000E+00     1   0.758E-11
 689 F= -.30373368E+03 E0= -.30378126E+03  d E =0.436557E-10
quench:  g(F)=  0.000E+00 g(S)=  0.000E+00 dE (1.order)= 0.000E+00
 bond charge predicted
       N       E                     dE             d eps       ncg     rms          rms(c)
DAV:   1    -0.303733683525E+03    0.28376E-09   -0.29033E-10   294   0.171E-10    0.249E-10
RMM:   2    -0.303733683526E+03   -0.31287E-09    0.00000E+00     1   0.768E-11
 690 F= -.30373368E+03 E0= -.30378126E+03  d E =-.436557E-10
quench:  g(F)=  0.000E+00 g(S)=  0.000E+00 dE (1.order)= 0.000E+00
 bond charge predicted
       N       E                     dE             d eps       ncg     rms          rms(c)
DAV:   1    -0.303733683527E+03   -0.16735E-08    0.93412E-11   294   0.152E-10    0.247E-10
RMM:   2    -0.303733683526E+03    0.13679E-08    0.00000E+00     1   0.780E-11
 691 F= -.30373368E+03 E0= -.30378126E+03  d E =0.727596E-11
quench:  g(F)=  0.000E+00 g(S)=  0.000E+00 dE (1.order)= 0.000E+00
 bond charge predicted
       N       E                     dE             d eps       ncg     rms          rms(c)
DAV:   1    -0.303733683526E+03    0.13970E-08   -0.22025E-10   294   0.180E-10    0.271E-10
RMM:   2    -0.303733683526E+03   -0.10186E-09    0.00000E+00     1   0.922E-11
 692 F= -.30373368E+03 E0= -.30378126E+03  d E =-.727596E-10
quench:  g(F)=  0.000E+00 g(S)=  0.000E+00 dE (1.order)= 0.000E+00
 bond charge predicted
       N       E                     dE             d eps       ncg     rms          rms(c)
DAV:   1    -0.303733683526E+03   -0.50932E-09    0.19339E-11   294   0.192E-10    0.303E-10
RMM:   2    -0.303733683526E+03    0.42201E-09    0.00000E+00     1   0.919E-11
 693 F= -.30373368E+03 E0= -.30378126E+03  d E =0.145519E-10
quench:  g(F)=  0.000E+00 g(S)=  0.000E+00 dE (1.order)= 0.000E+00
 bond charge predicted
       N       E                     dE             d eps       ncg     rms          rms(c)
DAV:   1    -0.303733683526E+03    0.17462E-09   -0.73131E-12   294   0.199E-10    0.359E-10
RMM:   2    -0.303733683526E+03    0.24011E-09    0.00000E+00     1   0.910E-11
 694 F= -.30373368E+03 E0= -.30378126E+03  d E =-.727596E-11
quench:  g(F)=  0.000E+00 g(S)=  0.000E+00 dE (1.order)= 0.000E+00
