LAMMPS data file. CGCMM style. atom_style full generated by VMD/TopoTools v1.7 on Sun Aug 20 09:14:40 -0400 2023
 17260 atoms
 11000 bonds
 5500 angles


 7 atom types
 1 bond types
 1 angle types


 -0.0192735 150.997366  xlo xhi
 -0.094183 50.035818  ylo yhi
 -0.02800 50.052100  zlo zhi

# Pair Coeffs
#
# 1  Ca
# 2  Cl
# 3  HW
# 4  K
# 5  Li
# 6  Mg
# 7  OW


 Masses

 1 40.080 # Ca
 2 35.4500 # Cl
 3 1.008000 # HW
 4 39.0900 # K
 5 6.94100 # Li
 6 24.3050 # Mg
 7 15.999000 # OW


 Bond Coeffs 

1 harmonic   529.5810       1.000000     


Angle Coeffs

1 harmonic   37.95000       109.4700   



 Atoms # full

1 1 7 -0.847600 14.950000 46.018002 47.389000 # OW JJC
2 1 3 0.423800 14.226000 45.752998 48.027000 # HW JJC
3 1 3 0.423800 14.928000 45.417000 46.591000 # HW JJC
4 2 7 -0.847600 50.860001 14.186000 41.780998 # OW JJC
5 2 3 0.423800 50.407001 13.359000 42.115002 # HW JJC
6 2 3 0.423800 50.384998 14.992000 42.132000 # HW JJC
7 3 7 -0.847600 100.120003 46.080002 1.059000 # OW JJC
8 3 3 0.423800 100.431000 45.925999 1.997000 # HW JJC
9 3 3 0.423800 100.556000 45.418999 0.450000 # HW JJC
10 4 7 -0.847600 103.889999 37.751999 19.163000 # OW JJC
11 4 3 0.423800 103.389000 38.380001 19.759001 # HW JJC
12 4 3 0.423800 103.941002 36.852001 19.594000 # HW JJC
13 5 7 -0.847600 86.605003 40.865002 1.096000 # OW JJC
14 5 3 0.423800 85.754997 40.375999 1.292000 # HW JJC
15 5 3 0.423800 87.310997 40.212002 0.825000 # HW JJC
16 6 7 -0.847600 92.238998 37.257999 30.534000 # OW JJC
17 6 3 0.423800 91.824997 36.370998 30.326000 # HW JJC
18 6 3 0.423800 93.222000 37.216999 30.358000 # HW JJC
19 7 7 -0.847600 146.710007 20.688000 26.309000 # OW JJC
20 7 3 0.423800 147.595993 21.143999 26.393000 # HW JJC
21 7 3 0.423800 145.981003 21.372000 26.302000 # HW JJC
22 8 7 -0.847600 2.180000 24.802999 22.076000 # OW JJC
23 8 3 0.423800 1.564000 24.028999 22.222000 # HW JJC
24 8 3 0.423800 2.748000 24.631001 21.271999 # HW JJC
25 9 7 -0.847600 69.119003 28.818001 19.535999 # OW JJC
26 9 3 0.423800 69.786003 28.104000 19.747999 # HW JJC
27 9 3 0.423800 68.230003 28.400999 19.354000 # HW JJC
28 10 7 -0.847600 56.960999 44.910999 8.068000 # OW JJC
29 10 3 0.423800 57.056999 44.573002 9.005000 # HW JJC
30 10 3 0.423800 57.077999 44.153999 7.426000 # HW JJC
31 11 7 -0.847600 88.449997 19.608000 27.263000 # OW JJC
32 11 3 0.423800 87.955002 20.315001 26.760000 # HW JJC
33 11 3 0.423800 88.134003 18.705999 26.969999 # HW JJC
34 12 7 -0.847600 129.778000 35.909000 10.820000 # OW JJC
35 12 3 0.423800 129.052002 35.238998 10.974000 # HW JJC
36 12 3 0.423800 129.376999 36.766998 10.498000 # HW JJC
37 13 7 -0.847600 32.900002 27.941999 45.897999 # OW JJC
38 13 3 0.423800 31.916000 27.912001 45.717999 # HW JJC
39 13 3 0.423800 33.313999 28.676001 45.362000 # HW JJC
40 14 7 -0.847600 126.032997 45.307999 13.161000 # OW JJC
41 14 3 0.423800 125.197998 45.598999 12.694000 # HW JJC
42 14 3 0.423800 125.828003 44.535999 13.761000 # HW JJC
43 15 7 -0.847600 142.406998 12.169000 47.497002 # OW JJC
44 15 3 0.423800 142.895004 12.581000 46.728001 # HW JJC
45 15 3 0.423800 142.022995 12.890000 48.073002 # HW JJC
46 16 7 -0.847600 7.104000 28.837999 29.532000 # OW JJC
47 16 3 0.423800 7.462000 29.750000 29.333000 # HW JJC
48 16 3 0.423800 7.821000 28.283001 29.952999 # HW JJC
49 17 7 -0.847600 99.684998 45.810001 6.374000 # OW JJC
50 17 3 0.423800 100.021004 44.869999 6.318000 # HW JJC
51 17 3 0.423800 99.028999 45.974998 5.638000 # HW JJC
52 18 7 -0.847600 119.556000 28.260000 16.537001 # OW JJC
53 18 3 0.423800 120.071999 27.405001 16.601000 # HW JJC
54 18 3 0.423800 118.689003 28.091000 16.070999 # HW JJC
55 19 7 -0.847600 121.583000 41.654999 33.741001 # OW JJC
56 19 3 0.423800 121.380997 41.634998 32.761002 # HW JJC
57 19 3 0.423800 120.871002 42.168999 34.217999 # HW JJC
58 20 7 -0.847600 98.827003 7.117000 34.226002 # OW JJC
59 20 3 0.423800 98.601997 8.056000 34.487000 # HW JJC
60 20 3 0.423800 98.004997 6.656000 33.895000 # HW JJC
61 21 7 -0.847600 52.889999 31.650000 41.683998 # OW JJC
62 21 3 0.423800 52.695999 32.571999 41.348000 # HW JJC
63 21 3 0.423800 52.685001 31.601000 42.660999 # HW JJC
64 22 7 -0.847600 129.688004 37.804001 28.169001 # OW JJC
65 22 3 0.423800 129.281006 38.716999 28.176001 # HW JJC
66 22 3 0.423800 130.684006 37.882000 28.159000 # HW JJC
67 23 7 -0.847600 80.416000 36.688999 6.847000 # OW JJC
68 23 3 0.423800 79.501999 36.825001 7.230000 # HW JJC
69 23 3 0.423800 80.793999 37.569000 6.564000 # HW JJC
70 24 7 -0.847600 84.739998 34.612000 22.503000 # OW JJC
71 24 3 0.423800 84.281998 35.480000 22.312000 # HW JJC
72 24 3 0.423800 84.078003 33.865002 22.444000 # HW JJC
73 25 7 -0.847600 94.887001 13.677000 7.195000 # OW JJC
74 25 3 0.423800 95.792000 13.338000 7.451000 # HW JJC
75 25 3 0.423800 94.984001 14.497000 6.632000 # HW JJC
76 26 7 -0.847600 18.433001 3.750000 14.819000 # OW JJC
77 26 3 0.423800 19.049000 4.204000 14.175000 # HW JJC
78 26 3 0.423800 18.514000 4.180000 15.717000 # HW JJC
79 27 7 -0.847600 11.910000 26.230000 29.462000 # OW JJC
80 27 3 0.423800 12.790000 25.784000 29.291000 # HW JJC
81 27 3 0.423800 11.996000 26.849001 30.240999 # HW JJC
82 28 7 -0.847600 79.556999 6.013000 0.897000 # OW JJC
83 28 3 0.423800 80.556999 6.055000 0.904000 # HW JJC
84 28 3 0.423800 79.263000 5.058000 0.898000 # HW JJC
85 29 7 -0.847600 21.695999 17.421000 33.297001 # OW JJC
86 29 3 0.423800 22.629999 17.063000 33.317001 # HW JJC
87 29 3 0.423800 21.568001 18.062000 34.053001 # HW JJC
88 30 7 -0.847600 65.477997 10.260000 10.301000 # OW JJC
89 30 3 0.423800 65.765999 11.211000 10.416000 # HW JJC
90 30 3 0.423800 64.498001 10.184000 10.478000 # HW JJC
91 31 7 -0.847600 68.378998 18.938000 12.293000 # OW JJC
92 31 3 0.423800 68.924004 19.580999 11.755000 # HW JJC
93 31 3 0.423800 68.583000 18.003000 12.004000 # HW JJC
94 32 7 -0.847600 57.630001 31.083000 50.000000 # OW JJC
95 32 3 0.423800 58.234001 31.878000 49.948002 # HW JJC
96 32 3 0.423800 56.693001 31.362000 49.793999 # HW JJC
97 33 7 -0.847600 47.159000 42.550999 8.217000 # OW JJC
98 33 3 0.423800 46.547001 43.317001 8.018000 # HW JJC
99 33 3 0.423800 46.625999 41.710999 8.302000 # HW JJC
100 34 7 -0.847600 21.955000 5.183000 34.203999 # OW JJC
101 34 3 0.423800 22.826000 4.805000 34.519001 # HW JJC
102 34 3 0.423800 21.263000 5.065000 34.915001 # HW JJC
103 35 7 -0.847600 11.334000 41.351002 34.040001 # OW JJC
104 35 3 0.423800 12.282000 41.053001 33.931000 # HW JJC
105 35 3 0.423800 11.264000 42.326000 33.834000 # HW JJC
106 36 7 -0.847600 69.385002 33.620998 46.949001 # OW JJC
107 36 3 0.423800 68.425003 33.497002 47.201000 # HW JJC
108 36 3 0.423800 69.541000 34.573002 46.688999 # HW JJC
109 37 7 -0.847600 136.738007 40.285999 18.339001 # OW JJC
110 37 3 0.423800 135.761993 40.430000 18.500999 # HW JJC
111 37 3 0.423800 136.906006 39.318001 18.156000 # HW JJC
112 38 7 -0.847600 135.082993 2.536000 4.944000 # OW JJC
113 38 3 0.423800 135.181000 1.716000 4.380000 # HW JJC
114 38 3 0.423800 135.983994 2.837000 5.255000 # HW JJC
115 39 7 -0.847600 81.823997 14.506000 20.273001 # OW JJC
116 39 3 0.423800 81.995003 14.465000 21.257999 # HW JJC
117 39 3 0.423800 81.421997 13.643000 19.968000 # HW JJC
118 40 7 -0.847600 42.466999 43.960999 6.095000 # OW JJC
119 40 3 0.423800 42.403000 43.323002 6.863000 # HW JJC
120 40 3 0.423800 43.386002 44.353001 6.063000 # HW JJC
121 41 7 -0.847600 91.031998 20.097000 45.039001 # OW JJC
122 41 3 0.423800 91.330002 19.187000 45.327000 # HW JJC
123 41 3 0.423800 90.230003 20.368999 45.569000 # HW JJC
124 42 7 -0.847600 73.454002 26.964001 26.382999 # OW JJC
125 42 3 0.423800 72.514000 27.266001 26.219000 # HW JJC
126 42 3 0.423800 73.997002 27.732000 26.719999 # HW JJC
127 43 7 -0.847600 131.884003 35.745998 20.101999 # OW JJC
128 43 3 0.423800 131.139999 36.262001 19.676001 # HW JJC
129 43 3 0.423800 131.632996 34.779999 20.153999 # HW JJC
130 44 7 -0.847600 9.077000 32.540001 13.839000 # OW JJC
131 44 3 0.423800 9.194000 33.491001 13.552000 # HW JJC
132 44 3 0.423800 8.567000 32.511002 14.698000 # HW JJC
133 45 7 -0.847600 142.848999 25.566000 24.289000 # OW JJC
134 45 3 0.423800 143.352005 24.747000 24.568001 # HW JJC
135 45 3 0.423800 143.481003 26.223000 23.879000 # HW JJC
136 46 7 -0.847600 64.323997 29.798000 27.142000 # OW JJC
137 46 3 0.423800 65.010002 29.139999 26.830000 # HW JJC
138 46 3 0.423800 64.755997 30.472000 27.740999 # HW JJC
139 47 7 -0.847600 0.927000 38.196999 7.288000 # OW JJC
140 47 3 0.423800 0.004000 37.819000 7.361000 # HW JJC
141 47 3 0.423800 1.007000 38.723999 6.443000 # HW JJC
142 48 7 -0.847600 80.309998 19.056000 16.490000 # OW JJC
143 48 3 0.423800 80.855003 18.292999 16.839001 # HW JJC
144 48 3 0.423800 80.856003 19.892000 16.510000 # HW JJC
145 49 7 -0.847600 38.480999 2.101000 8.757000 # OW JJC
146 49 3 0.423800 38.034000 2.012000 9.647000 # HW JJC
147 49 3 0.423800 39.279999 2.695000 8.843000 # HW JJC
148 50 7 -0.847600 56.584000 9.960000 19.612000 # OW JJC
149 50 3 0.423800 57.424999 9.838000 19.084999 # HW JJC
150 50 3 0.423800 55.807999 10.040000 18.988001 # HW JJC
151 51 7 -0.847600 123.227997 -0.001000 12.741000 # OW JJC
152 51 3 0.423800 122.378998 0.481000 12.523000 # HW JJC
153 51 3 0.423800 123.866997 0.088000 11.978000 # HW JJC
154 52 7 -0.847600 144.035004 15.462000 45.192001 # OW JJC
155 52 3 0.423800 144.600998 15.068000 45.916000 # HW JJC
156 52 3 0.423800 143.108002 15.095000 45.255001 # HW JJC
157 53 7 -0.847600 18.155001 6.841000 33.076000 # OW JJC
158 53 3 0.423800 18.179001 7.841000 33.101002 # HW JJC
159 53 3 0.423800 19.077000 6.482000 33.220001 # HW JJC
160 54 7 -0.847600 95.460999 20.392000 19.295000 # OW JJC
161 54 3 0.423800 95.094002 20.889999 20.080999 # HW JJC
162 54 3 0.423800 95.922997 21.031000 18.681000 # HW JJC
163 55 7 -0.847600 101.573997 7.935000 33.609001 # OW JJC
164 55 3 0.423800 101.649002 6.938000 33.653000 # HW JJC
165 55 3 0.423800 102.162003 8.345000 34.304001 # HW JJC
166 56 7 -0.847600 65.880997 7.219000 18.837999 # OW JJC
167 56 3 0.423800 66.749001 7.563000 19.195999 # HW JJC
168 56 3 0.423800 65.853996 6.224000 18.927999 # HW JJC
169 57 7 -0.847600 114.013000 14.504000 14.432000 # OW JJC
170 57 3 0.423800 113.156998 14.259000 13.977000 # HW JJC
171 57 3 0.423800 114.363998 13.713000 14.932000 # HW JJC
172 58 7 -0.847600 74.025002 14.538000 5.407000 # OW JJC
173 58 3 0.423800 74.987000 14.802000 5.482000 # HW JJC
174 58 3 0.423800 73.450996 15.354000 5.449000 # HW JJC
175 59 7 -0.847600 146.960007 16.379999 14.127000 # OW JJC
176 59 3 0.423800 145.964005 16.309000 14.184000 # HW JJC
177 59 3 0.423800 147.378998 15.656000 14.674000 # HW JJC
178 60 7 -0.847600 5.610000 32.502998 17.254000 # OW JJC
179 60 3 0.423800 4.838000 32.424999 16.622999 # HW JJC
180 60 3 0.423800 6.464000 32.530998 16.735001 # HW JJC
181 61 7 -0.847600 97.125000 46.924999 43.516998 # OW JJC
182 61 3 0.423800 96.156998 46.680000 43.459999 # HW JJC
183 61 3 0.423800 97.210999 47.902000 43.709999 # HW JJC
184 62 7 -0.847600 148.082993 15.742000 47.702999 # OW JJC
185 62 3 0.423800 148.384003 14.824000 47.962002 # HW JJC
186 62 3 0.423800 147.363998 16.046000 48.327000 # HW JJC
187 63 7 -0.847600 101.278000 8.655000 21.820999 # OW JJC
188 63 3 0.423800 102.100998 8.589000 22.386000 # HW JJC
189 63 3 0.423800 101.532997 8.619000 20.855000 # HW JJC
190 64 7 -0.847600 88.417000 48.624001 46.145000 # OW JJC
191 64 3 0.423800 87.463997 48.870998 45.971001 # HW JJC
192 64 3 0.423800 88.580002 47.686001 45.841999 # HW JJC
193 65 7 -0.847600 134.589996 42.737999 16.906000 # OW JJC
194 65 3 0.423800 133.925003 42.007000 17.056000 # HW JJC
195 65 3 0.423800 134.154999 43.623001 17.066000 # HW JJC
196 66 7 -0.847600 38.299999 14.684000 12.733000 # OW JJC
197 66 3 0.423800 39.296001 14.707000 12.644000 # HW JJC
198 66 3 0.423800 37.883999 15.132000 11.942000 # HW JJC
199 67 7 -0.847600 72.333000 23.268999 24.586000 # OW JJC
200 67 3 0.423800 72.385002 24.243999 24.802999 # HW JJC
201 67 3 0.423800 73.223000 22.843000 24.746000 # HW JJC
202 68 7 -0.847600 57.758999 46.056000 12.719000 # OW JJC
203 68 3 0.423800 58.675999 46.457001 12.719000 # HW JJC
204 68 3 0.423800 57.830002 45.062000 12.645000 # HW JJC
205 69 7 -0.847600 86.459000 44.305000 15.867000 # OW JJC
206 69 3 0.423800 85.518997 44.523998 16.131001 # HW JJC
207 69 3 0.423800 86.847000 45.069000 15.353000 # HW JJC
208 70 7 -0.847600 119.910004 11.672000 9.813000 # OW JJC
209 70 3 0.423800 120.419998 10.895000 9.443000 # HW JJC
210 70 3 0.423800 120.255997 12.519000 9.412000 # HW JJC
211 71 7 -0.847600 72.936996 19.941999 49.792000 # OW JJC
212 71 3 0.423800 72.060997 20.399000 49.944000 # HW JJC
213 71 3 0.423800 73.120003 19.889000 48.811001 # HW JJC
214 72 7 -0.847600 108.797997 29.513000 13.313000 # OW JJC
215 72 3 0.423800 109.490997 29.648001 12.604000 # HW JJC
216 72 3 0.423800 109.163002 29.805000 14.196000 # HW JJC
217 73 7 -0.847600 74.112000 36.157001 37.539001 # OW JJC
218 73 3 0.423800 74.545998 37.053001 37.433998 # HW JJC
219 73 3 0.423800 74.805000 35.441002 37.467999 # HW JJC
220 74 7 -0.847600 126.920998 49.382999 19.292999 # OW JJC
221 74 3 0.423800 127.260002 48.465000 19.087000 # HW JJC
222 74 3 0.423800 127.148003 50.000000 18.541000 # HW JJC
223 75 7 -0.847600 127.985001 13.958000 28.113001 # OW JJC
224 75 3 0.423800 128.682007 13.981000 27.396000 # HW JJC
225 75 3 0.423800 127.444000 14.798000 28.080000 # HW JJC
226 76 7 -0.847600 34.028000 32.886002 32.082001 # OW JJC
227 76 3 0.423800 33.618999 32.320999 32.798000 # HW JJC
228 76 3 0.423800 33.411999 32.925999 31.295000 # HW JJC
229 77 7 -0.847600 24.458000 28.624001 22.670000 # OW JJC
230 77 3 0.423800 25.039000 29.407000 22.448999 # HW JJC
231 77 3 0.423800 23.549999 28.947001 22.937000 # HW JJC
232 78 7 -0.847600 77.791000 35.443001 39.140999 # OW JJC
233 78 3 0.423800 78.084999 34.993999 38.297001 # HW JJC
234 78 3 0.423800 76.879997 35.116001 39.393002 # HW JJC
235 79 7 -0.847600 85.945999 16.660000 21.554001 # OW JJC
236 79 3 0.423800 86.707001 17.283001 21.740999 # HW JJC
237 79 3 0.423800 86.276001 15.717000 21.566000 # HW JJC
238 80 7 -0.847600 139.272995 46.400002 14.884000 # OW JJC
239 80 3 0.423800 140.011993 45.766998 15.116000 # HW JJC
240 80 3 0.423800 139.660995 47.255001 14.541000 # HW JJC
241 81 7 -0.847600 38.152000 24.304001 25.101999 # OW JJC
242 81 3 0.423800 37.792999 24.649000 25.969000 # HW JJC
243 81 3 0.423800 38.758999 23.528999 25.277000 # HW JJC
244 82 7 -0.847600 115.955002 14.603000 42.563999 # OW JJC
245 82 3 0.423800 115.266998 15.265000 42.264999 # HW JJC
246 82 3 0.423800 115.527000 13.707000 42.681000 # HW JJC
247 83 7 -0.847600 142.505005 -0.009000 38.443001 # OW JJC
248 83 3 0.423800 141.931000 0.087000 37.629002 # HW JJC
249 83 3 0.423800 142.085007 0.480000 39.207001 # HW JJC
250 84 7 -0.847600 29.962000 7.274000 44.202000 # OW JJC
251 84 3 0.423800 30.437000 6.954000 45.021000 # HW JJC
252 84 3 0.423800 29.035999 6.900000 44.185001 # HW JJC
253 85 7 -0.847600 23.138000 4.978000 10.063000 # OW JJC
254 85 3 0.423800 22.261999 4.873000 9.592000 # HW JJC
255 85 3 0.423800 23.164000 5.863000 10.527000 # HW JJC
256 86 7 -0.847600 100.443001 45.217999 27.742001 # OW JJC
257 86 3 0.423800 101.412003 44.985001 27.666000 # HW JJC
258 86 3 0.423800 99.888000 44.421001 27.503000 # HW JJC
259 87 7 -0.847600 53.110001 49.113998 26.622999 # OW JJC
260 87 3 0.423800 53.582001 49.872002 27.073999 # HW JJC
261 87 3 0.423800 53.492001 48.247002 26.938999 # HW JJC
262 88 7 -0.847600 7.648000 0.490000 29.992001 # OW JJC
263 88 3 0.423800 7.094000 0.576000 29.164000 # HW JJC
264 88 3 0.423800 7.208000 0.984000 30.740999 # HW JJC
265 89 7 -0.847600 23.605000 9.702000 10.853000 # OW JJC
266 89 3 0.423800 23.315001 8.768000 10.646000 # HW JJC
267 89 3 0.423800 23.556000 9.857000 11.839000 # HW JJC
268 90 7 -0.847600 16.468000 11.762000 12.668000 # OW JJC
269 90 3 0.423800 16.052000 12.504000 12.141000 # HW JJC
270 90 3 0.423800 16.705999 11.010000 12.055000 # HW JJC
271 91 7 -0.847600 107.601997 31.197001 42.266998 # OW JJC
272 91 3 0.423800 107.474998 30.532000 43.004002 # HW JJC
273 91 3 0.423800 107.113998 30.888000 41.451000 # HW JJC
274 92 7 -0.847600 146.121994 49.484001 21.283001 # OW JJC
275 92 3 0.423800 146.432007 49.070999 22.139999 # HW JJC
276 92 3 0.423800 145.279007 49.994999 21.445999 # HW JJC
277 93 7 -0.847600 105.021004 17.924999 16.964001 # OW JJC
278 93 3 0.423800 104.962997 17.025999 17.396999 # HW JJC
279 93 3 0.423800 104.966003 18.636999 17.663000 # HW JJC
280 94 7 -0.847600 5.615000 3.381000 47.396000 # OW JJC
281 94 3 0.423800 5.157000 2.588000 46.993999 # HW JJC
282 94 3 0.423800 5.927000 3.991000 46.667999 # HW JJC
283 95 7 -0.847600 103.982002 21.611000 35.320999 # OW JJC
284 95 3 0.423800 104.308998 20.666000 35.347000 # HW JJC
285 95 3 0.423800 104.727997 22.228001 35.570000 # HW JJC
286 96 7 -0.847600 133.897995 6.787000 6.562000 # OW JJC
287 96 3 0.423800 133.453003 7.252000 7.327000 # HW JJC
288 96 3 0.423800 134.867996 7.027000 6.544000 # HW JJC
289 97 7 -0.847600 147.617004 36.735001 16.695999 # OW JJC
290 97 3 0.423800 148.522995 36.812000 16.278999 # HW JJC
291 97 3 0.423800 147.276001 37.646000 16.924999 # HW JJC
292 98 7 -0.847600 43.964001 12.749000 42.338001 # OW JJC
293 98 3 0.423800 44.769001 12.825000 41.749001 # HW JJC
294 98 3 0.423800 43.173000 13.149000 41.875000 # HW JJC
295 99 7 -0.847600 76.632004 13.038000 49.380001 # OW JJC
296 99 3 0.423800 76.112000 13.734000 49.874001 # HW JJC
297 99 3 0.423800 76.360001 12.130000 49.696999 # HW JJC
298 100 7 -0.847600 23.009001 47.386002 39.577000 # OW JJC
299 100 3 0.423800 22.657000 46.555000 40.007999 # HW JJC
300 100 3 0.423800 22.257999 47.879002 39.139000 # HW JJC
301 101 7 -0.847600 91.411003 12.067000 21.712000 # OW JJC
302 101 3 0.423800 92.236000 11.736000 22.170000 # HW JJC
303 101 3 0.423800 90.744003 11.326000 21.648001 # HW JJC
304 102 7 -0.847600 6.379000 38.196999 16.070000 # OW JJC
305 102 3 0.423800 6.580000 37.773998 16.952999 # HW JJC
306 102 3 0.423800 6.065000 39.134998 16.212999 # HW JJC
307 103 7 -0.847600 9.977000 6.053000 18.759001 # OW JJC
308 103 3 0.423800 10.447000 6.798000 19.233000 # HW JJC
309 103 3 0.423800 9.715000 5.350000 19.420000 # HW JJC
310 104 7 -0.847600 88.331001 32.470001 41.389000 # OW JJC
311 104 3 0.423800 87.722000 31.677999 41.416000 # HW JJC
312 104 3 0.423800 89.276001 32.168999 41.509998 # HW JJC
313 105 7 -0.847600 133.225998 32.060001 8.394000 # OW JJC
314 105 3 0.423800 133.537994 31.108999 8.415000 # HW JJC
315 105 3 0.423800 134.005005 32.662998 8.228000 # HW JJC
316 106 7 -0.847600 57.761002 17.048000 18.945000 # OW JJC
317 106 3 0.423800 57.299999 17.584999 18.238001 # HW JJC
318 106 3 0.423800 58.318001 17.652000 19.513000 # HW JJC
319 107 7 -0.847600 51.053001 36.639000 16.761000 # OW JJC
320 107 3 0.423800 51.111000 37.582001 16.436001 # HW JJC
321 107 3 0.423800 51.881001 36.144001 16.500000 # HW JJC
322 108 7 -0.847600 38.958000 42.095001 7.279000 # OW JJC
323 108 3 0.423800 38.764999 42.165001 8.258000 # HW JJC
324 108 3 0.423800 38.345001 42.702000 6.774000 # HW JJC
325 109 7 -0.847600 110.261002 35.638000 30.840000 # OW JJC
326 109 3 0.423800 110.853996 35.689999 30.035999 # HW JJC
327 109 3 0.423800 110.061996 34.681000 31.046000 # HW JJC
328 110 7 -0.847600 6.287000 22.990999 34.728001 # OW JJC
329 110 3 0.423800 6.102000 23.028000 35.710999 # HW JJC
330 110 3 0.423800 5.941000 23.822001 34.292999 # HW JJC
331 111 7 -0.847600 70.625000 28.636000 4.323000 # OW JJC
332 111 3 0.423800 70.713997 28.099001 5.163000 # HW JJC
333 111 3 0.423800 70.103996 28.114000 3.648000 # HW JJC
334 112 7 -0.847600 20.292999 32.278999 3.588000 # OW JJC
335 112 3 0.423800 20.747000 33.169998 3.548000 # HW JJC
336 112 3 0.423800 20.979000 31.559999 3.699000 # HW JJC
337 113 7 -0.847600 19.775000 13.156000 1.439000 # OW JJC
338 113 3 0.423800 19.125999 12.880000 2.147000 # HW JJC
339 113 3 0.423800 20.368999 13.878000 1.793000 # HW JJC
340 114 7 -0.847600 77.955002 14.229000 37.497002 # OW JJC
341 114 3 0.423800 78.777000 14.745000 37.741001 # HW JJC
342 114 3 0.423800 78.044998 13.287000 37.820000 # HW JJC
343 115 7 -0.847600 49.772999 21.188999 38.695999 # OW JJC
344 115 3 0.423800 49.855000 21.405001 37.723000 # HW JJC
345 115 3 0.423800 49.924999 20.211000 38.834999 # HW JJC
346 116 7 -0.847600 31.540001 17.438000 13.523000 # OW JJC
347 116 3 0.423800 32.437000 17.879999 13.547000 # HW JJC
348 116 3 0.423800 31.639999 16.497999 13.198000 # HW JJC
349 117 7 -0.847600 98.899002 41.033001 8.999000 # OW JJC
350 117 3 0.423800 99.324997 40.133999 9.096000 # HW JJC
351 117 3 0.423800 97.904999 40.931000 8.986000 # HW JJC
352 118 7 -0.847600 81.864998 39.612000 15.796000 # OW JJC
353 118 3 0.423800 81.077003 39.404999 16.375999 # HW JJC
354 118 3 0.423800 81.968002 40.602001 15.714000 # HW JJC
355 119 7 -0.847600 6.064000 5.570000 18.372999 # OW JJC
356 119 3 0.423800 5.866000 6.550000 18.381001 # HW JJC
357 119 3 0.423800 7.022000 5.424000 18.125999 # HW JJC
358 120 7 -0.847600 148.026993 8.374000 16.756001 # OW JJC
359 120 3 0.423800 148.675003 7.822000 16.231001 # HW JJC
360 120 3 0.423800 148.451004 8.659000 17.615000 # HW JJC
361 121 7 -0.847600 139.091995 4.287000 41.344002 # OW JJC
362 121 3 0.423800 138.404007 4.227000 42.067001 # HW JJC
363 121 3 0.423800 138.983994 3.518000 40.715000 # HW JJC
364 122 7 -0.847600 89.586998 12.641000 26.334000 # OW JJC
365 122 3 0.423800 90.163002 12.251000 27.052999 # HW JJC
366 122 3 0.423800 89.044998 13.390000 26.712000 # HW JJC
367 123 7 -0.847600 105.125000 9.410000 48.014999 # OW JJC
368 123 3 0.423800 105.303001 9.102000 48.949001 # HW JJC
369 123 3 0.423800 105.945000 9.843000 47.643002 # HW JJC
370 124 7 -0.847600 17.465000 47.667000 6.838000 # OW JJC
371 124 3 0.423800 17.207001 46.701000 6.843000 # HW JJC
372 124 3 0.423800 18.455000 47.749001 6.945000 # HW JJC
373 125 7 -0.847600 46.833000 41.714001 48.808998 # OW JJC
374 125 3 0.423800 46.110001 41.956001 48.161999 # HW JJC
375 125 3 0.423800 47.436001 41.032001 48.397999 # HW JJC
376 126 7 -0.847600 137.042999 14.409000 40.362999 # OW JJC
377 126 3 0.423800 137.231003 14.197000 41.321999 # HW JJC
378 126 3 0.423800 136.470993 15.226000 40.306999 # HW JJC
379 127 7 -0.847600 22.822001 42.192001 49.417000 # OW JJC
380 127 3 0.423800 23.106001 43.078999 49.779999 # HW JJC
381 127 3 0.423800 22.114000 41.801998 50.006001 # HW JJC
382 128 7 -0.847600 115.382004 21.268000 29.186001 # OW JJC
383 128 3 0.423800 116.324997 21.480000 29.441999 # HW JJC
384 128 3 0.423800 114.753998 21.760000 29.788000 # HW JJC
385 129 7 -0.847600 78.728996 15.262000 8.145000 # OW JJC
386 129 3 0.423800 77.755997 15.038000 8.205000 # HW JJC
387 129 3 0.423800 78.845001 16.254000 8.181000 # HW JJC
388 130 7 -0.847600 92.789001 33.119999 49.403000 # OW JJC
389 130 3 0.423800 91.940002 32.808998 49.831001 # HW JJC
390 130 3 0.423800 92.624001 33.980000 48.922001 # HW JJC
391 131 7 -0.847600 52.325001 31.926001 15.528000 # OW JJC
392 131 3 0.423800 52.764999 31.098000 15.875000 # HW JJC
393 131 3 0.423800 52.998001 32.661999 15.469000 # HW JJC
394 132 7 -0.847600 65.723000 20.252001 8.735000 # OW JJC
395 132 3 0.423800 66.072998 19.329000 8.895000 # HW JJC
396 132 3 0.423800 64.724998 20.229000 8.695000 # HW JJC
397 133 7 -0.847600 112.684998 26.788000 12.266000 # OW JJC
398 133 3 0.423800 112.960999 25.826000 12.258000 # HW JJC
399 133 3 0.423800 111.711998 26.854000 12.485000 # HW JJC
400 134 7 -0.847600 15.658000 25.358000 33.352001 # OW JJC
401 134 3 0.423800 14.919000 26.028999 33.415001 # HW JJC
402 134 3 0.423800 16.475000 25.796000 32.977001 # HW JJC
403 135 7 -0.847600 128.595001 34.004002 13.573000 # OW JJC
404 135 3 0.423800 129.589005 34.063999 13.484000 # HW JJC
405 135 3 0.423800 128.319000 33.043999 13.602000 # HW JJC
406 136 7 -0.847600 128.729996 4.798000 32.146999 # OW JJC
407 136 3 0.423800 127.932999 5.070000 32.686001 # HW JJC
408 136 3 0.423800 129.548996 5.231000 32.520000 # HW JJC
409 137 7 -0.847600 52.140999 23.853001 7.531000 # OW JJC
410 137 3 0.423800 52.398998 22.888000 7.498000 # HW JJC
411 137 3 0.423800 51.209000 23.962000 7.186000 # HW JJC
412 138 7 -0.847600 20.997999 35.619999 25.042999 # OW JJC
413 138 3 0.423800 20.070000 35.293999 24.864000 # HW JJC
414 138 3 0.423800 20.979000 36.282001 25.792000 # HW JJC
415 139 7 -0.847600 77.008003 11.269000 25.233000 # OW JJC
416 139 3 0.423800 76.375000 11.622000 25.923000 # HW JJC
417 139 3 0.423800 77.734001 11.938000 25.073000 # HW JJC
418 140 7 -0.847600 114.346001 29.649000 13.804000 # OW JJC
419 140 3 0.423800 113.353996 29.549000 13.882000 # HW JJC
420 140 3 0.423800 114.721001 28.870001 13.302000 # HW JJC
421 141 7 -0.847600 131.695007 19.997999 7.207000 # OW JJC
422 141 3 0.423800 132.656006 20.150000 6.974000 # HW JJC
423 141 3 0.423800 131.580994 20.049999 8.199000 # HW JJC
424 142 7 -0.847600 59.581001 35.078999 34.424000 # OW JJC
425 142 3 0.423800 58.923000 35.733002 34.050999 # HW JJC
426 142 3 0.423800 60.451000 35.541000 34.594002 # HW JJC
427 143 7 -0.847600 113.669998 25.740999 31.358999 # OW JJC
428 143 3 0.423800 114.587997 26.042000 31.615000 # HW JJC
429 143 3 0.423800 113.195999 25.389000 32.166000 # HW JJC
430 144 7 -0.847600 22.143000 28.940001 43.429001 # OW JJC
431 144 3 0.423800 23.046000 29.106001 43.033001 # HW JJC
432 144 3 0.423800 22.209999 28.936001 44.425999 # HW JJC
433 145 7 -0.847600 83.662003 16.669001 36.949001 # OW JJC
434 145 3 0.423800 84.656998 16.716999 37.042000 # HW JJC
435 145 3 0.423800 83.403999 15.777000 36.577000 # HW JJC
436 146 7 -0.847600 104.530998 27.292999 18.584999 # OW JJC
437 146 3 0.423800 103.970001 26.476000 18.716000 # HW JJC
438 146 3 0.423800 105.418999 27.160999 19.024000 # HW JJC
439 147 7 -0.847600 78.504997 2.809000 8.213000 # OW JJC
440 147 3 0.423800 77.612999 2.572000 7.829000 # HW JJC
441 147 3 0.423800 78.613998 3.802000 8.217000 # HW JJC
442 148 7 -0.847600 75.457001 37.279999 20.524000 # OW JJC
443 148 3 0.423800 76.433998 37.487000 20.582001 # HW JJC
444 148 3 0.423800 75.329002 36.292000 20.438000 # HW JJC
445 149 7 -0.847600 70.072998 14.006000 0.274000 # OW JJC
446 149 3 0.423800 69.956001 14.922000 0.659000 # HW JJC
447 149 3 0.423800 70.908997 13.596000 0.639000 # HW JJC
448 150 7 -0.847600 31.007999 45.278000 35.612000 # OW JJC
449 150 3 0.423800 30.295000 44.578999 35.660999 # HW JJC
450 150 3 0.423800 31.171000 45.653000 36.523998 # HW JJC
451 151 7 -0.847600 40.271999 44.365002 29.784000 # OW JJC
452 151 3 0.423800 40.868000 44.514000 28.995001 # HW JJC
453 151 3 0.423800 40.187000 45.214001 30.304001 # HW JJC
454 152 7 -0.847600 87.832001 1.250000 4.546000 # OW JJC
455 152 3 0.423800 87.627998 2.222000 4.660000 # HW JJC
456 152 3 0.423800 87.043999 0.789000 4.139000 # HW JJC
457 153 7 -0.847600 73.790001 10.914000 36.926998 # OW JJC
458 153 3 0.423800 72.806000 10.739000 36.953999 # HW JJC
459 153 3 0.423800 73.995003 11.552000 36.185001 # HW JJC
460 154 7 -0.847600 70.976997 33.459000 6.741000 # OW JJC
461 154 3 0.423800 70.228996 32.917000 7.124000 # HW JJC
462 154 3 0.423800 70.603996 34.251999 6.262000 # HW JJC
463 155 7 -0.847600 67.125999 0.987000 26.437000 # OW JJC
464 155 3 0.423800 67.355003 1.459000 27.289000 # HW JJC
465 155 3 0.423800 67.184998 -0.001000 26.577000 # HW JJC
466 156 7 -0.847600 71.529999 3.024000 6.021000 # OW JJC
467 156 3 0.423800 70.584999 3.303000 6.194000 # HW JJC
468 156 3 0.423800 71.542000 2.278000 5.357000 # HW JJC
469 157 7 -0.847600 21.934000 11.260000 36.811001 # OW JJC
470 157 3 0.423800 22.731001 11.009000 37.360001 # HW JJC
471 157 3 0.423800 21.231001 10.556000 36.903000 # HW JJC
472 158 7 -0.847600 97.410004 23.066000 33.645000 # OW JJC
473 158 3 0.423800 97.331001 22.236000 34.196999 # HW JJC
474 158 3 0.423800 98.089996 23.674999 34.051998 # HW JJC
475 159 7 -0.847600 62.366001 33.470001 8.676000 # OW JJC
476 159 3 0.423800 62.257000 33.751999 7.723000 # HW JJC
477 159 3 0.423800 61.751999 32.705002 8.870000 # HW JJC
478 160 7 -0.847600 99.160004 49.997002 48.926998 # OW JJC
479 160 3 0.423800 99.945000 50.000999 48.307999 # HW JJC
480 160 3 0.423800 98.422997 49.452999 48.528000 # HW JJC
481 161 7 -0.847600 41.333000 32.048000 11.590000 # OW JJC
482 161 3 0.423800 40.918999 32.886002 11.235000 # HW JJC
483 161 3 0.423800 42.327999 32.140999 11.589000 # HW JJC
484 162 7 -0.847600 96.429001 13.336000 20.031000 # OW JJC
485 162 3 0.423800 97.059998 12.708000 19.575001 # HW JJC
486 162 3 0.423800 96.098000 12.920000 20.877001 # HW JJC
487 163 7 -0.847600 55.969002 30.808001 31.464001 # OW JJC
488 163 3 0.423800 56.717999 31.278000 30.997000 # HW JJC
489 163 3 0.423800 55.203999 31.440001 31.587000 # HW JJC
490 164 7 -0.847600 122.261002 46.320999 7.962000 # OW JJC
491 164 3 0.423800 121.516998 46.935001 7.700000 # HW JJC
492 164 3 0.423800 121.926003 45.659000 8.633000 # HW JJC
493 165 7 -0.847600 69.389999 8.021000 37.067001 # OW JJC
494 165 3 0.423800 68.425003 7.780000 36.959000 # HW JJC
495 165 3 0.423800 69.464996 8.871000 37.585999 # HW JJC
496 166 7 -0.847600 81.031998 32.736000 8.638000 # OW JJC
497 166 3 0.423800 80.944000 32.980000 7.672000 # HW JJC
498 166 3 0.423800 80.333000 32.063999 8.878000 # HW JJC
499 167 7 -0.847600 42.457001 47.765999 35.477001 # OW JJC
500 167 3 0.423800 43.268002 47.216000 35.276001 # HW JJC
501 167 3 0.423800 41.674000 47.162998 35.626999 # HW JJC
502 168 7 -0.847600 23.854000 36.646000 45.269001 # OW JJC