  55  55   0   0
  0.2301251E+02  0.1218282E-08  0.7661564E-09  0.1373046E-08  0.5000000E-15
   1.0000000000000000E-004
  CAR 
 endpoint_relax                          
      9.88648564    -23.66031204  301      1.29576682      1.00000000
    -23.660  0.0000E+00  0.0000E+00
    -23.548  0.0000E+00  0.0000E+00
    -23.437  0.0000E+00  0.0000E+00
    -23.325 -0.1159E-30 -0.1295E-31
    -23.213 -0.8728E-27 -0.9761E-28
    -23.101 -0.3497E-23 -0.3912E-24
    -22.989 -0.7462E-20 -0.8348E-21
    -22.878 -0.8478E-17 -0.9488E-18
    -22.766 -0.4966E-14 -0.5562E-15
    -22.654 -0.1587E-11 -0.1780E-12
    -22.542 -0.2699E-09 -0.3036E-10
    -22.430 -0.2446E-07 -0.2765E-08
    -22.318 -0.1184E-05 -0.1352E-06
    -22.207 -0.3077E-04 -0.3576E-05
    -22.095 -0.4295E-03 -0.5161E-04
    -21.983 -0.3174E-02 -0.4066E-03
    -21.871 -0.1145E-01 -0.1687E-02
    -21.759 -0.1102E-01 -0.2920E-02
    -21.648  0.6105E-01  0.3907E-02
    -21.536  0.2908E+00  0.3642E-01
    -21.424  0.6782E+00  0.1123E+00
    -21.312  0.1007E+01  0.2249E+00
    -21.200  0.1032E+01  0.3403E+00
    -21.088  0.7510E+00  0.4243E+00
    -20.977  0.3258E+00  0.4607E+00
    -20.865  0.3629E-01  0.4648E+00
    -20.753 -0.2845E-01  0.4616E+00
    -20.641 -0.1221E-01  0.4602E+00
    -20.529 -0.1978E-02  0.4600E+00
    -20.417 -0.1557E-03  0.4600E+00
    -20.306 -0.6323E-05  0.4600E+00
    -20.194 -0.1352E-06  0.4600E+00
    -20.082 -0.1536E-08  0.4600E+00
    -19.970 -0.9315E-11  0.4600E+00
    -19.858 -0.3020E-13  0.4600E+00
    -19.747 -0.5295E-16  0.4600E+00
    -19.635  0.0000E+00  0.4600E+00
    -19.523  0.0000E+00  0.4600E+00
    -19.411  0.0000E+00  0.4600E+00
    -19.299  0.0000E+00  0.4600E+00
    -19.187  0.0000E+00  0.4600E+00
    -19.076  0.0000E+00  0.4600E+00
    -18.964  0.0000E+00  0.4600E+00
    -18.852  0.0000E+00  0.4600E+00
    -18.740  0.0000E+00  0.4600E+00
    -18.628  0.0000E+00  0.4600E+00
    -18.516  0.0000E+00  0.4600E+00
    -18.405  0.0000E+00  0.4600E+00
    -18.293  0.0000E+00  0.4600E+00
    -18.181  0.0000E+00  0.4600E+00
    -18.069  0.0000E+00  0.4600E+00
    -17.957  0.0000E+00  0.4600E+00
    -17.846  0.0000E+00  0.4600E+00
    -17.734  0.0000E+00  0.4600E+00
    -17.622  0.0000E+00  0.4600E+00
    -17.510  0.0000E+00  0.4600E+00
    -17.398  0.0000E+00  0.4600E+00
    -17.286  0.0000E+00  0.4600E+00
    -17.175  0.0000E+00  0.4600E+00
    -17.063  0.0000E+00  0.4600E+00
    -16.951  0.0000E+00  0.4600E+00
    -16.839  0.0000E+00  0.4600E+00
    -16.727  0.0000E+00  0.4600E+00
    -16.615  0.0000E+00  0.4600E+00
    -16.504  0.0000E+00  0.4600E+00
    -16.392  0.0000E+00  0.4600E+00
    -16.280  0.0000E+00  0.4600E+00
    -16.168  0.0000E+00  0.4600E+00
    -16.056  0.0000E+00  0.4600E+00
    -15.945  0.0000E+00  0.4600E+00
    -15.833  0.0000E+00  0.4600E+00
    -15.721  0.0000E+00  0.4600E+00
    -15.609  0.0000E+00  0.4600E+00
    -15.497  0.0000E+00  0.4600E+00
    -15.385  0.0000E+00  0.4600E+00
    -15.274  0.0000E+00  0.4600E+00
    -15.162  0.0000E+00  0.4600E+00
    -15.050  0.0000E+00  0.4600E+00
    -14.938  0.0000E+00  0.4600E+00
    -14.826  0.0000E+00  0.4600E+00
    -14.714  0.0000E+00  0.4600E+00
    -14.603  0.0000E+00  0.4600E+00
    -14.491  0.0000E+00  0.4600E+00
    -14.379  0.0000E+00  0.4600E+00
    -14.267  0.0000E+00  0.4600E+00
    -14.155  0.0000E+00  0.4600E+00
    -14.044  0.0000E+00  0.4600E+00
    -13.932  0.0000E+00  0.4600E+00
    -13.820  0.0000E+00  0.4600E+00
    -13.708  0.0000E+00  0.4600E+00
    -13.596  0.0000E+00  0.4600E+00
    -13.484  0.0000E+00  0.4600E+00
    -13.373  0.0000E+00  0.4600E+00
    -13.261  0.0000E+00  0.4600E+00
    -13.149  0.0000E+00  0.4600E+00
    -13.037  0.0000E+00  0.4600E+00
    -12.925  0.0000E+00  0.4600E+00
    -12.814  0.0000E+00  0.4600E+00
    -12.702  0.0000E+00  0.4600E+00
    -12.590 -0.7099E-32  0.4600E+00
    -12.478 -0.6461E-28  0.4600E+00
    -12.366 -0.3126E-24  0.4600E+00
    -12.254 -0.8056E-21  0.4600E+00
    -12.143 -0.1105E-17  0.4600E+00
    -12.031 -0.7830E-15  0.4600E+00
    -11.919 -0.3011E-12  0.4600E+00
    -11.807 -0.6147E-10  0.4600E+00
    -11.695 -0.6635E-08  0.4600E+00
    -11.583 -0.3772E-06  0.4600E+00
    -11.472 -0.1121E-04  0.4600E+00
    -11.360 -0.1710E-03  0.4600E+00
    -11.248 -0.1271E-02  0.4598E+00
    -11.136 -0.3733E-02  0.4594E+00
    -11.024  0.2859E-02  0.4597E+00
    -10.913  0.4123E-01  0.4644E+00
    -10.801  0.9081E-01  0.4745E+00
    -10.689  0.8372E-01  0.4839E+00
    -10.577  0.3033E-01  0.4873E+00
    -10.465 -0.1163E-02  0.4871E+00
    -10.353 -0.4851E-02  0.4866E+00
    -10.242 -0.4645E-02  0.4861E+00
    -10.130  0.3098E-02  0.4864E+00
    -10.018  0.3897E-01  0.4908E+00
     -9.906  0.9314E-01  0.5012E+00
     -9.794  0.1294E+00  0.5157E+00
     -9.682  0.1383E+00  0.5311E+00
     -9.571  0.1453E+00  0.5474E+00
     -9.459  0.1846E+00  0.5680E+00
     -9.347  0.2205E+00  0.5927E+00
     -9.235  0.1774E+00  0.6125E+00
     -9.123  0.7328E-01  0.6207E+00
     -9.012  0.4009E-02  0.6211E+00
     -8.900 -0.7417E-02  0.6203E+00
     -8.788 -0.2488E-02  0.6200E+00
     -8.676 -0.3306E-03  0.6200E+00
     -8.564 -0.2119E-04  0.6200E+00
     -8.452 -0.6912E-06  0.6200E+00
     -8.341 -0.1172E-07  0.6200E+00
     -8.229 -0.1043E-09  0.6200E+00
     -8.117 -0.4907E-12  0.6200E+00
     -8.005 -0.1231E-14  0.6200E+00
     -7.893  0.0000E+00  0.6200E+00
     -7.781  0.0000E+00  0.6200E+00
     -7.670  0.0000E+00  0.6200E+00
     -7.558  0.0000E+00  0.6200E+00
     -7.446  0.0000E+00  0.6200E+00
     -7.334  0.0000E+00  0.6200E+00
     -7.222  0.0000E+00  0.6200E+00
     -7.111  0.0000E+00  0.6200E+00
     -6.999  0.0000E+00  0.6200E+00
     -6.887  0.0000E+00  0.6200E+00
     -6.775  0.0000E+00  0.6200E+00
     -6.663  0.0000E+00  0.6200E+00
     -6.551  0.0000E+00  0.6200E+00
     -6.440  0.0000E+00  0.6200E+00
     -6.328  0.0000E+00  0.6200E+00
     -6.216  0.0000E+00  0.6200E+00
     -6.104  0.0000E+00  0.6200E+00
     -5.992  0.0000E+00  0.6200E+00
     -5.881  0.0000E+00  0.6200E+00
     -5.769  0.0000E+00  0.6200E+00
     -5.657  0.0000E+00  0.6200E+00
     -5.545  0.0000E+00  0.6200E+00
     -5.433  0.0000E+00  0.6200E+00
     -5.321  0.0000E+00  0.6200E+00
     -5.210  0.0000E+00  0.6200E+00
     -5.098  0.0000E+00  0.6200E+00
     -4.986  0.0000E+00  0.6200E+00
     -4.874 -0.1227E-31  0.6200E+00
     -4.762 -0.1104E-27  0.6200E+00
     -4.650 -0.5181E-24  0.6200E+00
     -4.539 -0.1297E-20  0.6200E+00
     -4.427 -0.1730E-17  0.6200E+00
     -4.315 -0.1190E-14  0.6200E+00
     -4.203 -0.4476E-12  0.6200E+00
     -4.091 -0.8914E-10  0.6200E+00
     -3.980 -0.9379E-08  0.6200E+00
     -3.868 -0.5184E-06  0.6200E+00
     -3.756 -0.1488E-04  0.6200E+00
     -3.644 -0.2169E-03  0.6200E+00
     -3.532 -0.1518E-02  0.6198E+00
     -3.420 -0.4144E-02  0.6193E+00
     -3.309  0.2796E-02  0.6197E+00
     -3.197  0.4110E-01  0.6242E+00
     -3.085  0.1060E+00  0.6361E+00
     -2.973  0.1522E+00  0.6531E+00
     -2.861  0.1292E+00  0.6676E+00
     -2.749  0.5468E-01  0.6737E+00
     -2.638  0.4113E-02  0.6741E+00
     -2.526 -0.4994E-02  0.6736E+00
     -2.414 -0.1857E-02  0.6734E+00
     -2.302 -0.3797E-03  0.6733E+00
     -2.190 -0.9146E-03  0.6732E+00
     -2.079 -0.3285E-02  0.6729E+00
     -1.967 -0.9471E-03  0.6727E+00
     -1.855  0.2661E-01  0.6757E+00
     -1.743  0.7863E-01  0.6845E+00
     -1.631  0.1118E+00  0.6970E+00
     -1.519  0.1153E+00  0.7099E+00
     -1.408  0.1183E+00  0.7231E+00
     -1.296  0.1140E+00  0.7359E+00
     -1.184  0.8738E-01  0.7457E+00
     -1.072  0.6623E-01  0.7531E+00
     -0.960  0.7644E-01  0.7616E+00
     -0.848  0.9418E-01  0.7721E+00
     -0.737  0.8194E-01  0.7813E+00
     -0.625  0.6193E-01  0.7882E+00
     -0.513  0.9808E-01  0.7992E+00
     -0.401  0.1810E+00  0.8194E+00
     -0.289  0.2286E+00  0.8450E+00
     -0.178  0.1993E+00  0.8673E+00
     -0.066  0.1384E+00  0.8828E+00
      0.046  0.1125E+00  0.8953E+00
      0.158  0.1351E+00  0.9105E+00
      0.270  0.1472E+00  0.9269E+00
      0.382  0.1205E+00  0.9404E+00
      0.493  0.1128E+00  0.9530E+00
      0.605  0.1672E+00  0.9717E+00
      0.717  0.2368E+00  0.9982E+00
      0.829  0.2512E+00  0.1026E+01
      0.941  0.2157E+00  0.1050E+01
      1.052  0.1674E+00  0.1069E+01
      1.164  0.1321E+00  0.1084E+01
      1.276  0.1018E+00  0.1095E+01
      1.388  0.4618E-01  0.1100E+01
      1.500  0.2843E-02  0.1101E+01
      1.612 -0.4820E-02  0.1100E+01
      1.723 -0.1583E-02  0.1100E+01
      1.835 -0.2027E-03  0.1100E+01
      1.947 -0.1247E-04  0.1100E+01
      2.059 -0.3909E-06  0.1100E+01
      2.171 -0.6385E-08  0.1100E+01
      2.283 -0.5495E-10  0.1100E+01
      2.394 -0.2504E-12  0.1100E+01
      2.506 -0.6089E-15  0.1100E+01
      2.618 -0.1026E-28  0.1100E+01
      2.730 -0.5645E-25  0.1100E+01
      2.842 -0.1653E-21  0.1100E+01
      2.953 -0.2575E-18  0.1100E+01
      3.065 -0.2062E-15  0.1100E+01
      3.177 -0.8990E-13  0.1100E+01
      3.289 -0.2063E-10  0.1100E+01
      3.401 -0.2482E-08  0.1100E+01
      3.513 -0.1552E-06  0.1100E+01
      3.624 -0.4970E-05  0.1100E+01
      3.736 -0.7887E-04  0.1100E+01
      3.848 -0.5723E-03  0.1100E+01
      3.960 -0.1358E-02  0.1100E+01
      4.072  0.2952E-02  0.1100E+01
      4.184  0.1810E-01  0.1102E+01
      4.295  0.2687E-01  0.1105E+01
      4.407  0.1438E-01  0.1107E+01
      4.519  0.1087E-02  0.1107E+01
      4.631 -0.1307E-02  0.1107E+01
      4.743 -0.4077E-03  0.1107E+01
      4.854 -0.1508E-03  0.1107E+01
      4.966 -0.9045E-03  0.1107E+01
      5.078 -0.3235E-02  0.1106E+01
      5.190 -0.3127E-03  0.1106E+01
      5.302  0.2787E-01  0.1109E+01
      5.414  0.7762E-01  0.1118E+01
      5.525  0.1006E+00  0.1129E+01
      5.637  0.7919E-01  0.1138E+01
      5.749  0.6684E-01  0.1146E+01
      5.861  0.8052E-01  0.1155E+01
      5.973  0.7539E-01  0.1163E+01
      6.085  0.7358E-01  0.1171E+01
      6.196  0.1044E+00  0.1183E+01
      6.308  0.1175E+00  0.1196E+01
      6.420  0.9875E-01  0.1207E+01
      6.532  0.9361E-01  0.1218E+01
      6.644  0.1111E+00  0.1230E+01
      6.755  0.1166E+00  0.1243E+01
      6.867  0.1162E+00  0.1256E+01
      6.979  0.1480E+00  0.1273E+01
      7.091  0.1740E+00  0.1292E+01
      7.203  0.1375E+00  0.1307E+01
      7.315  0.7835E-01  0.1316E+01
      7.426  0.6195E-01  0.1323E+01
      7.538  0.1042E+00  0.1335E+01
      7.650  0.1522E+00  0.1352E+01
      7.762  0.1507E+00  0.1369E+01
      7.874  0.1080E+00  0.1381E+01
      7.986  0.5141E-01  0.1386E+01
      8.097  0.8834E-02  0.1387E+01
      8.209 -0.3826E-02  0.1387E+01
      8.321 -0.2078E-02  0.1387E+01
      8.433 -0.3679E-03  0.1387E+01
      8.545 -0.3019E-04  0.1387E+01
      8.656 -0.1241E-05  0.1387E+01
      8.768 -0.2634E-07  0.1387E+01
      8.880 -0.2925E-09  0.1387E+01
      8.992 -0.1713E-11  0.1387E+01
      9.104 -0.5308E-14  0.1387E+01
      9.216 -0.1324E-16  0.1387E+01
      9.327  0.0000E+00  0.1387E+01
      9.439  0.0000E+00  0.1387E+01
      9.551  0.0000E+00  0.1387E+01
      9.663  0.0000E+00  0.1387E+01
      9.775  0.0000E+00  0.1387E+01
      9.886  0.0000E+00  0.1387E+01
