       N       E                     dE             d eps       ncg     rms          rms(c)
DAV:   1     0.290162774594E+04    0.29016E+04   -0.13274E+05   448   0.130E+03
DAV:   2     0.143649224113E+03   -0.27580E+04   -0.26417E+04   464   0.361E+02
DAV:   3    -0.216817397896E+03   -0.36047E+03   -0.35717E+03   496   0.146E+02
DAV:   4    -0.233763384725E+03   -0.16946E+02   -0.16841E+02   480   0.319E+01
DAV:   5    -0.234518719072E+03   -0.75533E+00   -0.75439E+00   608   0.672E+00    0.248E+01
RMM:   6    -0.223249039939E+03    0.11270E+02   -0.19743E+01   434   0.561E+00    0.167E+01
RMM:   7    -0.222369450726E+03    0.87959E+00   -0.20253E+01   420   0.502E+00    0.982E+00
RMM:   8    -0.222335337947E+03    0.34113E-01   -0.22579E+00   544   0.283E+00    0.588E+00
RMM:   9    -0.222275201027E+03    0.60137E-01   -0.14945E+00   421   0.164E+00    0.268E+00
RMM:  10    -0.222130900791E+03    0.14430E+00   -0.24977E-01   498   0.975E-01    0.206E+00
RMM:  11    -0.222072681444E+03    0.58219E-01   -0.56445E-02   492   0.468E-01    0.952E-01
RMM:  12    -0.222071877098E+03    0.80435E-03   -0.27522E-02   543   0.261E-01    0.583E-01
RMM:  13    -0.222072519315E+03   -0.64222E-03   -0.93427E-03   470   0.147E-01    0.379E-01
RMM:  14    -0.222074900657E+03   -0.23813E-02   -0.66758E-03   431   0.145E-01    0.240E-01
RMM:  15    -0.222074130734E+03    0.76992E-03   -0.17609E-03   503   0.767E-02    0.177E-01
RMM:  16    -0.222073988158E+03    0.14258E-03   -0.60269E-04   421   0.445E-02    0.126E-01
RMM:  17    -0.222073996034E+03   -0.78759E-05   -0.40812E-04   389   0.322E-02    0.537E-02
RMM:  18    -0.222074040548E+03   -0.44515E-04   -0.22970E-04   429   0.230E-02    0.669E-02
RMM:  19    -0.222073969589E+03    0.70960E-04   -0.38235E-05   340   0.120E-02    0.277E-02
RMM:  20    -0.222073960494E+03    0.90951E-05   -0.30641E-05   316   0.899E-03
   1 F= -.22207396E+03 E0= -.22209475E+03  d E =-.222074E+03
       N       E                     dE             d eps       ncg     rms          rms(c)
DAV:   1    -0.222123540919E+03   -0.49571E-01   -0.66437E+00   480   0.431E+00    0.134E+00
RMM:   2    -0.222143214498E+03   -0.19674E-01   -0.21934E-01   490   0.106E+00    0.257E-01
RMM:   3    -0.222149187905E+03   -0.59734E-02   -0.60320E-02   540   0.546E-01    0.536E-01
RMM:   4    -0.222148049599E+03    0.11383E-02   -0.77516E-03   522   0.197E-01    0.390E-01
RMM:   5    -0.222147700799E+03    0.34880E-03   -0.99952E-04   473   0.608E-02    0.318E-01
RMM:   6    -0.222147476980E+03    0.22382E-03   -0.23006E-04   429   0.286E-02    0.265E-01
RMM:   7    -0.222147195822E+03    0.28116E-03   -0.15358E-03   476   0.443E-02    0.823E-02
RMM:   8    -0.222147207610E+03   -0.11788E-04   -0.48113E-04   476   0.303E-02    0.450E-02
RMM:   9    -0.222147181899E+03    0.25712E-04   -0.38557E-05   348   0.128E-02    0.305E-02
RMM:  10    -0.222147170731E+03    0.11168E-04   -0.10900E-04   383   0.129E-02    0.204E-02
RMM:  11    -0.222147170109E+03    0.62189E-06   -0.95142E-06   237   0.706E-03
   2 F= -.22214717E+03 E0= -.22216830E+03  d E =-.732096E-01
       N       E                     dE             d eps       ncg     rms          rms(c)
DAV:   1    -0.222136042302E+03    0.11128E-01   -0.16831E+01   448   0.686E+00    0.225E+00
RMM:   2    -0.222183589528E+03   -0.47547E-01   -0.53589E-01   484   0.169E+00    0.467E-01
RMM:   3    -0.222199320139E+03   -0.15731E-01   -0.15960E-01   553   0.906E-01    0.894E-01
RMM:   4    -0.222196136667E+03    0.31835E-02   -0.16975E-02   506   0.302E-01    0.658E-01
RMM:   5    -0.222195117866E+03    0.10188E-02   -0.24061E-03   490   0.997E-02    0.501E-01
RMM:   6    -0.222194285340E+03    0.83253E-03   -0.12468E-03   382   0.566E-02    0.329E-01
RMM:   7    -0.222194083266E+03    0.20207E-03   -0.47738E-03   492   0.795E-02    0.646E-02
RMM:   8    -0.222194053677E+03    0.29589E-04   -0.28637E-04   479   0.374E-02    0.606E-02
RMM:   9    -0.222194007916E+03    0.45761E-04   -0.51726E-04   383   0.282E-02    0.312E-02
RMM:  10    -0.222193998557E+03    0.93590E-05   -0.42663E-05   378   0.154E-02
   3 F= -.22219400E+03 E0= -.22221485E+03  d E =-.120038E+00
       N       E                     dE             d eps       ncg     rms          rms(c)
DAV:   1    -0.222230460193E+03   -0.36452E-01   -0.50983E+00   464   0.365E+00    0.805E-01
RMM:   2    -0.222242411339E+03   -0.11951E-01   -0.13074E-01   505   0.845E-01    0.145E-01
RMM:   3    -0.222245784797E+03   -0.33735E-02   -0.34823E-02   546   0.418E-01    0.348E-01
RMM:   4    -0.222245582870E+03    0.20193E-03   -0.42556E-03   520   0.151E-01    0.271E-01
RMM:   5    -0.222245280807E+03    0.30206E-03   -0.46444E-04   418   0.449E-02    0.193E-01
RMM:   6    -0.222245193991E+03    0.86817E-04   -0.24544E-03   448   0.575E-02    0.517E-02
RMM:   7    -0.222245206475E+03   -0.12485E-04   -0.21324E-04   475   0.293E-02    0.586E-02
RMM:   8    -0.222245134054E+03    0.72421E-04   -0.77766E-05   348   0.134E-02    0.314E-02
RMM:   9    -0.222245131260E+03    0.27943E-05   -0.27404E-04   445   0.187E-02    0.130E-02
RMM:  10    -0.222245123832E+03    0.74275E-05   -0.16322E-05   263   0.840E-03
   4 F= -.22224512E+03 E0= -.22226549E+03  d E =-.511253E-01
       N       E                     dE             d eps       ncg     rms          rms(c)
DAV:   1    -0.222215712820E+03    0.29418E-01   -0.46183E+01   416   0.112E+01    0.273E+00
RMM:   2    -0.222328429322E+03   -0.11272E+00   -0.12445E+00   503   0.263E+00    0.423E-01
RMM:   3    -0.222361704856E+03   -0.33276E-01   -0.35450E-01   551   0.136E+00    0.110E+00
RMM:   4    -0.222361429993E+03    0.27486E-03   -0.39872E-02   513   0.465E-01    0.902E-01
RMM:   5    -0.222359020939E+03    0.24091E-02   -0.44384E-03   475   0.141E-01    0.694E-01
RMM:   6    -0.222357133570E+03    0.18874E-02   -0.90889E-03   413   0.126E-01    0.247E-01
RMM:   7    -0.222357843360E+03   -0.70979E-03   -0.66486E-03   459   0.110E-01    0.161E-01
RMM:   8    -0.222357512337E+03    0.33102E-03   -0.44234E-04   415   0.553E-02    0.124E-01
RMM:   9    -0.222357368445E+03    0.14389E-03   -0.31325E-03   474   0.682E-02    0.668E-02
RMM:  10    -0.222357260917E+03    0.10753E-03   -0.21835E-04   368   0.288E-02    0.280E-02
RMM:  11    -0.222357259079E+03    0.18380E-05   -0.24367E-04   392   0.192E-02    0.275E-02
RMM:  12    -0.222357255326E+03    0.37530E-05   -0.20919E-05   321   0.111E-02
   5 F= -.22235726E+03 E0= -.22237565E+03  d E =-.163257E+00
       N       E                     dE             d eps       ncg     rms          rms(c)
DAV:   1    -0.221738816883E+03    0.61844E+00   -0.18931E+02   432   0.233E+01    0.730E+00
RMM:   2    -0.222260406499E+03   -0.52159E+00   -0.57140E+00   503   0.549E+00    0.808E-01
RMM:   3    -0.222398723384E+03   -0.13832E+00   -0.15077E+00   553   0.293E+00    0.242E+00
RMM:   4    -0.222405316392E+03   -0.65930E-02   -0.17993E-01   512   0.976E-01    0.226E+00
RMM:   5    -0.222395514450E+03    0.98019E-02   -0.21481E-02   483   0.323E-01    0.182E+00
RMM:   6    -0.222389305063E+03    0.62094E-02   -0.23291E-02   430   0.231E-01    0.893E-01
RMM:   7    -0.222391281685E+03   -0.19766E-02   -0.36907E-02   507   0.238E-01    0.368E-01
RMM:   8    -0.222389562412E+03    0.17193E-02   -0.29086E-03   424   0.133E-01    0.206E-01
RMM:   9    -0.222389576493E+03   -0.14081E-04   -0.11287E-02   483   0.141E-01    0.230E-01
RMM:  10    -0.222388994165E+03    0.58233E-03   -0.16895E-03   393   0.733E-02    0.595E-02
RMM:  11    -0.222389074552E+03   -0.80387E-04   -0.97154E-04   458   0.413E-02    0.851E-02
RMM:  12    -0.222389023994E+03    0.50558E-04   -0.18190E-04   371   0.237E-02    0.329E-02
RMM:  13    -0.222389032982E+03   -0.89880E-05   -0.76238E-05   394   0.136E-02
   6 F= -.22238903E+03 E0= -.22240261E+03  d E =-.195034E+00
       N       E                     dE             d eps       ncg     rms          rms(c)
DAV:   1    -0.222324080716E+03    0.64943E-01   -0.27233E+01   448   0.853E+00    0.196E+00
RMM:   2    -0.222390424254E+03   -0.66344E-01   -0.73281E-01   505   0.200E+00    0.303E-01
RMM:   3    -0.222409003263E+03   -0.18579E-01   -0.20322E-01   542   0.103E+00    0.799E-01
RMM:   4    -0.222409711952E+03   -0.70869E-03   -0.24500E-02   518   0.366E-01    0.648E-01
RMM:   5    -0.222408308227E+03    0.14037E-02   -0.23708E-03   460   0.106E-01    0.503E-01
RMM:   6    -0.222407209935E+03    0.10983E-02   -0.68813E-03   428   0.106E-01    0.160E-01
RMM:   7    -0.222407614302E+03   -0.40437E-03   -0.28661E-03   458   0.790E-02    0.116E-01
RMM:   8    -0.222407324853E+03    0.28945E-03   -0.41532E-04   388   0.406E-02    0.702E-02
RMM:   9    -0.222407323506E+03    0.13471E-05   -0.14948E-03   456   0.461E-02    0.402E-02
RMM:  10    -0.222407263348E+03    0.60159E-04   -0.14780E-04   350   0.222E-02    0.237E-02
RMM:  11    -0.222407269163E+03   -0.58154E-05   -0.15502E-04   388   0.151E-02    0.207E-02
RMM:  12    -0.222407263866E+03    0.52970E-05   -0.26183E-05   287   0.923E-03
   7 F= -.22240726E+03 E0= -.22242267E+03  d E =-.213265E+00
       N       E                     dE             d eps       ncg     rms          rms(c)
DAV:   1    -0.222395707442E+03    0.11562E-01   -0.24845E+01   448   0.841E+00    0.199E+00
RMM:   2    -0.222456325808E+03   -0.60618E-01   -0.66961E-01   505   0.194E+00    0.317E-01
RMM:   3    -0.222471252126E+03   -0.14926E-01   -0.16761E-01   533   0.985E-01    0.723E-01
RMM:   4    -0.222471685545E+03   -0.43342E-03   -0.23255E-02   534   0.362E-01    0.603E-01
RMM:   5    -0.222470857914E+03    0.82763E-03   -0.19655E-03   488   0.948E-02    0.522E-01
RMM:   6    -0.222470190271E+03    0.66764E-03   -0.73696E-04   387   0.508E-02    0.389E-01
RMM:   7    -0.222469874593E+03    0.31568E-03   -0.80678E-03   550   0.104E-01    0.137E-01
RMM:   8    -0.222469765757E+03    0.10884E-03   -0.22728E-04   420   0.425E-02    0.101E-01
RMM:   9    -0.222469730165E+03    0.35592E-04   -0.20071E-03   502   0.514E-02    0.944E-02
RMM:  10    -0.222469618518E+03    0.11165E-03   -0.27349E-04   373   0.252E-02    0.211E-02
RMM:  11    -0.222469625124E+03   -0.66056E-05   -0.10814E-04   453   0.146E-02    0.208E-02
RMM:  12    -0.222469622043E+03    0.30815E-05   -0.15680E-05   263   0.705E-03
   8 F= -.22246962E+03 E0= -.22248450E+03  d E =-.623582E-01
       N       E                     dE             d eps       ncg     rms          rms(c)
DAV:   1    -0.222442473260E+03    0.27152E-01   -0.14008E+01   448   0.632E+00    0.146E+00
RMM:   2    -0.222475985261E+03   -0.33512E-01   -0.36997E-01   502   0.146E+00    0.221E-01
RMM:   3    -0.222484196643E+03   -0.82114E-02   -0.92274E-02   533   0.738E-01    0.539E-01
RMM:   4    -0.222484518153E+03   -0.32151E-03   -0.12997E-02   533   0.277E-01    0.442E-01
RMM:   5    -0.222484102033E+03    0.41612E-03   -0.10964E-03   483   0.702E-02    0.390E-01
RMM:   6    -0.222483790344E+03    0.31169E-03   -0.28216E-04   395   0.345E-02    0.318E-01
RMM:   7    -0.222483511910E+03    0.27843E-03   -0.55042E-03   545   0.846E-02    0.127E-01
RMM:   8    -0.222483476755E+03    0.35155E-04   -0.13893E-04   430   0.327E-02    0.104E-01
RMM:   9    -0.222483348855E+03    0.12790E-03   -0.54654E-04   462   0.284E-02    0.302E-02
RMM:  10    -0.222483351702E+03   -0.28474E-05   -0.40090E-05   413   0.138E-02
   9 F= -.22248335E+03 E0= -.22249782E+03  d E =-.760878E-01
       N       E                     dE             d eps       ncg     rms          rms(c)
DAV:   1    -0.222473015014E+03    0.10334E-01   -0.24254E+01   432   0.869E+00    0.155E+00
RMM:   2    -0.222525119259E+03   -0.52104E-01   -0.56773E-01   518   0.187E+00    0.302E-01
RMM:   3    -0.222536700285E+03   -0.11581E-01   -0.12811E-01   534   0.917E-01    0.511E-01
RMM:   4    -0.222537981840E+03   -0.12816E-02   -0.22447E-02   540   0.368E-01    0.421E-01
RMM:   5    -0.222537132165E+03    0.84967E-03   -0.17299E-03   454   0.927E-02    0.303E-01
RMM:   6    -0.222536806919E+03    0.32525E-03   -0.32115E-03   416   0.856E-02    0.981E-02
RMM:   7    -0.222536951955E+03   -0.14504E-03   -0.11024E-03   498   0.591E-02    0.630E-02
RMM:   8    -0.222536846651E+03    0.10530E-03   -0.66990E-04   378   0.393E-02    0.286E-02
RMM:   9    -0.222536866718E+03   -0.20067E-04   -0.16902E-04   467   0.242E-02    0.263E-02
RMM:  10    -0.222536844633E+03    0.22085E-04   -0.34333E-05   350   0.110E-02    0.152E-02
RMM:  11    -0.222536845194E+03   -0.56110E-06   -0.54927E-05   359   0.103E-02
  10 F= -.22253685E+03 E0= -.22255045E+03  d E =-.534935E-01
       N       E                     dE             d eps       ncg     rms          rms(c)
DAV:   1    -0.222287130558E+03    0.24971E+00   -0.97858E+01   432   0.178E+01    0.338E+00
RMM:   2    -0.222517121393E+03   -0.22999E+00   -0.25042E+00   517   0.391E+00    0.639E-01
RMM:   3    -0.222569466603E+03   -0.52345E-01   -0.58640E-01   532   0.198E+00    0.106E+00
RMM:   4    -0.222574418651E+03   -0.49520E-02   -0.87207E-02   537   0.739E-01    0.903E-01
RMM:   5    -0.222571779043E+03    0.26396E-02   -0.97019E-03   470   0.216E-01    0.693E-01
RMM:   6    -0.222570456749E+03    0.13223E-02   -0.56744E-03   429   0.127E-01    0.387E-01
RMM:   7    -0.222570754324E+03   -0.29757E-03   -0.66132E-03   473   0.123E-01    0.117E-01
RMM:   8    -0.222570498344E+03    0.25598E-03   -0.61974E-04   441   0.736E-02    0.616E-02
RMM:   9    -0.222570472221E+03    0.26124E-04   -0.70759E-04   381   0.479E-02    0.530E-02
RMM:  10    -0.222570471748E+03    0.47317E-06   -0.10487E-04   466   0.242E-02    0.443E-02
RMM:  11    -0.222570459279E+03    0.12468E-04   -0.22705E-05   281   0.100E-02    0.263E-02
RMM:  12    -0.222570461092E+03   -0.18129E-05   -0.43623E-05   336   0.100E-02
  11 F= -.22257046E+03 E0= -.22258234E+03  d E =-.871094E-01
       N       E                     dE             d eps       ncg     rms          rms(c)
DAV:   1    -0.222546554143E+03    0.23905E-01   -0.23973E+01   448   0.876E+00    0.159E+00
RMM:   2    -0.222597165479E+03   -0.50611E-01   -0.55305E-01   522   0.188E+00    0.309E-01
RMM:   3    -0.222608401369E+03   -0.11236E-01   -0.12435E-01   521   0.912E-01    0.500E-01
RMM:   4    -0.222609572671E+03   -0.11713E-02   -0.20734E-02   549   0.368E-01    0.399E-01
RMM:   5    -0.222608807981E+03    0.76469E-03   -0.16390E-03   450   0.896E-02    0.281E-01
RMM:   6    -0.222608574265E+03    0.23372E-03   -0.32350E-03   422   0.843E-02    0.844E-02
RMM:   7    -0.222608695791E+03   -0.12153E-03   -0.98402E-04   496   0.571E-02    0.608E-02
RMM:   8    -0.222608582934E+03    0.11286E-03   -0.54919E-04   364   0.346E-02    0.263E-02
RMM:   9    -0.222608615668E+03   -0.32734E-04   -0.22036E-04   458   0.247E-02    0.260E-02
RMM:  10    -0.222608590837E+03    0.24832E-04   -0.35712E-05   334   0.112E-02    0.155E-02
RMM:  11    -0.222608587424E+03    0.34128E-05   -0.46749E-05   349   0.966E-03
  12 F= -.22260859E+03 E0= -.22261947E+03  d E =-.381263E-01
       N       E                     dE             d eps       ncg     rms          rms(c)
DAV:   1    -0.222336576230E+03    0.27201E+00   -0.97419E+01   432   0.179E+01    0.357E+00
RMM:   2    -0.222561534101E+03   -0.22496E+00   -0.24505E+00   522   0.389E+00    0.641E-01
RMM:   3    -0.222611553859E+03   -0.50020E-01   -0.56033E-01   521   0.196E+00    0.105E+00
RMM:   4    -0.222616522217E+03   -0.49684E-02   -0.87477E-02   547   0.758E-01    0.859E-01
RMM:   5    -0.222613854536E+03    0.26677E-02   -0.82906E-03   457   0.202E-01    0.614E-01
RMM:   6    -0.222612854322E+03    0.10002E-02   -0.90272E-03   434   0.151E-01    0.238E-01
RMM:   7    -0.222613321596E+03   -0.46727E-03   -0.43492E-03   514   0.112E-01    0.115E-01
RMM:   8    -0.222612960345E+03    0.36125E-03   -0.15945E-03   394   0.688E-02    0.610E-02
RMM:   9    -0.222613082836E+03   -0.12249E-03   -0.85372E-04   416   0.499E-02    0.544E-02
RMM:  10    -0.222612997383E+03    0.85453E-04   -0.10159E-04   401   0.257E-02    0.314E-02
RMM:  11    -0.222612987535E+03    0.98479E-05   -0.25955E-04   409   0.211E-02    0.190E-02
RMM:  12    -0.222612983562E+03    0.39729E-05   -0.25157E-05   329   0.123E-02
  13 F= -.22261298E+03 E0= -.22262196E+03  d E =-.425225E-01
       N       E                     dE             d eps       ncg     rms          rms(c)
DAV:   1    -0.222570572123E+03    0.42415E-01   -0.20261E+01   448   0.807E+00    0.136E+00
RMM:   2    -0.222613681709E+03   -0.43110E-01   -0.47142E-01   521   0.173E+00    0.287E-01
RMM:   3    -0.222623271796E+03   -0.95901E-02   -0.10628E-01   521   0.834E-01    0.445E-01
RMM:   4    -0.222624295095E+03   -0.10233E-02   -0.17700E-02   549   0.337E-01    0.359E-01
RMM:   5    -0.222623718928E+03    0.57617E-03   -0.13683E-03   459   0.822E-02    0.273E-01
RMM:   6    -0.222623434311E+03    0.28462E-03   -0.14969E-03   407   0.626E-02    0.135E-01
RMM:   7    -0.222623520933E+03   -0.86622E-04   -0.11299E-03   447   0.527E-02    0.474E-02
RMM:   8    -0.222623466227E+03    0.54705E-04   -0.14884E-04   387   0.290E-02    0.246E-02
RMM:   9    -0.222623474488E+03   -0.82612E-05   -0.14199E-04   361   0.191E-02    0.207E-02
RMM:  10    -0.222623470198E+03    0.42907E-05   -0.14942E-05   286   0.109E-02
  14 F= -.22262347E+03 E0= -.22263331E+03  d E =-.530091E-01
       N       E                     dE             d eps       ncg     rms          rms(c)
DAV:   1    -0.222634688155E+03   -0.11214E-01   -0.26080E+00   448   0.303E+00    0.616E-01
RMM:   2    -0.222640805731E+03   -0.61176E-02   -0.69062E-02   516   0.679E-01    0.931E-02
RMM:   3    -0.222642116916E+03   -0.13112E-02   -0.15105E-02   496   0.315E-01    0.211E-01
RMM:   4    -0.222642244855E+03   -0.12794E-03   -0.26262E-03   560   0.133E-01    0.158E-01
RMM:   5    -0.222642109735E+03    0.13512E-03   -0.22977E-04   399   0.317E-02    0.106E-01
RMM:   6    -0.222642076785E+03    0.32950E-04   -0.49238E-04   373   0.314E-02    0.299E-02
RMM:   7    -0.222642092036E+03   -0.15250E-04   -0.15057E-04   447   0.215E-02    0.241E-02
RMM:   8    -0.222642073437E+03    0.18598E-04   -0.37529E-05   320   0.993E-03    0.116E-02
RMM:   9    -0.222642077588E+03   -0.41507E-05   -0.59822E-05   345   0.102E-02
  15 F= -.22264208E+03 E0= -.22265141E+03  d E =-.186074E-01
       N       E                     dE             d eps       ncg     rms          rms(c)
DAV:   1    -0.222638392263E+03    0.36812E-02   -0.62115E+00   464   0.468E+00    0.966E-01
RMM:   2    -0.222652848537E+03   -0.14456E-01   -0.16345E-01   514   0.105E+00    0.143E-01
RMM:   3    -0.222656119483E+03   -0.32709E-02   -0.37584E-02   500   0.495E-01    0.330E-01
RMM:   4    -0.222656395281E+03   -0.27580E-03   -0.58634E-03   554   0.203E-01    0.249E-01
RMM:   5    -0.222656066300E+03    0.32898E-03   -0.56237E-04   427   0.500E-02    0.168E-01
RMM:   6    -0.222655981980E+03    0.84320E-04   -0.12557E-03   388   0.497E-02    0.446E-02
RMM:   7    -0.222656019029E+03   -0.37049E-04   -0.36066E-04   465   0.338E-02    0.381E-02
RMM:   8    -0.222655973344E+03    0.45685E-04   -0.87681E-05   352   0.153E-02    0.180E-02
RMM:   9    -0.222655984402E+03   -0.11059E-04   -0.16198E-04   379   0.162E-02    0.158E-02
RMM:  10    -0.222655973285E+03    0.11118E-04   -0.26798E-05   323   0.959E-03    0.868E-03
RMM:  11    -0.222655974614E+03   -0.13291E-05   -0.20702E-05   266   0.597E-03
  16 F= -.22265597E+03 E0= -.22266461E+03  d E =-.325044E-01
       N       E                     dE             d eps       ncg     rms          rms(c)
DAV:   1    -0.222660897435E+03   -0.49241E-02   -0.37910E+00   464   0.366E+00    0.708E-01
RMM:   2    -0.222669351554E+03   -0.84541E-02   -0.94478E-02   523   0.801E-01    0.116E-01
RMM:   3    -0.222671030595E+03   -0.16790E-02   -0.19529E-02   486   0.366E-01    0.218E-01
RMM:   4    -0.222671210533E+03   -0.17994E-03   -0.36017E-03   566   0.158E-01    0.170E-01
RMM:   5    -0.222671032486E+03    0.17805E-03   -0.33786E-04   419   0.389E-02    0.109E-01
RMM:   6    -0.222671010724E+03    0.21762E-04   -0.67009E-04   396   0.381E-02    0.311E-02
RMM:   7    -0.222671023560E+03   -0.12836E-04   -0.16110E-04   467   0.250E-02    0.288E-02
RMM:   8    -0.222670999820E+03    0.23740E-04   -0.11841E-04   347   0.144E-02    0.109E-02
RMM:   9    -0.222671004530E+03   -0.47095E-05   -0.37833E-05   350   0.988E-03
  17 F= -.22267100E+03 E0= -.22267957E+03  d E =-.150299E-01
       N       E                     dE             d eps       ncg     rms          rms(c)
DAV:   1    -0.222667791258E+03    0.32086E-02   -0.29659E+00   464   0.323E+00    0.628E-01
RMM:   2    -0.222674322192E+03   -0.65309E-02   -0.72936E-02   522   0.707E-01    0.994E-02
RMM:   3    -0.222675612295E+03   -0.12901E-02   -0.15029E-02   486   0.325E-01    0.192E-01
RMM:   4    -0.222675796201E+03   -0.18391E-03   -0.31351E-03   567   0.144E-01    0.153E-01
RMM:   5    -0.222675664201E+03    0.13200E-03   -0.22143E-04   414   0.328E-02    0.109E-01
RMM:   6    -0.222675626387E+03    0.37814E-04   -0.60346E-04   388   0.355E-02    0.313E-02
RMM:   7    -0.222675642250E+03   -0.15864E-04   -0.15081E-04   435   0.235E-02    0.269E-02
RMM:   8    -0.222675618821E+03    0.23430E-04   -0.59431E-05   337   0.120E-02    0.116E-02
RMM:   9    -0.222675625434E+03   -0.66139E-05   -0.63821E-05   356   0.113E-02
  18 F= -.22267563E+03 E0= -.22268412E+03  d E =-.196508E-01
       N       E                     dE             d eps       ncg     rms          rms(c)
DAV:   1    -0.222673456381E+03    0.21624E-02   -0.49574E+00   464   0.413E+00    0.585E-01
RMM:   2    -0.222682877901E+03   -0.94215E-02   -0.10157E-01   533   0.843E-01    0.133E-01
RMM:   3    -0.222684707718E+03   -0.18298E-02   -0.20013E-02   501   0.386E-01    0.176E-01
RMM:   4    -0.222684978869E+03   -0.27115E-03   -0.44628E-03   570   0.173E-01    0.135E-01
RMM:   5    -0.222684885696E+03    0.93173E-04   -0.23531E-04   441   0.356E-02    0.101E-01
RMM:   6    -0.222684845247E+03    0.40449E-04   -0.37093E-04   382   0.313E-02    0.334E-02
RMM:   7    -0.222684859773E+03   -0.14526E-04   -0.13426E-04   432   0.215E-02    0.207E-02
RMM:   8    -0.222684847989E+03    0.11784E-04   -0.22511E-05   293   0.988E-03    0.111E-02
RMM:   9    -0.222684852574E+03   -0.45846E-05   -0.59637E-05   384   0.108E-02
  19 F= -.22268485E+03 E0= -.22269336E+03  d E =-.922714E-02
       N       E                     dE             d eps       ncg     rms          rms(c)
DAV:   1    -0.222680303073E+03    0.45449E-02   -0.40291E+00   464   0.372E+00    0.526E-01
RMM:   2    -0.222687935400E+03   -0.76323E-02   -0.82297E-02   533   0.759E-01    0.120E-01
RMM:   3    -0.222689399176E+03   -0.14638E-02   -0.15995E-02   501   0.348E-01    0.158E-01
RMM:   4    -0.222689634424E+03   -0.23525E-03   -0.37747E-03   572   0.158E-01    0.120E-01
RMM:   5    -0.222689561460E+03    0.72964E-04   -0.18494E-04   437   0.318E-02    0.901E-02
RMM:   6    -0.222689529366E+03    0.32095E-04   -0.30123E-04   375   0.285E-02    0.282E-02
RMM:   7    -0.222689541001E+03   -0.11636E-04   -0.10436E-04   412   0.193E-02    0.181E-02
RMM:   8    -0.222689531460E+03    0.95411E-05   -0.16199E-05   264   0.886E-03
  20 F= -.22268953E+03 E0= -.22269804E+03  d E =-.139060E-01
       N       E                     dE             d eps       ncg     rms          rms(c)
DAV:   1    -0.222650222879E+03    0.39318E-01   -0.16158E+01   448   0.750E+00    0.107E+00
RMM:   2    -0.222681648955E+03   -0.31426E-01   -0.33889E-01   533   0.154E+00    0.247E-01
RMM:   3    -0.222687821171E+03   -0.61722E-02   -0.68500E-02   502   0.721E-01    0.324E-01
RMM:   4    -0.222688790368E+03   -0.96920E-03   -0.15369E-02   571   0.323E-01    0.255E-01
RMM:   5    -0.222688498522E+03    0.29185E-03   -0.82651E-04   470   0.676E-02    0.199E-01
RMM:   6    -0.222688323004E+03    0.17552E-03   -0.12273E-03   416   0.580E-02    0.638E-02
RMM:   7    -0.222688379146E+03   -0.56142E-04   -0.47742E-04   433   0.398E-02    0.372E-02
RMM:   8    -0.222688347716E+03    0.31431E-04   -0.44439E-05   376   0.187E-02    0.222E-02
RMM:   9    -0.222688362947E+03   -0.15231E-04   -0.28981E-04   433   0.225E-02    0.304E-02
RMM:  10    -0.222688338154E+03    0.24793E-04   -0.55122E-05   362   0.143E-02    0.897E-03
RMM:  11    -0.222688341599E+03   -0.34451E-05   -0.40607E-05   360   0.883E-03
  21 F= -.22268834E+03 E0= -.22269684E+03  d E =-.127162E-01
       N       E                     dE             d eps       ncg     rms          rms(c)
DAV:   1    -0.222677706425E+03    0.10632E-01   -0.56577E+00   464   0.443E+00    0.625E-01
RMM:   2    -0.222688453105E+03   -0.10747E-01   -0.11582E-01   534   0.903E-01    0.145E-01
RMM:   3    -0.222690529347E+03   -0.20762E-02   -0.22681E-02   501   0.413E-01    0.186E-01
RMM:   4    -0.222690842864E+03   -0.31352E-03   -0.51079E-03   573   0.187E-01    0.140E-01
RMM:   5    -0.222690725935E+03    0.11693E-03   -0.28277E-04   436   0.389E-02    0.980E-02
RMM:   6    -0.222690703550E+03    0.22385E-04   -0.54462E-04   397   0.360E-02    0.268E-02
RMM:   7    -0.222690709551E+03   -0.60006E-05   -0.92484E-05   425   0.217E-02
  22 F= -.22269071E+03 E0= -.22269925E+03  d E =-.150841E-01
       N       E                     dE             d eps       ncg     rms          rms(c)
DAV:   1    -0.222686749479E+03    0.39541E-02   -0.60531E+00   464   0.453E+00    0.591E-01
RMM:   2    -0.222697414767E+03   -0.10665E-01   -0.11421E-01   536   0.896E-01    0.140E-01
RMM:   3    -0.222699566370E+03   -0.21516E-02   -0.23188E-02   521   0.414E-01    0.166E-01
RMM:   4    -0.222699899737E+03   -0.33337E-03   -0.50426E-03   556   0.182E-01    0.131E-01
RMM:   5    -0.222699818206E+03    0.81531E-04   -0.24541E-04   453   0.377E-02    0.101E-01
RMM:   6    -0.222699782916E+03    0.35290E-04   -0.51669E-04   393   0.357E-02    0.248E-02
RMM:   7    -0.222699789601E+03   -0.66857E-05   -0.91848E-05   415   0.220E-02
  23 F= -.22269979E+03 E0= -.22270816E+03  d E =-.908005E-02
       N       E                     dE             d eps       ncg     rms          rms(c)
DAV:   1    -0.222659454118E+03    0.40329E-01   -0.21057E+01   448   0.847E+00    0.113E+00
RMM:   2    -0.222697969391E+03   -0.38515E-01   -0.41407E-01   538   0.170E+00    0.293E-01
RMM:   3    -0.222705759315E+03   -0.77899E-02   -0.85537E-02   520   0.798E-01    0.312E-01
RMM:   4    -0.222706956008E+03   -0.11967E-02   -0.17984E-02   562   0.347E-01    0.252E-01
RMM:   5    -0.222706664892E+03    0.29112E-03   -0.94992E-04   465   0.738E-02    0.193E-01
RMM:   6    -0.222706547768E+03    0.11712E-03   -0.17062E-03   421   0.658E-02    0.464E-02
RMM:   7    -0.222706570835E+03   -0.23067E-04   -0.30524E-04   476   0.398E-02    0.308E-02
RMM:   8    -0.222706546150E+03    0.24685E-04   -0.52744E-05   387   0.166E-02    0.186E-02
RMM:   9    -0.222706553814E+03   -0.76642E-05   -0.74306E-05   355   0.146E-02
  24 F= -.22270655E+03 E0= -.22271460E+03  d E =-.158443E-01
       N       E                     dE             d eps       ncg     rms          rms(c)
DAV:   1    -0.222692236856E+03    0.14309E-01   -0.10722E+01   464   0.603E+00    0.824E-01
RMM:   2    -0.222711441546E+03   -0.19205E-01   -0.20678E-01   540   0.120E+00    0.200E-01
RMM:   3    -0.222715231064E+03   -0.37895E-02   -0.41620E-02   512   0.557E-01    0.216E-01
RMM:   4    -0.222715804857E+03   -0.57379E-03   -0.90290E-03   561   0.246E-01    0.167E-01
RMM:   5    -0.222715629775E+03    0.17508E-03   -0.60081E-04   439   0.560E-02    0.105E-01
RMM:   6    -0.222715639278E+03   -0.95032E-05   -0.76860E-04   430   0.454E-02    0.315E-02
RMM:   7    -0.222715635696E+03    0.35821E-05   -0.96566E-05   433   0.258E-02
  25 F= -.22271564E+03 E0= -.22272372E+03  d E =-.908188E-02
       N       E                     dE             d eps       ncg     rms          rms(c)
DAV:   1    -0.222713736601E+03    0.19027E-02   -0.13058E+00   464   0.211E+00    0.292E-01
RMM:   2    -0.222716044042E+03   -0.23074E-02   -0.24572E-02   527   0.419E-01    0.514E-02
RMM:   3    -0.222716532659E+03   -0.48862E-03   -0.52817E-03   511   0.199E-01    0.943E-02
RMM:   4    -0.222716617732E+03   -0.85073E-04   -0.11744E-03   558   0.882E-02    0.766E-02
RMM:   5    -0.222716588476E+03    0.29256E-04   -0.56998E-05   355   0.179E-02    0.593E-02
RMM:   6    -0.222716578421E+03    0.10055E-04   -0.22333E-04   366   0.216E-02    0.152E-02
RMM:   7    -0.222716579190E+03   -0.76899E-06   -0.31860E-05   343   0.130E-02
  26 F= -.22271658E+03 E0= -.22272472E+03  d E =-.100254E-01
       N       E                     dE             d eps       ncg     rms          rms(c)
DAV:   1    -0.222714163980E+03    0.24144E-02   -0.37981E+00   448   0.368E+00    0.531E-01
RMM:   2    -0.222721653345E+03   -0.74894E-02   -0.80914E-02   531   0.757E-01    0.117E-01
RMM:   3    -0.222723107640E+03   -0.14543E-02   -0.15729E-02   509   0.346E-01    0.169E-01
RMM:   4    -0.222723307772E+03   -0.20013E-03   -0.34873E-03   559   0.156E-01    0.123E-01
RMM:   5    -0.222723222726E+03    0.85046E-04   -0.22218E-04   422   0.337E-02    0.822E-02
RMM:   6    -0.222723214454E+03    0.82723E-05   -0.33432E-04   381   0.294E-02    0.239E-02
RMM:   7    -0.222723222246E+03   -0.77917E-05   -0.82624E-05   433   0.188E-02
  27 F= -.22272322E+03 E0= -.22273139E+03  d E =-.664306E-02
       N       E                     dE             d eps       ncg     rms          rms(c)
DAV:   1    -0.222702522052E+03    0.20692E-01   -0.10376E+01   448   0.611E+00    0.890E-01
RMM:   2    -0.222723163831E+03   -0.20642E-01   -0.22285E-01   530   0.126E+00    0.192E-01
RMM:   3    -0.222727189248E+03   -0.40254E-02   -0.43917E-02   507   0.584E-01    0.284E-01
RMM:   4    -0.222727825442E+03   -0.63619E-03   -0.10329E-02   561   0.268E-01    0.212E-01
RMM:   5    -0.222727596943E+03    0.22850E-03   -0.61865E-04   447   0.571E-02    0.150E-01
RMM:   6    -0.222727543671E+03    0.53272E-04   -0.91676E-04   412   0.488E-02    0.432E-02
RMM:   7    -0.222727572808E+03   -0.29137E-04   -0.25391E-04   491   0.317E-02    0.306E-02
RMM:   8    -0.222727545021E+03    0.27787E-04   -0.66297E-05   342   0.145E-02    0.153E-02
RMM:   9    -0.222727552912E+03   -0.78906E-05   -0.84324E-05   377   0.136E-02
  28 F= -.22272755E+03 E0= -.22273573E+03  d E =-.109737E-01
       N       E                     dE             d eps       ncg     rms          rms(c)
DAV:   1    -0.222726905059E+03    0.63996E-03   -0.19676E+00   464   0.267E+00    0.393E-01
RMM:   2    -0.222730786827E+03   -0.38818E-02   -0.41613E-02   520   0.550E-01    0.641E-02
RMM:   3    -0.222731655138E+03   -0.86831E-03   -0.92631E-03   519   0.261E-01    0.141E-01
RMM:   4    -0.222731760742E+03   -0.10560E-03   -0.17483E-03   547   0.111E-01    0.107E-01
RMM:   5    -0.222731708349E+03    0.52393E-04   -0.95287E-05   399   0.230E-02    0.848E-02
RMM:   6    -0.222731671129E+03    0.37220E-04   -0.27615E-04   363   0.241E-02    0.239E-02
RMM:   7    -0.222731683441E+03   -0.12311E-04   -0.93468E-05   383   0.165E-02    0.166E-02
RMM:   8    -0.222731675368E+03    0.80729E-05   -0.10758E-05   255   0.772E-03
  29 F= -.22273168E+03 E0= -.22273989E+03  d E =-.412246E-02
       N       E                     dE             d eps       ncg     rms          rms(c)
DAV:   1    -0.222694375458E+03    0.37308E-01   -0.17754E+01   448   0.806E+00    0.122E+00
RMM:   2    -0.222730613801E+03   -0.36238E-01   -0.39001E-01   523   0.168E+00    0.225E-01
RMM:   3    -0.222738302847E+03   -0.76890E-02   -0.83779E-02   516   0.809E-01    0.418E-01
RMM:   4    -0.222739493797E+03   -0.11910E-02   -0.18405E-02   553   0.359E-01    0.328E-01
RMM:   5    -0.222739024914E+03    0.46888E-03   -0.92826E-04   455   0.724E-02    0.260E-01
RMM:   6    -0.222738696463E+03    0.32845E-03   -0.20647E-03   421   0.683E-02    0.849E-02
RMM:   7    -0.222738796156E+03   -0.99693E-04   -0.82801E-04   450   0.486E-02    0.455E-02
RMM:   8    -0.222738740832E+03    0.55324E-04   -0.76486E-05   383   0.228E-02    0.273E-02
RMM:   9    -0.222738764696E+03   -0.23864E-04   -0.44335E-04   442   0.259E-02    0.348E-02
RMM:  10    -0.222738731470E+03    0.33227E-04   -0.56508E-05   347   0.135E-02    0.169E-02
RMM:  11    -0.222738730836E+03    0.63383E-06   -0.50542E-05   371   0.925E-03
  30 F= -.22273873E+03 E0= -.22274707E+03  d E =-.111779E-01
       N       E                     dE             d eps       ncg     rms          rms(c)
DAV:   1    -0.222731681353E+03    0.70501E-02   -0.30299E+00   464   0.332E+00    0.486E-01
RMM:   2    -0.222737772245E+03   -0.60909E-02   -0.65646E-02   524   0.687E-01    0.926E-02
RMM:   3    -0.222739072660E+03   -0.13004E-02   -0.13912E-02   517   0.322E-01    0.170E-01
RMM:   4    -0.222739236390E+03   -0.16373E-03   -0.27625E-03   552   0.140E-01    0.129E-01
RMM:   5    -0.222739155479E+03    0.80910E-04   -0.15137E-04   424   0.290E-02    0.991E-02
RMM:   6    -0.222739112074E+03    0.43406E-04   -0.40129E-04   373   0.296E-02    0.286E-02
RMM:   7    -0.222739127447E+03   -0.15373E-04   -0.11975E-04   407   0.198E-02    0.196E-02
RMM:   8    -0.222739114711E+03    0.12736E-04   -0.21619E-05   286   0.944E-03    0.990E-03
RMM:   9    -0.222739118643E+03   -0.39323E-05   -0.54620E-05   386   0.100E-02
  31 F= -.22273912E+03 E0= -.22274751E+03  d E =-.115657E-01
       N       E                     dE             d eps       ncg     rms          rms(c)
DAV:   1    -0.222732361130E+03    0.67536E-02   -0.46933E+00   432   0.416E+00    0.645E-01
RMM:   2    -0.222742189167E+03   -0.98280E-02   -0.10633E-01   525   0.865E-01    0.116E-01
RMM:   3    -0.222744306770E+03   -0.21176E-02   -0.22662E-02   519   0.406E-01    0.227E-01
RMM:   4    -0.222744531579E+03   -0.22481E-03   -0.41920E-03   549   0.174E-01    0.168E-01
RMM:   5    -0.222744369968E+03    0.16161E-03   -0.30491E-04   428   0.390E-02    0.114E-01
RMM:   6    -0.222744358842E+03    0.11126E-04   -0.93160E-04   407   0.428E-02    0.292E-02
RMM:   7    -0.222744358767E+03    0.75255E-07   -0.11480E-04   421   0.248E-02    0.270E-02
RMM:   8    -0.222744338707E+03    0.20060E-04   -0.12865E-04   365   0.156E-02    0.970E-03
RMM:   9    -0.222744339324E+03   -0.61745E-06   -0.15620E-05   285   0.899E-03
  32 F= -.22274434E+03 E0= -.22275245E+03  d E =-.522068E-02
       N       E                     dE             d eps       ncg     rms          rms(c)
DAV:   1    -0.222741602064E+03    0.27366E-02   -0.17525E+00   464   0.254E+00    0.392E-01
RMM:   2    -0.222745266994E+03   -0.36649E-02   -0.39549E-02   525   0.528E-01    0.703E-02
RMM:   3    -0.222746049791E+03   -0.78280E-03   -0.83680E-03   516   0.246E-01    0.137E-01
RMM:   4    -0.222746126307E+03   -0.76516E-04   -0.15066E-03   552   0.105E-01    0.100E-01
RMM:   5    -0.222746067885E+03    0.58421E-04   -0.11249E-04   389   0.236E-02    0.673E-02
RMM:   6    -0.222746064615E+03    0.32704E-05   -0.33735E-04   377   0.257E-02    0.175E-02
RMM:   7    -0.222746064727E+03   -0.11214E-06   -0.42563E-05   379   0.149E-02
  33 F= -.22274606E+03 E0= -.22275400E+03  d E =-.694608E-02
       N       E                     dE             d eps       ncg     rms          rms(c)
DAV:   1    -0.222728069750E+03    0.17995E-01   -0.70279E+00   432   0.509E+00    0.801E-01
RMM:   2    -0.222742999387E+03   -0.14930E-01   -0.16152E-01   524   0.106E+00    0.147E-01
RMM:   3    -0.222746189249E+03   -0.31899E-02   -0.34316E-02   516   0.504E-01    0.282E-01
RMM:   4    -0.222746528386E+03   -0.33914E-03   -0.64802E-03   551   0.217E-01    0.207E-01
RMM:   5    -0.222746274307E+03    0.25408E-03   -0.52338E-04   433   0.501E-02    0.131E-01
RMM:   6    -0.222746273068E+03    0.12389E-05   -0.12592E-03   420   0.509E-02    0.348E-02
RMM:   7    -0.222746272176E+03    0.89145E-06   -0.16643E-04   442   0.299E-02    0.326E-02
RMM:   8    -0.222746250366E+03    0.21810E-04   -0.22608E-04   363   0.205E-02    0.152E-02
RMM:   9    -0.222746246171E+03    0.41950E-05   -0.18613E-05   308   0.110E-02
  34 F= -.22274625E+03 E0= -.22275382E+03  d E =-.712753E-02
       N       E                     dE             d eps       ncg     rms          rms(c)
DAV:   1    -0.222742812287E+03    0.34381E-02   -0.15261E+00   432   0.237E+00    0.359E-01
RMM:   2    -0.222746009537E+03   -0.31973E-02   -0.34887E-02   524   0.493E-01    0.705E-02
RMM:   3    -0.222746706815E+03   -0.69728E-03   -0.74257E-03   526   0.232E-01    0.131E-01
RMM:   4    -0.222746773466E+03   -0.66651E-04   -0.13267E-03   544   0.979E-02    0.961E-02
RMM:   5    -0.222746722276E+03    0.51190E-04   -0.10098E-04   386   0.223E-02    0.640E-02
RMM:   6    -0.222746719926E+03    0.23500E-05   -0.28612E-04   385   0.234E-02    0.170E-02
RMM:   7    -0.222746719064E+03    0.86246E-06   -0.30696E-05   344   0.131E-02
  35 F= -.22274672E+03 E0= -.22275448E+03  d E =-.760042E-02
       N       E                     dE             d eps       ncg     rms          rms(c)
DAV:   1    -0.222741872978E+03    0.48469E-02   -0.42040E+00   432   0.389E+00    0.586E-01
RMM:   2    -0.222750381766E+03   -0.85088E-02   -0.92745E-02   522   0.806E-01    0.102E-01
RMM:   3    -0.222752326623E+03   -0.19449E-02   -0.20636E-02   533   0.383E-01    0.209E-01
RMM:   4    -0.222752525363E+03   -0.19874E-03   -0.36330E-03   538   0.159E-01    0.156E-01
RMM:   5    -0.222752391701E+03    0.13366E-03   -0.26514E-04   427   0.368E-02    0.107E-01
RMM:   6    -0.222752373116E+03    0.18585E-04   -0.72554E-04   397   0.381E-02    0.264E-02
RMM:   7    -0.222752382648E+03   -0.95320E-05   -0.12106E-04   451   0.230E-02    0.268E-02
RMM:   8    -0.222752360456E+03    0.22192E-04   -0.13172E-04   360   0.152E-02    0.102E-02
RMM:   9    -0.222752361899E+03   -0.14432E-05   -0.19979E-05   289   0.915E-03
  36 F= -.22275236E+03 E0= -.22275975E+03  d E =-.564284E-02
       N       E                     dE             d eps       ncg     rms          rms(c)
DAV:   1    -0.222746246535E+03    0.61139E-02   -0.36938E+00   432   0.364E+00    0.551E-01
RMM:   2    -0.222753726559E+03   -0.74800E-02   -0.80960E-02   518   0.756E-01    0.887E-02
RMM:   3    -0.222755463593E+03   -0.17370E-02   -0.18486E-02   531   0.363E-01    0.202E-01
RMM:   4    -0.222755636039E+03   -0.17245E-03   -0.31457E-03   540   0.149E-01    0.151E-01
RMM:   5    -0.222755514235E+03    0.12180E-03   -0.21845E-04   425   0.339E-02    0.105E-01
RMM:   6    -0.222755491166E+03    0.23068E-04   -0.70775E-04   387   0.373E-02    0.242E-02
RMM:   7    -0.222755498717E+03   -0.75508E-05   -0.11524E-04   438   0.223E-02    0.261E-02
RMM:   8    -0.222755477915E+03    0.20803E-04   -0.11102E-04   358   0.143E-02    0.922E-03
RMM:   9    -0.222755479666E+03   -0.17512E-05   -0.18937E-05   284   0.876E-03
  37 F= -.22275548E+03 E0= -.22276253E+03  d E =-.876060E-02
       N       E                     dE             d eps       ncg     rms          rms(c)
DAV:   1    -0.222717869627E+03    0.37608E-01   -0.14789E+01   432   0.729E+00    0.114E+00
RMM:   2    -0.222748581626E+03   -0.30712E-01   -0.33300E-01   522   0.153E+00    0.204E-01
RMM:   3    -0.222755265676E+03   -0.66841E-02   -0.72264E-02   527   0.732E-01    0.394E-01
RMM:   4    -0.222756119332E+03   -0.85366E-03   -0.14147E-02   546   0.312E-01    0.306E-01
RMM:   5    -0.222755654656E+03    0.46468E-03   -0.89133E-04   448   0.691E-02    0.220E-01
RMM:   6    -0.222755516110E+03    0.13855E-03   -0.24327E-03   419   0.710E-02    0.499E-02
RMM:   7    -0.222755563406E+03   -0.47296E-04   -0.48479E-04   498   0.438E-02    0.464E-02
RMM:   8    -0.222755493142E+03    0.70264E-04   -0.30529E-04   354   0.250E-02    0.208E-02
RMM:   9    -0.222755509197E+03   -0.16054E-04   -0.11335E-04   454   0.179E-02    0.223E-02
RMM:  10    -0.222755494008E+03    0.15189E-04   -0.38924E-05   317   0.953E-03    0.110E-02
RMM:  11    -0.222755495638E+03   -0.16304E-05   -0.24014E-05   294   0.739E-03
  38 F= -.22275550E+03 E0= -.22276188E+03  d E =-.877657E-02
       N       E                     dE             d eps       ncg     rms          rms(c)
DAV:   1    -0.222747188893E+03    0.83051E-02   -0.37168E+00   432   0.366E+00    0.551E-01
RMM:   2    -0.222754719394E+03   -0.75305E-02   -0.81636E-02   518   0.760E-01    0.919E-02
RMM:   3    -0.222756475119E+03   -0.17557E-02   -0.18680E-02   530   0.367E-01    0.204E-01
RMM:   4    -0.222756667966E+03   -0.19285E-03   -0.33032E-03   539   0.152E-01    0.154E-01
RMM:   5    -0.222756540486E+03    0.12748E-03   -0.22395E-04   423   0.344E-02    0.109E-01
RMM:   6    -0.222756517555E+03    0.22930E-04   -0.80058E-04   412   0.385E-02    0.271E-02
RMM:   7    -0.222756520770E+03   -0.32142E-05   -0.93948E-05   430   0.217E-02
  39 F= -.22275652E+03 E0= -.22276325E+03  d E =-.980171E-02
       N       E                     dE             d eps       ncg     rms          rms(c)
DAV:   1    -0.222750708029E+03    0.58095E-02   -0.43515E+00   432   0.387E+00    0.577E-01
RMM:   2    -0.222759089892E+03   -0.83819E-02   -0.90691E-02   522   0.797E-01    0.993E-02
RMM:   3    -0.222761009208E+03   -0.19193E-02   -0.20383E-02   530   0.379E-01    0.197E-01
RMM:   4    -0.222761227024E+03   -0.21782E-03   -0.36155E-03   537   0.157E-01    0.151E-01
RMM:   5    -0.222761114160E+03    0.11286E-03   -0.22425E-04   438   0.348E-02    0.116E-01
RMM:   6    -0.222761056300E+03    0.57861E-04   -0.58434E-04   388   0.350E-02    0.316E-02
RMM:   7    -0.222761076811E+03   -0.20511E-04   -0.15863E-04   438   0.227E-02    0.242E-02
RMM:   8    -0.222761057048E+03    0.19763E-04   -0.38604E-05   314   0.109E-02    0.118E-02
RMM:   9    -0.222761063605E+03   -0.65563E-05   -0.76887E-05   385   0.115E-02
  40 F= -.22276106E+03 E0= -.22276760E+03  d E =-.454284E-02
       N       E                     dE             d eps       ncg     rms          rms(c)
DAV:   1    -0.222757415452E+03    0.36416E-02   -0.23051E+00   464   0.282E+00    0.424E-01
RMM:   2    -0.222761878981E+03   -0.44635E-02   -0.48136E-02   522   0.579E-01    0.716E-02
RMM:   3    -0.222762880529E+03   -0.10015E-02   -0.10661E-02   527   0.275E-01    0.143E-01
RMM:   4    -0.222762988807E+03   -0.10828E-03   -0.18895E-03   540   0.114E-01    0.107E-01
RMM:   5    -0.222762929402E+03    0.59404E-04   -0.12117E-04   409   0.254E-02    0.806E-02
RMM:   6    -0.222762903898E+03    0.25504E-04   -0.31324E-04   370   0.257E-02    0.198E-02
RMM:   7    -0.222762912723E+03   -0.88247E-05   -0.74833E-05   403   0.163E-02
  41 F= -.22276291E+03 E0= -.22276930E+03  d E =-.639195E-02
       N       E                     dE             d eps       ncg     rms          rms(c)
DAV:   1    -0.222740417452E+03    0.22486E-01   -0.92508E+00   448   0.568E+00    0.857E-01
RMM:   2    -0.222758726598E+03   -0.18309E-01   -0.19786E-01   522   0.117E+00    0.150E-01
RMM:   3    -0.222762871530E+03   -0.41449E-02   -0.44435E-02   529   0.563E-01    0.298E-01
RMM:   4    -0.222763362820E+03   -0.49129E-03   -0.81232E-03   540   0.237E-01    0.232E-01
RMM:   5    -0.222763124094E+03    0.23873E-03   -0.50086E-04   457   0.519E-02    0.182E-01
RMM:   6    -0.222762973857E+03    0.15024E-03   -0.12356E-03   417   0.511E-02    0.504E-02
RMM:   7    -0.222763021342E+03   -0.47485E-04   -0.35181E-04   438   0.337E-02    0.339E-02
RMM:   8    -0.222762987392E+03    0.33950E-04   -0.45508E-05   365   0.153E-02    0.193E-02
RMM:   9    -0.222762998643E+03   -0.11251E-04   -0.20149E-04   419   0.177E-02    0.236E-02
RMM:  10    -0.222762983330E+03    0.15312E-04   -0.46299E-05   346   0.111E-02    0.102E-02
RMM:  11    -0.222762984887E+03   -0.15572E-05   -0.15007E-05   275   0.599E-03
  42 F= -.22276298E+03 E0= -.22276911E+03  d E =-.646412E-02
       N       E                     dE             d eps       ncg     rms          rms(c)
DAV:   1    -0.222759147172E+03    0.38362E-02   -0.18554E+00   448   0.253E+00    0.382E-01
RMM:   2    -0.222762739801E+03   -0.35926E-02   -0.38711E-02   520   0.521E-01    0.614E-02
RMM:   3    -0.222763578530E+03   -0.83873E-03   -0.88933E-03   531   0.249E-01    0.135E-01
RMM:   4    -0.222763670858E+03   -0.92329E-04   -0.15245E-03   534   0.102E-01    0.103E-01
RMM:   5    -0.222763616851E+03    0.54007E-04   -0.97070E-05   397   0.230E-02    0.786E-02
RMM:   6    -0.222763596914E+03    0.19938E-04   -0.38184E-04   400   0.263E-02    0.201E-02
RMM:   7    -0.222763598616E+03   -0.17024E-05   -0.40178E-05   354   0.145E-02
  43 F= -.22276360E+03 E0= -.22276986E+03  d E =-.707785E-02
       N       E                     dE             d eps       ncg     rms          rms(c)
DAV:   1    -0.222753478672E+03    0.10118E-01   -0.67593E+00   448   0.475E+00    0.632E-01
RMM:   2    -0.222765973815E+03   -0.12495E-01   -0.13366E-01   529   0.959E-01    0.152E-01
RMM:   3    -0.222768609290E+03   -0.26355E-02   -0.27939E-02   538   0.449E-01    0.197E-01
RMM:   4    -0.222768890788E+03   -0.28150E-03   -0.50604E-03   537   0.186E-01    0.147E-01
RMM:   5    -0.222768753044E+03    0.13774E-03   -0.41589E-04   433   0.449E-02    0.917E-02
RMM:   6    -0.222768761559E+03   -0.85150E-05   -0.56212E-04   412   0.371E-02    0.295E-02
RMM:   7    -0.222768765459E+03   -0.38999E-05   -0.89493E-05   465   0.218E-02
  44 F= -.22276877E+03 E0= -.22277466E+03  d E =-.516684E-02
       N       E                     dE             d eps       ncg     rms          rms(c)
DAV:   1    -0.222674334665E+03    0.94427E-01   -0.40730E+01   448   0.118E+01    0.170E+00
RMM:   2    -0.222753401508E+03   -0.79067E-01   -0.84800E-01   524   0.241E+00    0.346E-01
RMM:   3    -0.222771706349E+03   -0.18305E-01   -0.19805E-01   542   0.121E+00    0.538E-01
RMM:   4    -0.222774046050E+03   -0.23397E-02   -0.36518E-02   532   0.491E-01    0.423E-01
RMM:   5    -0.222773122125E+03    0.92393E-03   -0.26012E-03   449   0.117E-01    0.291E-01
RMM:   6    -0.222772965988E+03    0.15614E-03   -0.38070E-03   430   0.960E-02    0.798E-02
RMM:   7    -0.222773037161E+03   -0.71173E-04   -0.78005E-04   557   0.588E-02    0.591E-02
RMM:   8    -0.222772959415E+03    0.77746E-04   -0.47404E-04   367   0.337E-02    0.330E-02
RMM:   9    -0.222772973356E+03   -0.13941E-04   -0.11814E-04   466   0.220E-02    0.272E-02
RMM:  10    -0.222772953100E+03    0.20256E-04   -0.70597E-05   335   0.123E-02    0.117E-02
RMM:  11    -0.222772956614E+03   -0.35139E-05   -0.30231E-05   336   0.978E-03
  45 F= -.22277296E+03 E0= -.22277801E+03  d E =-.935800E-02
       N       E                     dE             d eps       ncg     rms          rms(c)
DAV:   1    -0.222760092805E+03    0.12860E-01   -0.76482E+00   464   0.503E+00    0.667E-01
RMM:   2    -0.222774176065E+03   -0.14083E-01   -0.15103E-01   524   0.101E+00    0.143E-01
RMM:   3    -0.222777368006E+03   -0.31919E-02   -0.33678E-02   541   0.488E-01    0.224E-01
RMM:   4    -0.222777692916E+03   -0.32491E-03   -0.59539E-03   532   0.199E-01    0.162E-01
RMM:   5    -0.222777541499E+03    0.15142E-03   -0.43957E-04   433   0.469E-02    0.106E-01
RMM:   6    -0.222777535659E+03    0.58402E-05   -0.68726E-04   411   0.402E-02    0.278E-02
RMM:   7    -0.222777537455E+03   -0.17960E-05   -0.99999E-05   459   0.236E-02
  46 F= -.22277754E+03 E0= -.22278231E+03  d E =-.458084E-02
       N       E                     dE             d eps       ncg     rms          rms(c)
DAV:   1    -0.222734113209E+03    0.43422E-01   -0.19521E+01   448   0.804E+00    0.109E+00
RMM:   2    -0.222770849385E+03   -0.36736E-01   -0.39323E-01   523   0.164E+00    0.225E-01
RMM:   3    -0.222779360026E+03   -0.85106E-02   -0.91034E-02   540   0.809E-01    0.370E-01
RMM:   4    -0.222780368516E+03   -0.10085E-02   -0.16510E-02   532   0.332E-01    0.284E-01
RMM:   5    -0.222779956900E+03    0.41162E-03   -0.11029E-03   450   0.765E-02    0.204E-01
RMM:   6    -0.222779838483E+03    0.11842E-03   -0.18532E-03   429   0.659E-02    0.525E-02
RMM:   7    -0.222779879595E+03   -0.41113E-04   -0.40742E-04   515   0.411E-02    0.381E-02
RMM:   8    -0.222779839935E+03    0.39660E-04   -0.11245E-04   362   0.187E-02    0.217E-02
RMM:   9    -0.222779852924E+03   -0.12989E-04   -0.10485E-04   391   0.160E-02    0.227E-02
RMM:  10    -0.222779841109E+03    0.11816E-04   -0.40239E-05   326   0.102E-02    0.115E-02
RMM:  11    -0.222779843523E+03   -0.24146E-05   -0.21499E-05   298   0.774E-03
  47 F= -.22277984E+03 E0= -.22278425E+03  d E =-.688691E-02
       N       E                     dE             d eps       ncg     rms          rms(c)
DAV:   1    -0.222772704431E+03    0.71367E-02   -0.47483E+00   464   0.396E+00    0.593E-01
RMM:   2    -0.222782030385E+03   -0.93260E-02   -0.10083E-01   527   0.820E-01    0.130E-01
RMM:   3    -0.222783953137E+03   -0.19228E-02   -0.20746E-02   514   0.380E-01    0.192E-01
RMM:   4    -0.222784130898E+03   -0.17776E-03   -0.36626E-03   558   0.160E-01    0.137E-01
RMM:   5    -0.222784021362E+03    0.10954E-03   -0.28939E-04   413   0.375E-02    0.865E-02
RMM:   6    -0.222784014855E+03    0.65070E-05   -0.39324E-04   392   0.314E-02    0.261E-02
RMM:   7    -0.222784022685E+03   -0.78302E-05   -0.91320E-05   451   0.199E-02
  48 F= -.22278402E+03 E0= -.22278839E+03  d E =-.417916E-02
       N       E                     dE             d eps       ncg     rms          rms(c)
DAV:   1    -0.222759505606E+03    0.24509E-01   -0.10818E+01   464   0.599E+00    0.907E-01
RMM:   2    -0.222780173581E+03   -0.20668E-01   -0.22298E-01   526   0.120E+00    0.196E-01
RMM:   3    -0.222784374597E+03   -0.42010E-02   -0.46175E-02   512   0.553E-01    0.298E-01
RMM:   4    -0.222784753368E+03   -0.37877E-03   -0.78970E-03   558   0.229E-01    0.220E-01
RMM:   5    -0.222784481687E+03    0.27168E-03   -0.63832E-04   424   0.556E-02    0.144E-01
RMM:   6    -0.222784444650E+03    0.37037E-04   -0.10003E-03   400   0.489E-02    0.398E-02
RMM:   7    -0.222784466870E+03   -0.22220E-04   -0.24764E-04   497   0.316E-02    0.311E-02
RMM:   8    -0.222784449010E+03    0.17860E-04   -0.22507E-04   356   0.206E-02    0.197E-02
RMM:   9    -0.222784445378E+03    0.36316E-05   -0.22807E-05   314   0.119E-02
  49 F= -.22278445E+03 E0= -.22278877E+03  d E =-.460185E-02
       N       E                     dE             d eps       ncg     rms          rms(c)
DAV:   1    -0.222779592135E+03    0.48569E-02   -0.23394E+00   448   0.278E+00    0.415E-01
RMM:   2    -0.222784214996E+03   -0.46229E-02   -0.50004E-02   529   0.577E-01    0.962E-02
RMM:   3    -0.222785129169E+03   -0.91417E-03   -0.98466E-03   511   0.262E-01    0.135E-01
RMM:   4    -0.222785223412E+03   -0.94244E-04   -0.18723E-03   564   0.114E-01    0.958E-02
RMM:   5    -0.222785167556E+03    0.55857E-04   -0.14809E-04   397   0.264E-02    0.582E-02
RMM:   6    -0.222785169000E+03   -0.14446E-05   -0.20698E-04   381   0.225E-02    0.177E-02
RMM:   7    -0.222785171005E+03   -0.20045E-05   -0.36174E-05   356   0.136E-02
  50 F= -.22278517E+03 E0= -.22278952E+03  d E =-.532748E-02
       N       E                     dE             d eps       ncg     rms          rms(c)
DAV:   1    -0.222781555981E+03    0.36130E-02   -0.32571E+00   464   0.333E+00    0.486E-01
RMM:   2    -0.222787810335E+03   -0.62544E-02   -0.67899E-02   531   0.683E-01    0.115E-01
RMM:   3    -0.222789043085E+03   -0.12328E-02   -0.13249E-02   502   0.310E-01    0.147E-01
RMM:   4    -0.222789194727E+03   -0.15164E-03   -0.27636E-03   572   0.139E-01    0.103E-01
RMM:   5    -0.222789130064E+03    0.64663E-04   -0.19332E-04   408   0.308E-02    0.619E-02
RMM:   6    -0.222789133543E+03   -0.34793E-05   -0.23822E-04   390   0.249E-02    0.198E-02
RMM:   7    -0.222789134779E+03   -0.12360E-05   -0.37357E-05   376   0.145E-02
  51 F= -.22278913E+03 E0= -.22279344E+03  d E =-.396377E-02
       N       E                     dE             d eps       ncg     rms          rms(c)
DAV:   1    -0.222781503993E+03    0.76295E-02   -0.38428E+00   464   0.361E+00    0.536E-01
RMM:   2    -0.222788946918E+03   -0.74429E-02   -0.79755E-02   525   0.749E-01    0.102E-01
RMM:   3    -0.222790523174E+03   -0.15763E-02   -0.16975E-02   500   0.349E-01    0.182E-01
RMM:   4    -0.222790715874E+03   -0.19270E-03   -0.33243E-03   565   0.153E-01    0.134E-01
RMM:   5    -0.222790608780E+03    0.10709E-03   -0.21817E-04   410   0.334E-02    0.891E-02
RMM:   6    -0.222790599534E+03    0.92466E-05   -0.52608E-04   385   0.340E-02    0.218E-02
RMM:   7    -0.222790602192E+03   -0.26577E-05   -0.84848E-05   414   0.208E-02
  52 F= -.22279060E+03 E0= -.22279488E+03  d E =-.543119E-02
       N       E                     dE             d eps       ncg     rms          rms(c)
DAV:   1    -0.222783933227E+03    0.66663E-02   -0.41146E+00   464   0.374E+00    0.564E-01
RMM:   2    -0.222791914302E+03   -0.79811E-02   -0.85697E-02   528   0.774E-01    0.119E-01
RMM:   3    -0.222793521806E+03   -0.16075E-02   -0.17511E-02   496   0.357E-01    0.176E-01
RMM:   4    -0.222793714102E+03   -0.19230E-03   -0.34001E-03   573   0.157E-01    0.131E-01
RMM:   5    -0.222793621388E+03    0.92714E-04   -0.21441E-04   424   0.338E-02    0.910E-02
RMM:   6    -0.222793600681E+03    0.20707E-04   -0.39420E-04   375   0.312E-02    0.248E-02
RMM:   7    -0.222793610444E+03   -0.97637E-05   -0.97302E-05   433   0.201E-02
  53 F= -.22279361E+03 E0= -.22279775E+03  d E =-.300825E-02
       N       E                     dE             d eps       ncg     rms          rms(c)
DAV:   1    -0.222792615566E+03    0.98511E-03   -0.52572E-01   480   0.134E+00    0.206E-01
RMM:   2    -0.222793650799E+03   -0.10352E-02   -0.11115E-02   528   0.278E-01    0.447E-02
RMM:   3    -0.222793850171E+03   -0.19937E-03   -0.21710E-03   488   0.127E-01    0.654E-02
RMM:   4    -0.222793876341E+03   -0.26170E-04   -0.46398E-04   567   0.570E-02    0.481E-02
RMM:   5    -0.222793864435E+03    0.11906E-04   -0.30483E-05   300   0.124E-02    0.324E-02
RMM:   6    -0.222793862846E+03    0.15883E-05   -0.49029E-05   351   0.114E-02
  54 F= -.22279386E+03 E0= -.22279795E+03  d E =-.326065E-02
       N       E                     dE             d eps       ncg     rms          rms(c)
DAV:   1    -0.222789272238E+03    0.45922E-02   -0.33885E+00   464   0.335E+00    0.457E-01
RMM:   2    -0.222795631556E+03   -0.63593E-02   -0.68478E-02   537   0.683E-01    0.120E-01
RMM:   3    -0.222796880034E+03   -0.12485E-02   -0.13349E-02   512   0.308E-01    0.136E-01
RMM:   4    -0.222797026146E+03   -0.14611E-03   -0.26508E-03   568   0.135E-01    0.101E-01
RMM:   5    -0.222796979471E+03    0.46675E-04   -0.16245E-04   426   0.291E-02    0.741E-02
RMM:   6    -0.222796965495E+03    0.13976E-04   -0.20065E-04   362   0.234E-02    0.219E-02
RMM:   7    -0.222796971554E+03   -0.60590E-05   -0.55981E-05   398   0.149E-02
  55 F= -.22279697E+03 E0= -.22280100E+03  d E =-.310871E-02
       N       E                     dE             d eps       ncg     rms          rms(c)
DAV:   1    -0.222785696541E+03    0.11269E-01   -0.56439E+00   448   0.433E+00    0.592E-01
RMM:   2    -0.222796360046E+03   -0.10664E-01   -0.11447E-01   534   0.886E-01    0.147E-01
RMM:   3    -0.222798510323E+03   -0.21503E-02   -0.23039E-02   514   0.405E-01    0.183E-01
RMM:   4    -0.222798759648E+03   -0.24933E-03   -0.45269E-03   564   0.176E-01    0.135E-01
RMM:   5    -0.222798677035E+03    0.82614E-04   -0.27561E-04   447   0.381E-02    0.990E-02
RMM:   6    -0.222798651107E+03    0.25928E-04   -0.36600E-04   377   0.313E-02    0.266E-02
RMM:   7    -0.222798661105E+03   -0.99986E-05   -0.93739E-05   433   0.197E-02
  56 F= -.22279866E+03 E0= -.22280262E+03  d E =-.479826E-02
       N       E                     dE             d eps       ncg     rms          rms(c)
DAV:   1    -0.222795253802E+03    0.33973E-02   -0.26717E+00   464   0.294E+00    0.408E-01
RMM:   2    -0.222800143767E+03   -0.48900E-02   -0.52638E-02   527   0.595E-01    0.906E-02
RMM:   3    -0.222801184147E+03   -0.10404E-02   -0.11060E-02   533   0.278E-01    0.125E-01
RMM:   4    -0.222801291941E+03   -0.10779E-03   -0.20370E-03   537   0.116E-01    0.876E-02
RMM:   5    -0.222801246156E+03    0.45785E-04   -0.16352E-04   408   0.281E-02    0.541E-02
RMM:   6    -0.222801250438E+03   -0.42822E-05   -0.19974E-04   391   0.228E-02    0.160E-02
RMM:   7    -0.222801249038E+03    0.14001E-05   -0.26181E-05   344   0.131E-02
  57 F= -.22280125E+03 E0= -.22280504E+03  d E =-.258793E-02
       N       E                     dE             d eps       ncg     rms          rms(c)
DAV:   1    -0.222794272311E+03    0.69781E-02   -0.35732E+00   464   0.341E+00    0.475E-01
RMM:   2    -0.222800830136E+03   -0.65578E-02   -0.70178E-02   525   0.688E-01    0.103E-01
RMM:   3    -0.222802209517E+03   -0.13794E-02   -0.14793E-02   526   0.323E-01    0.145E-01
RMM:   4    -0.222802360106E+03   -0.15059E-03   -0.27643E-03   545   0.135E-01    0.103E-01
RMM:   5    -0.222802294513E+03    0.65593E-04   -0.20539E-04   413   0.320E-02    0.639E-02
RMM:   6    -0.222802296850E+03   -0.23372E-05   -0.28371E-04   389   0.267E-02    0.180E-02
RMM:   7    -0.222802294271E+03    0.25791E-05   -0.32875E-05   371   0.153E-02
  58 F= -.22280229E+03 E0= -.22280588E+03  d E =-.363317E-02
       N       E                     dE             d eps       ncg     rms          rms(c)
DAV:   1    -0.222797976922E+03    0.43199E-02   -0.29490E+00   464   0.311E+00    0.401E-01
RMM:   2    -0.222803300127E+03   -0.53232E-02   -0.56668E-02   523   0.621E-01    0.870E-02
RMM:   3    -0.222804451981E+03   -0.11519E-02   -0.12186E-02   546   0.294E-01    0.132E-01
RMM:   4    -0.222804574566E+03   -0.12259E-03   -0.22125E-03   522   0.120E-01    0.968E-02
RMM:   5    -0.222804518454E+03    0.56112E-04   -0.16959E-04   414   0.288E-02    0.644E-02
RMM:   6    -0.222804515595E+03    0.28592E-05   -0.26488E-04   386   0.250E-02    0.168E-02
RMM:   7    -0.222804516452E+03   -0.85707E-06   -0.39289E-05   383   0.148E-02
  59 F= -.22280452E+03 E0= -.22280803E+03  d E =-.222218E-02
       N       E                     dE             d eps       ncg     rms          rms(c)
DAV:   1    -0.222787830586E+03    0.16685E-01   -0.81567E+00   448   0.518E+00    0.677E-01
RMM:   2    -0.222802671021E+03   -0.14840E-01   -0.15860E-01   524   0.104E+00    0.148E-01
RMM:   3    -0.222805978488E+03   -0.33075E-02   -0.35190E-02   548   0.495E-01    0.220E-01
RMM:   4    -0.222806299630E+03   -0.32114E-03   -0.58379E-03   521   0.198E-01    0.166E-01
RMM:   5    -0.222806140370E+03    0.15926E-03   -0.48252E-04   439   0.488E-02    0.112E-01
RMM:   6    -0.222806126162E+03    0.14208E-04   -0.72829E-04   408   0.417E-02    0.289E-02
RMM:   7    -0.222806129818E+03   -0.36560E-05   -0.11652E-04   459   0.251E-02    0.213E-02
RMM:   8    -0.222806120382E+03    0.94355E-05   -0.57648E-05   348   0.130E-02
  60 F= -.22280612E+03 E0= -.22280947E+03  d E =-.382611E-02
       N       E                     dE             d eps       ncg     rms          rms(c)
DAV:   1    -0.222804924746E+03    0.12051E-02   -0.15371E+00   464   0.232E+00    0.320E-01
RMM:   2    -0.222807771595E+03   -0.28468E-02   -0.30508E-02   529   0.467E-01    0.661E-02
RMM:   3    -0.222808329247E+03   -0.55765E-03   -0.60549E-03   506   0.216E-01    0.964E-02
RMM:   4    -0.222808407101E+03   -0.77854E-04   -0.13491E-03   567   0.962E-02    0.682E-02
RMM:   5    -0.222808385138E+03    0.21963E-04   -0.70892E-05   381   0.197E-02    0.494E-02
RMM:   6    -0.222808378708E+03    0.64300E-05   -0.89930E-05   353   0.160E-02
  61 F= -.22280838E+03 E0= -.22281174E+03  d E =-.225833E-02
       N       E                     dE             d eps       ncg     rms          rms(c)
DAV:   1    -0.222793024157E+03    0.15361E-01   -0.70922E+00   448   0.500E+00    0.691E-01
RMM:   2    -0.222806278072E+03   -0.13254E-01   -0.14343E-01   532   0.101E+00    0.154E-01
RMM:   3    -0.222808902906E+03   -0.26248E-02   -0.28529E-02   508   0.470E-01    0.201E-01
RMM:   4    -0.222809297169E+03   -0.39426E-03   -0.64503E-03   566   0.211E-01    0.151E-01
RMM:   5    -0.222809207004E+03    0.90165E-04   -0.33290E-04   474   0.429E-02    0.118E-01
RMM:   6    -0.222809160702E+03    0.46302E-04   -0.35393E-04   391   0.329E-02    0.355E-02
RMM:   7    -0.222809178046E+03   -0.17343E-04   -0.14681E-04   415   0.227E-02    0.174E-02
RMM:   8    -0.222809170254E+03    0.77916E-05   -0.17140E-05   270   0.113E-02
  62 F= -.22280917E+03 E0= -.22281257E+03  d E =-.304987E-02
       N       E                     dE             d eps       ncg     rms          rms(c)
DAV:   1    -0.222807431662E+03    0.17464E-02   -0.93478E-01   464   0.181E+00    0.246E-01
RMM:   2    -0.222809137042E+03   -0.17054E-02   -0.18617E-02   534   0.364E-01    0.571E-02
RMM:   3    -0.222809474971E+03   -0.33793E-03   -0.35825E-03   507   0.166E-01    0.674E-02
RMM:   4    -0.222809529693E+03   -0.54722E-04   -0.86665E-04   562   0.759E-02    0.469E-02
RMM:   5    -0.222809518817E+03    0.10876E-04   -0.43604E-05   360   0.154E-02    0.331E-02
RMM:   6    -0.222809516987E+03    0.18296E-05   -0.41961E-05   340   0.116E-02
  63 F= -.22280952E+03 E0= -.22281291E+03  d E =-.339661E-02
       N       E                     dE             d eps       ncg     rms          rms(c)
DAV:   1    -0.222808653710E+03    0.86511E-03   -0.11837E+00   464   0.205E+00    0.258E-01
RMM:   2    -0.222810766558E+03   -0.21128E-02   -0.22371E-02   533   0.402E-01    0.646E-02
RMM:   3    -0.222811160485E+03   -0.39393E-03   -0.41965E-03   521   0.185E-01    0.710E-02
RMM:   4    -0.222811229541E+03   -0.69056E-04   -0.10983E-03   551   0.846E-02    0.508E-02
RMM:   5    -0.222811215507E+03    0.14034E-04   -0.55390E-05   370   0.176E-02    0.352E-02
RMM:   6    -0.222811214261E+03    0.12459E-05   -0.58934E-05   355   0.137E-02
  64 F= -.22281121E+03 E0= -.22281458E+03  d E =-.169727E-02
       N       E                     dE             d eps       ncg     rms          rms(c)
DAV:   1    -0.222790927535E+03    0.20288E-01   -0.98060E+00   448   0.588E+00    0.750E-01
RMM:   2    -0.222808587570E+03   -0.17660E-01   -0.18905E-01   533   0.117E+00    0.195E-01
RMM:   3    -0.222812081944E+03   -0.34944E-02   -0.37376E-02   526   0.549E-01    0.207E-01
RMM:   4    -0.222812695174E+03   -0.61323E-03   -0.93210E-03   549   0.248E-01    0.156E-01
RMM:   5    -0.222812574369E+03    0.12081E-03   -0.53912E-04   458   0.543E-02    0.112E-01
RMM:   6    -0.222812555777E+03    0.18592E-04   -0.56676E-04   412   0.406E-02    0.333E-02
RMM:   7    -0.222812563930E+03   -0.81525E-05   -0.98115E-05   466   0.236E-02
  65 F= -.22281256E+03 E0= -.22281591E+03  d E =-.304694E-02
       N       E                     dE             d eps       ncg     rms          rms(c)
DAV:   1    -0.222811467002E+03    0.10888E-02   -0.58588E-01   464   0.143E+00    0.179E-01
RMM:   2    -0.222812487231E+03   -0.10202E-02   -0.10846E-02   532   0.281E-01    0.426E-02
RMM:   3    -0.222812687817E+03   -0.20059E-03   -0.21223E-03   524   0.130E-01    0.473E-02
RMM:   4    -0.222812719715E+03   -0.31897E-04   -0.50788E-04   526   0.580E-02    0.330E-02
RMM:   5    -0.222812713122E+03    0.65925E-05   -0.26805E-05   298   0.125E-02
  66 F= -.22281271E+03 E0= -.22281604E+03  d E =-.319613E-02
       N       E                     dE             d eps       ncg     rms          rms(c)
DAV:   1    -0.222810394892E+03    0.23248E-02   -0.19070E+00   448   0.257E+00    0.349E-01
RMM:   2    -0.222813852652E+03   -0.34578E-02   -0.37145E-02   534   0.514E-01    0.826E-02
RMM:   3    -0.222814493852E+03   -0.64120E-03   -0.69563E-03   505   0.236E-01    0.951E-02
RMM:   4    -0.222814611548E+03   -0.11770E-03   -0.18039E-03   574   0.110E-01    0.693E-02
RMM:   5    -0.222814587291E+03    0.24258E-04   -0.82731E-05   403   0.214E-02    0.503E-02
RMM:   6    -0.222814580397E+03    0.68936E-05   -0.72474E-05   359   0.157E-02
  67 F= -.22281458E+03 E0= -.22281787E+03  d E =-.186727E-02
       N       E                     dE             d eps       ncg     rms          rms(c)
DAV:   1    -0.222810649954E+03    0.39373E-02   -0.21212E+00   464   0.271E+00    0.358E-01
RMM:   2    -0.222814470188E+03   -0.38202E-02   -0.41439E-02   536   0.540E-01    0.967E-02
RMM:   3    -0.222815181373E+03   -0.71119E-03   -0.76425E-03   507   0.248E-01    0.101E-01
RMM:   4    -0.222815318619E+03   -0.13725E-03   -0.20922E-03   571   0.118E-01    0.711E-02
RMM:   5    -0.222815297264E+03    0.21355E-04   -0.10187E-04   418   0.236E-02    0.503E-02
RMM:   6    -0.222815294842E+03    0.24222E-05   -0.72057E-05   368   0.163E-02
  68 F= -.22281529E+03 E0= -.22281856E+03  d E =-.258172E-02
       N       E                     dE             d eps       ncg     rms          rms(c)
DAV:   1    -0.222813332059E+03    0.19652E-02   -0.16963E+00   464   0.241E+00    0.333E-01
RMM:   2    -0.222816539723E+03   -0.32077E-02   -0.34644E-02   532   0.494E-01    0.775E-02
RMM:   3    -0.222817182619E+03   -0.64290E-03   -0.68103E-03   513   0.226E-01    0.106E-01
RMM:   4    -0.222817275060E+03   -0.92441E-04   -0.15853E-03   559   0.103E-01    0.736E-02
RMM:   5    -0.222817247414E+03    0.27646E-04   -0.92578E-05   402   0.220E-02    0.498E-02
RMM:   6    -0.222817245124E+03    0.22901E-05   -0.12057E-04   372   0.181E-02    0.144E-02
RMM:   7    -0.222817247949E+03   -0.28252E-05   -0.27656E-05   322   0.113E-02
  69 F= -.22281725E+03 E0= -.22282049E+03  d E =-.195311E-02
       N       E                     dE             d eps       ncg     rms          rms(c)
DAV:   1    -0.222793153066E+03    0.24092E-01   -0.10998E+01   448   0.615E+00    0.865E-01
RMM:   2    -0.222814375081E+03   -0.21222E-01   -0.22767E-01   529   0.128E+00    0.191E-01
RMM:   3    -0.222818677335E+03   -0.43023E-02   -0.46508E-02   513   0.598E-01    0.272E-01
RMM:   4    -0.222819329866E+03   -0.65253E-03   -0.10490E-02   561   0.265E-01    0.203E-01
RMM:   5    -0.222819120127E+03    0.20974E-03   -0.56533E-04   454   0.559E-02    0.149E-01
RMM:   6    -0.222819050478E+03    0.69649E-04   -0.94480E-04   405   0.487E-02    0.404E-02
RMM:   7    -0.222819076268E+03   -0.25790E-04   -0.23094E-04   478   0.306E-02    0.276E-02
RMM:   8    -0.222819053875E+03    0.22393E-04   -0.56636E-05   351   0.139E-02    0.142E-02
RMM:   9    -0.222819061262E+03   -0.73871E-05   -0.64646E-05   376   0.125E-02
  70 F= -.22281906E+03 E0= -.22282218E+03  d E =-.376642E-02
       N       E                     dE             d eps       ncg     rms          rms(c)
DAV:   1    -0.222818469950E+03    0.58393E-03   -0.73599E-01   464   0.158E+00    0.214E-01
RMM:   2    -0.222819821286E+03   -0.13513E-02   -0.14396E-02   526   0.318E-01    0.399E-02
RMM:   3    -0.222820104693E+03   -0.28341E-03   -0.29951E-03   524   0.148E-01    0.704E-02
RMM:   4    -0.222820141457E+03   -0.36764E-04   -0.62654E-04   522   0.641E-02    0.505E-02
RMM:   5    -0.222820129619E+03    0.11838E-04   -0.34503E-05   303   0.139E-02    0.382E-02
RMM:   6    -0.222820124201E+03    0.54177E-05   -0.58340E-05   373   0.124E-02
  71 F= -.22282012E+03 E0= -.22282323E+03  d E =-.106294E-02
       N       E                     dE             d eps       ncg     rms          rms(c)
DAV:   1    -0.222806641411E+03    0.13488E-01   -0.66320E+00   448   0.472E+00    0.650E-01
RMM:   2    -0.222819047170E+03   -0.12406E-01   -0.13356E-01   527   0.967E-01    0.137E-01
RMM:   3    -0.222821653081E+03   -0.26059E-02   -0.27738E-02   530   0.454E-01    0.211E-01
RMM:   4    -0.222822046984E+03   -0.39390E-03   -0.63227E-03   543   0.200E-01    0.154E-01
RMM:   5    -0.222821932304E+03    0.11468E-03   -0.33507E-04   447   0.425E-02    0.113E-01
RMM:   6    -0.222821894693E+03    0.37611E-04   -0.50217E-04   392   0.359E-02    0.320E-02
RMM:   7    -0.222821911973E+03   -0.17280E-04   -0.14100E-04   462   0.229E-02    0.217E-02
RMM:   8    -0.222821897604E+03    0.14369E-04   -0.30004E-05   310   0.105E-02    0.117E-02
RMM:   9    -0.222821901052E+03   -0.34478E-05   -0.47482E-05   351   0.103E-02
  72 F= -.22282190E+03 E0= -.22282502E+03  d E =-.283979E-02
       N       E                     dE             d eps       ncg     rms          rms(c)
DAV:   1    -0.222822648513E+03   -0.75091E-03   -0.13881E-01   480   0.702E-01    0.131E-01
RMM:   2    -0.222822951621E+03   -0.30311E-03   -0.33272E-03   519   0.152E-01    0.197E-02
RMM:   3    -0.222823018956E+03   -0.67335E-04   -0.74317E-04   496   0.716E-02    0.442E-02
RMM:   4    -0.222823026629E+03   -0.76734E-05   -0.13258E-04   388   0.304E-02    0.338E-02
RMM:   5    -0.222823021316E+03    0.53133E-05   -0.12077E-05   253   0.104E-02
  73 F= -.22282302E+03 E0= -.22282613E+03  d E =-.112026E-02
       N       E                     dE             d eps       ncg     rms          rms(c)
DAV:   1    -0.222821374627E+03    0.16520E-02   -0.12466E+00   448   0.210E+00    0.392E-01
RMM:   2    -0.222824083919E+03   -0.27093E-02   -0.30128E-02   521   0.453E-01    0.638E-02
RMM:   3    -0.222824684724E+03   -0.60081E-03   -0.66163E-03   495   0.212E-01    0.130E-01
RMM:   4    -0.222824751129E+03   -0.66405E-04   -0.11699E-03   562   0.903E-02    0.999E-02
RMM:   5    -0.222824696702E+03    0.54427E-04   -0.88435E-05   395   0.207E-02    0.682E-02
RMM:   6    -0.222824698793E+03   -0.20904E-05   -0.38212E-04   379   0.256E-02    0.211E-02
RMM:   7    -0.222824686711E+03    0.12081E-04   -0.32344E-05   338   0.140E-02    0.115E-02
RMM:   8    -0.222824686200E+03    0.51173E-06   -0.47291E-05   344   0.924E-03
  74 F= -.22282469E+03 E0= -.22282781E+03  d E =-.278515E-02
       N       E                     dE             d eps       ncg     rms          rms(c)
DAV:   1    -0.222825115498E+03   -0.42879E-03   -0.31275E-01   464   0.106E+00    0.182E-01
RMM:   2    -0.222825792882E+03   -0.67738E-03   -0.73312E-03   521   0.229E-01    0.268E-02
RMM:   3    -0.222825942253E+03   -0.14937E-03   -0.16368E-03   498   0.107E-01    0.657E-02
RMM:   4    -0.222825959067E+03   -0.16814E-04   -0.28811E-04   521   0.454E-02    0.512E-02
RMM:   5    -0.222825946771E+03    0.12296E-04   -0.19465E-05   275   0.110E-02    0.398E-02
RMM:   6    -0.222825940770E+03    0.60009E-05   -0.86482E-05   383   0.132E-02
  75 F= -.22282594E+03 E0= -.22282907E+03  d E =-.125457E-02
       N       E                     dE             d eps       ncg     rms          rms(c)
DAV:   1    -0.222820057760E+03    0.58890E-02   -0.28124E+00   448   0.319E+00    0.547E-01
RMM:   2    -0.222826249162E+03   -0.61914E-02   -0.67841E-02   525   0.690E-01    0.905E-02
RMM:   3    -0.222827580493E+03   -0.13313E-02   -0.14501E-02   492   0.319E-01    0.190E-01
RMM:   4    -0.222827731803E+03   -0.15131E-03   -0.26888E-03   564   0.139E-01    0.146E-01
RMM:   5    -0.222827615783E+03    0.11602E-03   -0.17847E-04   417   0.301E-02    0.105E-01
RMM:   6    -0.222827592106E+03    0.23676E-04   -0.72460E-04   393   0.363E-02    0.264E-02
RMM:   7    -0.222827591260E+03    0.84626E-06   -0.80006E-05   389   0.208E-02
  76 F= -.22282759E+03 E0= -.22283072E+03  d E =-.290506E-02
       N       E                     dE             d eps       ncg     rms          rms(c)
DAV:   1    -0.222827099947E+03    0.49216E-03   -0.58776E-01   464   0.145E+00    0.237E-01
RMM:   2    -0.222828393005E+03   -0.12931E-02   -0.13987E-02   523   0.311E-01    0.420E-02
RMM:   3    -0.222828662570E+03   -0.26956E-03   -0.29427E-03   502   0.144E-01    0.846E-02
RMM:   4    -0.222828688260E+03   -0.25690E-04   -0.52890E-04   547   0.613E-02    0.621E-02
RMM:   5    -0.222828666139E+03    0.22120E-04   -0.38703E-05   342   0.141E-02    0.419E-02
RMM:   6    -0.222828663937E+03    0.22023E-05   -0.12514E-04   355   0.157E-02    0.109E-02
RMM:   7    -0.222828662723E+03    0.12136E-05   -0.13911E-05   275   0.904E-03
  77 F= -.22282866E+03 E0= -.22283176E+03  d E =-.107146E-02
       N       E                     dE             d eps       ncg     rms          rms(c)
DAV:   1    -0.222824586666E+03    0.40773E-02   -0.18356E+00   448   0.256E+00    0.415E-01
RMM:   2    -0.222828542933E+03   -0.39563E-02   -0.42853E-02   523   0.545E-01    0.723E-02
RMM:   3    -0.222829376789E+03   -0.83386E-03   -0.90810E-03   505   0.254E-01    0.145E-01
RMM:   4    -0.222829463151E+03   -0.86363E-04   -0.16751E-03   557   0.108E-01    0.108E-01
RMM:   5    -0.222829399696E+03    0.63455E-04   -0.10986E-04   404   0.236E-02    0.759E-02
RMM:   6    -0.222829388001E+03    0.11695E-04   -0.39571E-04   372   0.274E-02    0.184E-02
RMM:   7    -0.222829384731E+03    0.32704E-05   -0.40949E-05   369   0.156E-02
  78 F= -.22282938E+03 E0= -.22283245E+03  d E =-.179347E-02
       N       E                     dE             d eps       ncg     rms          rms(c)
DAV:   1    -0.222827939596E+03    0.14484E-02   -0.11009E+00   464   0.195E+00    0.305E-01
RMM:   2    -0.222830209047E+03   -0.22695E-02   -0.24416E-02   522   0.409E-01    0.528E-02
RMM:   3    -0.222830709820E+03   -0.50077E-03   -0.53630E-03   515   0.191E-01    0.107E-01
RMM:   4    -0.222830757853E+03   -0.48033E-04   -0.88504E-04   549   0.786E-02    0.818E-02
RMM:   5    -0.222830720689E+03    0.37163E-04   -0.65159E-05   381   0.184E-02    0.590E-02
RMM:   6    -0.222830713552E+03    0.71377E-05   -0.24515E-04   372   0.211E-02    0.143E-02
RMM:   7    -0.222830709910E+03    0.36420E-05   -0.19929E-05   307   0.116E-02
  79 F= -.22283071E+03 E0= -.22283375E+03  d E =-.132518E-02
       N       E                     dE             d eps       ncg     rms          rms(c)
DAV:   1    -0.222827707315E+03    0.30062E-02   -0.14242E+00   448   0.221E+00    0.349E-01
RMM:   2    -0.222830637961E+03   -0.29306E-02   -0.31558E-02   522   0.463E-01    0.623E-02
RMM:   3    -0.222831280426E+03   -0.64246E-03   -0.68946E-03   515   0.217E-01    0.120E-01
RMM:   4    -0.222831342878E+03   -0.62452E-04   -0.11502E-03   549   0.894E-02    0.912E-02
RMM:   5    -0.222831296359E+03    0.46518E-04   -0.83832E-05   395   0.209E-02    0.658E-02
RMM:   6    -0.222831285783E+03    0.10576E-04   -0.29248E-04   370   0.235E-02    0.154E-02
RMM:   7    -0.222831282251E+03    0.35324E-05   -0.25813E-05   330   0.131E-02
  80 F= -.22283128E+03 E0= -.22283426E+03  d E =-.189752E-02
       N       E                     dE             d eps       ncg     rms          rms(c)
DAV:   1    -0.222829412378E+03    0.18734E-02   -0.13657E+00   464   0.212E+00    0.329E-01
RMM:   2    -0.222832139798E+03   -0.27274E-02   -0.29504E-02   521   0.443E-01    0.604E-02
RMM:   3    -0.222832730423E+03   -0.59063E-03   -0.63432E-03   514   0.209E-01    0.113E-01
RMM:   4    -0.222832790864E+03   -0.60441E-04   -0.11517E-03   547   0.873E-02    0.818E-02
RMM:   5    -0.222832748023E+03    0.42841E-04   -0.96746E-05   381   0.213E-02    0.500E-02
RMM:   6    -0.222832749785E+03   -0.17620E-05   -0.19850E-04   371   0.205E-02    0.139E-02
RMM:   7    -0.222832748792E+03    0.99363E-06   -0.27436E-05   339   0.124E-02
  81 F= -.22283275E+03 E0= -.22283560E+03  d E =-.146654E-02
       N       E                     dE             d eps       ncg     rms          rms(c)
DAV:   1    -0.222830288100E+03    0.24617E-02   -0.11778E+00   464   0.197E+00    0.306E-01
RMM:   2    -0.222832653899E+03   -0.23658E-02   -0.25463E-02   519   0.413E-01    0.556E-02
RMM:   3    -0.222833163798E+03   -0.50990E-03   -0.55278E-03   510   0.196E-01    0.110E-01
RMM:   4    -0.222833215565E+03   -0.51767E-04   -0.98845E-04   548   0.812E-02    0.805E-02
RMM:   5    -0.222833174647E+03    0.40918E-04   -0.85096E-05   376   0.198E-02    0.487E-02
RMM:   6    -0.222833176870E+03   -0.22231E-05   -0.19511E-04   367   0.199E-02    0.142E-02
RMM:   7    -0.222833174009E+03    0.28609E-05   -0.20618E-05   320   0.117E-02
  82 F= -.22283317E+03 E0= -.22283589E+03  d E =-.189176E-02
       N       E                     dE             d eps       ncg     rms          rms(c)
DAV:   1    -0.222829961097E+03    0.32158E-02   -0.18705E+00   448   0.244E+00    0.367E-01
RMM:   2    -0.222833551980E+03   -0.35909E-02   -0.38408E-02   523   0.504E-01    0.693E-02
RMM:   3    -0.222834332882E+03   -0.78090E-03   -0.83727E-03   522   0.236E-01    0.126E-01
RMM:   4    -0.222834408687E+03   -0.75805E-04   -0.13846E-03   546   0.961E-02    0.960E-02
RMM:   5    -0.222834357443E+03    0.51244E-04   -0.10344E-04   392   0.227E-02    0.682E-02
RMM:   6    -0.222834347314E+03    0.10130E-04   -0.28814E-04   373   0.238E-02    0.162E-02
RMM:   7    -0.222834346987E+03    0.32621E-06   -0.33785E-05   355   0.137E-02
  83 F= -.22283435E+03 E0= -.22283697E+03  d E =-.117298E-02
       N       E                     dE             d eps       ncg     rms          rms(c)
DAV:   1    -0.222830465711E+03    0.38816E-02   -0.17790E+00   464   0.237E+00    0.361E-01
RMM:   2    -0.222833867858E+03   -0.34021E-02   -0.36527E-02   522   0.492E-01    0.645E-02
RMM:   3    -0.222834634128E+03   -0.76627E-03   -0.81647E-03   524   0.231E-01    0.125E-01
RMM:   4    -0.222834708932E+03   -0.74804E-04   -0.13357E-03   539   0.936E-02    0.954E-02
RMM:   5    -0.222834661385E+03    0.47547E-04   -0.96709E-05   396   0.221E-02    0.699E-02
RMM:   6    -0.222834648597E+03    0.12788E-04   -0.28495E-04   374   0.235E-02    0.164E-02
RMM:   7    -0.222834649838E+03   -0.12414E-05   -0.38291E-05   355   0.138E-02
  84 F= -.22283465E+03 E0= -.22283718E+03  d E =-.147583E-02
       N       E                     dE             d eps       ncg     rms          rms(c)
DAV:   1    -0.222833070812E+03    0.15778E-02   -0.11027E+00   464   0.185E+00    0.255E-01
RMM:   2    -0.222835074184E+03   -0.20034E-02   -0.21383E-02   525   0.374E-01    0.521E-02
RMM:   3    -0.222835529903E+03   -0.45572E-03   -0.47613E-03   539   0.175E-01    0.860E-02
RMM:   4    -0.222835570816E+03   -0.40913E-04   -0.76535E-04   514   0.700E-02    0.640E-02
RMM:   5    -0.222835545203E+03    0.25612E-04   -0.68886E-05   380   0.182E-02    0.407E-02
RMM:   6    -0.222835547213E+03   -0.20094E-05   -0.12840E-04   369   0.168E-02    0.115E-02
RMM:   7    -0.222835545915E+03    0.12980E-05   -0.15572E-05   296   0.986E-03
  85 F= -.22283555E+03 E0= -.22283805E+03  d E =-.896077E-03
       N       E                     dE             d eps       ncg     rms          rms(c)
DAV:   1    -0.222830495029E+03    0.50522E-02   -0.24989E+00   448   0.277E+00    0.384E-01
RMM:   2    -0.222835011394E+03   -0.45164E-02   -0.48072E-02   523   0.566E-01    0.722E-02
RMM:   3    -0.222836065610E+03   -0.10542E-02   -0.11057E-02   537   0.268E-01    0.133E-01
RMM:   4    -0.222836171952E+03   -0.10634E-03   -0.18077E-03   530   0.108E-01    0.101E-01
RMM:   5    -0.222836111909E+03    0.60043E-04   -0.13846E-04   397   0.261E-02    0.700E-02
RMM:   6    -0.222836108256E+03    0.36533E-05   -0.35759E-04   385   0.267E-02    0.185E-02
RMM:   7    -0.222836104292E+03    0.39635E-05   -0.32637E-05   365   0.149E-02
  86 F= -.22283610E+03 E0= -.22283856E+03  d E =-.145445E-02
       N       E                     dE             d eps       ncg     rms          rms(c)
DAV:   1    -0.222835881951E+03    0.22630E-03   -0.45693E-01   464   0.121E+00    0.203E-01
RMM:   2    -0.222836772719E+03   -0.89077E-03   -0.96120E-03   518   0.255E-01    0.313E-02
RMM:   3    -0.222836975519E+03   -0.20280E-03   -0.22049E-03   504   0.121E-01    0.685E-02
RMM:   4    -0.222836993478E+03   -0.17958E-04   -0.32969E-04   528   0.482E-02    0.525E-02
RMM:   5    -0.222836978611E+03    0.14866E-04   -0.28401E-05   297   0.126E-02    0.365E-02
RMM:   6    -0.222836975818E+03    0.27932E-05   -0.78016E-05   363   0.132E-02
  87 F= -.22283698E+03 E0= -.22283941E+03  d E =-.871526E-03
       N       E                     dE             d eps       ncg     rms          rms(c)
DAV:   1    -0.222834929383E+03    0.20492E-02   -0.99794E-01   448   0.179E+00    0.300E-01
[...]
RMM:   2    -0.222837103762E+03   -0.46311E-02   -0.49763E-02   536   0.573E-01    0.100E-01
RMM:   3    -0.222838067684E+03   -0.96392E-03   -0.10166E-02   514   0.259E-01    0.120E-01
RMM:   4    -0.222838157467E+03   -0.89783E-04   -0.16910E-03   556   0.108E-01    0.918E-02
RMM:   5    -0.222838107572E+03    0.49895E-04   -0.14519E-04   402   0.268E-02    0.598E-02
RMM:   6    -0.222838109303E+03   -0.17314E-05   -0.22846E-04   379   0.231E-02    0.175E-02
RMM:   7    -0.222838110038E+03   -0.73493E-06   -0.36442E-05   361   0.138E-02
  90 F= -.22283811E+03 E0= -.22284046E+03  d E =-.802213E-03
       N       E                     dE             d eps       ncg     rms          rms(c)
DAV:   1    -0.222837200303E+03    0.90900E-03   -0.69873E-01   464   0.148E+00    0.240E-01
RMM:   2    -0.222838550811E+03   -0.13505E-02   -0.14517E-02   522   0.310E-01    0.401E-02
RMM:   3    -0.222838844784E+03   -0.29397E-03   -0.31966E-03   501   0.145E-01    0.780E-02
RMM:   4    -0.222838865711E+03   -0.20927E-04   -0.46203E-04   545   0.579E-02    0.579E-02
RMM:   5    -0.222838850900E+03    0.14812E-04   -0.36055E-05   304   0.139E-02    0.437E-02
RMM:   6    -0.222838843272E+03    0.76281E-05   -0.67387E-05   362   0.130E-02
  91 F= -.22283884E+03 E0= -.22284120E+03  d E =-.733234E-03
       N       E                     dE             d eps       ncg     rms          rms(c)
DAV:   1    -0.222837341179E+03    0.15097E-02   -0.68128E-01   448   0.146E+00    0.236E-01
RMM:   2    -0.222838663631E+03   -0.13225E-02   -0.14505E-02   537   0.305E-01    0.530E-02
RMM:   3    -0.222838920977E+03   -0.25735E-03   -0.27981E-03   502   0.135E-01    0.646E-02
RMM:   4    -0.222838940938E+03   -0.19961E-04   -0.45352E-04   561   0.574E-02    0.479E-02
RMM:   5    -0.222838930215E+03    0.10723E-04   -0.37787E-05   331   0.140E-02    0.332E-02
RMM:   6    -0.222838928459E+03    0.17564E-05   -0.39465E-05   340   0.109E-02
  92 F= -.22283893E+03 E0= -.22284128E+03  d E =-.818421E-03
       N       E                     dE             d eps       ncg     rms          rms(c)
DAV:   1    -0.222837888934E+03    0.10413E-02   -0.84067E-01   448   0.159E+00    0.230E-01
RMM:   2    -0.222839457159E+03   -0.15682E-02   -0.17010E-02   531   0.328E-01    0.589E-02
RMM:   3    -0.222839791468E+03   -0.33431E-03   -0.35522E-03   516   0.149E-01    0.712E-02
RMM:   4    -0.222839808337E+03   -0.16869E-04   -0.48632E-04   544   0.597E-02    0.500E-02
RMM:   5    -0.222839792974E+03    0.15363E-04   -0.60736E-05   369   0.164E-02    0.278E-02
RMM:   6    -0.222839796347E+03   -0.33733E-05   -0.59739E-05   378   0.124E-02
  93 F= -.22283980E+03 E0= -.22284205E+03  d E =-.867888E-03
       N       E                     dE             d eps       ncg     rms          rms(c)
DAV:   1    -0.222834811667E+03    0.49813E-02   -0.24098E+00   448   0.269E+00    0.390E-01
RMM:   2    -0.222839342053E+03   -0.45304E-02   -0.48985E-02   529   0.557E-01    0.974E-02
RMM:   3    -0.222840328354E+03   -0.98630E-03   -0.10520E-02   516   0.255E-01    0.124E-01
RMM:   4    -0.222840382138E+03   -0.53784E-04   -0.14382E-03   551   0.102E-01    0.887E-02
RMM:   5    -0.222840333300E+03    0.48838E-04   -0.16903E-04   388   0.269E-02    0.507E-02
RMM:   6    -0.222840342422E+03   -0.91217E-05   -0.20187E-04   393   0.216E-02    0.162E-02
RMM:   7    -0.222840336996E+03    0.54255E-05   -0.20787E-05   294   0.117E-02
  94 F= -.22284034E+03 E0= -.22284243E+03  d E =-.140854E-02
       N       E                     dE             d eps       ncg     rms          rms(c)
DAV:   1    -0.222838379296E+03    0.19631E-02   -0.13129E+00   464   0.189E+00    0.319E-01
RMM:   2    -0.222840867201E+03   -0.24879E-02   -0.26635E-02   519   0.400E-01    0.539E-02
RMM:   3    -0.222841445497E+03   -0.57830E-03   -0.62471E-03   508   0.188E-01    0.106E-01
RMM:   4    -0.222841468345E+03   -0.22849E-04   -0.71492E-04   544   0.723E-02    0.748E-02
RMM:   5    -0.222841438948E+03    0.29397E-04   -0.72363E-05   389   0.186E-02    0.497E-02
RMM:   6    -0.222841433619E+03    0.53288E-05   -0.13080E-04   353   0.172E-02    0.101E-02
RMM:   7    -0.222841435013E+03   -0.13935E-05   -0.22704E-05   309   0.105E-02
  95 F= -.22284144E+03 E0= -.22284345E+03  d E =-.109802E-02
       N       E                     dE             d eps       ncg     rms          rms(c)
DAV:   1    -0.222840383236E+03    0.10504E-02   -0.50913E-01   464   0.118E+00    0.200E-01
RMM:   2    -0.222841353055E+03   -0.96982E-03   -0.10449E-02   521   0.249E-01    0.371E-02
RMM:   3    -0.222841573256E+03   -0.22020E-03   -0.23643E-03   507   0.116E-01    0.643E-02
RMM:   4    -0.222841579688E+03   -0.64319E-05   -0.27199E-04   525   0.449E-02    0.435E-02
RMM:   5    -0.222841569935E+03    0.97525E-05   -0.32626E-05   304   0.124E-02
  96 F= -.22284157E+03 E0= -.22284355E+03  d E =-.123294E-02
       N       E                     dE             d eps       ncg     rms          rms(c)
DAV:   1    -0.222839487861E+03    0.20918E-02   -0.13594E+00   448   0.177E+00    0.288E-01
RMM:   2    -0.222841829323E+03   -0.23415E-02   -0.25161E-02   521   0.368E-01    0.520E-02
RMM:   3    -0.222842427173E+03   -0.59785E-03   -0.62999E-03   527   0.173E-01    0.959E-02
RMM:   4    -0.222842453415E+03   -0.26242E-04   -0.62122E-04   521   0.648E-02    0.710E-02
RMM:   5    -0.222842426259E+03    0.27156E-04   -0.67603E-05   372   0.179E-02    0.483E-02
RMM:   6    -0.222842424786E+03    0.14724E-05   -0.14911E-04   365   0.176E-02    0.125E-02
RMM:   7    -0.222842423974E+03    0.81247E-06   -0.18070E-05   307   0.102E-02
  97 F= -.22284242E+03 E0= -.22284438E+03  d E =-.854039E-03
       N       E                     dE             d eps       ncg     rms          rms(c)
DAV:   1    -0.222841057182E+03    0.13676E-02   -0.69795E-01   464   0.127E+00    0.212E-01
RMM:   2    -0.222842271934E+03   -0.12148E-02   -0.12957E-02   517   0.266E-01    0.328E-02
RMM:   3    -0.222842583655E+03   -0.31172E-03   -0.32847E-03   519   0.127E-01    0.730E-02
RMM:   4    -0.222842597839E+03   -0.14184E-04   -0.32175E-04   500   0.470E-02    0.555E-02
RMM:   5    -0.222842583963E+03    0.13876E-04   -0.31719E-05   295   0.129E-02    0.423E-02
RMM:   6    -0.222842577267E+03    0.66965E-05   -0.74112E-05   370   0.130E-02
  98 F= -.22284258E+03 E0= -.22284451E+03  d E =-.100733E-02
       N       E                     dE             d eps       ncg     rms          rms(c)
DAV:   1    -0.222841317209E+03    0.12668E-02   -0.10839E+00   448   0.154E+00    0.235E-01
RMM:   2    -0.222843127647E+03   -0.18104E-02   -0.19536E-02   529   0.318E-01    0.565E-02
RMM:   3    -0.222843569851E+03   -0.44220E-03   -0.46378E-03   531   0.145E-01    0.697E-02
RMM:   4    -0.222843588671E+03   -0.18821E-04   -0.47222E-04   525   0.559E-02    0.497E-02
RMM:   5    -0.222843574524E+03    0.14148E-04   -0.55246E-05   370   0.159E-02    0.282E-02
RMM:   6    -0.222843577544E+03   -0.30201E-05   -0.57468E-05   376   0.124E-02
  99 F= -.22284358E+03 E0= -.22284553E+03  d E =-.100028E-02
       N       E                     dE             d eps       ncg     rms          rms(c)
DAV:   1    -0.222839828292E+03    0.37462E-02   -0.20366E+00   448   0.212E+00    0.321E-01
RMM:   2    -0.222843267680E+03   -0.34394E-02   -0.36873E-02   525   0.436E-01    0.740E-02
RMM:   3    -0.222844138425E+03   -0.87074E-03   -0.91503E-03   535   0.205E-01    0.102E-01
RMM:   4    -0.222844178859E+03   -0.40435E-04   -0.91611E-04   535   0.772E-02    0.746E-02
RMM:   5    -0.222844147049E+03    0.31810E-04   -0.98285E-05   378   0.209E-02    0.453E-02
RMM:   6    -0.222844151586E+03   -0.45364E-05   -0.14214E-04   376   0.184E-02    0.136E-02
RMM:   7    -0.222844150433E+03    0.11530E-05   -0.20191E-05   309   0.110E-02
 100 F= -.22284415E+03 E0= -.22284612E+03  d E =-.157317E-02
       N       E                     dE             d eps       ncg     rms          rms(c)
DAV:   1    -0.222842887690E+03    0.12639E-02   -0.10283E+00   464   0.148E+00    0.228E-01
RMM:   2    -0.222844563677E+03   -0.16760E-02   -0.17746E-02   521   0.305E-01    0.425E-02
RMM:   3    -0.222844994102E+03   -0.43042E-03   -0.45370E-03   513   0.144E-01    0.738E-02
RMM:   4    -0.222845019121E+03   -0.25019E-04   -0.45514E-04   537   0.553E-02    0.580E-02
RMM:   5    -0.222845005746E+03    0.13375E-04   -0.31357E-05   287   0.134E-02    0.469E-02
RMM:   6    -0.222844996674E+03    0.90718E-05   -0.88220E-05   371   0.144E-02
 101 F= -.22284500E+03 E0= -.22284696E+03  d E =-.846242E-03
       N       E                     dE             d eps       ncg     rms          rms(c)
DAV:   1    -0.222841472296E+03    0.35334E-02   -0.17897E+00   432   0.196E+00    0.301E-01
RMM:   2    -0.222844402630E+03   -0.29303E-02   -0.31558E-02   529   0.402E-01    0.664E-02
RMM:   3    -0.222845149588E+03   -0.74696E-03   -0.78834E-03   521   0.188E-01    0.864E-02
RMM:   4    -0.222845192585E+03   -0.42997E-04   -0.82570E-04   550   0.733E-02    0.644E-02
RMM:   5    -0.222845172840E+03    0.19744E-04   -0.61925E-05   369   0.176E-02    0.452E-02
RMM:   6    -0.222845170838E+03    0.20022E-05   -0.10610E-04   354   0.161E-02    0.107E-02
RMM:   7    -0.222845171278E+03   -0.43977E-06   -0.16559E-05   279   0.958E-03
 102 F= -.22284517E+03 E0= -.22284712E+03  d E =-.102085E-02
       N       E                     dE             d eps       ncg     rms          rms(c)
DAV:   1    -0.222844907263E+03    0.26358E-03   -0.17158E-01   464   0.606E-01    0.897E-02
RMM:   2    -0.222845170920E+03   -0.26366E-03   -0.28305E-03   526   0.122E-01    0.178E-02
RMM:   3    -0.222845238580E+03   -0.67660E-04   -0.70403E-04   521   0.575E-02    0.275E-02
RMM:   4    -0.222845242136E+03   -0.35566E-05   -0.69504E-05   325   0.219E-02
 103 F= -.22284524E+03 E0= -.22284720E+03  d E =-.109170E-02
       N       E                     dE             d eps       ncg     rms          rms(c)
DAV:   1    -0.222844286479E+03    0.95210E-03   -0.82742E-01   448   0.131E+00    0.168E-01
RMM:   2    -0.222845511996E+03   -0.12255E-02   -0.12924E-02   534   0.255E-01    0.400E-02
RMM:   3    -0.222845823733E+03   -0.31174E-03   -0.32099E-03   544   0.118E-01    0.407E-02
RMM:   4    -0.222845847996E+03   -0.24262E-04   -0.36625E-04   466   0.465E-02    0.321E-02
RMM:   5    -0.222845843351E+03    0.46451E-05   -0.21962E-05   274   0.116E-02
 104 F= -.22284584E+03 E0= -.22284777E+03  d E =-.601214E-03
       N       E                     dE             d eps       ncg     rms          rms(c)
DAV:   1    -0.222844869953E+03    0.97804E-03   -0.71410E-01   448   0.122E+00    0.138E-01
RMM:   2    -0.222845917631E+03   -0.10477E-02   -0.11018E-02   535   0.236E-01    0.455E-02
RMM:   3    -0.222846188693E+03   -0.27106E-03   -0.27749E-03   540   0.109E-01    0.445E-02
RMM:   4    -0.222846206326E+03   -0.17632E-04   -0.29386E-04   466   0.425E-02    0.338E-02
RMM:   5    -0.222846202418E+03    0.39080E-05   -0.22258E-05   275   0.115E-02
 105 F= -.22284620E+03 E0= -.22284810E+03  d E =-.960281E-03
       N       E                     dE             d eps       ncg     rms          rms(c)
DAV:   1    -0.222840765317E+03    0.54410E-02   -0.28610E+00   448   0.245E+00    0.290E-01
RMM:   2    -0.222845102302E+03   -0.43370E-02   -0.45852E-02   537   0.476E-01    0.914E-02
RMM:   3    -0.222846245235E+03   -0.11429E-02   -0.11909E-02   549   0.222E-01    0.827E-02
RMM:   4    -0.222846315030E+03   -0.69795E-04   -0.11473E-03   532   0.836E-02    0.652E-02
RMM:   5    -0.222846299145E+03    0.15886E-04   -0.90602E-05   389   0.209E-02    0.486E-02
RMM:   6    -0.222846296063E+03    0.30821E-05   -0.75382E-05   356   0.153E-02
 106 F= -.22284630E+03 E0= -.22284816E+03  d E =-.105393E-02
       N       E                     dE             d eps       ncg     rms          rms(c)
DAV:   1    -0.222845138489E+03    0.11607E-02   -0.97565E-01   464   0.141E+00    0.177E-01
RMM:   2    -0.222846602429E+03   -0.14639E-02   -0.15586E-02   541   0.277E-01    0.556E-02
RMM:   3    -0.222846971586E+03   -0.36916E-03   -0.38228E-03   541   0.126E-01    0.473E-02
RMM:   4    -0.222846991955E+03   -0.20369E-04   -0.37340E-04   483   0.483E-02    0.374E-02
RMM:   5    -0.222846987786E+03    0.41684E-05   -0.33729E-05   308   0.134E-02
 107 F= -.22284699E+03 E0= -.22284882E+03  d E =-.691723E-03
       N       E                     dE             d eps       ncg     rms          rms(c)
DAV:   1    -0.222844811402E+03    0.21806E-02   -0.13702E+00   448   0.168E+00    0.202E-01
RMM:   2    -0.222846869560E+03   -0.20582E-02   -0.21739E-02   535   0.330E-01    0.631E-02
RMM:   3    -0.222847402234E+03   -0.53267E-03   -0.55195E-03   539   0.152E-01    0.611E-02
RMM:   4    -0.222847430094E+03   -0.27860E-04   -0.52218E-04   515   0.571E-02    0.472E-02
RMM:   5    -0.222847422692E+03    0.74016E-05   -0.48978E-05   340   0.155E-02
 108 F= -.22284742E+03 E0= -.22284925E+03  d E =-.112663E-02
       N       E                     dE             d eps       ncg     rms          rms(c)
DAV:   1    -0.222847042402E+03    0.38769E-03   -0.23751E-01   464   0.700E-01    0.814E-02
RMM:   2    -0.222847388510E+03   -0.34611E-03   -0.37082E-03   541   0.135E-01    0.297E-02
RMM:   3    -0.222847476718E+03   -0.88208E-04   -0.89744E-04   531   0.612E-02    0.238E-02
RMM:   4    -0.222847481042E+03   -0.43242E-05   -0.83929E-05   338   0.234E-02
 109 F= -.22284748E+03 E0= -.22284930E+03  d E =-.118498E-02
       N       E                     dE             d eps       ncg     rms          rms(c)
DAV:   1    -0.222847294969E+03    0.18175E-03   -0.85301E-02   464   0.421E-01    0.628E-02
RMM:   2    -0.222847422307E+03   -0.12734E-03   -0.13356E-03   524   0.820E-02    0.895E-03
RMM:   3    -0.222847454278E+03   -0.31971E-04   -0.32615E-04   439   0.375E-02    0.110E-02
RMM:   4    -0.222847455392E+03   -0.11140E-05   -0.26579E-05   275   0.140E-02
 110 F= -.22284746E+03 E0= -.22284927E+03  d E =-.115933E-02
       N       E                     dE             d eps       ncg     rms          rms(c)
DAV:   1    -0.222847418008E+03    0.36270E-04   -0.29629E-02   464   0.247E-01    0.359E-02
RMM:   2    -0.222847461538E+03   -0.43530E-04   -0.46923E-04   520   0.484E-02    0.622E-03
RMM:   3    -0.222847472794E+03   -0.11255E-04   -0.11565E-04   354   0.223E-02    0.670E-03
RMM:   4    -0.222847473187E+03   -0.39305E-06   -0.91760E-06   244   0.913E-03
 111 F= -.22284747E+03 E0= -.22284929E+03  d E =-.117712E-02
       N       E                     dE             d eps       ncg     rms          rms(c)
DAV:   1    -0.222847685024E+03   -0.21223E-03   -0.16981E-01   464   0.666E-01    0.110E-01
RMM:   2    -0.222847992735E+03   -0.30771E-03   -0.33369E-03   519   0.141E-01    0.188E-02
RMM:   3    -0.222848066815E+03   -0.74080E-04   -0.79828E-04   499   0.659E-02    0.349E-02
RMM:   4    -0.222848069581E+03   -0.27663E-05   -0.75191E-05   350   0.243E-02
 112 F= -.22284807E+03 E0= -.22284983E+03  d E =-.596395E-03
       N       E                     dE             d eps       ncg     rms          rms(c)
DAV:   1    -0.222848177161E+03   -0.11035E-03   -0.23768E-02   496   0.250E-01    0.270E-02
RMM:   2    -0.222848214158E+03   -0.36998E-04   -0.42063E-04   484   0.529E-02    0.119E-02
RMM:   3    -0.222848225313E+03   -0.11155E-04   -0.12632E-04   491   0.277E-02    0.241E-02
RMM:   4    -0.222848226288E+03   -0.97468E-06   -0.11445E-05   257   0.964E-03
 113 F= -.22284823E+03 E0= -.22284995E+03  d E =-.753101E-03
       N       E                     dE             d eps       ncg     rms          rms(c)
DAV:   1    -0.222848246744E+03   -0.21430E-04   -0.94551E-02   464   0.498E-01    0.620E-02
RMM:   2    -0.222848407800E+03   -0.16106E-03   -0.17541E-03   501   0.105E-01    0.182E-02
RMM:   3    -0.222848451979E+03   -0.44180E-04   -0.48784E-04   524   0.530E-02    0.412E-02
RMM:   4    -0.222848454979E+03   -0.29993E-05   -0.42916E-05   303   0.182E-02
 114 F= -.22284845E+03 E0= -.22285013E+03  d E =-.981792E-03
       N       E                     dE             d eps       ncg     rms          rms(c)
DAV:   1    -0.222847674887E+03    0.77709E-03   -0.37762E-01   448   0.995E-01    0.133E-01
RMM:   2    -0.222848327431E+03   -0.65254E-03   -0.70858E-03   504   0.211E-01    0.329E-02
RMM:   3    -0.222848503954E+03   -0.17652E-03   -0.19357E-03   526   0.105E-01    0.752E-02
RMM:   4    -0.222848516058E+03   -0.12104E-04   -0.18642E-04   475   0.367E-02    0.665E-02
RMM:   5    -0.222848513184E+03    0.28745E-05   -0.20822E-05   276   0.115E-02
 115 F= -.22284851E+03 E0= -.22285010E+03  d E =-.104000E-02
       N       E                     dE             d eps       ncg     rms          rms(c)
DAV:   1    -0.222848243664E+03    0.27239E-03   -0.12295E-01   448   0.568E-01    0.147E-01
RMM:   2    -0.222848484702E+03   -0.24104E-03   -0.28121E-03   545   0.124E-01    0.144E-02
RMM:   3    -0.222848532301E+03   -0.47599E-04   -0.49492E-04   471   0.513E-02    0.776E-03
RMM:   4    -0.222848536090E+03   -0.37892E-05   -0.57584E-05   334   0.214E-02
 116 F= -.22284854E+03 E0= -.22285017E+03  d E =-.106290E-02
       N       E                     dE             d eps       ncg     rms          rms(c)
DAV:   1    -0.222848462510E+03    0.69791E-04   -0.32364E-02   464   0.290E-01    0.488E-02
RMM:   2    -0.222848521040E+03   -0.58530E-04   -0.65660E-04   521   0.605E-02    0.107E-02
RMM:   3    -0.222848534342E+03   -0.13302E-04   -0.14167E-04   411   0.273E-02    0.126E-02
RMM:   4    -0.222848534330E+03    0.11776E-07   -0.11837E-05   260   0.105E-02
 117 F= -.22284853E+03 E0= -.22285014E+03  d E =-.106114E-02
       N       E                     dE             d eps       ncg     rms          rms(c)
DAV:   1    -0.222848459401E+03    0.74941E-04   -0.24036E-01   448   0.793E-01    0.123E-01
RMM:   2    -0.222848884620E+03   -0.42522E-03   -0.45689E-03   528   0.165E-01    0.279E-02
RMM:   3    -0.222848980911E+03   -0.96292E-04   -0.10303E-03   497   0.746E-02    0.380E-02
RMM:   4    -0.222848983266E+03   -0.23541E-05   -0.10694E-04   385   0.286E-02    0.257E-02
RMM:   5    -0.222848979633E+03    0.36329E-05   -0.21257E-05   272   0.116E-02
 118 F= -.22284898E+03 E0= -.22285054E+03  d E =-.445302E-03
       N       E                     dE             d eps       ncg     rms          rms(c)
DAV:   1    -0.222848980932E+03    0.23339E-05   -0.58495E-02   480   0.390E-01    0.586E-02
RMM:   2    -0.222849082381E+03   -0.10145E-03   -0.11042E-03   525   0.797E-02    0.166E-02
RMM:   3    -0.222849105828E+03   -0.23447E-04   -0.24607E-04   451   0.362E-02    0.185E-02
RMM:   4    -0.222849105780E+03    0.48534E-07   -0.23665E-05   276   0.141E-02
 119 F= -.22284911E+03 E0= -.22285064E+03  d E =-.571450E-03
       N       E                     dE             d eps       ncg     rms          rms(c)
DAV:   1    -0.222848673058E+03    0.43277E-03   -0.23469E-01   464   0.785E-01    0.120E-01
RMM:   2    -0.222849087338E+03   -0.41428E-03   -0.44632E-03   530   0.163E-01    0.294E-02
RMM:   3    -0.222849181149E+03   -0.93811E-04   -0.99942E-04   494   0.734E-02    0.379E-02
RMM:   4    -0.222849183797E+03   -0.26475E-05   -0.10571E-04   381   0.285E-02    0.263E-02
RMM:   5    -0.222849180230E+03    0.35668E-05   -0.21779E-05   274   0.118E-02
 120 F= -.22284918E+03 E0= -.22285067E+03  d E =-.645900E-03
       N       E                     dE             d eps       ncg     rms          rms(c)
DAV:   1    -0.222849195735E+03   -0.11938E-04   -0.13335E-01   464   0.608E-01    0.110E-01
RMM:   2    -0.222849446459E+03   -0.25072E-03   -0.28024E-03   517   0.131E-01    0.187E-02
RMM:   3    -0.222849507176E+03   -0.60717E-04   -0.66548E-04   511   0.617E-02    0.347E-02
RMM:   4    -0.222849508291E+03   -0.11147E-05   -0.65061E-05   332   0.225E-02
 121 F= -.22284951E+03 E0= -.22285103E+03  d E =-.328061E-03
