  55  55   0   0
  0.2301251E+02  0.1218282E-08  0.7661564E-09  0.1373046E-08  0.0000000E+00
   1.0000000000000000E-004
  CAR 
 NEB_bottleneck                          
      8.85155192    -33.59647787  301      3.19683815      1.00000000
    -33.596  0.0000E+00  0.0000E+00
    -33.455  0.0000E+00  0.0000E+00
    -33.313 -0.3353E-33 -0.4745E-34
    -33.172 -0.3518E-28 -0.4977E-29
    -33.031 -0.1345E-23 -0.1903E-24
    -32.889 -0.1872E-19 -0.2649E-20
    -32.748 -0.9145E-16 -0.1294E-16
    -32.606 -0.1663E-12 -0.2354E-13
    -32.465 -0.1080E-09 -0.1530E-10
    -32.323 -0.2481E-07 -0.3525E-08
    -32.182 -0.1967E-05 -0.2819E-06
    -32.040 -0.5055E-04 -0.7434E-05
    -31.899 -0.3317E-03 -0.5437E-04
    -31.757  0.5144E-03  0.1841E-04
    -31.616  0.5801E-02  0.8392E-03
    -31.474  0.7148E-02  0.1851E-02
    -31.333  0.1540E-02  0.2068E-02
    -31.191 -0.3806E-03  0.2015E-02
    -31.050 -0.9809E-04  0.2001E-02
    -30.908 -0.5302E-05  0.2000E-02
    -30.767 -0.8981E-07  0.2000E-02
    -30.625 -0.5191E-09  0.2000E-02
    -30.484 -0.1057E-11  0.2000E-02
    -30.342 -0.7690E-15  0.2000E-02
    -30.201 -0.9813E-30  0.2000E-02
    -30.059 -0.5179E-25  0.2000E-02
    -29.918 -0.9953E-21  0.2000E-02
    -29.776 -0.6950E-17  0.2000E-02
    -29.635 -0.1696E-13  0.2000E-02
    -29.493 -0.1530E-10  0.2000E-02
    -29.352 -0.4905E-08  0.2000E-02
    -29.210 -0.5484E-06  0.2000E-02
    -29.069 -0.2043E-04  0.1997E-02
    -28.927 -0.2193E-03  0.1966E-02
    -28.786 -0.1534E-03  0.1944E-02
    -28.644  0.3830E-02  0.2486E-02
    -28.503  0.7892E-02  0.3603E-02
    -28.361  0.3264E-02  0.4065E-02
    -28.220 -0.2535E-03  0.4029E-02
    -28.078 -0.1902E-03  0.4002E-02
    -27.937 -0.7718E-04  0.3991E-02
    -27.795 -0.3600E-03  0.3940E-02
    -27.654  0.6550E-03  0.4033E-02
    -27.512  0.5855E-02  0.4861E-02
    -27.371  0.8543E-02  0.6070E-02
    -27.229  0.8500E-02  0.7273E-02
    -27.088  0.5192E-02  0.8007E-02
    -26.946  0.3188E-03  0.8052E-02
    -26.805 -0.3231E-03  0.8007E-02
    -26.663 -0.4568E-04  0.8000E-02
    -26.522 -0.9149E-05  0.7999E-02
    -26.380 -0.1225E-03  0.7982E-02
    -26.239 -0.4012E-03  0.7925E-02
    -26.097  0.1645E-02  0.8158E-02
    -25.956  0.6988E-02  0.9146E-02
    -25.814  0.1172E-01  0.1080E-01
    -25.673  0.1601E-01  0.1307E-01
    -25.531  0.7390E-02  0.1412E-01
    -25.390 -0.3324E-03  0.1407E-01
    -25.248 -0.4440E-03  0.1401E-01
    -25.107 -0.9431E-04  0.1399E-01
    -24.965 -0.3381E-03  0.1394E-01
    -24.824  0.5669E-03  0.1402E-01
    -24.682  0.5901E-02  0.1486E-01
    -24.541  0.7078E-02  0.1586E-01
    -24.399  0.1461E-02  0.1607E-01
    -24.258 -0.3804E-03  0.1601E-01
    -24.116 -0.9486E-04  0.1600E-01
    -23.975 -0.2967E-04  0.1600E-01
    -23.833 -0.3429E-03  0.1595E-01
    -23.692 -0.9504E-03  0.1581E-01
    -23.550  0.4945E-02  0.1651E-01
    -23.409  0.2092E-01  0.1947E-01
    -23.267  0.2304E-01  0.2273E-01
    -23.126  0.1273E-01  0.2453E-01
    -22.984  0.8132E-02  0.2569E-01
    -22.843  0.9235E-02  0.2699E-01
    -22.701  0.1069E-01  0.2850E-01
    -22.560  0.1495E-01  0.3062E-01
    -22.418  0.6703E-01  0.4010E-01
    -22.277  0.9922E-01  0.5414E-01
    -22.136  0.4168E-01  0.6004E-01
    -21.994  0.9574E-02  0.6139E-01
    -21.853  0.3823E-01  0.6680E-01
    -21.711  0.3217E-01  0.7136E-01
    -21.570  0.1783E-01  0.7388E-01
    -21.428  0.4895E-01  0.8080E-01
    -21.287  0.7949E-01  0.9205E-01
    -21.145  0.1035E+00  0.1067E+00
    -21.004  0.8677E-01  0.1190E+00
    -20.862  0.6985E-01  0.1289E+00
    -20.721  0.5268E-01  0.1363E+00
    -20.579  0.1488E-01  0.1384E+00
    -20.438 -0.1774E-02  0.1382E+00
    -20.296 -0.1069E-02  0.1380E+00
    -20.155 -0.1023E-03  0.1380E+00
    -20.013 -0.3138E-05  0.1380E+00
    -19.872 -0.3392E-07  0.1380E+00
    -19.730 -0.1324E-09  0.1380E+00
    -19.589 -0.1883E-12  0.1380E+00
    -19.447 -0.9416E-16  0.1380E+00
    -19.306  0.0000E+00  0.1380E+00
    -19.164  0.0000E+00  0.1380E+00
    -19.023  0.0000E+00  0.1380E+00
    -18.881  0.0000E+00  0.1380E+00
    -18.740  0.0000E+00  0.1380E+00
    -18.598  0.0000E+00  0.1380E+00
    -18.457  0.0000E+00  0.1380E+00
    -18.315  0.0000E+00  0.1380E+00
    -18.174  0.0000E+00  0.1380E+00
    -18.032  0.0000E+00  0.1380E+00
    -17.891  0.0000E+00  0.1380E+00
    -17.749  0.0000E+00  0.1380E+00
    -17.608  0.0000E+00  0.1380E+00
    -17.466  0.0000E+00  0.1380E+00
    -17.325  0.0000E+00  0.1380E+00
    -17.183 -0.4338E-33  0.1380E+00
    -17.042 -0.4453E-28  0.1380E+00
    -16.900 -0.1667E-23  0.1380E+00
    -16.759 -0.2270E-19  0.1380E+00
    -16.617 -0.1091E-15  0.1380E+00
    -16.476 -0.1930E-12  0.1380E+00
    -16.334 -0.1226E-09  0.1380E+00
    -16.193 -0.2755E-07  0.1380E+00
    -16.051 -0.2136E-05  0.1380E+00
    -15.910 -0.5374E-04  0.1380E+00
    -15.768 -0.3508E-03  0.1379E+00
    -15.627  0.4120E-03  0.1380E+00
    -15.485  0.5622E-02  0.1388E+00
    -15.344  0.9956E-02  0.1402E+00
    -15.202  0.9278E-02  0.1415E+00
    -15.061  0.3839E-02  0.1421E+00
    -14.919 -0.1582E-03  0.1420E+00
    -14.778 -0.2466E-03  0.1420E+00
    -14.636 -0.2469E-04  0.1420E+00
    -14.495 -0.7237E-06  0.1420E+00
    -14.353 -0.1255E-05  0.1420E+00
    -14.212 -0.3689E-04  0.1420E+00
    -14.070 -0.2970E-03  0.1420E+00
    -13.929  0.1181E-03  0.1420E+00
    -13.787  0.4720E-02  0.1426E+00
    -13.646  0.8871E-02  0.1439E+00
    -13.504  0.9062E-02  0.1452E+00
    -13.363  0.5707E-02  0.1460E+00
    -13.221  0.4725E-03  0.1460E+00
    -13.080 -0.7282E-03  0.1459E+00
    -12.938  0.6122E-03  0.1460E+00
    -12.797  0.6101E-02  0.1469E+00
    -12.655  0.9868E-02  0.1483E+00
    -12.514  0.8980E-02  0.1496E+00
    -12.372  0.3553E-02  0.1501E+00
    -12.231 -0.2104E-03  0.1500E+00
    -12.089 -0.2284E-03  0.1500E+00
    -11.948 -0.2164E-04  0.1500E+00
    -11.806 -0.1019E-04  0.1500E+00
    -11.665 -0.1428E-03  0.1500E+00
    -11.524 -0.3639E-03  0.1499E+00
    -11.382  0.2215E-02  0.1502E+00
    -11.241  0.7309E-02  0.1513E+00
    -11.099  0.7777E-02  0.1524E+00
    -10.958  0.1026E-01  0.1538E+00
    -10.816  0.1111E-01  0.1554E+00
    -10.675  0.8676E-02  0.1566E+00
    -10.533  0.7142E-02  0.1576E+00
    -10.392  0.2897E-02  0.1580E+00
    -10.250  0.8500E-02  0.1592E+00
    -10.109  0.1427E-01  0.1613E+00
     -9.967  0.5298E-02  0.1620E+00
     -9.826  0.3397E-02  0.1625E+00
     -9.684  0.1120E-01  0.1641E+00
     -9.543  0.1324E-01  0.1660E+00
     -9.401  0.1441E-01  0.1680E+00
     -9.260  0.1531E-01  0.1702E+00
     -9.118  0.1263E-01  0.1719E+00
     -8.977  0.1369E-01  0.1739E+00
     -8.835  0.2018E-01  0.1767E+00
     -8.694  0.1763E-01  0.1792E+00
     -8.552  0.5066E-02  0.1800E+00
     -8.411  0.4222E-02  0.1806E+00
     -8.269  0.1677E-01  0.1829E+00
     -8.128  0.1680E-01  0.1853E+00
     -7.986  0.5215E-02  0.1860E+00
     -7.845  0.3145E-03  0.1861E+00
     -7.703  0.5524E-02  0.1869E+00
     -7.562  0.7040E-02  0.1879E+00
     -7.420  0.1464E-02  0.1881E+00
     -7.279 -0.3804E-03  0.1880E+00
     -7.137 -0.9452E-04  0.1880E+00
     -6.996 -0.5031E-05  0.1880E+00
     -6.854 -0.1997E-05  0.1880E+00
     -6.713 -0.4960E-04  0.1880E+00
     -6.571 -0.3295E-03  0.1879E+00
     -6.430  0.4931E-03  0.1880E+00
     -6.288  0.5759E-02  0.1888E+00
     -6.147  0.7176E-02  0.1898E+00
     -6.005  0.1573E-02  0.1901E+00
     -5.864 -0.3807E-03  0.1900E+00
     -5.722 -0.1101E-03  0.1900E+00
     -5.581 -0.1551E-03  0.1900E+00
     -5.439 -0.3362E-03  0.1899E+00
     -5.298  0.2556E-02  0.1903E+00
     -5.156  0.7653E-02  0.1914E+00
     -5.015  0.4207E-02  0.1920E+00
     -4.873  0.1391E-02  0.1922E+00
     -4.732  0.6714E-02  0.1931E+00
     -4.590  0.5968E-02  0.1940E+00
     -4.449  0.3436E-03  0.1940E+00
     -4.307 -0.1073E-03  0.1940E+00
     -4.166  0.5109E-02  0.1947E+00
     -4.024  0.7322E-02  0.1958E+00
     -3.883  0.1711E-02  0.1960E+00
     -3.741  0.2291E-02  0.1963E+00
     -3.600  0.7905E-02  0.1974E+00
     -3.458  0.1191E-01  0.1991E+00
     -3.317  0.1644E-01  0.2014E+00
     -3.175  0.1519E-01  0.2036E+00
     -3.034  0.1794E-01  0.2061E+00
     -2.892  0.1933E-01  0.2089E+00
     -2.751  0.7369E-02  0.2099E+00
     -2.609  0.2935E-02  0.2103E+00
     -2.468  0.1683E-01  0.2127E+00
     -2.326  0.2787E-01  0.2167E+00
     -2.185  0.1911E-01  0.2194E+00
     -2.043  0.7986E-02  0.2205E+00
     -1.902  0.1479E-01  0.2226E+00
     -1.760  0.2043E-01  0.2255E+00
     -1.619  0.2212E-01  0.2286E+00
     -1.477  0.2371E-01  0.2320E+00
     -1.336  0.1384E-01  0.2339E+00
     -1.194  0.1180E-01  0.2356E+00
     -1.053  0.2152E-01  0.2386E+00
     -0.911  0.2564E-01  0.2423E+00
     -0.770  0.2197E-01  0.2454E+00
     -0.629  0.1738E-01  0.2478E+00
     -0.487  0.1891E-01  0.2505E+00
     -0.346  0.1790E-01  0.2530E+00
     -0.204  0.1778E-01  0.2555E+00
     -0.063  0.2612E-01  0.2592E+00
      0.079  0.2587E-01  0.2629E+00
      0.220  0.2047E-01  0.2658E+00
      0.362  0.2328E-01  0.2691E+00
      0.503  0.1958E-01  0.2719E+00
      0.645  0.1893E-01  0.2745E+00
      0.786  0.2326E-01  0.2778E+00
      0.928  0.2760E-01  0.2817E+00
      1.069  0.2404E-01  0.2851E+00
      1.211  0.1838E-01  0.2877E+00
      1.352  0.2187E-01  0.2908E+00
      1.494  0.2372E-01  0.2942E+00
      1.635  0.2280E-01  0.2974E+00
      1.777  0.2557E-01  0.3010E+00
      1.918  0.2345E-01  0.3044E+00
      2.060  0.2380E-01  0.3077E+00
      2.201  0.2373E-01  0.3111E+00
      2.343  0.1965E-01  0.3139E+00
      2.484  0.1776E-01  0.3164E+00
      2.626  0.1802E-01  0.3189E+00
      2.767  0.1785E-01  0.3214E+00
      2.909  0.1219E-01  0.3232E+00
      3.050  0.1611E-01  0.3255E+00
      3.192  0.2424E-01  0.3289E+00
      3.333  0.1876E-01  0.3315E+00
      3.475  0.1278E-01  0.3333E+00
      3.616  0.1728E-01  0.3358E+00
      3.758  0.1958E-01  0.3386E+00
      3.899  0.1459E-01  0.3406E+00
      4.041  0.1562E-01  0.3428E+00
      4.182  0.1576E-01  0.3451E+00
      4.324  0.1337E-01  0.3470E+00
      4.465  0.1419E-01  0.3490E+00
      4.607  0.8183E-02  0.3501E+00
      4.748  0.8359E-02  0.3513E+00
      4.890  0.1573E-01  0.3535E+00
      5.031  0.1422E-01  0.3555E+00
      5.173  0.9860E-02  0.3569E+00
      5.314  0.1689E-01  0.3593E+00
      5.456  0.1846E-01  0.3619E+00
      5.597  0.1692E-01  0.3643E+00
      5.739  0.2641E-01  0.3681E+00
      5.880  0.3266E-01  0.3727E+00
      6.022  0.2435E-01  0.3761E+00
      6.163  0.1882E-01  0.3788E+00
      6.305  0.2213E-01  0.3819E+00
      6.446  0.2453E-01  0.3854E+00
      6.588  0.2768E-01  0.3893E+00
      6.729  0.2434E-01  0.3928E+00
      6.871  0.1723E-01  0.3952E+00
      7.012  0.6273E-02  0.3961E+00
      7.154 -0.1445E-03  0.3961E+00
      7.295 -0.4345E-03  0.3960E+00
      7.437 -0.5495E-04  0.3960E+00
      7.578 -0.2030E-05  0.3960E+00
      7.720 -0.2512E-07  0.3960E+00
      7.861 -0.1085E-09  0.3960E+00
      8.003 -0.1666E-12  0.3960E+00
      8.144 -0.9102E-16  0.3960E+00
      8.286  0.0000E+00  0.3960E+00
      8.427  0.0000E+00  0.3960E+00
      8.569  0.0000E+00  0.3960E+00
      8.710  0.0000E+00  0.3960E+00
      8.852  0.0000E+00  0.3960E+00
