 vasp.6.3.2 27Jun22 (build Jun 14 2024 17:29:11) complex                         
 POSCAR found type information on POSCAR NaAlS 
 07/POSCAR found :  3 types and      55 ions
 -----------------------------------------------------------------------------
|                                                                             |
|           W    W    AA    RRRRR   N    N  II  N    N   GGGG   !!!           |
|           W    W   A  A   R    R  NN   N  II  NN   N  G    G  !!!           |
|           W    W  A    A  R    R  N N  N  II  N N  N  G       !!!           |
|           W WW W  AAAAAA  RRRRR   N  N N  II  N  N N  G  GGG   !            |
|           WW  WW  A    A  R   R   N   NN  II  N   NN  G    G                |
|           W    W  A    A  R    R  N    N  II  N    N   GGGG   !!!           |
|                                                                             |
|     The value NPAR = 9 specified in the INCAR file was overwritten,         |
|     because it was not compatible with the 3 processes available:           |
|     NPAR = 3                                                                |
|     was used instead, please check that this makes sense for your           |
|     machine.                                                                |
|                                                                             |
 -----------------------------------------------------------------------------

 LDA part: xc-table for Pade appr. of Perdew
 POSCAR found type information on POSCAR NaAlS 
 00/POSCAR found :  3 types and      55 ions
 POSCAR found type information on POSCAR NaAlS 
 10/POSCAR found :  3 types and      55 ions
 -----------------------------------------------------------------------------
|                                                                             |
|           W    W    AA    RRRRR   N    N  II  N    N   GGGG   !!!           |
|           W    W   A  A   R    R  NN   N  II  NN   N  G    G  !!!           |
|           W    W  A    A  R    R  N N  N  II  N N  N  G       !!!           |
|           W WW W  AAAAAA  RRRRR   N  N N  II  N  N N  G  GGG   !            |
|           WW  WW  A    A  R   R   N   NN  II  N   NN  G    G                |
|           W    W  A    A  R    R  N    N  II  N    N   GGGG   !!!           |
|                                                                             |
|     The distance between some ions is very small. Please check the          |
|     nearest-neighbor list in the OUTCAR file.                               |
|     I HOPE YOU KNOW WHAT YOU ARE DOING!                                     |
|                                                                             |
 -----------------------------------------------------------------------------

 POSCAR, INCAR and KPOINTS ok, starting setup
 FFT: planning ... GRIDC
 FFT: planning ... GRID_SOFT
 FFT: planning ... GRID
 WAVECAR not read
 entering main loop
       N       E                     dE             d eps       ncg     rms          rms(c)
DAV:   1     0.394567112556E+04    0.39457E+04   -0.14919E+05   423   0.160E+03
DAV:   2     0.743326916578E+03   -0.32023E+04   -0.30930E+04   441   0.426E+02
DAV:   3     0.209763339749E+03   -0.53356E+03   -0.52134E+03   513   0.184E+02
DAV:   4     0.163073962910E+03   -0.46689E+02   -0.46158E+02   558   0.473E+01
DAV:   5     0.161802646930E+03   -0.12713E+01   -0.12653E+01   594   0.811E+00    0.857E+02
RMM:   6     0.211680471878E+03    0.49878E+02   -0.85073E+01   448   0.117E+01    0.227E+02
RMM:   7     0.181468487753E+03   -0.30212E+02   -0.94919E+01   504   0.120E+01    0.404E+02
RMM:   8     0.218386586673E+03    0.36918E+02   -0.54256E+01   525   0.948E+00    0.725E+01
RMM:   9     0.223955677219E+03    0.55691E+01   -0.69170E+00   493   0.451E+00    0.492E+01
RMM:  10     0.224195982504E+03    0.24031E+00   -0.83583E+00   532   0.348E+00    0.308E+01
RMM:  11     0.223996012031E+03   -0.19997E+00   -0.43698E+00   480   0.272E+00    0.350E+01
RMM:  12     0.226101675407E+03    0.21057E+01   -0.16122E+00   535   0.176E+00    0.853E+00
RMM:  13     0.226206017302E+03    0.10434E+00   -0.56813E-01   477   0.986E-01    0.544E+00
RMM:  14     0.226225337838E+03    0.19321E-01   -0.19628E-01   517   0.642E-01    0.599E+00
RMM:  15     0.226236388406E+03    0.11051E-01   -0.13184E-01   491   0.501E-01    0.228E+00
RMM:  16     0.226265232502E+03    0.28844E-01   -0.51081E-02   478   0.346E-01    0.772E-01
RMM:  17     0.226265162725E+03   -0.69777E-04   -0.10601E-02   605   0.182E-01    0.788E-01
RMM:  18     0.226264422832E+03   -0.73989E-03   -0.24638E-03   507   0.787E-02    0.440E-01
RMM:  19     0.226263553180E+03   -0.86965E-03   -0.17295E-03   470   0.622E-02    0.303E-01
RMM:  20     0.226264409520E+03    0.85634E-03   -0.85905E-04   500   0.447E-02    0.244E-01
RMM:  21     0.226264441685E+03    0.32165E-04   -0.28407E-04   572   0.261E-02    0.119E-01
RMM:  22     0.226264429577E+03   -0.12108E-04   -0.12554E-04   492   0.146E-02    0.727E-02
RMM:  23     0.226264480898E+03    0.51321E-04   -0.83731E-05   453   0.104E-02    0.627E-02
RMM:  24     0.226264495439E+03    0.14541E-04   -0.64564E-05   413   0.839E-03    0.370E-02
RMM:  25     0.226264493951E+03   -0.14873E-05   -0.50928E-05   417   0.744E-03    0.241E-02
RMM:  26     0.226264490941E+03   -0.30103E-05   -0.20866E-05   405   0.511E-03    0.284E-02
RMM:  27     0.226264486854E+03   -0.40876E-05   -0.11931E-05   375   0.407E-03    0.178E-02
RMM:  28     0.226264488652E+03    0.17982E-05   -0.17675E-06   279   0.246E-03    0.185E-02
RMM:  29     0.226264488825E+03    0.17299E-06   -0.63640E-07   238   0.161E-03
   1 F= 0.22626449E+03 E0= 0.22628556E+03  d E =0.226264E+03
quench:  g(F)=  0.000E+00 g(S)=  0.000E+00 dE (1.order)= 0.000E+00
 bond charge predicted
       N       E                     dE             d eps       ncg     rms          rms(c)
DAV:   1     0.226264489243E+03    0.59139E-06   -0.27422E-07   234   0.158E-03    0.137E-02
RMM:   2     0.226264487834E+03   -0.14089E-05   -0.40751E-06   288   0.199E-03    0.365E-02
RMM:   3     0.226264489770E+03    0.19355E-05   -0.65307E-07   174   0.135E-03    0.183E-02
RMM:   4     0.226264489568E+03   -0.20186E-06   -0.18995E-07   148   0.102E-03
   2 F= 0.22626449E+03 E0= 0.22628553E+03  d E =0.743195E-06
quench:  g(F)=  0.000E+00 g(S)=  0.000E+00 dE (1.order)= 0.000E+00
 bond charge predicted
       N       E                     dE             d eps       ncg     rms          rms(c)
DAV:   1     0.226264489733E+03   -0.37020E-07   -0.26692E-06   261   0.156E-03    0.135E-02
RMM:   2     0.226264489239E+03   -0.49360E-06   -0.14495E-06   220   0.132E-03
   3 F= 0.22626449E+03 E0= 0.22628557E+03  d E =-.328757E-06
quench:  g(F)=  0.000E+00 g(S)=  0.000E+00 dE (1.order)= 0.000E+00
 bond charge predicted
       N       E                     dE             d eps       ncg     rms          rms(c)
DAV:   1     0.226264489859E+03    0.12596E-06   -0.33841E-06   270   0.201E-03    0.522E-03
RMM:   2     0.226264488775E+03   -0.10838E-05   -0.56553E-07   154   0.100E-03    0.171E-02
RMM:   3     0.226264489701E+03    0.92597E-06   -0.14043E-07   133   0.783E-04
   4 F= 0.22626449E+03 E0= 0.22628554E+03  d E =0.461703E-06
quench:  g(F)=  0.000E+00 g(S)=  0.000E+00 dE (1.order)= 0.000E+00
 bond charge predicted
       N       E                     dE             d eps       ncg     rms          rms(c)
DAV:   1     0.226264489914E+03    0.11395E-05   -0.16203E-06   252   0.106E-03    0.238E-03
RMM:   2     0.226264489898E+03   -0.16298E-07   -0.12836E-07   114   0.548E-04
   5 F= 0.22626449E+03 E0= 0.22628553E+03  d E =0.197208E-06
quench:  g(F)=  0.000E+00 g(S)=  0.000E+00 dE (1.order)= 0.000E+00
 bond charge predicted
       N       E                     dE             d eps       ncg     rms          rms(c)
DAV:   1     0.226264489914E+03   -0.93132E-09   -0.14902E-07   261   0.541E-04    0.383E-03
RMM:   2     0.226264489912E+03   -0.18626E-08   -0.41684E-09    43   0.252E-04
   6 F= 0.22626449E+03 E0= 0.22628554E+03  d E =0.135042E-07
quench:  g(F)=  0.000E+00 g(S)=  0.000E+00 dE (1.order)= 0.000E+00
 bond charge predicted
       N       E                     dE             d eps       ncg     rms          rms(c)
DAV:   1     0.226264489778E+03   -0.13597E-06   -0.18139E-06   252   0.777E-04    0.452E-03
RMM:   2     0.226264488158E+03   -0.16191E-05   -0.64581E-07   151   0.878E-04    0.225E-02
RMM:   3     0.226264489876E+03    0.17178E-05   -0.22861E-07   125   0.744E-04    0.442E-03
RMM:   4     0.226264489898E+03    0.21420E-07   -0.91381E-08   119   0.644E-04
   7 F= 0.22626449E+03 E0= 0.22628553E+03  d E =-.139698E-07
quench:  g(F)=  0.000E+00 g(S)=  0.000E+00 dE (1.order)= 0.000E+00
 bond charge predicted
       N       E                     dE             d eps       ncg     rms          rms(c)
DAV:   1     0.226264489903E+03    0.26776E-07   -0.53145E-08   234   0.660E-04    0.191E-03
RMM:   2     0.226264489800E+03   -0.10291E-06   -0.66388E-08    68   0.352E-04
   8 F= 0.22626449E+03 E0= 0.22628555E+03  d E =-.975560E-07
quench:  g(F)=  0.000E+00 g(S)=  0.000E+00 dE (1.order)= 0.000E+00
 bond charge predicted
       N       E                     dE             d eps       ncg     rms          rms(c)
DAV:   1     0.226264489906E+03    0.30268E-08   -0.60286E-07   252   0.527E-04    0.363E-03
RMM:   2     0.226264489902E+03   -0.37253E-08   -0.85914E-09    32   0.221E-04
   9 F= 0.22626449E+03 E0= 0.22628553E+03  d E =0.102213E-06
quench:  g(F)=  0.000E+00 g(S)=  0.000E+00 dE (1.order)= 0.000E+00
 bond charge predicted
       N       E                     dE             d eps       ncg     rms          rms(c)
DAV:   1     0.226264489882E+03   -0.23749E-07   -0.26862E-07   225   0.472E-04    0.331E-03
RMM:   2     0.226264489656E+03   -0.22678E-06   -0.94377E-08    76   0.387E-04
  10 F= 0.22626449E+03 E0= 0.22628553E+03  d E =-.246800E-06
quench:  g(F)=  0.000E+00 g(S)=  0.000E+00 dE (1.order)= 0.000E+00
 bond charge predicted
       N       E                     dE             d eps       ncg     rms          rms(c)
DAV:   1     0.226264489913E+03    0.30501E-07   -0.22859E-06   225   0.940E-04    0.107E-03
RMM:   2     0.226264489897E+03   -0.15367E-07   -0.10542E-08    38   0.228E-04
  11 F= 0.22626449E+03 E0= 0.22628554E+03  d E =0.241911E-06
quench:  g(F)=  0.000E+00 g(S)=  0.000E+00 dE (1.order)= 0.000E+00
 bond charge predicted
       N       E                     dE             d eps       ncg     rms          rms(c)
DAV:   1     0.226264489912E+03   -0.46566E-09   -0.21521E-07   225   0.330E-04    0.824E-04
RMM:   2     0.226264489915E+03    0.25611E-08    0.15912E-11    14   0.156E-04
  12 F= 0.22626449E+03 E0= 0.22628554E+03  d E =0.174623E-07
quench:  g(F)=  0.000E+00 g(S)=  0.000E+00 dE (1.order)= 0.000E+00
 bond charge predicted
       N       E                     dE             d eps       ncg     rms          rms(c)
DAV:   1     0.226264489910E+03   -0.25611E-08   -0.22252E-08   225   0.199E-04    0.439E-04
RMM:   2     0.226264489909E+03   -0.69849E-09    0.31185-100    10   0.120E-04
  13 F= 0.22626449E+03 E0= 0.22628554E+03  d E =-.582077E-08
quench:  g(F)=  0.000E+00 g(S)=  0.000E+00 dE (1.order)= 0.000E+00
 bond charge predicted
       N       E                     dE             d eps       ncg     rms          rms(c)
DAV:   1     0.226264489913E+03    0.27940E-08   -0.68686E-08   225   0.188E-04    0.260E-04
RMM:   2     0.226264489912E+03   -0.23283E-09    0.27521-100    10   0.787E-05
  14 F= 0.22626449E+03 E0= 0.22628554E+03  d E =0.325963E-08
quench:  g(F)=  0.000E+00 g(S)=  0.000E+00 dE (1.order)= 0.000E+00
 bond charge predicted
       N       E                     dE             d eps       ncg     rms          rms(c)
DAV:   1     0.226264489910E+03   -0.25611E-08   -0.13416E-08   225   0.985E-05    0.436E-04
RMM:   2     0.226264489910E+03    0.23283E-09    0.19292-100     7   0.711E-05
  15 F= 0.22626449E+03 E0= 0.22628554E+03  d E =-.209548E-08
quench:  g(F)=  0.000E+00 g(S)=  0.000E+00 dE (1.order)= 0.000E+00
 bond charge predicted
       N       E                     dE             d eps       ncg     rms          rms(c)
DAV:   1     0.226264489913E+03    0.27940E-08   -0.35530E-08   225   0.128E-04    0.543E-04
RMM:   2     0.226264489903E+03   -0.10245E-07    0.21753-100     7   0.752E-05
  16 F= 0.22626449E+03 E0= 0.22628554E+03  d E =-.768341E-08
quench:  g(F)=  0.000E+00 g(S)=  0.000E+00 dE (1.order)= 0.000E+00
 bond charge predicted
       N       E                     dE             d eps       ncg     rms          rms(c)
DAV:   1     0.226264489910E+03   -0.25611E-08   -0.94302E-08   225   0.178E-04    0.391E-04
RMM:   2     0.226264489910E+03   -0.46566E-09    0.71396-140     5   0.641E-05
  17 F= 0.22626449E+03 E0= 0.22628554E+03  d E =0.721775E-08
quench:  g(F)=  0.000E+00 g(S)=  0.000E+00 dE (1.order)= 0.000E+00
 bond charge predicted
       N       E                     dE             d eps       ncg     rms          rms(c)
DAV:   1     0.226264489913E+03    0.27940E-08   -0.38438E-08   225   0.124E-04    0.299E-04
RMM:   2     0.226264489914E+03    0.11642E-08    0.56240-140     5   0.574E-05
  18 F= 0.22626449E+03 E0= 0.22628554E+03  d E =0.442378E-08
quench:  g(F)=  0.000E+00 g(S)=  0.000E+00 dE (1.order)= 0.000E+00
 bond charge predicted
       N       E                     dE             d eps       ncg     rms          rms(c)
DAV:   1     0.226264489913E+03    0.23283E-09   -0.34147E-08   225   0.111E-04    0.569E-05
RMM:   2     0.226264489913E+03   -0.46566E-09    0.65921-143     4   0.423E-05
  19 F= 0.22626449E+03 E0= 0.22628554E+03  d E =-.139698E-08
quench:  g(F)=  0.000E+00 g(S)=  0.000E+00 dE (1.order)= 0.000E+00
 bond charge predicted
       N       E                     dE             d eps       ncg     rms          rms(c)
DAV:   1     0.226264489908E+03   -0.48894E-08   -0.12195E-09   225   0.436E-05    0.102E-04
RMM:   2     0.226264489911E+03    0.30268E-08    0.55109-143     4   0.302E-05
  20 F= 0.22626449E+03 E0= 0.22628554E+03  d E =-.139698E-08
quench:  g(F)=  0.000E+00 g(S)=  0.000E+00 dE (1.order)= 0.000E+00
 bond charge predicted
       N       E                     dE             d eps       ncg     rms          rms(c)
DAV:   1     0.226264489912E+03    0.32596E-08   -0.27289E-10   225   0.311E-05    0.112E-04
RMM:   2     0.226264489912E+03    0.69849E-09    0.24349-143     4   0.205E-05
  21 F= 0.22626449E+03 E0= 0.22628554E+03  d E =0.931323E-09
quench:  g(F)=  0.000E+00 g(S)=  0.000E+00 dE (1.order)= 0.000E+00
 bond charge predicted
       N       E                     dE             d eps       ncg     rms          rms(c)
DAV:   1     0.226264489915E+03    0.34925E-08   -0.92772E-10   225   0.242E-05    0.115E-04
RMM:   2     0.226264489917E+03    0.13970E-08    0.13565-143     4   0.130E-05
  22 F= 0.22626449E+03 E0= 0.22628554E+03  d E =0.419095E-08
quench:  g(F)=  0.000E+00 g(S)=  0.000E+00 dE (1.order)= 0.000E+00
 bond charge predicted
       N       E                     dE             d eps       ncg     rms          rms(c)
DAV:   1     0.226264489914E+03   -0.16298E-08   -0.12974E-10   225   0.136E-05    0.144E-04
RMM:   2     0.226264489912E+03   -0.16298E-08    0.14907-143     3   0.115E-05
  23 F= 0.22626449E+03 E0= 0.22628554E+03  d E =-.465661E-08
quench:  g(F)=  0.000E+00 g(S)=  0.000E+00 dE (1.order)= 0.000E+00
 bond charge predicted
       N       E                     dE             d eps       ncg     rms          rms(c)
DAV:   1     0.226264489916E+03    0.25611E-08   -0.91946E-10   225   0.233E-05    0.179E-04
RMM:   2     0.226264489914E+03   -0.25611E-08    0.96771-144     4   0.227E-05
  24 F= 0.22626449E+03 E0= 0.22628554E+03  d E =0.162981E-08
quench:  g(F)=  0.000E+00 g(S)=  0.000E+00 dE (1.order)= 0.000E+00
 bond charge predicted
       N       E                     dE             d eps       ncg     rms          rms(c)
DAV:   1     0.226264489909E+03   -0.69849E-08   -0.94300E-09   225   0.560E-05    0.375E-05
RMM:   2     0.226264489911E+03    0.20955E-08    0.19975-144     3   0.111E-05
  25 F= 0.22626449E+03 E0= 0.22628554E+03  d E =-.232831E-08
quench:  g(F)=  0.000E+00 g(S)=  0.000E+00 dE (1.order)= 0.000E+00
 bond charge predicted
       N       E                     dE             d eps       ncg     rms          rms(c)
DAV:   1     0.226264489914E+03    0.48894E-08   -0.11479E-09   225   0.181E-05    0.297E-05
RMM:   2     0.226264489914E+03   -0.46566E-09    0.48398-144     3   0.727E-06
  26 F= 0.22626449E+03 E0= 0.22628554E+03  d E =0.232831E-08
quench:  g(F)=  0.000E+00 g(S)=  0.000E+00 dE (1.order)= 0.000E+00
 bond charge predicted
       N       E                     dE             d eps       ncg     rms          rms(c)
DAV:   1     0.226264489913E+03   -0.11642E-08   -0.49432E-10   216   0.124E-05    0.284E-05
RMM:   2     0.226264489913E+03    0.46566E-09    0.30884-145     3   0.498E-06
  27 F= 0.22626449E+03 E0= 0.22628554E+03  d E =-.232831E-09
quench:  g(F)=  0.000E+00 g(S)=  0.000E+00 dE (1.order)= 0.000E+00
 bond charge predicted
       N       E                     dE             d eps       ncg     rms          rms(c)
DAV:   1     0.226264489915E+03    0.25611E-08   -0.49593E-10   225   0.659E-06    0.572E-05
RMM:   2     0.226264489918E+03    0.23283E-08    0.43012-145     3   0.502E-06
  28 F= 0.22626449E+03 E0= 0.22628554E+03  d E =0.442378E-08
quench:  g(F)=  0.000E+00 g(S)=  0.000E+00 dE (1.order)= 0.000E+00
 bond charge predicted
       N       E                     dE             d eps       ncg     rms          rms(c)
DAV:   1     0.226264489914E+03   -0.13970E-08   -0.65312E-10   207   0.119E-05    0.616E-05
RMM:   2     0.226264489914E+03   -0.46566E-09    0.83149-151     2   0.928E-06
  29 F= 0.22626449E+03 E0= 0.22628554E+03  d E =-.419095E-08
quench:  g(F)=  0.000E+00 g(S)=  0.000E+00 dE (1.order)= 0.000E+00
 bond charge predicted
       N       E                     dE             d eps       ncg     rms          rms(c)
DAV:   1     0.226264489916E+03    0.18626E-08   -0.17271E-09   225   0.215E-05    0.891E-06
RMM:   2     0.226264489911E+03   -0.44238E-08    0.94817-151     2   0.289E-06
  30 F= 0.22626449E+03 E0= 0.22628554E+03  d E =-.209548E-08
quench:  g(F)=  0.000E+00 g(S)=  0.000E+00 dE (1.order)= 0.000E+00
 bond charge predicted
       N       E                     dE             d eps       ncg     rms          rms(c)
DAV:   1     0.226264489916E+03    0.23283E-09   -0.11199E-10   225   0.282E-06    0.140E-05
RMM:   2     0.226264489914E+03   -0.23283E-08    0.26748-151     2   0.298E-06
  31 F= 0.22626449E+03 E0= 0.22628554E+03  d E =0.232831E-08
quench:  g(F)=  0.000E+00 g(S)=  0.000E+00 dE (1.order)= 0.000E+00
 bond charge predicted
       N       E                     dE             d eps       ncg     rms          rms(c)
DAV:   1     0.226264489915E+03   -0.11642E-08   -0.39632E-10   225   0.482E-06    0.814E-06
RMM:   2     0.226264489915E+03   -0.23283E-09    0.63215-151     2   0.162E-06
  32 F= 0.22626449E+03 E0= 0.22628554E+03  d E =0.931323E-09
quench:  g(F)=  0.000E+00 g(S)=  0.000E+00 dE (1.order)= 0.000E+00
 bond charge predicted
       N       E                     dE             d eps       ncg     rms          rms(c)
DAV:   1     0.226264489914E+03   -0.11642E-08    0.75382E-11   225   0.166E-06    0.192E-05
RMM:   2     0.226264489911E+03   -0.30268E-08    0.25101-151     2   0.177E-06
  33 F= 0.22626449E+03 E0= 0.22628554E+03  d E =-.395812E-08
quench:  g(F)=  0.000E+00 g(S)=  0.000E+00 dE (1.order)= 0.000E+00
 bond charge predicted
       N       E                     dE             d eps       ncg     rms          rms(c)
DAV:   1     0.226264489914E+03    0.69849E-09   -0.22042E-10   225   0.432E-06    0.205E-05
RMM:   2     0.226264489915E+03    0.46566E-09    0.35683-151     2   0.303E-06
  34 F= 0.22626449E+03 E0= 0.22628554E+03  d E =0.419095E-08
quench:  g(F)=  0.000E+00 g(S)=  0.000E+00 dE (1.order)= 0.000E+00
 bond charge predicted
       N       E                     dE             d eps       ncg     rms          rms(c)
DAV:   1     0.226264489917E+03    0.25611E-08   -0.35536E-10   225   0.695E-06    0.363E-06
RMM:   2     0.226264489914E+03   -0.30268E-08    0.16132-151     2   0.123E-06
  35 F= 0.22626449E+03 E0= 0.22628554E+03  d E =-.931323E-09
quench:  g(F)=  0.000E+00 g(S)=  0.000E+00 dE (1.order)= 0.000E+00
 bond charge predicted
       N       E                     dE             d eps       ncg     rms          rms(c)
DAV:   1     0.226264489914E+03   -0.34925E-08   -0.29678E-10   225   0.155E-06    0.553E-06
RMM:   2     0.226264489914E+03    0.69849E-09    0.35606-151     2   0.816E-07
  36 F= 0.22626449E+03 E0= 0.22628554E+03  d E =0.232831E-09
quench:  g(F)=  0.000E+00 g(S)=  0.000E+00 dE (1.order)= 0.000E+00
 bond charge predicted
       N       E                     dE             d eps       ncg     rms          rms(c)
DAV:   1     0.226264489913E+03   -0.93132E-09   -0.19477E-11   225   0.152E-06    0.535E-06
RMM:   2     0.226264489912E+03   -0.69849E-09    0.84470-152     2   0.102E-06
  37 F= 0.22626449E+03 E0= 0.22628554E+03  d E =-.232831E-08
quench:  g(F)=  0.000E+00 g(S)=  0.000E+00 dE (1.order)= 0.000E+00
 bond charge predicted
       N       E                     dE             d eps       ncg     rms          rms(c)
DAV:   1     0.226264489913E+03    0.46566E-09    0.20235E-10   225   0.196E-06    0.437E-06
RMM:   2     0.226264489911E+03   -0.23283E-08    0.27511-151     2   0.612E-07
  38 F= 0.22626449E+03 E0= 0.22628554E+03  d E =-.116415E-08
quench:  g(F)=  0.000E+00 g(S)=  0.000E+00 dE (1.order)= 0.000E+00
 bond charge predicted
       N       E                     dE             d eps       ncg     rms          rms(c)
DAV:   1     0.226264489916E+03    0.27940E-08   -0.56883E-11   225   0.128E-06    0.387E-06
RMM:   2     0.226264489915E+03   -0.11642E-08    0.16594-151     2   0.667E-07
  39 F= 0.22626449E+03 E0= 0.22628554E+03  d E =0.395812E-08
quench:  g(F)=  0.000E+00 g(S)=  0.000E+00 dE (1.order)= 0.000E+00
 bond charge predicted
       N       E                     dE             d eps       ncg     rms          rms(c)
DAV:   1     0.226264489913E+03   -0.25611E-08   -0.11691E-10   225   0.142E-06    0.487E-07
RMM:   2     0.226264489916E+03    0.27940E-08    0.77947-152     2   0.368E-07
  40 F= 0.22626449E+03 E0= 0.22628554E+03  d E =0.139698E-08
quench:  g(F)=  0.000E+00 g(S)=  0.000E+00 dE (1.order)= 0.000E+00
 bond charge predicted
       N       E                     dE             d eps       ncg     rms          rms(c)
DAV:   1     0.226264489912E+03   -0.93132E-09   -0.34011E-10   225   0.367E-07    0.200E-06
RMM:   2     0.226264489915E+03    0.27940E-08    0.31229-152     2   0.291E-07
  41 F= 0.22626449E+03 E0= 0.22628554E+03  d E =-.931323E-09
quench:  g(F)=  0.000E+00 g(S)=  0.000E+00 dE (1.order)= 0.000E+00
 bond charge predicted
       N       E                     dE             d eps       ncg     rms          rms(c)
DAV:   1     0.226264489917E+03    0.44238E-08   -0.10290E-10   225   0.517E-07    0.293E-06
RMM:   2     0.226264489913E+03   -0.34925E-08    0.69874-152     2   0.423E-07
  42 F= 0.22626449E+03 E0= 0.22628554E+03  d E =-.186265E-08
quench:  g(F)=  0.000E+00 g(S)=  0.000E+00 dE (1.order)= 0.000E+00
 bond charge predicted
       N       E                     dE             d eps       ncg     rms          rms(c)
DAV:   1     0.226264489913E+03   -0.39581E-08   -0.27157E-10   225   0.100E-06    0.733E-07
RMM:   2     0.226264489913E+03    0.46566E-09    0.42197-152     2   0.174E-07
  43 F= 0.22626449E+03 E0= 0.22628554E+03  d E =0.000000E+00
quench:  g(F)=  0.000E+00 g(S)=  0.000E+00 dE (1.order)= 0.000E+00
 bond charge predicted
       N       E                     dE             d eps       ncg     rms          rms(c)
DAV:   1     0.226264489916E+03    0.32596E-08    0.56095E-11   225   0.230E-07    0.784E-07
RMM:   2     0.226264489914E+03   -0.18626E-08    0.67225-152     2   0.174E-07
  44 F= 0.22626449E+03 E0= 0.22628554E+03  d E =0.931323E-09
quench:  g(F)=  0.000E+00 g(S)=  0.000E+00 dE (1.order)= 0.000E+00
 bond charge predicted
       N       E                     dE             d eps       ncg     rms          rms(c)
DAV:   1     0.226264489914E+03   -0.16298E-08    0.62210E-11   225   0.322E-07    0.126E-07
RMM:   2     0.226264489916E+03    0.11642E-08    0.17491-152     2   0.104E-07
  45 F= 0.22626449E+03 E0= 0.22628554E+03  d E =0.139698E-08
quench:  g(F)=  0.000E+00 g(S)=  0.000E+00 dE (1.order)= 0.000E+00
 bond charge predicted
       N       E                     dE             d eps       ncg     rms          rms(c)
DAV:   1     0.226264489915E+03    0.23283E-09   -0.60939E-11   225   0.111E-07    0.576E-07
RMM:   2     0.226264489916E+03    0.16298E-08    0.52380-152     2   0.808E-08
  46 F= 0.22626449E+03 E0= 0.22628554E+03  d E =0.698492E-09
quench:  g(F)=  0.000E+00 g(S)=  0.000E+00 dE (1.order)= 0.000E+00
 bond charge predicted
       N       E                     dE             d eps       ncg     rms          rms(c)
DAV:   1     0.226264489913E+03   -0.13970E-08   -0.40854E-11   225   0.110E-07    0.597E-07
RMM:   2     0.226264489914E+03    0.93132E-09    0.46444-152     2   0.860E-08
  47 F= 0.22626449E+03 E0= 0.22628554E+03  d E =-.209548E-08
quench:  g(F)=  0.000E+00 g(S)=  0.000E+00 dE (1.order)= 0.000E+00
 bond charge predicted
       N       E                     dE             d eps       ncg     rms          rms(c)
DAV:   1     0.226264489912E+03   -0.93132E-09   -0.74254E-11   225   0.162E-07    0.279E-07
RMM:   2     0.226264489913E+03    0.69849E-09    0.16366-152     2   0.546E-08
  48 F= 0.22626449E+03 E0= 0.22628554E+03  d E =-.116415E-08
quench:  g(F)=  0.000E+00 g(S)=  0.000E+00 dE (1.order)= 0.000E+00
 bond charge predicted
       N       E                     dE             d eps       ncg     rms          rms(c)
DAV:   1     0.226264489916E+03    0.39581E-08    0.84500E-12   225   0.844E-08    0.415E-07
RMM:   2     0.226264489912E+03   -0.39581E-08    0.23565-152     2   0.429E-08
  49 F= 0.22626449E+03 E0= 0.22628554E+03  d E =-.698492E-09
quench:  g(F)=  0.000E+00 g(S)=  0.000E+00 dE (1.order)= 0.000E+00
 bond charge predicted
       N       E                     dE             d eps       ncg     rms          rms(c)
DAV:   1     0.226264489917E+03    0.11642E-08    0.27245E-10   225   0.682E-08    0.613E-07
RMM:   2     0.226264489919E+03    0.11642E-08    0.13730-152     2   0.321E-08
  50 F= 0.22626449E+03 E0= 0.22628554E+03  d E =0.628643E-08
quench:  g(F)=  0.000E+00 g(S)=  0.000E+00 dE (1.order)= 0.000E+00
 bond charge predicted
       N       E                     dE             d eps       ncg     rms          rms(c)
DAV:   1     0.226264489917E+03   -0.23283E-09   -0.46626E-11   225   0.586E-08    0.387E-07
RMM:   2     0.226264489913E+03   -0.41910E-08    0.98875-153     2   0.684E-08
  51 F= 0.22626449E+03 E0= 0.22628554E+03  d E =-.558794E-08
quench:  g(F)=  0.000E+00 g(S)=  0.000E+00 dE (1.order)= 0.000E+00
 bond charge predicted
       N       E                     dE             d eps       ncg     rms          rms(c)
DAV:   1     0.226264489917E+03    0.00000E+00   -0.47282E-11   225   0.144E-07    0.127E-07
RMM:   2     0.226264489916E+03   -0.16298E-08    0.14782-152     2   0.274E-08
  52 F= 0.22626449E+03 E0= 0.22628554E+03  d E =0.256114E-08
quench:  g(F)=  0.000E+00 g(S)=  0.000E+00 dE (1.order)= 0.000E+00
 bond charge predicted
       N       E                     dE             d eps       ncg     rms          rms(c)
DAV:   1     0.226264489916E+03   -0.93132E-09   -0.10954E-10   225   0.454E-08    0.165E-07
RMM:   2     0.226264489912E+03   -0.41910E-08    0.15659-152     2   0.229E-08
  53 F= 0.22626449E+03 E0= 0.22628554E+03  d E =-.349246E-08
quench:  g(F)=  0.000E+00 g(S)=  0.000E+00 dE (1.order)= 0.000E+00
 bond charge predicted
       N       E                     dE             d eps       ncg     rms          rms(c)
DAV:   1     0.226264489914E+03   -0.27940E-08   -0.37063E-11   225   0.441E-08    0.512E-07
RMM:   2     0.226264489915E+03    0.13970E-08    0.53075-153     2   0.200E-08
  54 F= 0.22626449E+03 E0= 0.22628554E+03  d E =0.279397E-08
quench:  g(F)=  0.000E+00 g(S)=  0.000E+00 dE (1.order)= 0.000E+00
 bond charge predicted
       N       E                     dE             d eps       ncg     rms          rms(c)
DAV:   1     0.226264489917E+03    0.34925E-08   -0.19126E-10   216   0.879E-08    0.716E-07
RMM:   2     0.226264489914E+03   -0.30268E-08    0.88036-153     1   0.102E-07
  55 F= 0.22626449E+03 E0= 0.22628554E+03  d E =-.931323E-09
quench:  g(F)=  0.000E+00 g(S)=  0.000E+00 dE (1.order)= 0.000E+00
 bond charge predicted
       N       E                     dE             d eps       ncg     rms          rms(c)
DAV:   1     0.226264489913E+03   -0.44238E-08    0.45288E-11   198   0.249E-07    0.196E-07
RMM:   2     0.226264489914E+03    0.13970E-08    0.72679-153     1   0.327E-08
  56 F= 0.22626449E+03 E0= 0.22628554E+03  d E =0.000000E+00
quench:  g(F)=  0.000E+00 g(S)=  0.000E+00 dE (1.order)= 0.000E+00
 bond charge predicted
       N       E                     dE             d eps       ncg     rms          rms(c)
DAV:   1     0.226264489913E+03    0.46566E-09   -0.14664E-11   198   0.549E-08    0.217E-07
RMM:   2     0.226264489913E+03    0.00000E+00    0.57367-153     1   0.302E-08
  57 F= 0.22626449E+03 E0= 0.22628554E+03  d E =-.931323E-09
quench:  g(F)=  0.000E+00 g(S)=  0.000E+00 dE (1.order)= 0.000E+00
 bond charge predicted
       N       E                     dE             d eps       ncg     rms          rms(c)
DAV:   1     0.226264489915E+03    0.18626E-08   -0.24314E-10   198   0.651E-08    0.442E-07
RMM:   2     0.226264489913E+03   -0.23283E-08    0.76237-153     1   0.290E-08
  58 F= 0.22626449E+03 E0= 0.22628554E+03  d E =-.465661E-09
quench:  g(F)=  0.000E+00 g(S)=  0.000E+00 dE (1.order)= 0.000E+00
 bond charge predicted
       N       E                     dE             d eps       ncg     rms          rms(c)
DAV:   1     0.226264489913E+03   -0.16298E-08    0.74253E-12   225   0.577E-08    0.203E-07
RMM:   2     0.226264489913E+03   -0.46566E-09    0.12971-152     2   0.278E-08
  59 F= 0.22626449E+03 E0= 0.22628554E+03  d E =0.232831E-09
quench:  g(F)=  0.000E+00 g(S)=  0.000E+00 dE (1.order)= 0.000E+00
 bond charge predicted
       N       E                     dE             d eps       ncg     rms          rms(c)
DAV:   1     0.226264489912E+03   -0.93132E-09   -0.24693E-10   216   0.549E-08    0.204E-07
RMM:   2     0.226264489914E+03    0.16298E-08    0.12943-153     1   0.327E-08
  60 F= 0.22626449E+03 E0= 0.22628554E+03  d E =0.116415E-08
quench:  g(F)=  0.000E+00 g(S)=  0.000E+00 dE (1.order)= 0.000E+00
 bond charge predicted
       N       E                     dE             d eps       ncg     rms          rms(c)
DAV:   1     0.226264489917E+03    0.46566E-08   -0.14346E-10   198   0.625E-08    0.398E-07
RMM:   2     0.226264489912E+03   -0.48894E-08    0.67914-154     1   0.221E-08
  61 F= 0.22626449E+03 E0= 0.22628554E+03  d E =-.186265E-08
quench:  g(F)=  0.000E+00 g(S)=  0.000E+00 dE (1.order)= 0.000E+00
 bond charge predicted
       N       E                     dE             d eps       ncg     rms          rms(c)
DAV:   1     0.226264489915E+03   -0.20955E-08    0.54871E-11   198   0.523E-08    0.317E-07
RMM:   2     0.226264489914E+03   -0.46566E-09    0.38627-154     1   0.501E-08
  62 F= 0.22626449E+03 E0= 0.22628554E+03  d E =0.232831E-08
quench:  g(F)=  0.000E+00 g(S)=  0.000E+00 dE (1.order)= 0.000E+00
 bond charge predicted
       N       E                     dE             d eps       ncg     rms          rms(c)
DAV:   1     0.226264489914E+03   -0.11642E-08   -0.22243E-10   198   0.110E-07    0.819E-08
RMM:   2     0.226264489914E+03    0.00000E+00    0.43579-154     1   0.212E-08
  63 F= 0.22626449E+03 E0= 0.22628554E+03  d E =-.698492E-09
quench:  g(F)=  0.000E+00 g(S)=  0.000E+00 dE (1.order)= 0.000E+00
 bond charge predicted
       N       E                     dE             d eps       ncg     rms          rms(c)
DAV:   1     0.226264489913E+03   -0.11642E-08    0.31434E-11   198   0.235E-08    0.453E-07
RMM:   2     0.226264489915E+03    0.23283E-08    0.00000E+00     0   0.157E-08
  64 F= 0.22626449E+03 E0= 0.22628554E+03  d E =0.116415E-08
quench:  g(F)=  0.000E+00 g(S)=  0.000E+00 dE (1.order)= 0.000E+00
 bond charge predicted
       N       E                     dE             d eps       ncg     rms          rms(c)
DAV:   1     0.226264489915E+03    0.25611E-08   -0.24046E-10   198   0.397E-08    0.330E-07
RMM:   2     0.226264489914E+03   -0.13970E-08    0.43552-154     1   0.491E-08
  65 F= 0.22626449E+03 E0= 0.22628554E+03  d E =-.116415E-08
quench:  g(F)=  0.000E+00 g(S)=  0.000E+00 dE (1.order)= 0.000E+00
 bond charge predicted
       N       E                     dE             d eps       ncg     rms          rms(c)
DAV:   1     0.226264489917E+03    0.18626E-08   -0.95728E-11   198   0.111E-07    0.109E-07
RMM:   2     0.226264489913E+03   -0.41910E-08    0.00000E+00     0   0.191E-08
  66 F= 0.22626449E+03 E0= 0.22628554E+03  d E =-.931323E-09
quench:  g(F)=  0.000E+00 g(S)=  0.000E+00 dE (1.order)= 0.000E+00
 bond charge predicted
       N       E                     dE             d eps       ncg     rms          rms(c)
DAV:   1     0.226264489916E+03   -0.69849E-09   -0.16458E-10   198   0.249E-08    0.157E-07
RMM:   2     0.226264489915E+03   -0.13970E-08    0.36735-154     1   0.198E-08
  67 F= 0.22626449E+03 E0= 0.22628554E+03  d E =0.209548E-08
quench:  g(F)=  0.000E+00 g(S)=  0.000E+00 dE (1.order)= 0.000E+00
 bond charge predicted
       N       E                     dE             d eps       ncg     rms          rms(c)
DAV:   1     0.226264489916E+03   -0.46566E-09   -0.21761E-10   198   0.425E-08    0.166E-07
RMM:   2     0.226264489916E+03    0.23283E-09    0.00000E+00     0   0.134E-08
  68 F= 0.22626449E+03 E0= 0.22628554E+03  d E =0.116415E-08
quench:  g(F)=  0.000E+00 g(S)=  0.000E+00 dE (1.order)= 0.000E+00
 bond charge predicted
       N       E                     dE             d eps       ncg     rms          rms(c)
DAV:   1     0.226264489918E+03    0.20955E-08   -0.38568E-10   198   0.331E-08    0.365E-07
RMM:   2     0.226264489918E+03   -0.23283E-09    0.27197-154     1   0.326E-08
  69 F= 0.22626449E+03 E0= 0.22628554E+03  d E =0.162981E-08
quench:  g(F)=  0.000E+00 g(S)=  0.000E+00 dE (1.order)= 0.000E+00
 bond charge predicted
       N       E                     dE             d eps       ncg     rms          rms(c)
DAV:   1     0.226264489913E+03   -0.46566E-08    0.34197E-11   198   0.984E-08    0.377E-07
RMM:   2     0.226264489916E+03    0.30268E-08    0.00000E+00     0   0.456E-08
  70 F= 0.22626449E+03 E0= 0.22628554E+03  d E =-.139698E-08
quench:  g(F)=  0.000E+00 g(S)=  0.000E+00 dE (1.order)= 0.000E+00
 bond charge predicted
       N       E                     dE             d eps       ncg     rms          rms(c)
DAV:   1     0.226264489914E+03    0.93132E-09    0.19113E-10   198   0.120E-07    0.195E-07
RMM:   2     0.226264489915E+03    0.11642E-08    0.00000E+00     0   0.311E-08
  71 F= 0.22626449E+03 E0= 0.22628554E+03  d E =-.931323E-09
quench:  g(F)=  0.000E+00 g(S)=  0.000E+00 dE (1.order)= 0.000E+00
 bond charge predicted
       N       E                     dE             d eps       ncg     rms          rms(c)
DAV:   1     0.226264489913E+03   -0.93132E-09    0.12155E-10   198   0.693E-08    0.108E-07
RMM:   2     0.226264489916E+03    0.25611E-08    0.00000E+00     0   0.141E-08
  72 F= 0.22626449E+03 E0= 0.22628554E+03  d E =0.465661E-09
quench:  g(F)=  0.000E+00 g(S)=  0.000E+00 dE (1.order)= 0.000E+00
 bond charge predicted
       N       E                     dE             d eps       ncg     rms          rms(c)
DAV:   1     0.226264489914E+03    0.93132E-09   -0.25279E-10   198   0.192E-08    0.267E-07
RMM:   2     0.226264489916E+03    0.16298E-08    0.00000E+00     0   0.108E-08
  73 F= 0.22626449E+03 E0= 0.22628554E+03  d E =0.000000E+00
quench:  g(F)=  0.000E+00 g(S)=  0.000E+00 dE (1.order)= 0.000E+00
 bond charge predicted
       N       E                     dE             d eps       ncg     rms          rms(c)
DAV:   1     0.226264489917E+03    0.23283E-08   -0.71677E-11   198   0.393E-08    0.293E-07
RMM:   2     0.226264489917E+03    0.93132E-09    0.00000E+00     0   0.428E-08
  74 F= 0.22626449E+03 E0= 0.22628554E+03  d E =0.162981E-08
quench:  g(F)=  0.000E+00 g(S)=  0.000E+00 dE (1.order)= 0.000E+00
 bond charge predicted
       N       E                     dE             d eps       ncg     rms          rms(c)
DAV:   1     0.226264489913E+03   -0.39581E-08    0.90242E-11   198   0.995E-08    0.703E-08
RMM:   2     0.226264489920E+03    0.72177E-08    0.00000E+00     0   0.134E-08
  75 F= 0.22626449E+03 E0= 0.22628554E+03  d E =0.232831E-08
quench:  g(F)=  0.000E+00 g(S)=  0.000E+00 dE (1.order)= 0.000E+00
 bond charge predicted
       N       E                     dE             d eps       ncg     rms          rms(c)
DAV:   1     0.226264489919E+03    0.60536E-08   -0.15317E-11   198   0.209E-08    0.722E-07
RMM:   2     0.226264489918E+03   -0.93132E-09    0.00000E+00     0   0.126E-08
  76 F= 0.22626449E+03 E0= 0.22628554E+03  d E =-.209548E-08
quench:  g(F)=  0.000E+00 g(S)=  0.000E+00 dE (1.order)= 0.000E+00
 bond charge predicted
       N       E                     dE             d eps       ncg     rms          rms(c)
DAV:   1     0.226264489914E+03   -0.44238E-08    0.45903E-11   198   0.119E-07    0.989E-07
RMM:   2     0.226264489911E+03   -0.30268E-08    0.00000E+00     0   0.143E-07
  77 F= 0.22626449E+03 E0= 0.22628554E+03  d E =-.651926E-08
quench:  g(F)=  0.000E+00 g(S)=  0.000E+00 dE (1.order)= 0.000E+00
 bond charge predicted
       N       E                     dE             d eps       ncg     rms          rms(c)
DAV:   1     0.226264489914E+03   -0.23283E-09   -0.22464E-10   198   0.349E-07    0.113E-07
RMM:   2     0.226264489914E+03    0.23283E-09    0.00000E+00     0   0.316E-08
  78 F= 0.22626449E+03 E0= 0.22628554E+03  d E =0.302680E-08
quench:  g(F)=  0.000E+00 g(S)=  0.000E+00 dE (1.order)= 0.000E+00
 bond charge predicted
       N       E                     dE             d eps       ncg     rms          rms(c)
DAV:   1     0.226264489913E+03   -0.93132E-09    0.56633E-11   198   0.426E-08    0.263E-07
RMM:   2     0.226264489913E+03    0.23283E-09    0.00000E+00     0   0.153E-08
  79 F= 0.22626449E+03 E0= 0.22628554E+03  d E =-.931323E-09
quench:  g(F)=  0.000E+00 g(S)=  0.000E+00 dE (1.order)= 0.000E+00
 bond charge predicted
       N       E                     dE             d eps       ncg     rms          rms(c)
DAV:   1     0.226264489911E+03   -0.16298E-08   -0.10252E-10   198   0.455E-08    0.621E-07
RMM:   2     0.226264489918E+03    0.69849E-08    0.00000E+00     0   0.548E-08
  80 F= 0.22626449E+03 E0= 0.22628554E+03  d E =0.512227E-08
quench:  g(F)=  0.000E+00 g(S)=  0.000E+00 dE (1.order)= 0.000E+00
 bond charge predicted
       N       E                     dE             d eps       ncg     rms          rms(c)
DAV:   1     0.226264489917E+03    0.53551E-08   -0.30820E-10   198   0.163E-07    0.515E-07
RMM:   2     0.226264489911E+03   -0.55879E-08    0.00000E+00     0   0.650E-08
  81 F= 0.22626449E+03 E0= 0.22628554E+03  d E =-.721775E-08
quench:  g(F)=  0.000E+00 g(S)=  0.000E+00 dE (1.order)= 0.000E+00
 bond charge predicted
       N       E                     dE             d eps       ncg     rms          rms(c)
DAV:   1     0.226264489917E+03    0.46566E-09    0.13156E-10   198   0.164E-07    0.237E-07
RMM:   2     0.226264489915E+03   -0.25611E-08    0.00000E+00     0   0.376E-08
  82 F= 0.22626449E+03 E0= 0.22628554E+03  d E =0.349246E-08
quench:  g(F)=  0.000E+00 g(S)=  0.000E+00 dE (1.order)= 0.000E+00
 bond charge predicted
       N       E                     dE             d eps       ncg     rms          rms(c)
DAV:   1     0.226264489913E+03   -0.41910E-08    0.30138E-11   198   0.825E-08    0.207E-07
RMM:   2     0.226264489916E+03    0.27940E-08    0.00000E+00     0   0.182E-08
  83 F= 0.22626449E+03 E0= 0.22628554E+03  d E =0.116415E-08
quench:  g(F)=  0.000E+00 g(S)=  0.000E+00 dE (1.order)= 0.000E+00
 bond charge predicted
       N       E                     dE             d eps       ncg     rms          rms(c)
DAV:   1     0.226264489914E+03    0.46566E-09   -0.29754E-10   198   0.330E-08    0.310E-07
RMM:   2     0.226264489913E+03   -0.93132E-09    0.00000E+00     0   0.297E-08
  84 F= 0.22626449E+03 E0= 0.22628554E+03  d E =-.325963E-08
quench:  g(F)=  0.000E+00 g(S)=  0.000E+00 dE (1.order)= 0.000E+00
 bond charge predicted
       N       E                     dE             d eps       ncg     rms          rms(c)
DAV:   1     0.226264489914E+03    0.93132E-09    0.40204E-11   198   0.774E-08    0.328E-07
RMM:   2     0.226264489915E+03    0.46566E-09    0.00000E+00     0   0.373E-08
  85 F= 0.22626449E+03 E0= 0.22628554E+03  d E =0.232831E-08
quench:  g(F)=  0.000E+00 g(S)=  0.000E+00 dE (1.order)= 0.000E+00
 bond charge predicted
       N       E                     dE             d eps       ncg     rms          rms(c)
DAV:   1     0.226264489918E+03    0.32596E-08    0.11205E-10   198   0.968E-08    0.189E-07
RMM:   2     0.226264489911E+03   -0.65193E-08    0.00000E+00     0   0.310E-08
  86 F= 0.22626449E+03 E0= 0.22628554E+03  d E =-.372529E-08
quench:  g(F)=  0.000E+00 g(S)=  0.000E+00 dE (1.order)= 0.000E+00
 bond charge predicted
       N       E                     dE             d eps       ncg     rms          rms(c)
DAV:   1     0.226264489914E+03   -0.39581E-08    0.17291E-10   198   0.665E-08    0.106E-07
RMM:   2     0.226264489914E+03   -0.23283E-09    0.00000E+00     0   0.141E-08
  87 F= 0.22626449E+03 E0= 0.22628554E+03  d E =0.232831E-08
quench:  g(F)=  0.000E+00 g(S)=  0.000E+00 dE (1.order)= 0.000E+00
 bond charge predicted
       N       E                     dE             d eps       ncg     rms          rms(c)
DAV:   1     0.226264489916E+03    0.23283E-08   -0.13223E-10   198   0.195E-08    0.235E-07
RMM:   2     0.226264489915E+03   -0.13970E-08    0.00000E+00     0   0.177E-08
  88 F= 0.22626449E+03 E0= 0.22628554E+03  d E =0.116415E-08
quench:  g(F)=  0.000E+00 g(S)=  0.000E+00 dE (1.order)= 0.000E+00
 bond charge predicted
       N       E                     dE             d eps       ncg     rms          rms(c)
DAV:   1     0.226264489919E+03    0.27940E-08   -0.87091E-11   198   0.184E-08    0.902E-07
RMM:   2     0.226264489917E+03   -0.13970E-08    0.00000E+00     0   0.515E-08
  89 F= 0.22626449E+03 E0= 0.22628554E+03  d E =0.279397E-08
quench:  g(F)=  0.000E+00 g(S)=  0.000E+00 dE (1.order)= 0.000E+00
 bond charge predicted
       N       E                     dE             d eps       ncg     rms          rms(c)
DAV:   1     0.226264489915E+03   -0.37253E-08   -0.24730E-10   198   0.197E-07    0.111E-06
RMM:   2     0.226264489917E+03    0.16298E-08    0.00000E+00     0   0.156E-07
  90 F= 0.22626449E+03 E0= 0.22628554E+03  d E =-.698492E-09
quench:  g(F)=  0.000E+00 g(S)=  0.000E+00 dE (1.order)= 0.000E+00
 bond charge predicted
       N       E                     dE             d eps       ncg     rms          rms(c)
DAV:   1     0.226264489914E+03   -0.69849E-09   -0.20889E-10   198   0.381E-07    0.226E-07
RMM:   2     0.226264489914E+03   -0.46566E-09    0.00000E+00     0   0.449E-08
  91 F= 0.22626449E+03 E0= 0.22628554E+03  d E =-.279397E-08
quench:  g(F)=  0.000E+00 g(S)=  0.000E+00 dE (1.order)= 0.000E+00
 bond charge predicted
       N       E                     dE             d eps       ncg     rms          rms(c)
DAV:   1     0.226264489916E+03    0.16298E-08   -0.13819E-10   198   0.789E-08    0.193E-07
RMM:   2     0.226264489913E+03   -0.32596E-08    0.00000E+00     0   0.192E-08
  92 F= 0.22626449E+03 E0= 0.22628554E+03  d E =-.116415E-08
quench:  g(F)=  0.000E+00 g(S)=  0.000E+00 dE (1.order)= 0.000E+00
 bond charge predicted
       N       E                     dE             d eps       ncg     rms          rms(c)
DAV:   1     0.226264489916E+03   -0.23283E-09   -0.35991E-10   198   0.478E-08    0.239E-07
RMM:   2     0.226264489915E+03   -0.11642E-08    0.00000E+00     0   0.337E-08
  93 F= 0.22626449E+03 E0= 0.22628554E+03  d E =0.186265E-08
quench:  g(F)=  0.000E+00 g(S)=  0.000E+00 dE (1.order)= 0.000E+00
 bond charge predicted
       N       E                     dE             d eps       ncg     rms          rms(c)
DAV:   1     0.226264489916E+03    0.23283E-09    0.28047E-11   198   0.845E-08    0.105E-07
RMM:   2     0.226264489916E+03    0.23283E-09    0.00000E+00     0   0.101E-08
  94 F= 0.22626449E+03 E0= 0.22628554E+03  d E =0.162981E-08
quench:  g(F)=  0.000E+00 g(S)=  0.000E+00 dE (1.order)= 0.000E+00
 bond charge predicted
       N       E                     dE             d eps       ncg     rms          rms(c)
DAV:   1     0.226264489913E+03   -0.32596E-08    0.73540E-11   198   0.243E-08    0.574E-07
RMM:   2     0.226264489915E+03    0.23283E-08    0.00000E+00     0   0.179E-08
  95 F= 0.22626449E+03 E0= 0.22628554E+03  d E =-.116415E-08
quench:  g(F)=  0.000E+00 g(S)=  0.000E+00 dE (1.order)= 0.000E+00
 bond charge predicted
       N       E                     dE             d eps       ncg     rms          rms(c)
DAV:   1     0.226264489919E+03    0.58208E-08   -0.21620E-11   198   0.108E-07    0.705E-07
RMM:   2     0.226264489915E+03   -0.32596E-08    0.00000E+00     0   0.100E-07
  96 F= 0.22626449E+03 E0= 0.22628554E+03  d E =0.232831E-09
quench:  g(F)=  0.000E+00 g(S)=  0.000E+00 dE (1.order)= 0.000E+00
 bond charge predicted
       N       E                     dE             d eps       ncg     rms          rms(c)
DAV:   1     0.226264489918E+03   -0.69849E-09   -0.69120E-11   198   0.248E-07    0.571E-08
RMM:   2     0.226264489912E+03   -0.55879E-08    0.00000E+00     0   0.173E-08
  97 F= 0.22626449E+03 E0= 0.22628554E+03  d E =-.302680E-08
quench:  g(F)=  0.000E+00 g(S)=  0.000E+00 dE (1.order)= 0.000E+00
 bond charge predicted
       N       E                     dE             d eps       ncg     rms          rms(c)
DAV:   1     0.226264489915E+03   -0.27940E-08   -0.16694E-10   198   0.198E-08    0.796E-08
RMM:   2     0.226264489913E+03   -0.20955E-08    0.00000E+00     0   0.141E-08
  98 F= 0.22626449E+03 E0= 0.22628554E+03  d E =0.698492E-09
quench:  g(F)=  0.000E+00 g(S)=  0.000E+00 dE (1.order)= 0.000E+00
 bond charge predicted
       N       E                     dE             d eps       ncg     rms          rms(c)
DAV:   1     0.226264489916E+03    0.93132E-09   -0.16043E-10   198   0.284E-08    0.374E-07
RMM:   2     0.226264489917E+03    0.11642E-08    0.00000E+00     0   0.904E-09
  99 F= 0.22626449E+03 E0= 0.22628554E+03  d E =0.419095E-08
quench:  g(F)=  0.000E+00 g(S)=  0.000E+00 dE (1.order)= 0.000E+00
 bond charge predicted
       N       E                     dE             d eps       ncg     rms          rms(c)
DAV:   1     0.226264489916E+03   -0.46566E-09   -0.42033E-10   198   0.618E-08    0.485E-07
RMM:   2     0.226264489913E+03   -0.27940E-08    0.00000E+00     0   0.737E-08
 100 F= 0.22626449E+03 E0= 0.22628554E+03  d E =-.442378E-08
quench:  g(F)=  0.000E+00 g(S)=  0.000E+00 dE (1.order)= 0.000E+00
 bond charge predicted
       N       E                     dE             d eps       ncg     rms          rms(c)
DAV:   1     0.226264489917E+03    0.18626E-08    0.12544E-11   198   0.164E-07    0.149E-07
RMM:   2     0.226264489914E+03   -0.32596E-08    0.00000E+00     0   0.204E-08
 101 F= 0.22626449E+03 E0= 0.22628554E+03  d E =0.139698E-08
quench:  g(F)=  0.000E+00 g(S)=  0.000E+00 dE (1.order)= 0.000E+00
 bond charge predicted
       N       E                     dE             d eps       ncg     rms          rms(c)
DAV:   1     0.226264489915E+03   -0.23283E-08   -0.13854E-10   198   0.527E-08    0.187E-07
RMM:   2     0.226264489916E+03    0.93132E-09    0.00000E+00     0   0.128E-08
 102 F= 0.22626449E+03 E0= 0.22628554E+03  d E =0.186265E-08
quench:  g(F)=  0.000E+00 g(S)=  0.000E+00 dE (1.order)= 0.000E+00
 bond charge predicted
       N       E                     dE             d eps       ncg     rms          rms(c)
DAV:   1     0.226264489910E+03   -0.48894E-08    0.99894E-11   198   0.367E-08    0.174E-07
RMM:   2     0.226264489916E+03    0.53551E-08    0.00000E+00     0   0.148E-08
 103 F= 0.22626449E+03 E0= 0.22628554E+03  d E =-.465661E-09
quench:  g(F)=  0.000E+00 g(S)=  0.000E+00 dE (1.order)= 0.000E+00
 bond charge predicted
       N       E                     dE             d eps       ncg     rms          rms(c)
DAV:   1     0.226264489916E+03    0.58208E-08   -0.17159E-10   198   0.466E-08    0.314E-07
RMM:   2     0.226264489915E+03   -0.69849E-09    0.00000E+00     0   0.222E-08
 104 F= 0.22626449E+03 E0= 0.22628554E+03  d E =-.232831E-09
quench:  g(F)=  0.000E+00 g(S)=  0.000E+00 dE (1.order)= 0.000E+00
 bond charge predicted
       N       E                     dE             d eps       ncg     rms          rms(c)
DAV:   1     0.226264489913E+03   -0.30268E-08   -0.11090E-10   198   0.518E-08    0.677E-08
RMM:   2     0.226264489915E+03    0.16298E-08    0.00000E+00     0   0.923E-09
 105 F= 0.22626449E+03 E0= 0.22628554E+03  d E =-.698492E-09
quench:  g(F)=  0.000E+00 g(S)=  0.000E+00 dE (1.order)= 0.000E+00
 bond charge predicted
       N       E                     dE             d eps       ncg     rms          rms(c)
DAV:   1     0.226264489917E+03    0.39581E-08   -0.86670E-11   198   0.111E-08    0.264E-07
RMM:   2     0.226264489918E+03    0.11642E-08    0.00000E+00     0   0.767E-09
 106 F= 0.22626449E+03 E0= 0.22628554E+03  d E =0.349246E-08
quench:  g(F)=  0.000E+00 g(S)=  0.000E+00 dE (1.order)= 0.000E+00
 bond charge predicted
       N       E                     dE             d eps       ncg     rms          rms(c)
DAV:   1     0.226264489916E+03   -0.69849E-09    0.35014E-11   198   0.434E-08    0.369E-07
RMM:   2     0.226264489915E+03   -0.16298E-08    0.00000E+00     0   0.510E-08
 107 F= 0.22626449E+03 E0= 0.22628554E+03  d E =-.349246E-08
quench:  g(F)=  0.000E+00 g(S)=  0.000E+00 dE (1.order)= 0.000E+00
 bond charge predicted
       N       E                     dE             d eps       ncg     rms          rms(c)
DAV:   1     0.226264489915E+03   -0.16298E-08   -0.17719E-10   198   0.122E-07    0.237E-07
RMM:   2     0.226264489913E+03   -0.13970E-08    0.00000E+00     0   0.130E-08
 108 F= 0.22626449E+03 E0= 0.22628554E+03  d E =-.139698E-08
quench:  g(F)=  0.000E+00 g(S)=  0.000E+00 dE (1.order)= 0.000E+00
 bond charge predicted
       N       E                     dE             d eps       ncg     rms          rms(c)
DAV:   1     0.226264489916E+03    0.11642E-08   -0.30297E-10   198   0.314E-08    0.216E-07
RMM:   2     0.226264489912E+03   -0.41910E-08    0.00000E+00     0   0.426E-08
 109 F= 0.22626449E+03 E0= 0.22628554E+03  d E =-.162981E-08
quench:  g(F)=  0.000E+00 g(S)=  0.000E+00 dE (1.order)= 0.000E+00
 bond charge predicted
       N       E                     dE             d eps       ncg     rms          rms(c)
DAV:   1     0.226264489916E+03   -0.23283E-09   -0.12705E-10   198   0.821E-08    0.274E-07
RMM:   2     0.226264489914E+03   -0.13970E-08    0.00000E+00     0   0.270E-08
 110 F= 0.22626449E+03 E0= 0.22628554E+03  d E =0.256114E-08
quench:  g(F)=  0.000E+00 g(S)=  0.000E+00 dE (1.order)= 0.000E+00
 bond charge predicted
       N       E                     dE             d eps       ncg     rms          rms(c)
DAV:   1     0.226264489913E+03   -0.23283E-08    0.74609E-11   198   0.800E-08    0.223E-07
RMM:   2     0.226264489914E+03    0.23283E-09    0.00000E+00     0   0.326E-08
 111 F= 0.22626449E+03 E0= 0.22628554E+03  d E =-.698492E-09
quench:  g(F)=  0.000E+00 g(S)=  0.000E+00 dE (1.order)= 0.000E+00
 bond charge predicted
       N       E                     dE             d eps       ncg     rms          rms(c)
DAV:   1     0.226264489917E+03    0.32596E-08   -0.11959E-10   198   0.702E-08    0.972E-08
RMM:   2     0.226264489915E+03   -0.18626E-08    0.00000E+00     0   0.129E-08
 112 F= 0.22626449E+03 E0= 0.22628554E+03  d E =0.116415E-08
quench:  g(F)=  0.000E+00 g(S)=  0.000E+00 dE (1.order)= 0.000E+00
 bond charge predicted
       N       E                     dE             d eps       ncg     rms          rms(c)
DAV:   1     0.226264489915E+03   -0.16298E-08   -0.56918E-11   198   0.317E-08    0.168E-07
RMM:   2     0.226264489915E+03    0.46566E-09    0.00000E+00     0   0.114E-08
 113 F= 0.22626449E+03 E0= 0.22628554E+03  d E =0.698492E-09
quench:  g(F)=  0.000E+00 g(S)=  0.000E+00 dE (1.order)= 0.000E+00
 bond charge predicted
       N       E                     dE             d eps       ncg     rms          rms(c)
DAV:   1     0.226264489915E+03    0.46566E-09   -0.33867E-11   198   0.236E-08    0.459E-08
RMM:   2     0.226264489913E+03   -0.27940E-08    0.00000E+00     0   0.689E-09
 114 F= 0.22626449E+03 E0= 0.22628554E+03  d E =-.279397E-08
quench:  g(F)=  0.000E+00 g(S)=  0.000E+00 dE (1.order)= 0.000E+00
 bond charge predicted
       N       E                     dE             d eps       ncg     rms          rms(c)
DAV:   1     0.226264489914E+03   -0.18626E-08   -0.99093E-11   198   0.662E-09    0.163E-07
RMM:   2     0.226264489917E+03    0.30268E-08    0.00000E+00     0   0.897E-09
 115 F= 0.22626449E+03 E0= 0.22628554E+03  d E =0.395812E-08
quench:  g(F)=  0.000E+00 g(S)=  0.000E+00 dE (1.order)= 0.000E+00
 bond charge predicted
       N       E                     dE             d eps       ncg     rms          rms(c)
DAV:   1     0.226264489914E+03    0.93132E-09   -0.12716E-10   198   0.133E-08    0.159E-07
RMM:   2     0.226264489914E+03   -0.69849E-09    0.00000E+00     0   0.936E-09
 116 F= 0.22626449E+03 E0= 0.22628554E+03  d E =-.279397E-08
quench:  g(F)=  0.000E+00 g(S)=  0.000E+00 dE (1.order)= 0.000E+00
 bond charge predicted
       N       E                     dE             d eps       ncg     rms          rms(c)
DAV:   1     0.226264489918E+03    0.39581E-08   -0.20207E-10   198   0.331E-08    0.230E-07
RMM:   2     0.226264489914E+03   -0.41910E-08    0.00000E+00     0   0.324E-08
 117 F= 0.22626449E+03 E0= 0.22628554E+03  d E =0.465661E-09
quench:  g(F)=  0.000E+00 g(S)=  0.000E+00 dE (1.order)= 0.000E+00
 bond charge predicted
       N       E                     dE             d eps       ncg     rms          rms(c)
DAV:   1     0.226264489915E+03   -0.37253E-08   -0.54570E-11   198   0.752E-08    0.437E-08
RMM:   2     0.226264489915E+03    0.69849E-09    0.00000E+00     0   0.991E-09
 118 F= 0.22626449E+03 E0= 0.22628554E+03  d E =0.116415E-08
quench:  g(F)=  0.000E+00 g(S)=  0.000E+00 dE (1.order)= 0.000E+00
 bond charge predicted
       N       E                     dE             d eps       ncg     rms          rms(c)
DAV:   1     0.226264489913E+03   -0.13970E-08   -0.96203E-11   198   0.697E-09    0.213E-07
RMM:   2     0.226264489916E+03    0.27940E-08    0.00000E+00     0   0.628E-09
 119 F= 0.22626449E+03 E0= 0.22628554E+03  d E =0.698492E-09
quench:  g(F)=  0.000E+00 g(S)=  0.000E+00 dE (1.order)= 0.000E+00
 bond charge predicted
       N       E                     dE             d eps       ncg     rms          rms(c)
DAV:   1     0.226264489915E+03    0.16298E-08   -0.29282E-10   198   0.253E-08    0.235E-07
RMM:   2     0.226264489918E+03    0.27940E-08    0.00000E+00     0   0.340E-08
 120 F= 0.22626449E+03 E0= 0.22628554E+03  d E =0.162981E-08
quench:  g(F)=  0.000E+00 g(S)=  0.000E+00 dE (1.order)= 0.000E+00
 bond charge predicted
       N       E                     dE             d eps       ncg     rms          rms(c)
DAV:   1     0.226264489916E+03    0.13970E-08   -0.78364E-11   198   0.833E-08    0.830E-08
RMM:   2     0.226264489916E+03   -0.69849E-09    0.00000E+00     0   0.126E-08
 121 F= 0.22626449E+03 E0= 0.22628554E+03  d E =-.209548E-08
quench:  g(F)=  0.000E+00 g(S)=  0.000E+00 dE (1.order)= 0.000E+00
 bond charge predicted
       N       E                     dE             d eps       ncg     rms          rms(c)
DAV:   1     0.226264489916E+03   -0.69849E-09   -0.83998E-12   198   0.270E-08    0.492E-07
RMM:   2     0.226264489916E+03    0.00000E+00    0.00000E+00     0   0.127E-08
 122 F= 0.22626449E+03 E0= 0.22628554E+03  d E =0.000000E+00
quench:  g(F)=  0.000E+00 g(S)=  0.000E+00 dE (1.order)= 0.000E+00
 bond charge predicted
       N       E                     dE             d eps       ncg     rms          rms(c)
DAV:   1     0.226264489914E+03   -0.20955E-08   -0.61905E-11   198   0.826E-08    0.679E-07
RMM:   2     0.226264489914E+03    0.93132E-09    0.00000E+00     0   0.101E-07
 123 F= 0.22626449E+03 E0= 0.22628554E+03  d E =-.116415E-08
quench:  g(F)=  0.000E+00 g(S)=  0.000E+00 dE (1.order)= 0.000E+00
 bond charge predicted
       N       E                     dE             d eps       ncg     rms          rms(c)
DAV:   1     0.226264489915E+03    0.13970E-08   -0.14238E-10   198   0.229E-07    0.331E-07
RMM:   2     0.226264489915E+03   -0.23283E-09    0.00000E+00     0   0.254E-08
 124 F= 0.22626449E+03 E0= 0.22628554E+03  d E =0.232831E-09
quench:  g(F)=  0.000E+00 g(S)=  0.000E+00 dE (1.order)= 0.000E+00
 bond charge predicted
       N       E                     dE             d eps       ncg     rms          rms(c)
DAV:   1     0.226264489916E+03    0.13970E-08   -0.13119E-11   198   0.789E-08    0.289E-07
RMM:   2     0.226264489912E+03   -0.44238E-08    0.00000E+00     0   0.405E-08
 125 F= 0.22626449E+03 E0= 0.22628554E+03  d E =-.279397E-08
quench:  g(F)=  0.000E+00 g(S)=  0.000E+00 dE (1.order)= 0.000E+00
 bond charge predicted
       N       E                     dE             d eps       ncg     rms          rms(c)
DAV:   1     0.226264489919E+03    0.30268E-08    0.26733E-10   198   0.979E-08    0.404E-07
RMM:   2     0.226264489917E+03   -0.27940E-08    0.00000E+00     0   0.112E-08
 126 F= 0.22626449E+03 E0= 0.22628554E+03  d E =0.465661E-08
quench:  g(F)=  0.000E+00 g(S)=  0.000E+00 dE (1.order)= 0.000E+00
 bond charge predicted
       N       E                     dE             d eps       ncg     rms          rms(c)
DAV:   1     0.226264489914E+03   -0.53551E-08   -0.45491E-11   198   0.696E-08    0.777E-07
RMM:   2     0.226264489910E+03   -0.34925E-08    0.00000E+00     0   0.819E-08
 127 F= 0.22626449E+03 E0= 0.22628554E+03  d E =-.605360E-08
quench:  g(F)=  0.000E+00 g(S)=  0.000E+00 dE (1.order)= 0.000E+00
 bond charge predicted
       N       E                     dE             d eps       ncg     rms          rms(c)
DAV:   1     0.226264489916E+03    0.18626E-08    0.11530E-11   198   0.215E-07    0.552E-07
RMM:   2     0.226264489912E+03   -0.34925E-08    0.00000E+00     0   0.483E-08
 128 F= 0.22626449E+03 E0= 0.22628554E+03  d E =0.186265E-08
quench:  g(F)=  0.000E+00 g(S)=  0.000E+00 dE (1.order)= 0.000E+00
 bond charge predicted
       N       E                     dE             d eps       ncg     rms          rms(c)
DAV:   1     0.226264489911E+03   -0.51223E-08   -0.76415E-11   198   0.132E-07    0.500E-07
RMM:   2     0.226264489912E+03    0.13970E-08    0.00000E+00     0   0.623E-08
 129 F= 0.22626449E+03 E0= 0.22628554E+03  d E =-.232831E-09
quench:  g(F)=  0.000E+00 g(S)=  0.000E+00 dE (1.order)= 0.000E+00
 bond charge predicted
       N       E                     dE             d eps       ncg     rms          rms(c)
DAV:   1     0.226264489913E+03    0.20955E-08   -0.27684E-10   198   0.154E-07    0.208E-07
RMM:   2     0.226264489915E+03    0.18626E-08    0.00000E+00     0   0.367E-08
 130 F= 0.22626449E+03 E0= 0.22628554E+03  d E =0.256114E-08
quench:  g(F)=  0.000E+00 g(S)=  0.000E+00 dE (1.order)= 0.000E+00
 bond charge predicted
       N       E                     dE             d eps       ncg     rms          rms(c)
DAV:   1     0.226264489918E+03    0.48894E-08   -0.19852E-10   198   0.741E-08    0.350E-07
RMM:   2     0.226264489914E+03   -0.41910E-08    0.00000E+00     0   0.126E-08
 131 F= 0.22626449E+03 E0= 0.22628554E+03  d E =-.116415E-08
quench:  g(F)=  0.000E+00 g(S)=  0.000E+00 dE (1.order)= 0.000E+00
 bond charge predicted
       N       E                     dE             d eps       ncg     rms          rms(c)
DAV:   1     0.226264489918E+03    0.00000E+00   -0.25431E-10   198   0.562E-08    0.554E-07
RMM:   2     0.226264489917E+03   -0.93132E-09    0.00000E+00     0   0.775E-08
 132 F= 0.22626449E+03 E0= 0.22628554E+03  d E =0.325963E-08
quench:  g(F)=  0.000E+00 g(S)=  0.000E+00 dE (1.order)= 0.000E+00
 bond charge predicted
       N       E                     dE             d eps       ncg     rms          rms(c)
DAV:   1     0.226264489914E+03   -0.37253E-08   -0.42376E-11   198   0.185E-07    0.122E-07
RMM:   2     0.226264489915E+03    0.11642E-08    0.00000E+00     0   0.200E-08
 133 F= 0.22626449E+03 E0= 0.22628554E+03  d E =-.162981E-08
quench:  g(F)=  0.000E+00 g(S)=  0.000E+00 dE (1.order)= 0.000E+00
 bond charge predicted
       N       E                     dE             d eps       ncg     rms          rms(c)
DAV:   1     0.226264489914E+03    0.23283E-09   -0.32308E-10   198   0.296E-08    0.582E-08
RMM:   2     0.226264489914E+03   -0.69849E-09    0.00000E+00     0   0.170E-08
 134 F= 0.22626449E+03 E0= 0.22628554E+03  d E =-.162981E-08
quench:  g(F)=  0.000E+00 g(S)=  0.000E+00 dE (1.order)= 0.000E+00
 bond charge predicted
       N       E                     dE             d eps       ncg     rms          rms(c)
DAV:   1     0.226264489914E+03   -0.46566E-09   -0.16070E-10   198   0.248E-08    0.149E-07
RMM:   2     0.226264489920E+03    0.58208E-08    0.00000E+00     0   0.125E-08
 135 F= 0.22626449E+03 E0= 0.22628554E+03  d E =0.605360E-08
quench:  g(F)=  0.000E+00 g(S)=  0.000E+00 dE (1.order)= 0.000E+00
 bond charge predicted
       N       E                     dE             d eps       ncg     rms          rms(c)
DAV:   1     0.226264489914E+03    0.00000E+00   -0.15616E-10   198   0.323E-08    0.150E-07
RMM:   2     0.226264489909E+03   -0.46566E-08    0.00000E+00     0   0.272E-08
 136 F= 0.22626449E+03 E0= 0.22628554E+03  d E =-.104774E-07
quench:  g(F)=  0.000E+00 g(S)=  0.000E+00 dE (1.order)= 0.000E+00
 bond charge predicted
       N       E                     dE             d eps       ncg     rms          rms(c)
DAV:   1     0.226264489914E+03    0.23283E-09    0.38931E-11   198   0.455E-08    0.252E-07
RMM:   2     0.226264489914E+03    0.46566E-09    0.00000E+00     0   0.213E-08
 137 F= 0.22626449E+03 E0= 0.22628554E+03  d E =0.535510E-08
quench:  g(F)=  0.000E+00 g(S)=  0.000E+00 dE (1.order)= 0.000E+00
 bond charge predicted
       N       E                     dE             d eps       ncg     rms          rms(c)
DAV:   1     0.226264489916E+03    0.16298E-08   -0.39517E-11   198   0.622E-08    0.178E-07
RMM:   2     0.226264489914E+03   -0.16298E-08    0.00000E+00     0   0.312E-08
 138 F= 0.22626449E+03 E0= 0.22628554E+03  d E =-.465661E-09
quench:  g(F)=  0.000E+00 g(S)=  0.000E+00 dE (1.order)= 0.000E+00
 bond charge predicted
       N       E                     dE             d eps       ncg     rms          rms(c)
DAV:   1     0.226264489911E+03   -0.44238E-08   -0.56578E-11   198   0.669E-08    0.268E-07
RMM:   2     0.226264489916E+03    0.44238E-08    0.00000E+00     0   0.766E-09
 139 F= 0.22626449E+03 E0= 0.22628554E+03  d E =0.162981E-08
quench:  g(F)=  0.000E+00 g(S)=  0.000E+00 dE (1.order)= 0.000E+00
 bond charge predicted
       N       E                     dE             d eps       ncg     rms          rms(c)
DAV:   1     0.226264489917E+03    0.53551E-08   -0.18756E-10   198   0.474E-08    0.652E-07
RMM:   2     0.226264489914E+03   -0.20955E-08    0.00000E+00     0   0.578E-08
 140 F= 0.22626449E+03 E0= 0.22628554E+03  d E =-.116415E-08
quench:  g(F)=  0.000E+00 g(S)=  0.000E+00 dE (1.order)= 0.000E+00
 bond charge predicted
       N       E                     dE             d eps       ncg     rms          rms(c)
DAV:   1     0.226264489914E+03   -0.27940E-08   -0.28322E-10   198   0.170E-07    0.506E-07
RMM:   2     0.226264489912E+03   -0.18626E-08    0.00000E+00     0   0.582E-08
 141 F= 0.22626449E+03 E0= 0.22628554E+03  d E =-.256114E-08
quench:  g(F)=  0.000E+00 g(S)=  0.000E+00 dE (1.order)= 0.000E+00
 bond charge predicted
       N       E                     dE             d eps       ncg     rms          rms(c)
DAV:   1     0.226264489917E+03    0.27940E-08   -0.10696E-10   198   0.156E-07    0.368E-07
RMM:   2     0.226264489915E+03   -0.11642E-08    0.00000E+00     0   0.476E-08
 142 F= 0.22626449E+03 E0= 0.22628554E+03  d E =0.349246E-08
quench:  g(F)=  0.000E+00 g(S)=  0.000E+00 dE (1.order)= 0.000E+00
 bond charge predicted
       N       E                     dE             d eps       ncg     rms          rms(c)
DAV:   1     0.226264489918E+03    0.18626E-08   -0.71201E-11   198   0.118E-07    0.224E-07
RMM:   2     0.226264489914E+03   -0.44238E-08    0.00000E+00     0   0.304E-08
 143 F= 0.22626449E+03 E0= 0.22628554E+03  d E =-.139698E-08
quench:  g(F)=  0.000E+00 g(S)=  0.000E+00 dE (1.order)= 0.000E+00
 bond charge predicted
       N       E                     dE             d eps       ncg     rms          rms(c)
DAV:   1     0.226264489915E+03   -0.32596E-08    0.10779E-10   198   0.703E-08    0.136E-07
RMM:   2     0.226264489915E+03    0.00000E+00    0.00000E+00     0   0.222E-08
 144 F= 0.22626449E+03 E0= 0.22628554E+03  d E =0.116415E-08
quench:  g(F)=  0.000E+00 g(S)=  0.000E+00 dE (1.order)= 0.000E+00
 bond charge predicted
       N       E                     dE             d eps       ncg     rms          rms(c)
DAV:   1     0.226264489915E+03   -0.23283E-09   -0.75377E-11   198   0.376E-08    0.212E-07
RMM:   2     0.226264489917E+03    0.23283E-08    0.00000E+00     0   0.146E-08
 145 F= 0.22626449E+03 E0= 0.22628554E+03  d E =0.209548E-08
quench:  g(F)=  0.000E+00 g(S)=  0.000E+00 dE (1.order)= 0.000E+00
 bond charge predicted
       N       E                     dE             d eps       ncg     rms          rms(c)
DAV:   1     0.226264489916E+03    0.69849E-09   -0.23568E-10   198   0.471E-08    0.312E-07
RMM:   2     0.226264489915E+03   -0.46566E-09    0.00000E+00     0   0.404E-08
 146 F= 0.22626449E+03 E0= 0.22628554E+03  d E =-.209548E-08
quench:  g(F)=  0.000E+00 g(S)=  0.000E+00 dE (1.order)= 0.000E+00
 bond charge predicted
       N       E                     dE             d eps       ncg     rms          rms(c)
DAV:   1     0.226264489912E+03   -0.32596E-08    0.12710E-10   198   0.105E-07    0.198E-07
RMM:   2     0.226264489917E+03    0.48894E-08    0.00000E+00     0   0.188E-08
 147 F= 0.22626449E+03 E0= 0.22628554E+03  d E =0.209548E-08
quench:  g(F)=  0.000E+00 g(S)=  0.000E+00 dE (1.order)= 0.000E+00
 bond charge predicted
       N       E                     dE             d eps       ncg     rms          rms(c)
DAV:   1     0.226264489913E+03    0.93132E-09   -0.15458E-10   198   0.528E-08    0.320E-07
RMM:   2     0.226264489912E+03   -0.16298E-08    0.00000E+00     0   0.263E-08
 148 F= 0.22626449E+03 E0= 0.22628554E+03  d E =-.558794E-08
quench:  g(F)=  0.000E+00 g(S)=  0.000E+00 dE (1.order)= 0.000E+00
 bond charge predicted
       N       E                     dE             d eps       ncg     rms          rms(c)
DAV:   1     0.226264489915E+03    0.18626E-08   -0.35847E-11   198   0.761E-08    0.301E-07
RMM:   2     0.226264489915E+03   -0.23283E-09    0.00000E+00     0   0.349E-08
 149 F= 0.22626449E+03 E0= 0.22628554E+03  d E =0.325963E-08
quench:  g(F)=  0.000E+00 g(S)=  0.000E+00 dE (1.order)= 0.000E+00
 bond charge predicted
       N       E                     dE             d eps       ncg     rms          rms(c)
DAV:   1     0.226264489918E+03    0.27940E-08   -0.30733E-11   198   0.760E-08    0.604E-07
RMM:   2     0.226264489915E+03   -0.27940E-08    0.00000E+00     0   0.113E-08
 150 F= 0.22626449E+03 E0= 0.22628554E+03  d E =0.232831E-09
quench:  g(F)=  0.000E+00 g(S)=  0.000E+00 dE (1.order)= 0.000E+00
 bond charge predicted
       N       E                     dE             d eps       ncg     rms          rms(c)
DAV:   1     0.226264489917E+03   -0.69849E-09   -0.31581E-10   198   0.964E-08    0.837E-07
RMM:   2     0.226264489911E+03   -0.62864E-08    0.00000E+00     0   0.116E-07
 151 F= 0.22626449E+03 E0= 0.22628554E+03  d E =-.419095E-08
quench:  g(F)=  0.000E+00 g(S)=  0.000E+00 dE (1.order)= 0.000E+00
 bond charge predicted
       N       E                     dE             d eps       ncg     rms          rms(c)
DAV:   1     0.226264489914E+03   -0.32596E-08   -0.37593E-10   198   0.286E-07    0.156E-07
RMM:   2     0.226264489918E+03    0.44238E-08    0.00000E+00     0   0.304E-08
 152 F= 0.22626449E+03 E0= 0.22628554E+03  d E =0.745058E-08
quench:  g(F)=  0.000E+00 g(S)=  0.000E+00 dE (1.order)= 0.000E+00
 bond charge predicted
       N       E                     dE             d eps       ncg     rms          rms(c)
DAV:   1     0.226264489919E+03    0.48894E-08    0.14809E-10   198   0.445E-08    0.776E-08
RMM:   2     0.226264489913E+03   -0.58208E-08    0.00000E+00     0   0.176E-08
 153 F= 0.22626449E+03 E0= 0.22628554E+03  d E =-.535510E-08
quench:  g(F)=  0.000E+00 g(S)=  0.000E+00 dE (1.order)= 0.000E+00
 bond charge predicted
       N       E                     dE             d eps       ncg     rms          rms(c)
DAV:   1     0.226264489914E+03   -0.46566E-08   -0.12078E-10   198   0.306E-08    0.290E-07
RMM:   2     0.226264489915E+03    0.93132E-09    0.00000E+00     0   0.738E-09
 154 F= 0.22626449E+03 E0= 0.22628554E+03  d E =0.209548E-08
quench:  g(F)=  0.000E+00 g(S)=  0.000E+00 dE (1.order)= 0.000E+00
 bond charge predicted
       N       E                     dE             d eps       ncg     rms          rms(c)
DAV:   1     0.226264489914E+03    0.00000E+00    0.30810E-11   198   0.464E-08    0.384E-07
RMM:   2     0.226264489912E+03   -0.18626E-08    0.00000E+00     0   0.541E-08
 155 F= 0.22626449E+03 E0= 0.22628554E+03  d E =-.279397E-08
quench:  g(F)=  0.000E+00 g(S)=  0.000E+00 dE (1.order)= 0.000E+00
 bond charge predicted
       N       E                     dE             d eps       ncg     rms          rms(c)
DAV:   1     0.226264489915E+03    0.11642E-08    0.68413E-11   198   0.132E-07    0.118E-07
RMM:   2     0.226264489914E+03   -0.13970E-08    0.00000E+00     0   0.156E-08
 156 F= 0.22626449E+03 E0= 0.22628554E+03  d E =0.162981E-08
quench:  g(F)=  0.000E+00 g(S)=  0.000E+00 dE (1.order)= 0.000E+00
 bond charge predicted
       N       E                     dE             d eps       ncg     rms          rms(c)
DAV:   1     0.226264489917E+03    0.16298E-08    0.12030E-10   198   0.237E-08    0.375E-07
RMM:   2     0.226264489914E+03   -0.34925E-08    0.00000E+00     0   0.127E-08
 157 F= 0.22626449E+03 E0= 0.22628554E+03  d E =-.465661E-09
quench:  g(F)=  0.000E+00 g(S)=  0.000E+00 dE (1.order)= 0.000E+00
 bond charge predicted
       N       E                     dE             d eps       ncg     rms          rms(c)
DAV:   1     0.226264489914E+03   -0.30268E-08   -0.21643E-10   198   0.428E-08    0.805E-07
RMM:   2     0.226264489914E+03   -0.23283E-09    0.00000E+00     0   0.560E-08
 158 F= 0.22626449E+03 E0= 0.22628554E+03  d E =0.232831E-09
quench:  g(F)=  0.000E+00 g(S)=  0.000E+00 dE (1.order)= 0.000E+00
 bond charge predicted
       N       E                     dE             d eps       ncg     rms          rms(c)
DAV:   1     0.226264489913E+03   -0.11642E-08    0.17563E-11   198   0.172E-07    0.782E-07
RMM:   2     0.226264489917E+03    0.41910E-08    0.00000E+00     0   0.765E-08
 159 F= 0.22626449E+03 E0= 0.22628554E+03  d E =0.325963E-08
quench:  g(F)=  0.000E+00 g(S)=  0.000E+00 dE (1.order)= 0.000E+00
 bond charge predicted
       N       E                     dE             d eps       ncg     rms          rms(c)
DAV:   1     0.226264489914E+03    0.69849E-09    0.13387E-10   198   0.205E-07    0.454E-07
RMM:   2     0.226264489912E+03   -0.13970E-08    0.00000E+00     0   0.616E-08
 160 F= 0.22626449E+03 E0= 0.22628554E+03  d E =-.488944E-08
quench:  g(F)=  0.000E+00 g(S)=  0.000E+00 dE (1.order)= 0.000E+00
 bond charge predicted
       N       E                     dE             d eps       ncg     rms          rms(c)
DAV:   1     0.226264489913E+03   -0.23283E-09    0.78128E-11   198   0.142E-07    0.126E-07
RMM:   2     0.226264489913E+03   -0.23283E-09    0.00000E+00     0   0.203E-08
 161 F= 0.22626449E+03 E0= 0.22628554E+03  d E =0.931323E-09
quench:  g(F)=  0.000E+00 g(S)=  0.000E+00 dE (1.order)= 0.000E+00
 bond charge predicted
       N       E                     dE             d eps       ncg     rms          rms(c)
DAV:   1     0.226264489915E+03    0.18626E-08    0.13417E-10   198   0.309E-08    0.363E-07
RMM:   2     0.226264489915E+03    0.23283E-09    0.00000E+00     0   0.100E-08
 162 F= 0.22626449E+03 E0= 0.22628554E+03  d E =0.232831E-08
quench:  g(F)=  0.000E+00 g(S)=  0.000E+00 dE (1.order)= 0.000E+00
 bond charge predicted
       N       E                     dE             d eps       ncg     rms          rms(c)
DAV:   1     0.226264489914E+03   -0.69849E-09   -0.34389E-10   198   0.591E-08    0.406E-07
RMM:   2     0.226264489918E+03    0.32596E-08    0.00000E+00     0   0.710E-08
 163 F= 0.22626449E+03 E0= 0.22628554E+03  d E =0.232831E-08
quench:  g(F)=  0.000E+00 g(S)=  0.000E+00 dE (1.order)= 0.000E+00
 bond charge predicted
       N       E                     dE             d eps       ncg     rms          rms(c)
DAV:   1     0.226264489913E+03   -0.18626E-08    0.15046E-10   198   0.155E-07    0.319E-07
RMM:   2     0.226264489913E+03    0.46566E-09    0.00000E+00     0   0.234E-08
 164 F= 0.22626449E+03 E0= 0.22628554E+03  d E =-.465661E-08
quench:  g(F)=  0.000E+00 g(S)=  0.000E+00 dE (1.order)= 0.000E+00
 bond charge predicted
       N       E                     dE             d eps       ncg     rms          rms(c)
DAV:   1     0.226264489916E+03    0.32596E-08   -0.74301E-11   198   0.781E-08    0.271E-07
RMM:   2     0.226264489913E+03   -0.27940E-08    0.00000E+00     0   0.427E-08
 165 F= 0.22626449E+03 E0= 0.22628554E+03  d E =0.000000E+00
quench:  g(F)=  0.000E+00 g(S)=  0.000E+00 dE (1.order)= 0.000E+00
 bond charge predicted
       N       E                     dE             d eps       ncg     rms          rms(c)
DAV:   1     0.226264489915E+03   -0.11642E-08    0.13357E-10   198   0.100E-07    0.553E-08
RMM:   2     0.226264489912E+03   -0.27940E-08    0.00000E+00     0   0.111E-08
 166 F= 0.22626449E+03 E0= 0.22628554E+03  d E =-.116415E-08
quench:  g(F)=  0.000E+00 g(S)=  0.000E+00 dE (1.order)= 0.000E+00
 bond charge predicted
       N       E                     dE             d eps       ncg     rms          rms(c)
DAV:   1     0.226264489911E+03   -0.34925E-08   -0.19317E-10   198   0.193E-08    0.537E-07
RMM:   2     0.226264489914E+03    0.23283E-08    0.00000E+00     0   0.757E-09
 167 F= 0.22626449E+03 E0= 0.22628554E+03  d E =0.162981E-08
quench:  g(F)=  0.000E+00 g(S)=  0.000E+00 dE (1.order)= 0.000E+00
 bond charge predicted
       N       E                     dE             d eps       ncg     rms          rms(c)
DAV:   1     0.226264489915E+03    0.41910E-08    0.36450E-11   198   0.872E-08    0.811E-07
RMM:   2     0.226264489917E+03    0.11642E-08    0.00000E+00     0   0.113E-07
 168 F= 0.22626449E+03 E0= 0.22628554E+03  d E =0.302680E-08
quench:  g(F)=  0.000E+00 g(S)=  0.000E+00 dE (1.order)= 0.000E+00
 bond charge predicted
       N       E                     dE             d eps       ncg     rms          rms(c)
DAV:   1     0.226264489917E+03    0.11642E-08   -0.33715E-10   198   0.281E-07    0.201E-07
RMM:   2     0.226264489917E+03    0.46566E-09    0.00000E+00     0   0.324E-08
 169 F= 0.22626449E+03 E0= 0.22628554E+03  d E =0.465661E-09
quench:  g(F)=  0.000E+00 g(S)=  0.000E+00 dE (1.order)= 0.000E+00
 bond charge predicted
       N       E                     dE             d eps       ncg     rms          rms(c)
DAV:   1     0.226264489916E+03   -0.23283E-09   -0.11489E-10   198   0.609E-08    0.317E-07
RMM:   2     0.226264489916E+03   -0.69849E-09    0.00000E+00     0   0.228E-08
 170 F= 0.22626449E+03 E0= 0.22628554E+03  d E =-.139698E-08
quench:  g(F)=  0.000E+00 g(S)=  0.000E+00 dE (1.order)= 0.000E+00
 bond charge predicted
       N       E                     dE             d eps       ncg     rms          rms(c)
DAV:   1     0.226264489916E+03   -0.23283E-09   -0.68336E-11   198   0.640E-08    0.399E-07
RMM:   2     0.226264489915E+03   -0.69849E-09    0.00000E+00     0   0.461E-08
 171 F= 0.22626449E+03 E0= 0.22628554E+03  d E =-.232831E-09
quench:  g(F)=  0.000E+00 g(S)=  0.000E+00 dE (1.order)= 0.000E+00
 bond charge predicted
       N       E                     dE             d eps       ncg     rms          rms(c)
DAV:   1     0.226264489916E+03    0.00000E+00   -0.16066E-10   198   0.117E-07    0.219E-07
RMM:   2     0.226264489914E+03   -0.18626E-08    0.00000E+00     0   0.343E-08
 172 F= 0.22626449E+03 E0= 0.22628554E+03  d E =-.116415E-08
quench:  g(F)=  0.000E+00 g(S)=  0.000E+00 dE (1.order)= 0.000E+00
 bond charge predicted
       N       E                     dE             d eps       ncg     rms          rms(c)
DAV:   1     0.226264489912E+03   -0.41910E-08   -0.12130E-10   198   0.733E-08    0.163E-07
RMM:   2     0.226264489913E+03    0.69849E-09    0.00000E+00     0   0.134E-08
 173 F= 0.22626449E+03 E0= 0.22628554E+03  d E =-.162981E-08
quench:  g(F)=  0.000E+00 g(S)=  0.000E+00 dE (1.order)= 0.000E+00
 bond charge predicted
       N       E                     dE             d eps       ncg     rms          rms(c)
DAV:   1     0.226264489913E+03    0.13970E-08   -0.21038E-10   198   0.190E-08    0.158E-07
RMM:   2     0.226264489915E+03    0.13970E-08    0.00000E+00     0   0.105E-08
 174 F= 0.22626449E+03 E0= 0.22628554E+03  d E =0.209548E-08
quench:  g(F)=  0.000E+00 g(S)=  0.000E+00 dE (1.order)= 0.000E+00
 bond charge predicted
       N       E                     dE             d eps       ncg     rms          rms(c)
DAV:   1     0.226264489915E+03    0.18626E-08   -0.24103E-10   198   0.260E-08    0.230E-07
RMM:   2     0.226264489913E+03   -0.23283E-08    0.00000E+00     0   0.234E-08
 175 F= 0.22626449E+03 E0= 0.22628554E+03  d E =-.186265E-08
quench:  g(F)=  0.000E+00 g(S)=  0.000E+00 dE (1.order)= 0.000E+00
 bond charge predicted
       N       E                     dE             d eps       ncg     rms          rms(c)
DAV:   1     0.226264489914E+03   -0.69849E-09    0.11989E-10   198   0.631E-08    0.253E-07
RMM:   2     0.226264489914E+03   -0.93132E-09    0.00000E+00     0   0.239E-08
 176 F= 0.22626449E+03 E0= 0.22628554E+03  d E =0.698492E-09
quench:  g(F)=  0.000E+00 g(S)=  0.000E+00 dE (1.order)= 0.000E+00
 bond charge predicted
       N       E                     dE             d eps       ncg     rms          rms(c)
DAV:   1     0.226264489916E+03    0.13970E-08    0.35281E-11   198   0.663E-08    0.153E-07
RMM:   2     0.226264489913E+03   -0.25611E-08    0.00000E+00     0   0.234E-08
 177 F= 0.22626449E+03 E0= 0.22628554E+03  d E =-.232831E-09
quench:  g(F)=  0.000E+00 g(S)=  0.000E+00 dE (1.order)= 0.000E+00
 bond charge predicted
       N       E                     dE             d eps       ncg     rms          rms(c)
DAV:   1     0.226264489914E+03   -0.13970E-08   -0.44007E-11   198   0.508E-08    0.679E-08
RMM:   2     0.226264489914E+03    0.00000E+00    0.00000E+00     0   0.875E-09
 178 F= 0.22626449E+03 E0= 0.22628554E+03  d E =0.116415E-08
quench:  g(F)=  0.000E+00 g(S)=  0.000E+00 dE (1.order)= 0.000E+00
 bond charge predicted
[...]
 bond charge predicted
       N       E                     dE             d eps       ncg     rms          rms(c)
DAV:   1     0.226264489914E+03    0.23283E-09   -0.15908E-10   198   0.511E-08    0.278E-07
RMM:   2     0.226264489915E+03    0.93132E-09    0.00000E+00     0   0.396E-08
 953 F= 0.22626449E+03 E0= 0.22628554E+03  d E =-.232831E-09
quench:  g(F)=  0.000E+00 g(S)=  0.000E+00 dE (1.order)= 0.000E+00
 bond charge predicted
       N       E                     dE             d eps       ncg     rms          rms(c)
DAV:   1     0.226264489910E+03   -0.34925E-08    0.26724E-11   198   0.937E-08    0.531E-07
RMM:   2     0.226264489916E+03    0.51223E-08    0.00000E+00     0   0.177E-08
 954 F= 0.22626449E+03 E0= 0.22628554E+03  d E =0.698492E-09
quench:  g(F)=  0.000E+00 g(S)=  0.000E+00 dE (1.order)= 0.000E+00
 bond charge predicted
       N       E                     dE             d eps       ncg     rms          rms(c)
DAV:   1     0.226264489912E+03    0.16298E-08   -0.74614E-11   198   0.813E-08    0.664E-07
RMM:   2     0.226264489918E+03    0.60536E-08    0.00000E+00     0   0.875E-08
 955 F= 0.22626449E+03 E0= 0.22628554E+03  d E =0.256114E-08
quench:  g(F)=  0.000E+00 g(S)=  0.000E+00 dE (1.order)= 0.000E+00
 bond charge predicted
       N       E                     dE             d eps       ncg     rms          rms(c)
DAV:   1     0.226264489918E+03    0.58208E-08   -0.11671E-10   198   0.208E-07    0.976E-08
RMM:   2     0.226264489917E+03   -0.46566E-09    0.00000E+00     0   0.188E-08
 956 F= 0.22626449E+03 E0= 0.22628554E+03  d E =-.698492E-09
quench:  g(F)=  0.000E+00 g(S)=  0.000E+00 dE (1.order)= 0.000E+00
 bond charge predicted
       N       E                     dE             d eps       ncg     rms          rms(c)
DAV:   1     0.226264489914E+03   -0.41910E-08   -0.23023E-10   198   0.225E-08    0.467E-07
RMM:   2     0.226264489916E+03    0.18626E-08    0.00000E+00     0   0.229E-08
 957 F= 0.22626449E+03 E0= 0.22628554E+03  d E =-.186265E-08
quench:  g(F)=  0.000E+00 g(S)=  0.000E+00 dE (1.order)= 0.000E+00
 bond charge predicted
       N       E                     dE             d eps       ncg     rms          rms(c)
DAV:   1     0.226264489913E+03   -0.46566E-09   -0.12615E-10   198   0.846E-08    0.532E-07
RMM:   2     0.226264489910E+03   -0.32596E-08    0.00000E+00     0   0.672E-08
 958 F= 0.22626449E+03 E0= 0.22628554E+03  d E =-.558794E-08
quench:  g(F)=  0.000E+00 g(S)=  0.000E+00 dE (1.order)= 0.000E+00
 bond charge predicted
       N       E                     dE             d eps       ncg     rms          rms(c)
DAV:   1     0.226264489914E+03    0.69849E-09   -0.10043E-10   198   0.171E-07    0.218E-07
RMM:   2     0.226264489914E+03   -0.46566E-09    0.00000E+00     0   0.261E-08
 959 F= 0.22626449E+03 E0= 0.22628554E+03  d E =0.349246E-08
quench:  g(F)=  0.000E+00 g(S)=  0.000E+00 dE (1.order)= 0.000E+00
 bond charge predicted
       N       E                     dE             d eps       ncg     rms          rms(c)
DAV:   1     0.226264489913E+03   -0.13970E-08   -0.12772E-10   198   0.614E-08    0.750E-08
RMM:   2     0.226264489916E+03    0.30268E-08    0.00000E+00     0   0.189E-08
 960 F= 0.22626449E+03 E0= 0.22628554E+03  d E =0.209548E-08
quench:  g(F)=  0.000E+00 g(S)=  0.000E+00 dE (1.order)= 0.000E+00
 bond charge predicted
       N       E                     dE             d eps       ncg     rms          rms(c)
DAV:   1     0.226264489913E+03    0.23283E-09    0.29983E-11   198   0.245E-08    0.179E-07
RMM:   2     0.226264489918E+03    0.48894E-08    0.00000E+00     0   0.180E-08
 961 F= 0.22626449E+03 E0= 0.22628554E+03  d E =0.209548E-08
quench:  g(F)=  0.000E+00 g(S)=  0.000E+00 dE (1.order)= 0.000E+00
 bond charge predicted
       N       E                     dE             d eps       ncg     rms          rms(c)
DAV:   1     0.226264489916E+03    0.32596E-08   -0.26461E-10   198   0.347E-08    0.347E-07
RMM:   2     0.226264489917E+03    0.11642E-08    0.00000E+00     0   0.158E-08
 962 F= 0.22626449E+03 E0= 0.22628554E+03  d E =-.465661E-09
quench:  g(F)=  0.000E+00 g(S)=  0.000E+00 dE (1.order)= 0.000E+00
 bond charge predicted
       N       E                     dE             d eps       ncg     rms          rms(c)
DAV:   1     0.226264489917E+03    0.11642E-08    0.75819E-11   198   0.347E-08    0.233E-07
RMM:   2     0.226264489913E+03   -0.39581E-08    0.00000E+00     0   0.900E-09
 963 F= 0.22626449E+03 E0= 0.22628554E+03  d E =-.395812E-08
quench:  g(F)=  0.000E+00 g(S)=  0.000E+00 dE (1.order)= 0.000E+00
 bond charge predicted
       N       E                     dE             d eps       ncg     rms          rms(c)
DAV:   1     0.226264489917E+03   -0.69849E-09   -0.10809E-10   198   0.255E-08    0.470E-07
RMM:   2     0.226264489918E+03    0.13970E-08    0.00000E+00     0   0.148E-08
 964 F= 0.22626449E+03 E0= 0.22628554E+03  d E =0.465661E-08
quench:  g(F)=  0.000E+00 g(S)=  0.000E+00 dE (1.order)= 0.000E+00
 bond charge predicted
       N       E                     dE             d eps       ncg     rms          rms(c)
DAV:   1     0.226264489917E+03    0.23283E-09    0.32318E-10   198   0.632E-08    0.387E-07
RMM:   2     0.226264489913E+03   -0.37253E-08    0.00000E+00     0   0.493E-08
 965 F= 0.22626449E+03 E0= 0.22628554E+03  d E =-.488944E-08
quench:  g(F)=  0.000E+00 g(S)=  0.000E+00 dE (1.order)= 0.000E+00
 bond charge predicted
       N       E                     dE             d eps       ncg     rms          rms(c)
DAV:   1     0.226264489915E+03   -0.13970E-08   -0.40388E-11   198   0.122E-07    0.630E-08
RMM:   2     0.226264489914E+03   -0.93132E-09    0.00000E+00     0   0.132E-08
 966 F= 0.22626449E+03 E0= 0.22628554E+03  d E =0.139698E-08
quench:  g(F)=  0.000E+00 g(S)=  0.000E+00 dE (1.order)= 0.000E+00
 bond charge predicted
       N       E                     dE             d eps       ncg     rms          rms(c)
DAV:   1     0.226264489917E+03    0.11642E-08   -0.29682E-10   198   0.225E-08    0.312E-07
RMM:   2     0.226264489917E+03    0.93132E-09    0.00000E+00     0   0.735E-09
 967 F= 0.22626449E+03 E0= 0.22628554E+03  d E =0.302680E-08
quench:  g(F)=  0.000E+00 g(S)=  0.000E+00 dE (1.order)= 0.000E+00
 bond charge predicted
       N       E                     dE             d eps       ncg     rms          rms(c)
DAV:   1     0.226264489915E+03   -0.13970E-08   -0.24366E-10   198   0.100E-08    0.352E-07
RMM:   2     0.226264489916E+03    0.93132E-09    0.00000E+00     0   0.872E-09
 968 F= 0.22626449E+03 E0= 0.22628554E+03  d E =-.139698E-08
quench:  g(F)=  0.000E+00 g(S)=  0.000E+00 dE (1.order)= 0.000E+00
 bond charge predicted
       N       E                     dE             d eps       ncg     rms          rms(c)
DAV:   1     0.226264489914E+03   -0.11642E-08   -0.13959E-10   198   0.642E-08    0.750E-07
RMM:   2     0.226264489914E+03    0.46566E-09    0.00000E+00     0   0.746E-08
 969 F= 0.22626449E+03 E0= 0.22628554E+03  d E =-.162981E-08
quench:  g(F)=  0.000E+00 g(S)=  0.000E+00 dE (1.order)= 0.000E+00
 bond charge predicted
       N       E                     dE             d eps       ncg     rms          rms(c)
DAV:   1     0.226264489912E+03   -0.18626E-08    0.35515E-11   198   0.215E-07    0.657E-07
RMM:   2     0.226264489918E+03    0.55879E-08    0.00000E+00     0   0.681E-08
 970 F= 0.22626449E+03 E0= 0.22628554E+03  d E =0.325963E-08
quench:  g(F)=  0.000E+00 g(S)=  0.000E+00 dE (1.order)= 0.000E+00
 bond charge predicted
       N       E                     dE             d eps       ncg     rms          rms(c)
DAV:   1     0.226264489915E+03    0.30268E-08   -0.15048E-10   198   0.186E-07    0.437E-07
RMM:   2     0.226264489912E+03   -0.32596E-08    0.00000E+00     0   0.648E-08
 971 F= 0.22626449E+03 E0= 0.22628554E+03  d E =-.582077E-08
quench:  g(F)=  0.000E+00 g(S)=  0.000E+00 dE (1.order)= 0.000E+00
 bond charge predicted
       N       E                     dE             d eps       ncg     rms          rms(c)
DAV:   1     0.226264489916E+03    0.46566E-09    0.19726E-10   198   0.150E-07    0.988E-08
RMM:   2     0.226264489915E+03   -0.93132E-09    0.00000E+00     0   0.190E-08
 972 F= 0.22626449E+03 E0= 0.22628554E+03  d E =0.279397E-08
quench:  g(F)=  0.000E+00 g(S)=  0.000E+00 dE (1.order)= 0.000E+00
 bond charge predicted
       N       E                     dE             d eps       ncg     rms          rms(c)
DAV:   1     0.226264489915E+03   -0.46566E-09   -0.38843E-11   198   0.245E-08    0.374E-07
RMM:   2     0.226264489914E+03   -0.69849E-09    0.00000E+00     0   0.229E-08
 973 F= 0.22626449E+03 E0= 0.22628554E+03  d E =-.232831E-09
quench:  g(F)=  0.000E+00 g(S)=  0.000E+00 dE (1.order)= 0.000E+00
 bond charge predicted
       N       E                     dE             d eps       ncg     rms          rms(c)
DAV:   1     0.226264489914E+03   -0.93132E-09   -0.72202E-11   198   0.872E-08    0.469E-07
RMM:   2     0.226264489914E+03   -0.69849E-09    0.00000E+00     0   0.686E-08
 974 F= 0.22626449E+03 E0= 0.22628554E+03  d E =-.931323E-09
quench:  g(F)=  0.000E+00 g(S)=  0.000E+00 dE (1.order)= 0.000E+00
 bond charge predicted
       N       E                     dE             d eps       ncg     rms          rms(c)
DAV:   1     0.226264489917E+03    0.30268E-08   -0.42549E-12   198   0.165E-07    0.780E-08
RMM:   2     0.226264489917E+03   -0.69849E-09    0.00000E+00     0   0.154E-08
 975 F= 0.22626449E+03 E0= 0.22628554E+03  d E =0.302680E-08
quench:  g(F)=  0.000E+00 g(S)=  0.000E+00 dE (1.order)= 0.000E+00
 bond charge predicted
       N       E                     dE             d eps       ncg     rms          rms(c)
DAV:   1     0.226264489915E+03   -0.25611E-08   -0.30067E-10   198   0.261E-08    0.429E-07
RMM:   2     0.226264489914E+03   -0.69849E-09    0.00000E+00     0   0.914E-09
 976 F= 0.22626449E+03 E0= 0.22628554E+03  d E =-.256114E-08
quench:  g(F)=  0.000E+00 g(S)=  0.000E+00 dE (1.order)= 0.000E+00
 bond charge predicted
       N       E                     dE             d eps       ncg     rms          rms(c)
DAV:   1     0.226264489914E+03   -0.46566E-09   -0.98096E-12   198   0.731E-08    0.659E-07
RMM:   2     0.226264489920E+03    0.53551E-08    0.00000E+00     0   0.951E-08
 977 F= 0.22626449E+03 E0= 0.22628554E+03  d E =0.558794E-08
quench:  g(F)=  0.000E+00 g(S)=  0.000E+00 dE (1.order)= 0.000E+00
 bond charge predicted
       N       E                     dE             d eps       ncg     rms          rms(c)
DAV:   1     0.226264489917E+03    0.23283E-08    0.39822E-11   198   0.232E-07    0.200E-07
RMM:   2     0.226264489914E+03   -0.30268E-08    0.00000E+00     0   0.259E-08
 978 F= 0.22626449E+03 E0= 0.22628554E+03  d E =-.605360E-08
quench:  g(F)=  0.000E+00 g(S)=  0.000E+00 dE (1.order)= 0.000E+00
 bond charge predicted
       N       E                     dE             d eps       ncg     rms          rms(c)
DAV:   1     0.226264489915E+03   -0.11642E-08    0.61756E-11   198   0.495E-08    0.211E-07
RMM:   2     0.226264489917E+03    0.11642E-08    0.00000E+00     0   0.285E-08
 979 F= 0.22626449E+03 E0= 0.22628554E+03  d E =0.302680E-08
quench:  g(F)=  0.000E+00 g(S)=  0.000E+00 dE (1.order)= 0.000E+00
 bond charge predicted
       N       E                     dE             d eps       ncg     rms          rms(c)
DAV:   1     0.226264489913E+03   -0.20955E-08   -0.95062E-11   198   0.510E-08    0.215E-07
RMM:   2     0.226264489916E+03    0.30268E-08    0.00000E+00     0   0.154E-08
 980 F= 0.22626449E+03 E0= 0.22628554E+03  d E =-.232831E-09
quench:  g(F)=  0.000E+00 g(S)=  0.000E+00 dE (1.order)= 0.000E+00
 bond charge predicted
       N       E                     dE             d eps       ncg     rms          rms(c)
DAV:   1     0.226264489915E+03    0.16298E-08   -0.88369E-11   198   0.452E-08    0.466E-07
RMM:   2     0.226264489914E+03   -0.46566E-09    0.00000E+00     0   0.364E-08
 981 F= 0.22626449E+03 E0= 0.22628554E+03  d E =-.186265E-08
quench:  g(F)=  0.000E+00 g(S)=  0.000E+00 dE (1.order)= 0.000E+00
 bond charge predicted
       N       E                     dE             d eps       ncg     rms          rms(c)
DAV:   1     0.226264489917E+03    0.16298E-08    0.18182E-10   198   0.821E-08    0.211E-07
RMM:   2     0.226264489915E+03   -0.13970E-08    0.00000E+00     0   0.129E-08
 982 F= 0.22626449E+03 E0= 0.22628554E+03  d E =0.698492E-09
quench:  g(F)=  0.000E+00 g(S)=  0.000E+00 dE (1.order)= 0.000E+00
 bond charge predicted
       N       E                     dE             d eps       ncg     rms          rms(c)
DAV:   1     0.226264489914E+03   -0.23283E-08   -0.17151E-10   198   0.424E-08    0.259E-07
RMM:   2     0.226264489913E+03   -0.11642E-08    0.00000E+00     0   0.309E-08
 983 F= 0.22626449E+03 E0= 0.22628554E+03  d E =-.209548E-08
quench:  g(F)=  0.000E+00 g(S)=  0.000E+00 dE (1.order)= 0.000E+00
 bond charge predicted
       N       E                     dE             d eps       ncg     rms          rms(c)
DAV:   1     0.226264489914E+03   -0.23283E-09   -0.18800E-10   198   0.805E-08    0.919E-08
RMM:   2     0.226264489917E+03    0.34925E-08    0.00000E+00     0   0.189E-08
 984 F= 0.22626449E+03 E0= 0.22628554E+03  d E =0.442378E-08
quench:  g(F)=  0.000E+00 g(S)=  0.000E+00 dE (1.order)= 0.000E+00
 bond charge predicted
       N       E                     dE             d eps       ncg     rms          rms(c)
DAV:   1     0.226264489915E+03    0.13970E-08   -0.10618E-10   198   0.309E-08    0.591E-07
RMM:   2     0.226264489914E+03   -0.18626E-08    0.00000E+00     0   0.756E-09
 985 F= 0.22626449E+03 E0= 0.22628554E+03  d E =-.395812E-08
quench:  g(F)=  0.000E+00 g(S)=  0.000E+00 dE (1.order)= 0.000E+00
 bond charge predicted
       N       E                     dE             d eps       ncg     rms          rms(c)
DAV:   1     0.226264489912E+03   -0.32596E-08   -0.13734E-10   198   0.764E-08    0.948E-07
RMM:   2     0.226264489915E+03    0.30268E-08    0.00000E+00     0   0.997E-08
 986 F= 0.22626449E+03 E0= 0.22628554E+03  d E =0.162981E-08
quench:  g(F)=  0.000E+00 g(S)=  0.000E+00 dE (1.order)= 0.000E+00
 bond charge predicted
       N       E                     dE             d eps       ncg     rms          rms(c)
DAV:   1     0.226264489915E+03    0.30268E-08    0.10559E-10   198   0.275E-07    0.693E-07
RMM:   2     0.226264489913E+03   -0.23283E-08    0.00000E+00     0   0.742E-08
 987 F= 0.22626449E+03 E0= 0.22628554E+03  d E =-.232831E-08
quench:  g(F)=  0.000E+00 g(S)=  0.000E+00 dE (1.order)= 0.000E+00
 bond charge predicted
       N       E                     dE             d eps       ncg     rms          rms(c)
DAV:   1     0.226264489915E+03    0.23283E-09    0.75478E-11   198   0.194E-07    0.416E-07
RMM:   2     0.226264489915E+03    0.00000E+00    0.00000E+00     0   0.670E-08
 988 F= 0.22626449E+03 E0= 0.22628554E+03  d E =0.256114E-08
quench:  g(F)=  0.000E+00 g(S)=  0.000E+00 dE (1.order)= 0.000E+00
 bond charge predicted
       N       E                     dE             d eps       ncg     rms          rms(c)
DAV:   1     0.226264489917E+03    0.20955E-08    0.20174E-10   198   0.148E-07    0.377E-07
RMM:   2     0.226264489909E+03   -0.86147E-08    0.00000E+00     0   0.212E-08
 989 F= 0.22626449E+03 E0= 0.22628554E+03  d E =-.651926E-08
quench:  g(F)=  0.000E+00 g(S)=  0.000E+00 dE (1.order)= 0.000E+00
 bond charge predicted
       N       E                     dE             d eps       ncg     rms          rms(c)
DAV:   1     0.226264489914E+03   -0.37253E-08   -0.16185E-10   198   0.576E-08    0.469E-07
RMM:   2     0.226264489916E+03    0.18626E-08    0.00000E+00     0   0.630E-08
 990 F= 0.22626449E+03 E0= 0.22628554E+03  d E =0.675209E-08
quench:  g(F)=  0.000E+00 g(S)=  0.000E+00 dE (1.order)= 0.000E+00
 bond charge predicted
       N       E                     dE             d eps       ncg     rms          rms(c)
DAV:   1     0.226264489913E+03   -0.46566E-09   -0.30985E-12   198   0.156E-07    0.193E-07
RMM:   2     0.226264489912E+03   -0.93132E-09    0.00000E+00     0   0.268E-08
 991 F= 0.22626449E+03 E0= 0.22628554E+03  d E =-.325963E-08
quench:  g(F)=  0.000E+00 g(S)=  0.000E+00 dE (1.order)= 0.000E+00
 bond charge predicted
       N       E                     dE             d eps       ncg     rms          rms(c)
DAV:   1     0.226264489913E+03    0.00000E+00    0.87322E-12   198   0.482E-08    0.224E-07
RMM:   2     0.226264489917E+03    0.39581E-08    0.00000E+00     0   0.134E-08
 992 F= 0.22626449E+03 E0= 0.22628554E+03  d E =0.488944E-08
quench:  g(F)=  0.000E+00 g(S)=  0.000E+00 dE (1.order)= 0.000E+00
 bond charge predicted
       N       E                     dE             d eps       ncg     rms          rms(c)
DAV:   1     0.226264489914E+03    0.11642E-08   -0.21747E-10   198   0.392E-08    0.415E-07
RMM:   2     0.226264489917E+03    0.20955E-08    0.00000E+00     0   0.410E-08
 993 F= 0.22626449E+03 E0= 0.22628554E+03  d E =-.698492E-09
quench:  g(F)=  0.000E+00 g(S)=  0.000E+00 dE (1.order)= 0.000E+00
 bond charge predicted
       N       E                     dE             d eps       ncg     rms          rms(c)
DAV:   1     0.226264489910E+03   -0.41910E-08   -0.21191E-10   198   0.103E-07    0.125E-06
RMM:   2     0.226264489916E+03    0.60536E-08    0.00000E+00     0   0.186E-08
 994 F= 0.22626449E+03 E0= 0.22628554E+03  d E =-.232831E-09
quench:  g(F)=  0.000E+00 g(S)=  0.000E+00 dE (1.order)= 0.000E+00
 bond charge predicted
       N       E                     dE             d eps       ncg     rms          rms(c)
DAV:   1     0.226264489913E+03    0.27940E-08    0.22833E-11   198   0.204E-07    0.173E-06
RMM:   2     0.226264489914E+03    0.13970E-08    0.00000E+00     0   0.267E-07
 995 F= 0.22626449E+03 E0= 0.22628554E+03  d E =-.186265E-08
quench:  g(F)=  0.000E+00 g(S)=  0.000E+00 dE (1.order)= 0.000E+00
 bond charge predicted
       N       E                     dE             d eps       ncg     rms          rms(c)
DAV:   1     0.226264489914E+03    0.13970E-08   -0.98778E-11   198   0.630E-07    0.116E-07
RMM:   2     0.226264489914E+03   -0.23283E-09    0.00000E+00     0   0.445E-08
 996 F= 0.22626449E+03 E0= 0.22628554E+03  d E =-.232831E-09
quench:  g(F)=  0.000E+00 g(S)=  0.000E+00 dE (1.order)= 0.000E+00
 bond charge predicted
       N       E                     dE             d eps       ncg     rms          rms(c)
DAV:   1     0.226264489917E+03    0.25611E-08   -0.15672E-11   198   0.565E-08    0.954E-07
RMM:   2     0.226264489914E+03   -0.34925E-08    0.00000E+00     0   0.245E-08
 997 F= 0.22626449E+03 E0= 0.22628554E+03  d E =-.698492E-09
quench:  g(F)=  0.000E+00 g(S)=  0.000E+00 dE (1.order)= 0.000E+00
 bond charge predicted
       N       E                     dE             d eps       ncg     rms          rms(c)
DAV:   1     0.226264489915E+03   -0.23283E-08    0.84608E-11   198   0.156E-07    0.142E-06
RMM:   2     0.226264489915E+03    0.46566E-09    0.00000E+00     0   0.200E-07
 998 F= 0.22626449E+03 E0= 0.22628554E+03  d E =0.162981E-08
quench:  g(F)=  0.000E+00 g(S)=  0.000E+00 dE (1.order)= 0.000E+00
 bond charge predicted
       N       E                     dE             d eps       ncg     rms          rms(c)
DAV:   1     0.226264489918E+03    0.37253E-08   -0.10814E-10   198   0.488E-07    0.190E-07
RMM:   2     0.226264489914E+03   -0.39581E-08    0.00000E+00     0   0.450E-08
 999 F= 0.22626449E+03 E0= 0.22628554E+03  d E =-.698492E-09
quench:  g(F)=  0.000E+00 g(S)=  0.000E+00 dE (1.order)= 0.000E+00
 bond charge predicted
       N       E                     dE             d eps       ncg     rms          rms(c)
DAV:   1     0.226264489917E+03   -0.16298E-08   -0.47057E-11   198   0.538E-08    0.310E-07
RMM:   2     0.226264489918E+03    0.11642E-08    0.00000E+00     0   0.262E-08
1000 F= 0.22626449E+03 E0= 0.22628554E+03  d E =0.349246E-08
quench:  g(F)=  0.000E+00 g(S)=  0.000E+00 dE (1.order)= 0.000E+00
