  30  30   0   0
  0.2458320E+02  0.7134733E-09  0.7134733E-09  0.1515430E-08  0.5000000E-15
   1.0000000000000000E-004
  CAR 
 unknown system                          
     11.71031376    -22.87126459  301      1.58079310      1.00000000
    -22.871  0.0000E+00  0.0000E+00
    -22.756  0.0000E+00  0.0000E+00
    -22.641  0.0000E+00  0.0000E+00
    -22.525  0.0000E+00  0.0000E+00
    -22.410  0.0000E+00  0.0000E+00
    -22.295  0.0000E+00  0.0000E+00
    -22.180  0.0000E+00  0.0000E+00
    -22.064  0.0000E+00  0.0000E+00
    -21.949  0.0000E+00  0.0000E+00
    -21.834  0.0000E+00  0.0000E+00
    -21.719  0.0000E+00  0.0000E+00
    -21.603  0.0000E+00  0.0000E+00
    -21.488  0.3269E-07  0.3769E-08
    -21.373  0.1453E-01  0.1675E-02
    -21.257  0.1299E+01  0.1514E+00
    -21.142  0.7685E+00  0.2400E+00
    -21.027  0.1200E+01  0.3784E+00
    -20.912  0.2737E+01  0.6939E+00
    -20.796  0.2265E+00  0.7200E+00
    -20.681  0.6569E-04  0.7200E+00
    -20.566  0.1548E-11  0.7200E+00
    -20.451  0.0000E+00  0.7200E+00
    -20.335  0.0000E+00  0.7200E+00
    -20.220  0.0000E+00  0.7200E+00
    -20.105  0.0000E+00  0.7200E+00
    -19.989  0.0000E+00  0.7200E+00
    -19.874  0.0000E+00  0.7200E+00
    -19.759  0.0000E+00  0.7200E+00
    -19.644  0.2669E-07  0.7200E+00
    -19.528  0.9888E-02  0.7211E+00
    -19.413  0.1237E+01  0.8637E+00
    -19.298  0.1989E+01  0.1093E+01
    -19.183  0.2340E+00  0.1120E+01
    -19.067  0.2061E-04  0.1120E+01
    -18.952  0.9365E-13  0.1120E+01
    -18.837  0.0000E+00  0.1120E+01
    -18.721  0.0000E+00  0.1120E+01
    -18.606  0.0000E+00  0.1120E+01
    -18.491  0.0000E+00  0.1120E+01
    -18.376  0.0000E+00  0.1120E+01
    -18.260  0.0000E+00  0.1120E+01
    -18.145  0.0000E+00  0.1120E+01
    -18.030  0.0000E+00  0.1120E+01
    -17.915  0.0000E+00  0.1120E+01
    -17.799  0.0000E+00  0.1120E+01
    -17.684  0.0000E+00  0.1120E+01
    -17.569  0.0000E+00  0.1120E+01
    -17.453  0.0000E+00  0.1120E+01
    -17.338  0.0000E+00  0.1120E+01
    -17.223  0.0000E+00  0.1120E+01
    -17.108  0.0000E+00  0.1120E+01
    -16.992  0.0000E+00  0.1120E+01
    -16.877  0.0000E+00  0.1120E+01
    -16.762  0.0000E+00  0.1120E+01
    -16.647  0.0000E+00  0.1120E+01
    -16.531  0.0000E+00  0.1120E+01
    -16.416  0.0000E+00  0.1120E+01
    -16.301  0.0000E+00  0.1120E+01
    -16.185  0.0000E+00  0.1120E+01
    -16.070  0.0000E+00  0.1120E+01
    -15.955  0.0000E+00  0.1120E+01
    -15.840  0.0000E+00  0.1120E+01
    -15.724  0.0000E+00  0.1120E+01
    -15.609  0.0000E+00  0.1120E+01
    -15.494  0.0000E+00  0.1120E+01
    -15.379  0.0000E+00  0.1120E+01
    -15.263  0.0000E+00  0.1120E+01
    -15.148  0.0000E+00  0.1120E+01
    -15.033  0.0000E+00  0.1120E+01
    -14.918  0.0000E+00  0.1120E+01
    -14.802  0.0000E+00  0.1120E+01
    -14.687  0.0000E+00  0.1120E+01
    -14.572  0.0000E+00  0.1120E+01
    -14.456  0.0000E+00  0.1120E+01
    -14.341  0.0000E+00  0.1120E+01
    -14.226  0.0000E+00  0.1120E+01
    -14.111  0.0000E+00  0.1120E+01
    -13.995  0.0000E+00  0.1120E+01
    -13.880  0.0000E+00  0.1120E+01
    -13.765  0.0000E+00  0.1120E+01
    -13.650  0.0000E+00  0.1120E+01
    -13.534  0.0000E+00  0.1120E+01
    -13.419  0.0000E+00  0.1120E+01
    -13.304  0.0000E+00  0.1120E+01
    -13.188  0.0000E+00  0.1120E+01
    -13.073  0.0000E+00  0.1120E+01
    -12.958  0.0000E+00  0.1120E+01
    -12.843  0.0000E+00  0.1120E+01
    -12.727  0.0000E+00  0.1120E+01
    -12.612  0.0000E+00  0.1120E+01
    -12.497  0.0000E+00  0.1120E+01
    -12.382  0.0000E+00  0.1120E+01
    -12.266  0.0000E+00  0.1120E+01
    -12.151  0.0000E+00  0.1120E+01
    -12.036  0.0000E+00  0.1120E+01
    -11.920  0.0000E+00  0.1120E+01
    -11.805  0.0000E+00  0.1120E+01
    -11.690  0.0000E+00  0.1120E+01
    -11.575  0.0000E+00  0.1120E+01
    -11.459  0.0000E+00  0.1120E+01
    -11.344  0.0000E+00  0.1120E+01
    -11.229  0.0000E+00  0.1120E+01
    -11.114  0.2386E-09  0.1120E+01
    -10.998  0.2070E-03  0.1120E+01
    -10.883  0.5737E-01  0.1127E+01
    -10.768  0.2759E+00  0.1158E+01
    -10.652  0.1351E-01  0.1160E+01
    -10.537  0.2288E-06  0.1160E+01
    -10.422  0.7445E-08  0.1160E+01
    -10.307  0.9835E-03  0.1160E+01
    -10.191  0.7897E-01  0.1169E+01
    -10.076  0.2248E+00  0.1195E+01
     -9.961  0.4213E-01  0.1200E+01
     -9.846  0.6215E-03  0.1200E+01
     -9.730  0.8056E-01  0.1209E+01
     -9.615  0.2494E+00  0.1238E+01
     -9.500  0.2065E-01  0.1240E+01
     -9.384  0.3035E+00  0.1275E+01
     -9.269  0.7505E+00  0.1362E+01
     -9.154  0.3288E+00  0.1400E+01
     -9.039  0.1072E-02  0.1400E+01
     -8.923  0.6349E-09  0.1400E+01
     -8.808  0.0000E+00  0.1400E+01
     -8.693  0.0000E+00  0.1400E+01
     -8.578  0.0000E+00  0.1400E+01
     -8.462  0.0000E+00  0.1400E+01
     -8.347  0.0000E+00  0.1400E+01
     -8.232  0.0000E+00  0.1400E+01
     -8.116  0.0000E+00  0.1400E+01
     -8.001  0.0000E+00  0.1400E+01
     -7.886  0.0000E+00  0.1400E+01
     -7.771  0.0000E+00  0.1400E+01
     -7.655  0.0000E+00  0.1400E+01
     -7.540  0.0000E+00  0.1400E+01
     -7.425  0.0000E+00  0.1400E+01
     -7.310  0.0000E+00  0.1400E+01
     -7.194  0.0000E+00  0.1400E+01
     -7.079  0.0000E+00  0.1400E+01
     -6.964  0.0000E+00  0.1400E+01
     -6.848  0.0000E+00  0.1400E+01
     -6.733  0.0000E+00  0.1400E+01
     -6.618  0.0000E+00  0.1400E+01
     -6.503  0.0000E+00  0.1400E+01
     -6.387  0.0000E+00  0.1400E+01
     -6.272  0.0000E+00  0.1400E+01
     -6.157  0.0000E+00  0.1400E+01
     -6.042  0.0000E+00  0.1400E+01
     -5.926  0.0000E+00  0.1400E+01
     -5.811  0.0000E+00  0.1400E+01
     -5.696  0.0000E+00  0.1400E+01
     -5.580  0.0000E+00  0.1400E+01
     -5.465  0.0000E+00  0.1400E+01
     -5.350  0.0000E+00  0.1400E+01
     -5.235  0.0000E+00  0.1400E+01
     -5.119  0.0000E+00  0.1400E+01
     -5.004  0.2444E-14  0.1400E+01
     -4.889  0.1001E-05  0.1400E+01
     -4.774  0.2176E-01  0.1403E+01
     -4.658  0.2479E+00  0.1431E+01
     -4.543  0.7694E-01  0.1440E+01
     -4.428  0.4289E-03  0.1440E+01
     -4.312  0.7317E-02  0.1441E+01
     -4.197  0.3577E-01  0.1445E+01
     -4.082  0.1504E+00  0.1462E+01
     -3.967  0.1459E+00  0.1479E+01
     -3.851  0.7594E-02  0.1480E+01
     -3.736  0.2767E-06  0.1480E+01
     -3.621  0.4837E-15  0.1480E+01
     -3.506  0.0000E+00  0.1480E+01
     -3.390  0.0000E+00  0.1480E+01
     -3.275  0.0000E+00  0.1480E+01
     -3.160  0.0000E+00  0.1480E+01
     -3.044  0.0000E+00  0.1480E+01
     -2.929  0.0000E+00  0.1480E+01
     -2.814  0.0000E+00  0.1480E+01
     -2.699  0.0000E+00  0.1480E+01
     -2.583  0.0000E+00  0.1480E+01
     -2.468  0.0000E+00  0.1480E+01
     -2.353  0.0000E+00  0.1480E+01
     -2.238  0.0000E+00  0.1480E+01
     -2.122  0.1157E-12  0.1480E+01
     -2.007  0.9614E-05  0.1480E+01
     -1.892  0.4874E-01  0.1486E+01
     -1.777  0.2256E+00  0.1512E+01
     -1.661  0.9083E-01  0.1522E+01
     -1.546  0.1810E+00  0.1543E+01
     -1.431  0.2263E+00  0.1569E+01
     -1.315  0.1350E+00  0.1585E+01
     -1.200  0.1599E+00  0.1603E+01
     -1.085  0.1626E+00  0.1622E+01
     -0.970  0.1487E+00  0.1639E+01
     -0.854  0.2464E+00  0.1667E+01
     -0.739  0.2054E+00  0.1691E+01
     -0.624  0.2046E+00  0.1715E+01
     -0.509  0.4683E-01  0.1720E+01
     -0.393  0.1371E-01  0.1722E+01
     -0.278  0.1103E+00  0.1734E+01
     -0.163  0.1432E+00  0.1751E+01
     -0.047  0.1811E+00  0.1772E+01
      0.068  0.2032E+00  0.1795E+01
      0.183  0.2641E+00  0.1826E+01
      0.298  0.2199E+00  0.1851E+01
      0.414  0.3009E+00  0.1886E+01
      0.529  0.4489E+00  0.1937E+01
      0.644  0.3562E+00  0.1978E+01
      0.759  0.4291E+00  0.2028E+01
      0.875  0.3779E+00  0.2071E+01
      0.990  0.4256E+00  0.2120E+01
      1.105  0.5116E+00  0.2179E+01
      1.221  0.3403E+00  0.2219E+01
      1.336  0.1755E+00  0.2239E+01
      1.451  0.9789E-02  0.2240E+01
      1.566  0.2091E-05  0.2240E+01
      1.682  0.3159E-13  0.2240E+01
      1.797  0.0000E+00  0.2240E+01
      1.912  0.0000E+00  0.2240E+01
      2.027  0.0000E+00  0.2240E+01
      2.143  0.0000E+00  0.2240E+01
      2.258  0.0000E+00  0.2240E+01
      2.373  0.0000E+00  0.2240E+01
      2.489  0.0000E+00  0.2240E+01
      2.604  0.0000E+00  0.2240E+01
      2.719  0.0000E+00  0.2240E+01
      2.834  0.0000E+00  0.2240E+01
      2.950  0.0000E+00  0.2240E+01
      3.065  0.0000E+00  0.2240E+01
      3.180  0.6595E-10  0.2240E+01
      3.295  0.1086E-03  0.2240E+01
      3.411  0.1466E-01  0.2242E+01
      3.526  0.4509E-02  0.2242E+01
      3.641  0.6466E-06  0.2242E+01
      3.757  0.2168E-09  0.2242E+01
      3.872  0.3953E-03  0.2242E+01
      3.987  0.5866E-01  0.2249E+01
      4.102  0.1238E+00  0.2263E+01
      4.218  0.1307E+00  0.2278E+01
      4.333  0.1676E+00  0.2298E+01
      4.448  0.9748E-01  0.2309E+01
      4.563  0.9218E-01  0.2320E+01
      4.679  0.3949E-02  0.2320E+01
      4.794  0.3596E-06  0.2320E+01
      4.909  0.1481E-14  0.2320E+01
      5.025  0.0000E+00  0.2320E+01
      5.140  0.5546E-14  0.2320E+01
      5.255  0.1032E-05  0.2320E+01
      5.370  0.8645E-02  0.2321E+01
      5.486  0.1338E+00  0.2336E+01
      5.601  0.1743E+00  0.2357E+01
      5.716  0.2125E+00  0.2381E+01
      5.831  0.1557E+00  0.2399E+01
      5.947  0.1577E+00  0.2417E+01
      6.062  0.2207E+00  0.2443E+01
      6.177  0.1469E+00  0.2460E+01
      6.293  0.8501E-01  0.2469E+01
      6.408  0.1220E+00  0.2483E+01
      6.523  0.2122E+00  0.2508E+01
      6.638  0.2497E+00  0.2537E+01
      6.754  0.1942E+00  0.2559E+01
      6.869  0.2273E+00  0.2585E+01
      6.984  0.1843E+00  0.2606E+01
      7.099  0.1226E+00  0.2621E+01
      7.215  0.7784E-01  0.2630E+01
      7.330  0.1539E+00  0.2647E+01
      7.445  0.1551E+00  0.2665E+01
      7.561  0.1294E+00  0.2680E+01
      7.676  0.8127E-01  0.2689E+01
      7.791  0.1283E+00  0.2704E+01
      7.906  0.1164E+00  0.2718E+01
      8.022  0.3033E+00  0.2753E+01
      8.137  0.1612E+00  0.2771E+01
      8.252  0.1753E+00  0.2791E+01
      8.367  0.1956E+00  0.2814E+01
      8.483  0.2379E+00  0.2841E+01
      8.598  0.1738E+00  0.2861E+01
      8.713  0.2231E+00  0.2887E+01
      8.829  0.1840E+00  0.2908E+01
      8.944  0.2656E+00  0.2939E+01
      9.059  0.1921E+00  0.2961E+01
      9.174  0.2912E+00  0.2995E+01
      9.290  0.1895E+00  0.3017E+01
      9.405  0.2551E+00  0.3046E+01
      9.520  0.1956E+00  0.3068E+01
      9.635  0.1947E+00  0.3091E+01
      9.751  0.2417E+00  0.3119E+01
      9.866  0.1343E+00  0.3134E+01
      9.981  0.2011E+00  0.3157E+01
     10.097  0.2529E+00  0.3187E+01
     10.212  0.1153E+00  0.3200E+01
     10.327  0.1027E-02  0.3200E+01
     10.442  0.2048E-08  0.3200E+01
     10.558  0.0000E+00  0.3200E+01
     10.673  0.0000E+00  0.3200E+01
     10.788  0.0000E+00  0.3200E+01
     10.903  0.0000E+00  0.3200E+01
     11.019  0.0000E+00  0.3200E+01
     11.134  0.0000E+00  0.3200E+01
     11.249  0.0000E+00  0.3200E+01
     11.364  0.0000E+00  0.3200E+01
     11.480  0.0000E+00  0.3200E+01
     11.595  0.0000E+00  0.3200E+01
     11.710  0.0000E+00  0.3200E+01
