   4   4   0   0
  0.1878193E+02  0.3560634E-09  0.3560634E-09  0.6842502E-09  0.5000000E-15
   1.0000000000000000E-004
  CAR 
 unknown system                          
     23.78834349    -22.38395023  301      2.53571485      1.00000000
    -22.384  0.0000E+00  0.0000E+00
    -22.230  0.0000E+00  0.0000E+00
    -22.076  0.0000E+00  0.0000E+00
    -21.922  0.0000E+00  0.0000E+00
    -21.768  0.0000E+00  0.0000E+00
    -21.614  0.0000E+00  0.0000E+00
    -21.461  0.0000E+00  0.0000E+00
    -21.307  0.0000E+00  0.0000E+00
    -21.153  0.0000E+00  0.0000E+00
    -20.999  0.0000E+00  0.0000E+00
    -20.845  0.0000E+00  0.0000E+00
    -20.691  0.0000E+00  0.0000E+00
    -20.537  0.1258E-13  0.1936E-14
    -20.383  0.1423E-03  0.2189E-04
    -20.229  0.2533E+00  0.3900E-01
    -20.075  0.1364E+00  0.6000E-01
    -19.921  0.2649E-05  0.6000E-01
    -19.768  0.0000E+00  0.6000E-01
    -19.614  0.0000E+00  0.6000E-01
    -19.460  0.0000E+00  0.6000E-01
    -19.306  0.0000E+00  0.6000E-01
    -19.152  0.0000E+00  0.6000E-01
    -18.998  0.0000E+00  0.6000E-01
    -18.844  0.0000E+00  0.6000E-01
    -18.690  0.0000E+00  0.6000E-01
    -18.536  0.0000E+00  0.6000E-01
    -18.382  0.0000E+00  0.6000E-01
    -18.228  0.0000E+00  0.6000E-01
    -18.075  0.0000E+00  0.6000E-01
    -17.921  0.0000E+00  0.6000E-01
    -17.767  0.0000E+00  0.6000E-01
    -17.613  0.0000E+00  0.6000E-01
    -17.459  0.0000E+00  0.6000E-01
    -17.305  0.0000E+00  0.6000E-01
    -17.151  0.0000E+00  0.6000E-01
    -16.997  0.0000E+00  0.6000E-01
    -16.843  0.0000E+00  0.6000E-01
    -16.689  0.0000E+00  0.6000E-01
    -16.535  0.0000E+00  0.6000E-01
    -16.382  0.0000E+00  0.6000E-01
    -16.228  0.0000E+00  0.6000E-01
    -16.074  0.0000E+00  0.6000E-01
    -15.920  0.0000E+00  0.6000E-01
    -15.766  0.0000E+00  0.6000E-01
    -15.612  0.0000E+00  0.6000E-01
    -15.458  0.0000E+00  0.6000E-01
    -15.304  0.0000E+00  0.6000E-01
    -15.150  0.0000E+00  0.6000E-01
    -14.996  0.0000E+00  0.6000E-01
    -14.842  0.0000E+00  0.6000E-01
    -14.689  0.0000E+00  0.6000E-01
    -14.535  0.0000E+00  0.6000E-01
    -14.381  0.0000E+00  0.6000E-01
    -14.227  0.0000E+00  0.6000E-01
    -14.073  0.0000E+00  0.6000E-01
    -13.919  0.0000E+00  0.6000E-01
    -13.765  0.0000E+00  0.6000E-01
    -13.611  0.0000E+00  0.6000E-01
    -13.457  0.0000E+00  0.6000E-01
    -13.303  0.0000E+00  0.6000E-01
    -13.149  0.0000E+00  0.6000E-01
    -12.996  0.0000E+00  0.6000E-01
    -12.842  0.0000E+00  0.6000E-01
    -12.688  0.0000E+00  0.6000E-01
    -12.534  0.0000E+00  0.6000E-01
    -12.380  0.0000E+00  0.6000E-01
    -12.226  0.0000E+00  0.6000E-01
    -12.072  0.0000E+00  0.6000E-01
    -11.918  0.0000E+00  0.6000E-01
    -11.764  0.0000E+00  0.6000E-01
    -11.610  0.0000E+00  0.6000E-01
    -11.457  0.0000E+00  0.6000E-01
    -11.303  0.0000E+00  0.6000E-01
    -11.149  0.0000E+00  0.6000E-01
    -10.995  0.0000E+00  0.6000E-01
    -10.841  0.0000E+00  0.6000E-01
    -10.687  0.1550E-16  0.6000E-01
    -10.533  0.6589E-06  0.6000E-01
    -10.379  0.1653E-02  0.6025E-01
    -10.225  0.2068E-02  0.6057E-01
    -10.071  0.1769E-01  0.6330E-01
     -9.917  0.3856E-02  0.6389E-01
     -9.764  0.4737E-04  0.6390E-01
     -9.610  0.1786E-01  0.6665E-01
     -9.456  0.1443E-01  0.6887E-01
     -9.302  0.1326E-01  0.7091E-01
     -9.148  0.1596E-01  0.7336E-01
     -8.994  0.4524E-01  0.8033E-01
     -8.840  0.6221E-01  0.8990E-01
     -8.686  0.6396E-01  0.9974E-01
     -8.532  0.1664E-02  0.1000E+00
     -8.378  0.2774E-10  0.1000E+00
     -8.224  0.0000E+00  0.1000E+00
     -8.071  0.0000E+00  0.1000E+00
     -7.917  0.0000E+00  0.1000E+00
     -7.763  0.0000E+00  0.1000E+00
     -7.609  0.0000E+00  0.1000E+00
     -7.455  0.0000E+00  0.1000E+00
     -7.301  0.0000E+00  0.1000E+00
     -7.147  0.0000E+00  0.1000E+00
     -6.993  0.0000E+00  0.1000E+00
     -6.839  0.0000E+00  0.1000E+00
     -6.685  0.0000E+00  0.1000E+00
     -6.531  0.0000E+00  0.1000E+00
     -6.378  0.0000E+00  0.1000E+00
     -6.224  0.0000E+00  0.1000E+00
     -6.070  0.0000E+00  0.1000E+00
     -5.916  0.0000E+00  0.1000E+00
     -5.762  0.0000E+00  0.1000E+00
     -5.608  0.0000E+00  0.1000E+00
     -5.454  0.0000E+00  0.1000E+00
     -5.300  0.0000E+00  0.1000E+00
     -5.146  0.0000E+00  0.1000E+00
     -4.992  0.0000E+00  0.1000E+00
     -4.838  0.0000E+00  0.1000E+00
     -4.685  0.0000E+00  0.1000E+00
     -4.531  0.0000E+00  0.1000E+00
     -4.377  0.0000E+00  0.1000E+00
     -4.223  0.0000E+00  0.1000E+00
     -4.069  0.0000E+00  0.1000E+00
     -3.915  0.1822E-09  0.1000E+00
     -3.761  0.1329E-02  0.1002E+00
     -3.607  0.1009E+00  0.1157E+00
     -3.453  0.2181E+00  0.1493E+00
     -3.299  0.2072E+00  0.1812E+00
     -3.145  0.1190E+00  0.1995E+00
     -2.992  0.3312E-02  0.2000E+00
     -2.838  0.4322E-08  0.2000E+00
     -2.684  0.0000E+00  0.2000E+00
     -2.530  0.0000E+00  0.2000E+00
     -2.376  0.0000E+00  0.2000E+00
     -2.222  0.1717E-11  0.2000E+00
     -2.068  0.2562E-03  0.2000E+00
     -1.914  0.1824E-01  0.2028E+00
     -1.760  0.4361E-01  0.2096E+00
     -1.606  0.1046E-01  0.2112E+00
     -1.453  0.2763E-01  0.2154E+00
     -1.299  0.3195E-01  0.2203E+00
     -1.145  0.8680E-02  0.2217E+00
     -0.991  0.1617E-01  0.2242E+00
     -0.837  0.2574E-01  0.2281E+00
     -0.683  0.1036E-01  0.2297E+00
     -0.529  0.1105E-01  0.2314E+00
     -0.375  0.1253E-01  0.2333E+00
     -0.221  0.8259E-02  0.2346E+00
     -0.067  0.2464E-02  0.2350E+00
      0.087  0.1813E-01  0.2378E+00
      0.240  0.4150E-01  0.2442E+00
      0.394  0.2666E-01  0.2483E+00
      0.548  0.3126E-01  0.2531E+00
      0.702  0.3940E-01  0.2592E+00
      0.856  0.1509E-01  0.2615E+00
      1.010  0.7047E-02  0.2626E+00
      1.164  0.1782E-01  0.2653E+00
      1.318  0.1641E-01  0.2678E+00
      1.472  0.2975E-01  0.2724E+00
      1.626  0.3707E-01  0.2781E+00
      1.780  0.2630E-01  0.2822E+00
      1.933  0.6291E-01  0.2918E+00
      2.087  0.4711E-01  0.2991E+00
      2.241  0.5932E-01  0.3082E+00
      2.395  0.6943E-02  0.3093E+00
      2.549  0.6122E-02  0.3102E+00
      2.703  0.3015E-01  0.3149E+00
      2.857  0.8508E-02  0.3162E+00
      3.011  0.2451E-01  0.3200E+00
      3.165  0.2817E-03  0.3200E+00
      3.319  0.5333E-11  0.3200E+00
      3.473  0.0000E+00  0.3200E+00
      3.626  0.0000E+00  0.3200E+00
      3.780  0.0000E+00  0.3200E+00
      3.934  0.0000E+00  0.3200E+00
      4.088  0.0000E+00  0.3200E+00
      4.242  0.0000E+00  0.3200E+00
      4.396  0.0000E+00  0.3200E+00
      4.550  0.0000E+00  0.3200E+00
      4.704  0.0000E+00  0.3200E+00
      4.858  0.0000E+00  0.3200E+00
      5.012  0.0000E+00  0.3200E+00
      5.166  0.0000E+00  0.3200E+00
      5.319  0.1792E-07  0.3200E+00
      5.473  0.3004E-02  0.3205E+00
      5.627  0.5381E-02  0.3213E+00
      5.781  0.3544E-02  0.3218E+00
      5.935  0.1028E-03  0.3219E+00
      6.089  0.5904E-03  0.3219E+00
      6.243  0.1010E-01  0.3235E+00
      6.397  0.3595E-01  0.3290E+00
      6.551  0.2205E-01  0.3324E+00
      6.705  0.6980E-02  0.3335E+00
      6.859  0.5956E-02  0.3344E+00
      7.012  0.1868E-03  0.3344E+00
      7.166  0.6328E-05  0.3344E+00
      7.320  0.1370E-01  0.3366E+00
      7.474  0.2021E-01  0.3397E+00
      7.628  0.3321E-02  0.3402E+00
      7.782  0.3469E-01  0.3455E+00
      7.936  0.2539E-01  0.3494E+00
      8.090  0.2584E-01  0.3534E+00
      8.244  0.2072E-01  0.3566E+00
      8.398  0.1602E-01  0.3591E+00
      8.551  0.1337E-02  0.3593E+00
      8.705  0.1469E-03  0.3593E+00
      8.859  0.2203E-01  0.3627E+00
      9.013  0.8146E-02  0.3639E+00
      9.167  0.2855E-01  0.3683E+00
      9.321  0.2727E-01  0.3725E+00
      9.475  0.3195E-01  0.3774E+00
      9.629  0.8998E-02  0.3788E+00
      9.783  0.5159E-02  0.3796E+00
      9.937  0.3235E-01  0.3846E+00
     10.091  0.3080E-01  0.3893E+00
     10.244  0.3494E-01  0.3947E+00
     10.398  0.3181E-01  0.3996E+00
     10.552  0.4715E-01  0.4069E+00
     10.706  0.3074E-01  0.4116E+00
     10.860  0.5857E-01  0.4206E+00
     11.014  0.3575E-01  0.4261E+00
     11.168  0.1708E-01  0.4287E+00
     11.322  0.2024E-01  0.4319E+00
     11.476  0.1487E-01  0.4341E+00
     11.630  0.2414E-01  0.4379E+00
     11.784  0.3486E-01  0.4432E+00
     11.937  0.2609E-01  0.4472E+00
     12.091  0.2559E-01  0.4512E+00
     12.245  0.4630E-01  0.4583E+00
     12.399  0.1788E-01  0.4611E+00
     12.553  0.3978E-03  0.4611E+00
     12.707  0.7838E-02  0.4623E+00
     12.861  0.2223E-01  0.4657E+00
     13.015  0.2705E-01  0.4699E+00
     13.169  0.1405E-01  0.4721E+00
     13.323  0.2335E-01  0.4757E+00
     13.477  0.2119E-01  0.4789E+00
     13.630  0.4258E-02  0.4796E+00
     13.784  0.2938E-01  0.4841E+00
     13.938  0.2075E-01  0.4873E+00
     14.092  0.1651E-01  0.4898E+00
     14.246  0.3208E-01  0.4948E+00
     14.400  0.3236E-01  0.4998E+00
     14.554  0.1015E-01  0.5013E+00
     14.708  0.2615E-01  0.5053E+00
     14.862  0.4243E-01  0.5119E+00
     15.016  0.1878E-01  0.5148E+00
     15.170  0.8606E-02  0.5161E+00
     15.323  0.6998E-02  0.5172E+00
     15.477  0.2445E-01  0.5209E+00
     15.631  0.2874E-01  0.5253E+00
     15.785  0.4730E-01  0.5326E+00
     15.939  0.2358E-01  0.5363E+00
     16.093  0.2641E-01  0.5403E+00
     16.247  0.2251E-01  0.5438E+00
     16.401  0.5494E-01  0.5522E+00
     16.555  0.1760E-01  0.5550E+00
     16.709  0.3940E-01  0.5610E+00
     16.862  0.2137E-01  0.5643E+00
     17.016  0.1370E-01  0.5664E+00
     17.170  0.1247E-01  0.5683E+00
     17.324  0.2709E-02  0.5688E+00
     17.478  0.4365E-02  0.5694E+00
     17.632  0.1409E-01  0.5716E+00
     17.786  0.8245E-02  0.5729E+00
     17.940  0.6066E-01  0.5822E+00
     18.094  0.2787E-01  0.5865E+00
     18.248  0.7211E-02  0.5876E+00
     18.402  0.2091E-01  0.5908E+00
     18.555  0.2547E-01  0.5947E+00
     18.709  0.4599E-01  0.6018E+00
     18.863  0.4076E-01  0.6081E+00
     19.017  0.3871E-01  0.6140E+00
     19.171  0.9583E-02  0.6155E+00
     19.325  0.1980E-01  0.6186E+00
     19.479  0.2084E-01  0.6218E+00
     19.633  0.1661E-01  0.6243E+00
     19.787  0.1091E-01  0.6260E+00
     19.941  0.3847E-01  0.6319E+00
     20.095  0.2979E-01  0.6365E+00
     20.248  0.8209E-02  0.6378E+00
     20.402  0.1811E-05  0.6378E+00
     20.556  0.1166E-02  0.6380E+00
     20.710  0.6051E-02  0.6389E+00
     20.864  0.2929E-05  0.6389E+00
     21.018  0.1697E-02  0.6392E+00
     21.172  0.7095E-03  0.6393E+00
     21.326  0.1198E-08  0.6393E+00
     21.480  0.7022E-11  0.6393E+00
     21.634  0.2730E-03  0.6393E+00
     21.788  0.4526E-02  0.6400E+00
     21.941  0.1348E-04  0.6400E+00
     22.095  0.0000E+00  0.6400E+00
     22.249  0.0000E+00  0.6400E+00
     22.403  0.0000E+00  0.6400E+00
     22.557  0.0000E+00  0.6400E+00
     22.711  0.0000E+00  0.6400E+00
     22.865  0.0000E+00  0.6400E+00
     23.019  0.0000E+00  0.6400E+00
     23.173  0.0000E+00  0.6400E+00
     23.327  0.0000E+00  0.6400E+00
     23.481  0.0000E+00  0.6400E+00
     23.634  0.0000E+00  0.6400E+00
     23.788  0.0000E+00  0.6400E+00
