       N       E                     dE             d eps       ncg     rms          rms(c)
DAV:   1     0.498542400394E+02    0.49854E+02   -0.15061E+04  1088   0.905E+02
DAV:   2    -0.128414885075E+02   -0.62696E+02   -0.62612E+02  1536   0.965E+01
DAV:   3    -0.135917011708E+02   -0.75021E+00   -0.74992E+00  1280   0.145E+01
DAV:   4    -0.135937717708E+02   -0.20706E-02   -0.20706E-02  1984   0.858E-01
DAV:   5    -0.135937719021E+02   -0.13134E-06   -0.13157E-06  1280   0.582E-03    0.741E+00
DAV:   6    -0.129607744122E+02    0.63300E+00   -0.55418E+00  1280   0.316E+01    0.634E+00
DAV:   7    -0.128945372661E+02    0.66237E-01   -0.35374E-01  1344   0.592E+00    0.351E+00
DAV:   8    -0.128885198644E+02    0.60174E-02   -0.58579E-02  1632   0.119E+00    0.440E-01
DAV:   9    -0.128876111914E+02    0.90867E-03   -0.96730E-03  1408   0.863E-01    0.102E-01
DAV:  10    -0.128877063179E+02   -0.95126E-04   -0.12946E-03  1568   0.304E-01    0.736E-02
DAV:  11    -0.128877611495E+02   -0.54832E-04   -0.11063E-04  1440   0.483E-02    0.142E-02
DAV:  12    -0.128877612134E+02   -0.63915E-07   -0.42546E-05  1664   0.686E-02
   1 F= -.12887761E+02 E0= -.12886785E+02  d E =-.128878E+02
       N       E                     dE             d eps       ncg     rms          rms(c)
DAV:   1    -0.128927681120E+02   -0.50070E-02   -0.26045E-01  1152   0.228E+00    0.387E-01
DAV:   2    -0.128915478732E+02    0.12202E-02   -0.12476E-02  1664   0.746E-01    0.221E-01
DAV:   3    -0.128908160597E+02    0.73181E-03   -0.14477E-03  1536   0.247E-01    0.729E-02
DAV:   4    -0.128907385330E+02    0.77527E-04   -0.14334E-04  1472   0.118E-01    0.224E-02
DAV:   5    -0.128907329023E+02    0.56307E-05   -0.22488E-05  1376   0.291E-02
   2 F= -.12890733E+02 E0= -.12889742E+02  d E =-.297169E-02
       N       E                     dE             d eps       ncg     rms          rms(c)
DAV:   1    -0.128966580212E+02   -0.59195E-02   -0.56096E-01  1216   0.334E+00    0.571E-01
DAV:   2    -0.128939183756E+02    0.27396E-02   -0.26208E-02  1600   0.109E+00    0.324E-01
DAV:   3    -0.128923464062E+02    0.15720E-02   -0.31604E-03  1632   0.367E-01    0.106E-01
DAV:   4    -0.128921804933E+02    0.16591E-03   -0.30004E-04  1376   0.176E-01    0.332E-02
DAV:   5    -0.128921681192E+02    0.12374E-04   -0.50486E-05  1536   0.434E-02    0.108E-02
DAV:   6    -0.128921681695E+02   -0.50357E-07   -0.24726E-06   864   0.998E-03
   3 F= -.12892168E+02 E0= -.12891155E+02  d E =-.440696E-02
       N       E                     dE             d eps       ncg     rms          rms(c)
DAV:   1    -0.129082264486E+02   -0.16058E-01   -0.35351E-01  1120   0.551E+00    0.900E-01
DAV:   2    -0.128953548883E+02    0.12872E-01   -0.64401E-02  1216   0.289E+00    0.364E-01
DAV:   3    -0.128933735545E+02    0.19813E-02   -0.41237E-03  1664   0.453E-01    0.171E-01
DAV:   4    -0.128928574613E+02    0.51609E-03   -0.61282E-04  1632   0.239E-01    0.870E-02
DAV:   5    -0.128927830309E+02    0.74430E-04   -0.88795E-05  1408   0.713E-02    0.860E-03
DAV:   6    -0.128927829601E+02    0.70803E-07   -0.84819E-06   928   0.154E-02
   4 F= -.12892783E+02 E0= -.12891771E+02  d E =-.614791E-03
