 vasp.6.3.2 27Jun22 (build Jun 14 2024 17:29:11) complex                         
 executed on             LinuxGNU date 2026.03.29  20:04:04
 running on   32 total cores
 distrk:  each k-point on   32 cores,    1 groups
 distr:  one band on NCORE=   1 cores,   32 groups


--------------------------------------------------------------------------------------------------------


 INCAR:
   EDIFF = 1e-05
   EDIFFG = -0.05
   ENCUT = 400.0
   IBRION = 2
   ISIF = 3
   ISMEAR = 0
   LCHARG = False
   LREAL = Auto
   LWAVE = False
   NSW = 100
   SIGMA = 0.05

 POTCAR:    PAW_PBE Na_pv 19Sep2006               
 POTCAR:    PAW_PBE Zn 06Sep2000                  
 POTCAR:    PAW_PBE S 06Sep2000                   
 -----------------------------------------------------------------------------
|                                                                             |
|           W    W    AA    RRRRR   N    N  II  N    N   GGGG   !!!           |
|           W    W   A  A   R    R  NN   N  II  NN   N  G    G  !!!           |
|           W    W  A    A  R    R  N N  N  II  N N  N  G       !!!           |
|           W WW W  AAAAAA  RRRRR   N  N N  II  N  N N  G  GGG   !            |
|           WW  WW  A    A  R   R   N   NN  II  N   NN  G    G                |
|           W    W  A    A  R    R  N    N  II  N    N   GGGG   !!!           |
|                                                                             |
|     For optimal performance we recommend to set                             |
|       NCORE = 2 up to number-of-cores-per-socket                            |
|     NCORE specifies how many cores store one orbital (NPAR=cpu/NCORE).      |
|     This setting can greatly improve the performance of VASP for DFT.       |
|     The default, NCORE=1 might be grossly inefficient on modern             |
|     multi-core architectures or massively parallel machines. Do your        |
|     own testing! More info at https://www.vasp.at/wiki/index.php/NCORE      |
|     Unfortunately you need to use the default for GW and RPA                |
|     calculations (for HF NCORE is supported but not extensively tested      |
|     yet).                                                                   |
|                                                                             |
 -----------------------------------------------------------------------------

 POTCAR:    PAW_PBE Na_pv 19Sep2006               
   SHA256 =  6a2f546d9e11350984debacf3dc457d8cffc0868e817d445faca461816a32b94 Na_pv/POTCAR          
   COPYR  = (c) Copyright 19Sep2006 Georg Kresse                                                    
   COPYR  = This file is part of the software VASP. Any use, copying, and all other rights are regul
   COPYR  = If you do not have a valid VASP license, you may not use, copy or distribute this file. 
   VRHFIN =Na: p6s1                                                                                 
   LEXCH  = PE                                                                                      
   EATOM  =   766.0439 eV,   56.3026 Ry                                                             
                                                                                                    
   TITEL  = PAW_PBE Na_pv 19Sep2006                                                                 
   LULTRA =        F    use ultrasoft PP ?                                                          
   IUNSCR =        1    unscreen: 0-lin 1-nonlin 2-no                                               
   RPACOR =    1.800    partial core radius                                                         
   POMASS =   22.990; ZVAL   =    7.000    mass and valenz                                          
   RCORE  =    2.200    outmost cutoff radius                                                       
   RWIGS  =    2.200; RWIGS  =    1.164    wigner-seitz radius (au A)                               
   ENMAX  =  259.561; ENMIN  =  194.671 eV                                                          
   ICORE  =        2    local potential                                                             
   LCOR   =        T    correct aug charges                                                         
   LPAW   =        T    paw PP                                                                      
   EAUG   =  368.056                                                                                
   DEXC   =    0.000                                                                                
   RMAX   =    2.245    core radius for proj-oper                                                   
   RAUG   =    1.300    factor for augmentation sphere                                              
   RDEP   =    2.259    radius for radial grids                                                     
   RDEPT  =    1.738    core radius for aug-charge                                                  
                                                                                                    
   Atomic configuration                                                                             
    5 entries                                                                                       
     n  l   j            E        occ.                                                              
     1  0  0.50     -1033.6933   2.0000                                                             
     2  0  0.50       -56.7526   2.0000                                                             
     2  1  1.50       -28.6721   6.0000                                                             
     3  0  0.50        -2.7440   1.0000                                                             
     3  2  1.50        -1.3606   0.0000                                                             
   Description                                                                                      
     l       E           TYP  RCUT    TYP  RCUT                                                     
     1    -28.6720912     23  2.000                                                                 
     1      6.8029130     23  2.000                                                                 
     0     -2.7439560     23  2.200                                                                 
     0     34.0145650     23  2.200                                                                 
     2     -1.3605826     23  2.200                                                                 
  local pseudopotential read in
  partial core-charges read in
  partial kinetic energy density read in
  atomic valenz-charges read in
  non local Contribution for L=           1  read in
    real space projection operators read in
  non local Contribution for L=           1  read in
    real space projection operators read in
  non local Contribution for L=           0  read in
    real space projection operators read in
  non local Contribution for L=           0  read in
    real space projection operators read in
    PAW grid and wavefunctions read in

   number of l-projection  operators is LMAX  =           4
   number of lm-projection operators is LMMAX =           8

 POTCAR:    PAW_PBE Zn 06Sep2000                  
   SHA256 =  501fddbd8274dd8e9725d4f3de27861d7f1e553a7e18441bc79fed8f346e7f23 Zn/POTCAR             
   COPYR  = (c) Copyright 06Sep2000 Georg Kresse                                                    
   COPYR  = This file is part of the software VASP. Any use, copying, and all other rights are regul
   COPYR  = If you do not have a valid VASP license, you may not use, copy or distribute this file. 
   VRHFIN =Zn: d10 p2                                                                               
   LEXCH  = PE                                                                                      
   EATOM  =  1748.8345 eV,  128.5357 Ry                                                             
                                                                                                    
   TITEL  = PAW_PBE Zn 06Sep2000                                                                    
   LULTRA =        F    use ultrasoft PP ?                                                          
   IUNSCR =        1    unscreen: 0-lin 1-nonlin 2-no                                               
   RPACOR =    2.000    partial core radius                                                         
   POMASS =   65.390; ZVAL   =   12.000    mass and valenz                                          
   RCORE  =    2.300    outmost cutoff radius                                                       
   RWIGS  =    2.400; RWIGS  =    1.270    wigner-seitz radius (au A)                               
   ENMAX  =  276.723; ENMIN  =  207.542 eV                                                          
   RCLOC  =    1.828    cutoff for local pot                                                        
   LCOR   =        T    correct aug charges                                                         
   LPAW   =        T    paw PP                                                                      
   EAUG   =  575.892                                                                                
   DEXC   =    0.000                                                                                
   RMAX   =    2.347    core radius for proj-oper                                                   
   RAUG   =    1.300    factor for augmentation sphere                                              
   RDEP   =    2.324    radius for radial grids                                                     
   RDEPT  =    1.788    core radius for aug-charge                                                  
                                                                                                    
   Atomic configuration                                                                             
    9 entries                                                                                       
     n  l   j            E        occ.                                                              
     1  0  0.50     -9524.6913   2.0000                                                             
     2  0  0.50     -1158.1882   2.0000                                                             
     2  1  1.50     -1003.8506   6.0000                                                             
     3  0  0.50      -129.2194   2.0000                                                             
     3  1  1.50       -83.3890   6.0000                                                             
     3  2  2.50       -10.1410  10.0000                                                             
     4  0  0.50        -5.9785   2.0000                                                             
     4  1  0.50        -4.0817   0.0000                                                             
     4  3  2.50        -1.3606   0.0000                                                             
   Description                                                                                      
     l       E           TYP  RCUT    TYP  RCUT                                                     
     2    -10.1410010     23  2.300                                                                 
     2    -11.5015836     23  2.300                                                                 
     0     -5.9785163     23  2.300                                                                 
     0      1.1858015     23  2.300                                                                 
     1     -2.7211652     23  2.300                                                                 
     1     13.2444212     23  2.300                                                                 
  local pseudopotential read in
  partial core-charges read in
  partial kinetic energy density read in
  atomic valenz-charges read in
  non local Contribution for L=           2  read in
    real space projection operators read in
  non local Contribution for L=           2  read in
    real space projection operators read in
  non local Contribution for L=           0  read in
    real space projection operators read in
  non local Contribution for L=           0  read in
    real space projection operators read in
  non local Contribution for L=           1  read in
    real space projection operators read in
  non local Contribution for L=           1  read in
    real space projection operators read in
    PAW grid and wavefunctions read in

   number of l-projection  operators is LMAX  =           6
   number of lm-projection operators is LMMAX =          18

 POTCAR:    PAW_PBE S 06Sep2000                   
   SHA256 =  0fc7481fb0695f01bdc6462160264c5c84044ae9ec85a907d398b887a2bc3132 S/POTCAR              
   COPYR  = (c) Copyright 06Sep2000 Georg Kresse                                                    
   COPYR  = This file is part of the software VASP. Any use, copying, and all other rights are regul
   COPYR  = If you do not have a valid VASP license, you may not use, copy or distribute this file. 
   VRHFIN =S : s2p4                                                                                 
   LEXCH  = PE                                                                                      
   EATOM  =   276.8230 eV,   20.3459 Ry                                                             
                                                                                                    
   TITEL  = PAW_PBE S 06Sep2000                                                                     
   LULTRA =        F    use ultrasoft PP ?                                                          
   IUNSCR =        1    unscreen: 0-lin 1-nonlin 2-no                                               
   RPACOR =    1.500    partial core radius                                                         
   POMASS =   32.066; ZVAL   =    6.000    mass and valenz                                          
   RCORE  =    1.900    outmost cutoff radius                                                       
   RWIGS  =    2.200; RWIGS  =    1.164    wigner-seitz radius (au A)                               
   ENMAX  =  258.689; ENMIN  =  194.016 eV                                                          
   ICORE  =        2    local potential                                                             
   LCOR   =        T    correct aug charges                                                         
   LPAW   =        T    paw PP                                                                      
   EAUG   =  335.092                                                                                
   DEXC   =    0.000                                                                                
   RMAX   =    1.942    core radius for proj-oper                                                   
   RAUG   =    1.300    factor for augmentation sphere                                              
   RDEP   =    1.954    radius for radial grids                                                     
   RDEPT  =    1.744    core radius for aug-charge                                                  
                                                                                                    
   Atomic configuration                                                                             
    6 entries                                                                                       
     n  l   j            E        occ.                                                              
     1  0  0.50     -2405.8406   2.0000                                                             
     2  0  0.50      -211.7007   2.0000                                                             
     2  1  1.50      -156.4958   6.0000                                                             
     3  0  0.50       -17.2562   2.0000                                                             
     3  1  0.50        -7.0085   4.0000                                                             
     3  2  1.50        -6.8029   0.0000                                                             
   Description                                                                                      
     l       E           TYP  RCUT    TYP  RCUT                                                     
     0    -17.2561641     23  1.900                                                                 
     0    -15.8743224     23  1.900                                                                 
     1     -7.0085400     23  1.900                                                                 
     1     -2.7779785     23  1.900                                                                 
     2     -6.8029130     23  1.900                                                                 
  local pseudopotential read in
  partial core-charges read in
  partial kinetic energy density read in
  atomic valenz-charges read in
  non local Contribution for L=           0  read in
    real space projection operators read in
  non local Contribution for L=           0  read in
    real space projection operators read in
  non local Contribution for L=           1  read in
    real space projection operators read in
  non local Contribution for L=           1  read in
    real space projection operators read in
    PAW grid and wavefunctions read in

   number of l-projection  operators is LMAX  =           4
   number of lm-projection operators is LMMAX =           8

 -----------------------------------------------------------------------------
|                                                                             |
|               ----> ADVICE to this user running VASP <----                  |
|                                                                             |
|     You have a (more or less) 'small supercell' and for smaller cells       |
|     it is recommended to use the reciprocal-space projection scheme!        |
|     The real-space optimization is not efficient for small cells and it     |
|     is also less accurate ...                                               |
|     Therefore, set LREAL=.FALSE. in the INCAR file.                         |
|                                                                             |
 -----------------------------------------------------------------------------

 Optimization of the real space projectors (new method)

 maximal supplied QI-value         = 17.01
 optimisation between [QCUT,QGAM] = [ 10.20, 20.41] = [ 29.16,116.64] Ry 
 Optimized for a Real-space Cutoff    1.30 Angstroem

   l    n(q)    QCUT    max X(q) W(low)/X(q) W(high)/X(q)  e(spline) 
   1      7    10.205     4.940    0.23E-03    0.84E-03    0.11E-06
   1      7    10.205     6.253    0.40E-03    0.13E-02    0.18E-06
   0      8    10.205    37.438    0.23E-03    0.37E-03    0.42E-07
   0      8    10.205     9.606    0.16E-03    0.26E-03    0.31E-07
 Optimization of the real space projectors (new method)

 maximal supplied QI-value         = 16.25
 optimisation between [QCUT,QGAM] = [ 10.24, 20.48] = [ 29.35,117.42] Ry 
 Optimized for a Real-space Cutoff    1.38 Angstroem

   l    n(q)    QCUT    max X(q) W(low)/X(q) W(high)/X(q)  e(spline) 
   2      7    10.239    46.356    0.21E-03    0.48E-03    0.10E-06
   2      7    10.239    41.843    0.21E-03    0.50E-03    0.10E-06
   0      8    10.239    48.958    0.37E-03    0.79E-04    0.11E-06
   0      8    10.239    32.776    0.35E-03    0.73E-04    0.10E-06
   1      8    10.239    17.787    0.49E-03    0.70E-03    0.14E-06
   1      8    10.239    14.435    0.42E-03    0.61E-03    0.13E-06
 Optimization of the real space projectors (new method)

 maximal supplied QI-value         = 19.84
 optimisation between [QCUT,QGAM] = [ 10.12, 20.44] = [ 28.68,116.96] Ry 
 Optimized for a Real-space Cutoff    1.23 Angstroem

   l    n(q)    QCUT    max X(q) W(low)/X(q) W(high)/X(q)  e(spline) 
   0      7    10.119   187.594    0.62E-04    0.28E-03    0.52E-07
   0      7    10.119   164.243    0.61E-04    0.28E-03    0.52E-07
   1      7    10.119    67.533    0.45E-03    0.63E-03    0.13E-06
   1      7    10.119    50.729    0.44E-03    0.62E-03    0.12E-06
  PAW_PBE Na_pv 19Sep2006               :
 energy of atom  1       EATOM= -766.0439
 kinetic energy error for atom=    0.0103 (will be added to EATOM!!)
  PAW_PBE Zn 06Sep2000                  :
 energy of atom  2       EATOM=-1748.8345
 kinetic energy error for atom=    0.0107 (will be added to EATOM!!)
  PAW_PBE S 06Sep2000                   :
 energy of atom  3       EATOM= -276.8230
 kinetic energy error for atom=    0.0046 (will be added to EATOM!!)


 POSCAR: Na1 Zn1 S2
  positions in direct lattice
  No initial velocities read in
 exchange correlation table for  LEXCH =        8
   RHO(1)=    0.500       N(1)  =     2000
   RHO(2)=  100.500       N(2)  =     4000



--------------------------------------------------------------------------------------------------------


 ion  position               nearest neighbor table
   1  0.000  0.000  0.500-
   2  0.000  0.000  0.000-   3 2.51   4 2.51   3 2.51   3 2.51   4 2.51   4 2.51
   3  0.333  0.667  0.789-   2 2.51   2 2.51   2 2.51
   4  0.667  0.333  0.211-   2 2.51   2 2.51   2 2.51

  LATTYP: Found a hexagonal cell.
 ALAT       =     3.5606337793
 C/A-ratio  =     1.9217089708
  
  Lattice vectors:
  
 A1 = (   3.5606337793,  -0.0000000000,  -0.0000000000)
 A2 = (  -1.7803168897,   3.0835993065,   0.0000000000)
 A3 = (  -0.0000000000,   0.0000000000,   6.8425018756)


Analysis of symmetry for initial positions (statically):
=====================================================================
 Subroutine PRICEL returns:
 Original cell was already a primitive cell.
 

 Routine SETGRP: Setting up the symmetry group for a 
 hexagonal supercell.


 Subroutine GETGRP returns: Found 12 space group operations
 (whereof 12 operations were pure point group operations)
 out of a pool of 24 trial point group operations.


The static configuration has the point symmetry D_3d.


Analysis of symmetry for dynamics (positions and initial velocities):
=====================================================================
 Subroutine PRICEL returns:
 Original cell was already a primitive cell.
 

 Routine SETGRP: Setting up the symmetry group for a 
 hexagonal supercell.


 Subroutine GETGRP returns: Found 12 space group operations
 (whereof 12 operations were pure point group operations)
 out of a pool of 24 trial point group operations.


The dynamic configuration has the point symmetry D_3d.


 Subroutine INISYM returns: Found 12 space group operations
 (whereof 12 operations are pure point group operations),
 and found     1 'primitive' translations


----------------------------------------------------------------------------------------

                                     Primitive cell                                     

  volume of cell :      75.1277

  direct lattice vectors                    reciprocal lattice vectors
     3.560633779 -0.000000000 -0.000000000     0.280848877  0.162148175  0.000000000
    -1.780316890  3.083599307  0.000000000     0.000000000  0.324296350  0.000000000
    -0.000000000  0.000000000  6.842501876     0.000000000  0.000000000  0.146145375

  length of vectors
     3.560633779  3.560633779  6.842501876     0.324296350  0.324296350  0.146145375

  position of ions in fractional coordinates (direct lattice)
     0.000000000  0.000000000  0.500000319
     0.000000000  0.000000000  0.000000000
     0.333332921  0.666665842  0.788858542
     0.666665888  0.333332921  0.211142096

  ion indices of the primitive-cell ions
   primitive index   ion index
                 1           1
                 2           2
                 3           3
                 4           4

----------------------------------------------------------------------------------------



 KPOINTS: pymatgen with grid density = 500 / numbe

Automatic generation of k-mesh.
 Grid dimensions read from file:
 generate k-points for:    6    6    3

 Generating k-lattice:

  Cartesian coordinates                     Fractional coordinates (reciprocal lattice)
     0.046808146  0.027024696  0.000000000     0.166666667  0.000000000  0.000000000
     0.000000000  0.054049392  0.000000000     0.000000000  0.166666667  0.000000000
     0.000000000  0.000000000  0.048715125     0.000000000  0.000000000  0.333333333

  Length of vectors
     0.054049392  0.054049392  0.048715125

  Shift w.r.t. Gamma in fractional coordinates (k-lattice)
     0.000000000  0.000000000  0.000000000

 
 Subroutine IBZKPT returns following result:
 ===========================================
 
 Found     17 irreducible k-points:
 
 Following reciprocal coordinates:
            Coordinates               Weight
  0.000000  0.000000  0.000000      1.000000
  0.166667  0.000000  0.000000      6.000000
  0.333333  0.000000  0.000000      6.000000
  0.500000  0.000000  0.000000      3.000000
  0.166667  0.166667  0.000000      6.000000
  0.333333  0.166667  0.000000     12.000000
  0.333333  0.333333  0.000000      2.000000
  0.000000  0.000000  0.333333      2.000000
  0.166667  0.000000  0.333333      6.000000
  0.000000  0.166667  0.333333      6.000000
  0.333333  0.000000  0.333333      6.000000
  0.000000  0.333333  0.333333      6.000000
  0.500000  0.000000  0.333333      6.000000
  0.166667  0.166667  0.333333     12.000000
  0.333333  0.166667  0.333333     12.000000
 -0.166667  0.500000  0.333333     12.000000
  0.333333  0.333333  0.333333      4.000000
 
 Following cartesian coordinates:
            Coordinates               Weight
  0.000000  0.000000  0.000000      1.000000
  0.046808  0.027025  0.000000      6.000000
  0.093616  0.054049  0.000000      6.000000
  0.140424  0.081074  0.000000      3.000000
  0.046808  0.081074  0.000000      6.000000
  0.093616  0.108099  0.000000     12.000000
  0.093616  0.162148  0.000000      2.000000
  0.000000  0.000000  0.048715      2.000000
  0.046808  0.027025  0.048715      6.000000
  0.000000  0.054049  0.048715      6.000000
  0.093616  0.054049  0.048715      6.000000
  0.000000  0.108099  0.048715      6.000000
  0.140424  0.081074  0.048715      6.000000
  0.046808  0.081074  0.048715     12.000000
  0.093616  0.108099  0.048715     12.000000
 -0.046808  0.135123  0.048715     12.000000
  0.093616  0.162148  0.048715      4.000000
 


--------------------------------------------------------------------------------------------------------




 Dimension of arrays:
   k-points           NKPTS =     17   k-points in BZ     NKDIM =     17   number of bands    NBANDS=     32
   number of dos      NEDOS =    301   number of ions     NIONS =      4
   non local maximal  LDIM  =      6   non local SUM 2l+1 LMDIM =     18
   total plane-waves  NPLWV =  11664
   max r-space proj   IRMAX =   1761   max aug-charges    IRDMAX=   5090
   dimension x,y,z NGX =    18 NGY =   18 NGZ =   36
   dimension x,y,z NGXF=    36 NGYF=   36 NGZF=   72
   support grid    NGXF=    36 NGYF=   36 NGZF=   72
   ions per type =               1   1   2
   NGX,Y,Z   is equivalent  to a cutoff of   8.40,  8.40,  8.75 a.u.
   NGXF,Y,Z  is equivalent  to a cutoff of  16.81, 16.81, 17.49 a.u.

 SYSTEM =  unknown system                          
 POSCAR =  Na1 Zn1 S2                              

 Startparameter for this run:
   NWRITE =      2    write-flag & timer
   PREC   = normal    normal or accurate (medium, high low for compatibility)
   ISTART =      0    job   : 0-new  1-cont  2-samecut
   ICHARG =      2    charge: 1-file 2-atom 10-const
   ISPIN  =      1    spin polarized calculation?
   LNONCOLLINEAR =      F non collinear calculations
   LSORBIT =      F    spin-orbit coupling
   INIWAV =      1    electr: 0-lowe 1-rand  2-diag
   LASPH  =      F    aspherical Exc in radial PAW
 Electronic Relaxation 1
   ENCUT  =  400.0 eV  29.40 Ry    5.42 a.u.   5.81  5.81 11.16*2*pi/ulx,y,z
   ENINI  =  400.0     initial cutoff
   ENAUG  =  575.9 eV  augmentation charge cutoff
   NELM   =     60;   NELMIN=  2; NELMDL= -5     # of ELM steps 
   EDIFF  = 0.1E-04   stopping-criterion for ELM
   LREAL  =      T    real-space projection
   NLSPLINE    = F    spline interpolate recip. space projectors
   LCOMPAT=      F    compatible to vasp.4.4
   GGA_COMPAT  = T    GGA compatible to vasp.4.4-vasp.4.6
   LMAXPAW     = -100 max onsite density
   LMAXMIX     =    2 max onsite mixed and CHGCAR
   VOSKOWN=      0    Vosko Wilk Nusair interpolation
   ROPT   =   -0.00050  -0.00050  -0.00050
 Ionic relaxation
   EDIFFG = -.5E-01   stopping-criterion for IOM
   NSW    =    100    number of steps for IOM
   NBLOCK =      1;   KBLOCK =    100    inner block; outer block 
   IBRION =      2    ionic relax: 0-MD 1-quasi-New 2-CG
   NFREE  =      1    steps in history (QN), initial steepest desc. (CG)
   ISIF   =      3    stress and relaxation
   IWAVPR =     11    prediction:  0-non 1-charg 2-wave 3-comb
   ISYM   =      2    0-nonsym 1-usesym 2-fastsym
   LCORR  =      T    Harris-Foulkes like correction to forces

   POTIM  = 0.5000    time-step for ionic-motion
   TEIN   =    0.0    initial temperature
   TEBEG  =    0.0;   TEEND  =   0.0 temperature during run
   SMASS  =  -3.00    Nose mass-parameter (am)
   estimated Nose-frequenzy (Omega)   =  0.10E-29 period in steps = 0.13E+47 mass=  -0.290E-27a.u.
   SCALEE = 1.0000    scale energy and forces
   NPACO  =    256;   APACO  = 10.0  distance and # of slots for P.C.
   PSTRESS=    0.0 pullay stress

  Mass of Ions in am
   POMASS =  22.99 65.39 32.07
  Ionic Valenz
   ZVAL   =   7.00 12.00  6.00
  Atomic Wigner-Seitz radii
   RWIGS  =  -1.00 -1.00 -1.00
  virtual crystal weights 
   VCA    =   1.00  1.00  1.00
   NELECT =      31.0000    total number of electrons
   NUPDOWN=      -1.0000    fix difference up-down

 DOS related values:
   EMIN   =  10.00;   EMAX   =-10.00  energy-range for DOS
   EFERMI =   0.00
   ISMEAR =     0;   SIGMA  =   0.05  broadening in eV -4-tet -1-fermi 0-gaus

 Electronic relaxation 2 (details)
   IALGO  =     38    algorithm
   LDIAG  =      T    sub-space diagonalisation (order eigenvalues)
   LSUBROT=      F    optimize rotation matrix (better conditioning)
   TURBO    =      0    0=normal 1=particle mesh
   IRESTART =      0    0=no restart 2=restart with 2 vectors
   NREBOOT  =      0    no. of reboots
   NMIN     =      0    reboot dimension
   EREF     =   0.00    reference energy to select bands
   IMIX   =      4    mixing-type and parameters
     AMIX     =   0.40;   BMIX     =  1.00
     AMIX_MAG =   1.60;   BMIX_MAG =  1.00
     AMIN     =   0.10
     WC   =   100.;   INIMIX=   1;  MIXPRE=   1;  MAXMIX= -45

 Intra band minimization:
   WEIMIN = 0.0010     energy-eigenvalue tresh-hold
   EBREAK =  0.78E-07  absolut break condition
   DEPER  =   0.30     relativ break condition  

   TIME   =   0.40     timestep for ELM

  volume/ion in A,a.u.               =      18.78       126.75
  Fermi-wavevector in a.u.,A,eV,Ry     =   1.218789  2.303178 20.210742  1.485448
  Thomas-Fermi vector in A             =   2.354064

 Write flags
   LWAVE        =      F    write WAVECAR
   LDOWNSAMPLE  =      F    k-point downsampling of WAVECAR
   LCHARG       =      F    write CHGCAR
   LVTOT        =      F    write LOCPOT, total local potential
   LVHAR        =      F    write LOCPOT, Hartree potential only
   LELF         =      F    write electronic localiz. function (ELF)
   LORBIT       =      0    0 simple, 1 ext, 2 COOP (PROOUT), +10 PAW based schemes


 Dipole corrections
   LMONO  =      F    monopole corrections only (constant potential shift)
   LDIPOL =      F    correct potential (dipole corrections)
   IDIPOL =      0    1-x, 2-y, 3-z, 4-all directions 
   EPSILON=  1.0000000 bulk dielectric constant

 Exchange correlation treatment:
   GGA     =    --    GGA type
   LEXCH   =     8    internal setting for exchange type
   LIBXC   =     F    Libxc                    
   VOSKOWN =     0    Vosko Wilk Nusair interpolation
   LHFCALC =     F    Hartree Fock is set to
   LHFONE  =     F    Hartree Fock one center treatment
   AEXX    =    0.0000 exact exchange contribution

 Linear response parameters
   LEPSILON=     F    determine dielectric tensor
   LRPA    =     F    only Hartree local field effects (RPA)
   LNABLA  =     F    use nabla operator in PAW spheres
   LVEL    =     F    velocity operator in full k-point grid
   CSHIFT  =0.1000    complex shift for real part using Kramers Kronig
   OMEGAMAX=  -1.0    maximum frequency
   DEG_THRESHOLD= 0.2000000E-02 threshold for treating states as degnerate
   RTIME   =   -0.100 relaxation time in fs
  (WPLASMAI=    0.000 imaginary part of plasma frequency in eV, 0.658/RTIME)
   DFIELD  = 0.0000000 0.0000000 0.0000000 field for delta impulse in time

  Optional k-point grid parameters
   LKPOINTS_OPT  =     F    use optional k-point grid
   KPOINTS_OPT_MODE=     1    mode for optional k-point grid

 Orbital magnetization related:
   ORBITALMAG=     F  switch on orbital magnetization
   LCHIMAG   =     F  perturbation theory with respect to B field
   DQ        =  0.001000  dq finite difference perturbation B field
   LLRAUG    =     F  two centre corrections for induced B field



--------------------------------------------------------------------------------------------------------


 conjugate gradient relaxation of ions
 charge density and potential will be updated during run
 non-spin polarized calculation
 Variant of blocked Davidson
 Davidson routine will perform the subspace rotation
 perform sub-space diagonalisation
    after iterative eigenvector-optimisation
 modified Broyden-mixing scheme, WC =      100.0
 initial mixing is a Kerker type mixing with AMIX =  0.4000 and BMIX =      1.0000
 Hartree-type preconditioning will be used
 using additional bands           16
 real space projection scheme for non local part
 use partial core corrections
 calculate Harris-corrections to forces   (improved forces if not selfconsistent)
 use gradient corrections 
 use of overlap-Matrix (Vanderbilt PP)
 Gauss-broadening in eV      SIGMA  =   0.05


--------------------------------------------------------------------------------------------------------


  energy-cutoff  :      400.00
  volume of cell :       75.13
      direct lattice vectors                 reciprocal lattice vectors
     3.560633779 -0.000000000 -0.000000000     0.280848877  0.162148175  0.000000000
    -1.780316890  3.083599307  0.000000000     0.000000000  0.324296350  0.000000000
    -0.000000000  0.000000000  6.842501876     0.000000000  0.000000000  0.146145375

  length of vectors
     3.560633779  3.560633779  6.842501876     0.324296350  0.324296350  0.146145375



 k-points in units of 2pi/SCALE and weight: pymatgen with grid density = 500 / numbe
   0.00000000  0.00000000  0.00000000       0.009
   0.04680815  0.02702470  0.00000000       0.056
   0.09361629  0.05404939  0.00000000       0.056
   0.14042444  0.08107409  0.00000000       0.028
   0.04680815  0.08107409  0.00000000       0.056
   0.09361629  0.10809878  0.00000000       0.111
   0.09361629  0.16214818  0.00000000       0.019
   0.00000000  0.00000000  0.04871512       0.019
   0.04680815  0.02702470  0.04871512       0.056
   0.00000000  0.05404939  0.04871512       0.056
   0.09361629  0.05404939  0.04871512       0.056
   0.00000000  0.10809878  0.04871512       0.056
   0.14042444  0.08107409  0.04871512       0.056
   0.04680815  0.08107409  0.04871512       0.111
   0.09361629  0.10809878  0.04871512       0.111
  -0.04680815  0.13512348  0.04871512       0.111
   0.09361629  0.16214818  0.04871512       0.037

 k-points in reciprocal lattice and weights: pymatgen with grid density = 500 / numbe
   0.00000000  0.00000000  0.00000000       0.009
   0.16666667  0.00000000  0.00000000       0.056
   0.33333333  0.00000000  0.00000000       0.056
   0.50000000  0.00000000  0.00000000       0.028
   0.16666667  0.16666667  0.00000000       0.056
   0.33333333  0.16666667  0.00000000       0.111
   0.33333333  0.33333333  0.00000000       0.019
   0.00000000  0.00000000  0.33333333       0.019
   0.16666667  0.00000000  0.33333333       0.056
   0.00000000  0.16666667  0.33333333       0.056
   0.33333333  0.00000000  0.33333333       0.056
   0.00000000  0.33333333  0.33333333       0.056
   0.50000000  0.00000000  0.33333333       0.056
   0.16666667  0.16666667  0.33333333       0.111
   0.33333333  0.16666667  0.33333333       0.111
  -0.16666667  0.50000000  0.33333333       0.111
   0.33333333  0.33333333  0.33333333       0.037

 position of ions in fractional coordinates (direct lattice) 
   0.00000000  0.00000000  0.50000032
   0.00000000  0.00000000  0.00000000
   0.33333292  0.66666584  0.78885854
   0.66666589  0.33333292  0.21114210

 position of ions in cartesian coordinates  (Angst):
   0.00000000  0.00000000  3.42125312
   0.00000000  0.00000000  0.00000000
  -0.00000000  2.05573033  5.39776606
   1.78031485  1.02786516  1.44474019



--------------------------------------------------------------------------------------------------------


 k-point   1 :   0.0000 0.0000 0.0000  plane waves:    1349
 k-point   2 :   0.1667 0.0000 0.0000  plane waves:    1370
 k-point   3 :   0.3333 0.0000 0.0000  plane waves:    1376
 k-point   4 :   0.5000 0.0000 0.0000  plane waves:    1372
 k-point   5 :   0.1667 0.1667 0.0000  plane waves:    1364
 k-point   6 :   0.3333 0.1667 0.0000  plane waves:    1365
 k-point   7 :   0.3333 0.3333 0.0000  plane waves:    1344
 k-point   8 :   0.0000 0.0000 0.3333  plane waves:    1360
 k-point   9 :   0.1667 0.0000 0.3333  plane waves:    1353
 k-point  10 :   0.0000 0.1667 0.3333  plane waves:    1353
 k-point  11 :   0.3333 0.0000 0.3333  plane waves:    1365
 k-point  12 :   0.0000 0.3333 0.3333  plane waves:    1365
 k-point  13 :   0.5000 0.0000 0.3333  plane waves:    1372
 k-point  14 :   0.1667 0.1667 0.3333  plane waves:    1365
 k-point  15 :   0.3333 0.1667 0.3333  plane waves:    1368
 k-point  16 :  -0.1667 0.5000 0.3333  plane waves:    1368
 k-point  17 :   0.3333 0.3333 0.3333  plane waves:    1350

 maximum and minimum number of plane-waves per node :      1376     1344

 maximum number of plane-waves:      1376
 maximum index in each direction: 
   IXMAX=    5   IYMAX=    5   IZMAX=   11
   IXMIN=   -6   IYMIN=   -6   IZMIN=  -11


 serial   3D FFT for wavefunctions
 parallel 3D FFT for charge:
    minimum data exchange during FFTs selected (reduces bandwidth)


 total amount of memory used by VASP MPI-rank0    32114. kBytes
=======================================================================

   base      :      30000. kBytes
   nonlr-proj:        637. kBytes
   fftplans  :        214. kBytes
   grid      :        810. kBytes
   one-center:         62. kBytes
   wavefun   :        391. kBytes

     INWAV:  cpu time      0.0000: real time      0.0002
 Broyden mixing: mesh for mixing (old mesh)
   NGX = 11   NGY = 11   NGZ = 23
  (NGX  = 36   NGY  = 36   NGZ  = 72)
  gives a total of   2783 points

 initial charge density was supplied:
 charge density of overlapping atoms calculated
 number of electron      31.0000000 magnetization 
 keeping initial charge density in first step


--------------------------------------------------------------------------------------------------------


 Maximum index for non-local projection operator         1653
 Maximum index for augmentation-charges          558 (set IRDMAX)


--------------------------------------------------------------------------------------------------------


 First call to EWALD:  gamma=   0.420
 Maximum number of real-space cells 4x 4x 2
 Maximum number of reciprocal cells 2x 2x 4

    FEWALD:  cpu time      0.0007: real time      0.0008


--------------------------------------- Iteration      1(   1)  ---------------------------------------


    POTLOK:  cpu time      0.0074: real time      0.0077
    SETDIJ:  cpu time      0.0022: real time      0.0025
     EDDAV:  cpu time      0.2691: real time      0.2695
       DOS:  cpu time      0.0007: real time      0.0009
    --------------------------------------------
      LOOP:  cpu time      0.2794: real time      0.2806

 eigenvalue-minimisations  :  1088
 total energy-change (2. order) : 0.4985424E+02  (-0.1506149E+04)
 number of electron      31.0000000 magnetization 
 augmentation part       31.0000000 magnetization 

 Free energy of the ion-electron system (eV)
  ---------------------------------------------------
  alpha Z        PSCENC =        93.15974012
  Ewald energy   TEWEN  =     -1844.16369660
  -Hartree energ DENC   =     -1004.27238876
  -exchange      EXHF   =         0.00000000
  -V(xc)+E(xc)   XCENC  =       106.32862504
  PAW double counting   =      2392.54527448    -2652.30260127
  entropy T*S    EENTRO =        -0.00048812
  eigenvalues    EBANDS =      -109.93438071
  atomic energy  EATOM  =      3068.49415586
  Solvation  Ediel_sol  =         0.00000000
  ---------------------------------------------------
  free energy    TOTEN  =        49.85424004 eV

  energy without entropy =       49.85472816  energy(sigma->0) =       49.85448410


--------------------------------------------------------------------------------------------------------




--------------------------------------- Iteration      1(   2)  ---------------------------------------


     EDDAV:  cpu time      0.4602: real time      0.4608
       DOS:  cpu time      0.0003: real time      0.0004
    --------------------------------------------
      LOOP:  cpu time      0.4605: real time      0.4613

 eigenvalue-minimisations  :  1536
 total energy-change (2. order) :-0.6269573E+02  (-0.6261183E+02)
 number of electron      31.0000000 magnetization 
 augmentation part       31.0000000 magnetization 

 Free energy of the ion-electron system (eV)
  ---------------------------------------------------
  alpha Z        PSCENC =        93.15974012
  Ewald energy   TEWEN  =     -1844.16369660
  -Hartree energ DENC   =     -1004.27238876
  -exchange      EXHF   =         0.00000000
  -V(xc)+E(xc)   XCENC  =       106.32862504
  PAW double counting   =      2392.54527448    -2652.30260127
  entropy T*S    EENTRO =        -0.00080920
  eigenvalues    EBANDS =      -172.62978818
  atomic energy  EATOM  =      3068.49415586
  Solvation  Ediel_sol  =         0.00000000
  ---------------------------------------------------
  free energy    TOTEN  =       -12.84148851 eV

  energy without entropy =      -12.84067931  energy(sigma->0) =      -12.84108391


--------------------------------------------------------------------------------------------------------




--------------------------------------- Iteration      1(   3)  ---------------------------------------


     EDDAV:  cpu time      0.3728: real time      0.3730
       DOS:  cpu time      0.0003: real time      0.0005
    --------------------------------------------
      LOOP:  cpu time      0.3731: real time      0.3735

 eigenvalue-minimisations  :  1280
 total energy-change (2. order) :-0.7502127E+00  (-0.7499176E+00)
 number of electron      31.0000000 magnetization 
 augmentation part       31.0000000 magnetization 

 Free energy of the ion-electron system (eV)
  ---------------------------------------------------
  alpha Z        PSCENC =        93.15974012
  Ewald energy   TEWEN  =     -1844.16369660
  -Hartree energ DENC   =     -1004.27238876
  -exchange      EXHF   =         0.00000000
  -V(xc)+E(xc)   XCENC  =       106.32862504
  PAW double counting   =      2392.54527448    -2652.30260127
  entropy T*S    EENTRO =        -0.00147800
  eigenvalues    EBANDS =      -173.37933204
  atomic energy  EATOM  =      3068.49415586
  Solvation  Ediel_sol  =         0.00000000
  ---------------------------------------------------
  free energy    TOTEN  =       -13.59170117 eV

  energy without entropy =      -13.59022317  energy(sigma->0) =      -13.59096217


--------------------------------------------------------------------------------------------------------




--------------------------------------- Iteration      1(   4)  ---------------------------------------


     EDDAV:  cpu time      0.8088: real time      0.8095
       DOS:  cpu time      0.0005: real time      0.0006
    --------------------------------------------
      LOOP:  cpu time      0.8093: real time      0.8101

 eigenvalue-minimisations  :  1984
 total energy-change (2. order) :-0.2070600E-02  (-0.2070596E-02)
 number of electron      31.0000000 magnetization 
 augmentation part       31.0000000 magnetization 

 Free energy of the ion-electron system (eV)
  ---------------------------------------------------
  alpha Z        PSCENC =        93.15974012
  Ewald energy   TEWEN  =     -1844.16369660
  -Hartree energ DENC   =     -1004.27238876
  -exchange      EXHF   =         0.00000000
  -V(xc)+E(xc)   XCENC  =       106.32862504
  PAW double counting   =      2392.54527448    -2652.30260127
  entropy T*S    EENTRO =        -0.00147645
  eigenvalues    EBANDS =      -173.38140419
  atomic energy  EATOM  =      3068.49415586
  Solvation  Ediel_sol  =         0.00000000
  ---------------------------------------------------
  free energy    TOTEN  =       -13.59377177 eV

  energy without entropy =      -13.59229532  energy(sigma->0) =      -13.59303355


--------------------------------------------------------------------------------------------------------




--------------------------------------- Iteration      1(   5)  ---------------------------------------


     EDDAV:  cpu time      0.3705: real time      0.3707
       DOS:  cpu time      0.0003: real time      0.0004
    CHARGE:  cpu time      0.0086: real time      0.0088
    MIXING:  cpu time      0.0008: real time      0.0010
    --------------------------------------------
      LOOP:  cpu time      0.3803: real time      0.3810

 eigenvalue-minimisations  :  1280
 total energy-change (2. order) :-0.1313442E-06  (-0.1315726E-06)
 number of electron      30.9999930 magnetization 
 augmentation part       10.6714047 magnetization 

 Broyden mixing:
  rms(total) = 0.74050E+00    rms(broyden)= 0.74048E+00
  rms(prec ) = 0.99646E+00
  weight for this iteration     100.00

 Free energy of the ion-electron system (eV)
  ---------------------------------------------------
  alpha Z        PSCENC =        93.15974012
  Ewald energy   TEWEN  =     -1844.16369660
  -Hartree energ DENC   =     -1004.27238876
  -exchange      EXHF   =         0.00000000
  -V(xc)+E(xc)   XCENC  =       106.32862504
  PAW double counting   =      2392.54527448    -2652.30260127
  entropy T*S    EENTRO =        -0.00147645
  eigenvalues    EBANDS =      -173.38140432
  atomic energy  EATOM  =      3068.49415586
  Solvation  Ediel_sol  =         0.00000000
  ---------------------------------------------------
  free energy    TOTEN  =       -13.59377190 eV

  energy without entropy =      -13.59229546  energy(sigma->0) =      -13.59303368


--------------------------------------------------------------------------------------------------------




--------------------------------------- Iteration      1(   6)  ---------------------------------------


    POTLOK:  cpu time      0.0056: real time      0.0058
    SETDIJ:  cpu time      0.0015: real time      0.0015
     EDDAV:  cpu time      0.3649: real time      0.3654
       DOS:  cpu time      0.0003: real time      0.0005
    CHARGE:  cpu time      0.0079: real time      0.0079
    MIXING:  cpu time      0.0004: real time      0.0004
    --------------------------------------------
      LOOP:  cpu time      0.3806: real time      0.3814

 eigenvalue-minimisations  :  1280
 total energy-change (2. order) : 0.6329975E+00  (-0.5541785E+00)
 number of electron      30.9999932 magnetization 
 augmentation part       10.9365856 magnetization 

 Broyden mixing:
  rms(total) = 0.63410E+00    rms(broyden)= 0.63408E+00
  rms(prec ) = 0.66047E+00
  weight for this iteration     100.00

 eigenvalues of (default mixing * dielectric matrix)
  average eigenvalue GAMMA=   0.9186
  0.9186

 Free energy of the ion-electron system (eV)
  ---------------------------------------------------
  alpha Z        PSCENC =        93.15974012
  Ewald energy   TEWEN  =     -1844.16369660
  -Hartree energ DENC   =      -989.18016024
  -exchange      EXHF   =         0.00000000
  -V(xc)+E(xc)   XCENC  =       106.27325809
  PAW double counting   =      2548.67527940    -2803.91147686
  entropy T*S    EENTRO =        -0.00187612
  eigenvalues    EBANDS =      -192.30599806
  atomic energy  EATOM  =      3068.49415586
  Solvation  Ediel_sol  =         0.00000000
  ---------------------------------------------------
  free energy    TOTEN  =       -12.96077441 eV

  energy without entropy =      -12.95889830  energy(sigma->0) =      -12.95983635


--------------------------------------------------------------------------------------------------------




--------------------------------------- Iteration      1(   7)  ---------------------------------------


    POTLOK:  cpu time      0.0054: real time      0.0056
    SETDIJ:  cpu time      0.0015: real time      0.0015
     EDDAV:  cpu time      0.4018: real time      0.4019
       DOS:  cpu time      0.0003: real time      0.0005
    CHARGE:  cpu time      0.0079: real time      0.0079
    MIXING:  cpu time      0.0002: real time      0.0002
    --------------------------------------------
      LOOP:  cpu time      0.4171: real time      0.4176

 eigenvalue-minimisations  :  1344
 total energy-change (2. order) : 0.6623715E-01  (-0.3537434E-01)
 number of electron      30.9999932 magnetization 
 augmentation part       10.8792543 magnetization 

 Broyden mixing:
  rms(total) = 0.35079E+00    rms(broyden)= 0.35079E+00
  rms(prec ) = 0.36511E+00
  weight for this iteration     100.00

 eigenvalues of (default mixing * dielectric matrix)
  average eigenvalue GAMMA=   1.6959
  0.7630  2.6289

 Free energy of the ion-electron system (eV)
  ---------------------------------------------------
  alpha Z        PSCENC =        93.15974012
  Ewald energy   TEWEN  =     -1844.16369660
  -Hartree energ DENC   =      -992.53960906
  -exchange      EXHF   =         0.00000000
  -V(xc)+E(xc)   XCENC  =       106.58471565
  PAW double counting   =      2710.87707289    -2969.57637513
  entropy T*S    EENTRO =        -0.00200599
  eigenvalues    EBANDS =      -185.72853500
  atomic energy  EATOM  =      3068.49415586
  Solvation  Ediel_sol  =         0.00000000
  ---------------------------------------------------
  free energy    TOTEN  =       -12.89453727 eV

  energy without entropy =      -12.89253128  energy(sigma->0) =      -12.89353427


--------------------------------------------------------------------------------------------------------




--------------------------------------- Iteration      1(   8)  ---------------------------------------


    POTLOK:  cpu time      0.0053: real time      0.0055
    SETDIJ:  cpu time      0.0015: real time      0.0015
     EDDAV:  cpu time      0.5623: real time      0.5632
       DOS:  cpu time      0.0003: real time      0.0005
    CHARGE:  cpu time      0.0079: real time      0.0079
    MIXING:  cpu time      0.0002: real time      0.0002
    --------------------------------------------
      LOOP:  cpu time      0.5776: real time      0.5788

 eigenvalue-minimisations  :  1632
 total energy-change (2. order) : 0.6017402E-02  (-0.5857885E-02)
 number of electron      30.9999931 magnetization 
 augmentation part       10.8774726 magnetization 

 Broyden mixing:
  rms(total) = 0.43984E-01    rms(broyden)= 0.43983E-01
  rms(prec ) = 0.53237E-01
  weight for this iteration     100.00

 eigenvalues of (default mixing * dielectric matrix)
  average eigenvalue GAMMA=   1.4837
  2.4145  1.1817  0.8549

 Free energy of the ion-electron system (eV)
  ---------------------------------------------------
  alpha Z        PSCENC =        93.15974012
  Ewald energy   TEWEN  =     -1844.16369660
  -Hartree energ DENC   =      -991.12052376
  -exchange      EXHF   =         0.00000000
  -V(xc)+E(xc)   XCENC  =       106.76329135
  PAW double counting   =      2973.72148862    -3233.97157343
  entropy T*S    EENTRO =        -0.00198299
  eigenvalues    EBANDS =      -185.76941902
  atomic energy  EATOM  =      3068.49415586
  Solvation  Ediel_sol  =         0.00000000
  ---------------------------------------------------
  free energy    TOTEN  =       -12.88851986 eV

  energy without entropy =      -12.88653687  energy(sigma->0) =      -12.88752837


--------------------------------------------------------------------------------------------------------




--------------------------------------- Iteration      1(   9)  ---------------------------------------


    POTLOK:  cpu time      0.0055: real time      0.0057
    SETDIJ:  cpu time      0.0015: real time      0.0015
     EDDAV:  cpu time      0.4556: real time      0.4557
       DOS:  cpu time      0.0005: real time      0.0006
    CHARGE:  cpu time      0.0086: real time      0.0086
    MIXING:  cpu time      0.0003: real time      0.0003
    --------------------------------------------
      LOOP:  cpu time      0.4719: real time      0.4723

 eigenvalue-minimisations  :  1408
 total energy-change (2. order) : 0.9086730E-03  (-0.9673046E-03)
 number of electron      30.9999932 magnetization 
 augmentation part       10.8850371 magnetization 

 Broyden mixing:
  rms(total) = 0.10220E-01    rms(broyden)= 0.10220E-01
  rms(prec ) = 0.14247E-01
  weight for this iteration     100.00

 eigenvalues of (default mixing * dielectric matrix)
  average eigenvalue GAMMA=   1.5066
  2.3332  0.8898  1.0407  1.7626

 Free energy of the ion-electron system (eV)
  ---------------------------------------------------
  alpha Z        PSCENC =        93.15974012
  Ewald energy   TEWEN  =     -1844.16369660
  -Hartree energ DENC   =      -990.18550735
  -exchange      EXHF   =         0.00000000
  -V(xc)+E(xc)   XCENC  =       106.71760592
  PAW double counting   =      2996.75288653    -3256.74590184
  entropy T*S    EENTRO =        -0.00194629
  eigenvalues    EBANDS =      -186.91494753
  atomic energy  EATOM  =      3068.49415586
  Solvation  Ediel_sol  =         0.00000000
  ---------------------------------------------------
  free energy    TOTEN  =       -12.88761119 eV

  energy without entropy =      -12.88566490  energy(sigma->0) =      -12.88663805


--------------------------------------------------------------------------------------------------------




--------------------------------------- Iteration      1(  10)  ---------------------------------------


    POTLOK:  cpu time      0.0058: real time      0.0060
    SETDIJ:  cpu time      0.0017: real time      0.0017
     EDDAV:  cpu time      0.4983: real time      0.4987
       DOS:  cpu time      0.0003: real time      0.0005
    CHARGE:  cpu time      0.0078: real time      0.0078
    MIXING:  cpu time      0.0003: real time      0.0003
    --------------------------------------------
      LOOP:  cpu time      0.5141: real time      0.5149

 eigenvalue-minimisations  :  1568
 total energy-change (2. order) :-0.9512642E-04  (-0.1294613E-03)
 number of electron      30.9999932 magnetization 
 augmentation part       10.8821672 magnetization 

 Broyden mixing:
  rms(total) = 0.73576E-02    rms(broyden)= 0.73575E-02
  rms(prec ) = 0.83106E-02
  weight for this iteration     100.00

 eigenvalues of (default mixing * dielectric matrix)
  average eigenvalue GAMMA=   1.6489
  2.5416  2.5416  0.8753  0.8753  1.4108

 Free energy of the ion-electron system (eV)
  ---------------------------------------------------
  alpha Z        PSCENC =        93.15974012
  Ewald energy   TEWEN  =     -1844.16369660
  -Hartree energ DENC   =      -990.25090506
  -exchange      EXHF   =         0.00000000
  -V(xc)+E(xc)   XCENC  =       106.71812194
  PAW double counting   =      2997.16836702    -3257.26684099
  entropy T*S    EENTRO =        -0.00195664
  eigenvalues    EBANDS =      -186.74469195
  atomic energy  EATOM  =      3068.49415586
  Solvation  Ediel_sol  =         0.00000000
  ---------------------------------------------------
  free energy    TOTEN  =       -12.88770632 eV

  energy without entropy =      -12.88574968  energy(sigma->0) =      -12.88672800


--------------------------------------------------------------------------------------------------------




--------------------------------------- Iteration      1(  11)  ---------------------------------------


    POTLOK:  cpu time      0.0054: real time      0.0056
    SETDIJ:  cpu time      0.0015: real time      0.0015
     EDDAV:  cpu time      0.4554: real time      0.4555
       DOS:  cpu time      0.0003: real time      0.0005
    CHARGE:  cpu time      0.0079: real time      0.0079
    MIXING:  cpu time      0.0002: real time      0.0002
    --------------------------------------------
      LOOP:  cpu time      0.4708: real time      0.4712

 eigenvalue-minimisations  :  1440
 total energy-change (2. order) :-0.5483163E-04  (-0.1106271E-04)
 number of electron      30.9999932 magnetization 
 augmentation part       10.8823451 magnetization 

 Broyden mixing:
  rms(total) = 0.14162E-02    rms(broyden)= 0.14162E-02
  rms(prec ) = 0.22661E-02
  weight for this iteration     100.00

 eigenvalues of (default mixing * dielectric matrix)
  average eigenvalue GAMMA=   1.5901
  2.6809  2.4765  1.4285  0.9234  0.9234  1.1077

 Free energy of the ion-electron system (eV)
  ---------------------------------------------------
  alpha Z        PSCENC =        93.15974012
  Ewald energy   TEWEN  =     -1844.16369660
  -Hartree energ DENC   =      -990.26014179
  -exchange      EXHF   =         0.00000000
  -V(xc)+E(xc)   XCENC  =       106.72089756
  PAW double counting   =      2989.50116797    -3249.60854626
  entropy T*S    EENTRO =        -0.00195623
  eigenvalues    EBANDS =      -186.72938177
  atomic energy  EATOM  =      3068.49415586
  Solvation  Ediel_sol  =         0.00000000
  ---------------------------------------------------
  free energy    TOTEN  =       -12.88776115 eV

  energy without entropy =      -12.88580492  energy(sigma->0) =      -12.88678304


--------------------------------------------------------------------------------------------------------




--------------------------------------- Iteration      1(  12)  ---------------------------------------


    POTLOK:  cpu time      0.0055: real time      0.0057
    SETDIJ:  cpu time      0.0014: real time      0.0014
     EDDAV:  cpu time      0.5748: real time      0.5751
       DOS:  cpu time      0.0003: real time      0.0005
    --------------------------------------------
      LOOP:  cpu time      0.5820: real time      0.5827

 eigenvalue-minimisations  :  1664
 total energy-change (2. order) :-0.6391474E-07  (-0.4254581E-05)
 number of electron      30.9999932 magnetization 
 augmentation part       10.8823451 magnetization 

 Free energy of the ion-electron system (eV)
  ---------------------------------------------------
  alpha Z        PSCENC =        93.15974012
  Ewald energy   TEWEN  =     -1844.16369660
  -Hartree energ DENC   =      -990.21319526
  -exchange      EXHF   =         0.00000000
  -V(xc)+E(xc)   XCENC  =       106.72086538
  PAW double counting   =      2990.41414099    -3250.51036034
  entropy T*S    EENTRO =        -0.00195279
  eigenvalues    EBANDS =      -186.78745856
  atomic energy  EATOM  =      3068.49415586
  Solvation  Ediel_sol  =         0.00000000
  ---------------------------------------------------
  free energy    TOTEN  =       -12.88776121 eV

  energy without entropy =      -12.88580842  energy(sigma->0) =      -12.88678482


--------------------------------------------------------------------------------------------------------




 average (electrostatic) potential at core
  the test charge radii are     0.9254  0.9521  0.9698
  (the norm of the test charge is              1.0000)
       1 -45.9435       2 -35.8971       3 -88.0591       4 -88.0591



 E-fermi :   2.4983     XC(G=0):  -9.6143     alpha+bet : -9.2774

 Fermi energy:         2.4983391673

 k-point     1 :       0.0000    0.0000    0.0000
  band No.  band energies     occupation 
      1     -20.1365      2.00000
      2     -20.1324      2.00000
      3     -20.1324      2.00000
      4     -10.3800      2.00000
      5      -9.2214      2.00000
      6      -3.6650      2.00000
      7      -3.6240      2.00000
      8      -3.6239      2.00000
      9      -3.3332      2.00000
     10      -3.3332      2.00000
     11      -1.7945      2.00000
     12       1.8017      2.00000
     13       2.6155      0.00092
     14       2.6155      0.00092
     15       2.8696      0.00000
     16       2.8696      0.00000
     17       5.6482      0.00000
     18       8.0092      0.00000
     19       9.4085      0.00000
     20      10.3183      0.00000
     21      10.3184      0.00000
     22      12.6301      0.00000
     23      12.6996      0.00000
     24      12.6996      0.00000
     25      14.0316      0.00000
     26      14.0317      0.00000
     27      14.6544      0.00000
     28      15.1830      0.00000
     29      15.1830      0.00000
     30      15.7916      0.00000
     31      16.8082      0.00000
     32      19.8575      0.00000

 k-point     2 :       0.1667    0.0000    0.0000
  band No.  band energies     occupation 
      1     -20.1452      2.00000
      2     -20.1353      2.00000
      3     -20.1335      2.00000
      4     -10.1154      2.00000
      5      -9.0933      2.00000
      6      -3.6193      2.00000
      7      -3.5937      2.00000
      8      -3.5572      2.00000
      9      -3.3588      2.00000
     10      -3.3306      2.00000
     11      -1.6358      2.00000
     12       1.0422      2.00000
     13       1.7544      2.00000
     14       1.9503      2.00000
     15       2.0974      2.00000
     16       2.8652      0.00000
     17       6.6870      0.00000
     18       8.1172      0.00000
     19       9.4144      0.00000
     20      10.8088      0.00000
     21      10.8638      0.00000
     22      11.4960      0.00000
     23      11.6629      0.00000
     24      12.3344      0.00000
     25      13.1428      0.00000
     26      13.7780      0.00000
     27      15.1761      0.00000
     28      16.3006      0.00000
     29      16.6710      0.00000
     30      18.0990      0.00000
     31      18.6535      0.00000
     32      18.6953      0.00000

 k-point     3 :       0.3333    0.0000    0.0000
  band No.  band energies     occupation 
      1     -20.1705      2.00000
      2     -20.1411      2.00000
      3     -20.1273      2.00000
      4      -9.4570      2.00000
      5      -8.8435      2.00000
      6      -3.5766      2.00000
      7      -3.5715      2.00000
      8      -3.4611      2.00000
      9      -3.3457      2.00000
     10      -3.2767      2.00000
     11      -1.5575      2.00000
     12      -0.6414      2.00000
     13       0.2820      2.00000
     14       1.3923      2.00000
     15       2.0074      2.00000
     16       2.6592      0.00001
     17       6.3816      0.00000
     18       7.7952      0.00000
     19       9.3564      0.00000
     20       9.9969      0.00000
     21      10.5674      0.00000
     22      10.7006      0.00000
     23      12.0393      0.00000
     24      14.5565      0.00000
     25      14.6394      0.00000
     26      15.0957      0.00000
     27      15.7066      0.00000
     28      16.0073      0.00000
     29      16.7920      0.00000
     30      16.7988      0.00000
     31      18.9686      0.00000
     32      19.5875      0.00000

 k-point     4 :       0.5000    0.0000    0.0000
  band No.  band energies     occupation 
      1     -20.1830      2.00000
      2     -20.1439      2.00000
      3     -20.1242      2.00000
      4      -8.9237      2.00000
      5      -8.8308      2.00000
      6      -3.7042      2.00000
      7      -3.5782      2.00000
      8      -3.4706      2.00000
      9      -3.2255      2.00000
     10      -3.1714      2.00000
     11      -1.9569      2.00000
     12      -1.2603      2.00000
     13       0.2892      2.00000
     14       1.0929      2.00000
     15       1.7839      2.00000
     16       2.5494      0.14862
     17       5.7016      0.00000
     18       7.8848      0.00000
     19       8.9630      0.00000
     20      10.0248      0.00000
     21      10.4441      0.00000
     22      10.9642      0.00000
     23      11.0581      0.00000
     24      14.8784      0.00000
     25      16.1678      0.00000
     26      16.2132      0.00000
     27      16.3757      0.00000
     28      16.8999      0.00000
     29      17.3678      0.00000
     30      18.0914      0.00000
     31      18.7584      0.00000
     32      19.6900      0.00000

 k-point     5 :       0.1667    0.1667    0.0000
  band No.  band energies     occupation 
      1     -20.1618      2.00000
      2     -20.1420      2.00000
      3     -20.1288      2.00000
      4      -9.6503      2.00000
      5      -8.8984      2.00000
      6      -3.5933      2.00000
      7      -3.5497      2.00000
      8      -3.4494      2.00000
      9      -3.3708      2.00000
     10      -3.3150      2.00000
     11      -1.4608      2.00000
     12       0.0856      2.00000
     13       0.1800      2.00000
     14       1.6308      2.00000
     15       1.8698      2.00000
     16       2.3512      1.99997
     17       7.3620      0.00000
     18       7.8998      0.00000
     19       9.4854      0.00000
     20      10.3805      0.00000
     21      10.6839      0.00000
     22      10.8516      0.00000
     23      11.5902      0.00000
     24      12.9868      0.00000
     25      13.2979      0.00000
     26      15.0302      0.00000
     27      15.6154      0.00000
     28      16.7823      0.00000
     29      17.5111      0.00000
     30      17.6254      0.00000
     31      18.5010      0.00000
     32      18.9552      0.00000

 k-point     6 :       0.3333    0.1667    0.0000
  band No.  band energies     occupation 
      1     -20.1764      2.00000
      2     -20.1505      2.00000
      3     -20.1242      2.00000
      4      -9.0225      2.00000
      5      -8.7426      2.00000
      6      -3.6143      2.00000
      7      -3.5380      2.00000
      8      -3.4242      2.00000
      9      -3.2969      2.00000
     10      -3.2451      2.00000
     11      -1.8339      2.00000
     12      -0.8521      2.00000
     13       0.1332      2.00000
     14       0.6037      2.00000
     15       1.5817      2.00000
     16       2.0407      2.00000
     17       6.3704      0.00000
     18       8.9200      0.00000
     19       9.4087      0.00000
     20       9.8168      0.00000
     21      10.4953      0.00000
     22      10.7494      0.00000
     23      11.8019      0.00000
     24      13.7768      0.00000
     25      14.3511      0.00000
     26      14.8018      0.00000
     27      16.3216      0.00000
     28      16.7588      0.00000
     29      18.5671      0.00000
     30      18.7819      0.00000
     31      18.8542      0.00000
     32      19.8088      0.00000

 k-point     7 :       0.3333    0.3333    0.0000
  band No.  band energies     occupation 
      1     -20.1671      2.00000
      2     -20.1671      2.00000
      3     -20.1227      2.00000
      4      -8.7363      2.00000
      5      -8.7363      2.00000
      6      -3.5154      2.00000
      7      -3.5154      2.00000
      8      -3.3948      2.00000
      9      -3.3125      2.00000
     10      -3.3125      2.00000
     11      -1.9715      2.00000
     12      -0.3270      2.00000
     13      -0.3270      2.00000
     14      -0.1365      2.00000
     15       1.5143      2.00000
     16       1.5144      2.00000
     17       6.2177      0.00000
     18       9.6940      0.00000
     19       9.6941      0.00000
     20      10.5916      0.00000
     21      10.5917      0.00000
     22      10.9721      0.00000
     23      11.9643      0.00000
     24      13.1114      0.00000
     25      14.1514      0.00000
     26      14.1515      0.00000
     27      15.9634      0.00000
     28      16.5433      0.00000
     29      16.5433      0.00000
     30      20.2689      0.00000
     31      20.2689      0.00000
     32      21.0294      0.00000

 k-point     8 :       0.0000    0.0000    0.3333
  band No.  band energies     occupation 
      1     -20.1367      2.00000
      2     -20.1324      2.00000
      3     -20.1324      2.00000
      4     -10.3095      2.00000
      5      -9.3353      2.00000
      6      -3.6237      2.00000
      7      -3.6236      2.00000
      8      -3.6154      2.00000
      9      -3.3333      2.00000
     10      -3.3332      2.00000
     11      -1.3589      2.00000
     12       0.8082      2.00000
     13       2.5749      0.03043
     14       2.5749      0.03039
     15       2.9146      0.00000
     16       2.9146      0.00000
     17       6.8501      0.00000
     18       8.0220      0.00000
     19       8.9543      0.00000
     20      10.1971      0.00000
     21      10.1972      0.00000
     22      12.0429      0.00000
     23      12.5842      0.00000
     24      12.5842      0.00000
     25      14.7274      0.00000
     26      14.7877      0.00000
     27      14.7878      0.00000
     28      15.5417      0.00000
     29      15.5417      0.00000
     30      16.0918      0.00000
     31      17.5399      0.00000
     32      17.8138      0.00000

 k-point     9 :       0.1667    0.0000    0.3333
  band No.  band energies     occupation 
      1     -20.1451      2.00000
      2     -20.1352      2.00000
      3     -20.1336      2.00000
      4     -10.0527      2.00000
      5      -9.1882      2.00000
      6      -3.6351      2.00000
      7      -3.5935      2.00000
      8      -3.5267      2.00000
      9      -3.3603      2.00000
     10      -3.3306      2.00000
     11      -1.2917      2.00000
     12       0.9930      2.00000
     13       1.2113      2.00000
     14       1.8817      2.00000
     15       2.1271      2.00000
     16       2.8221      0.00000
     17       7.2772      0.00000
     18       8.4996      0.00000
     19       9.1537      0.00000
     20      10.1540      0.00000
     21      10.8890      0.00000
     22      11.4818      0.00000
     23      11.6368      0.00000
     24      12.9968      0.00000
     25      13.4477      0.00000
     26      14.3109      0.00000
     27      15.3579      0.00000
     28      15.5680      0.00000
     29      15.7775      0.00000
     30      16.5762      0.00000
     31      18.5724      0.00000
     32      19.1232      0.00000

 k-point    10 :       0.0000    0.1667    0.3333
  band No.  band energies     occupation 
      1     -20.1451      2.00000
      2     -20.1352      2.00000
      3     -20.1336      2.00000
      4     -10.0531      2.00000
      5      -9.1879      2.00000
      6      -3.6211      2.00000
      7      -3.5933      2.00000
      8      -3.5378      2.00000
      9      -3.3595      2.00000
     10      -3.3305      2.00000
     11      -1.2755      2.00000
     12       0.7112      2.00000
     13       1.4728      2.00000
     14       1.9038      2.00000
     15       2.0906      2.00000
     16       2.8721      0.00000
     17       7.5045      0.00000
     18       7.9882      0.00000
     19       9.3090      0.00000
     20      10.5434      0.00000
     21      10.6960      0.00000
     22      11.1618      0.00000
     23      11.9269      0.00000
     24      12.7807      0.00000
     25      13.2554      0.00000
     26      14.1991      0.00000
     27      14.9593      0.00000
     28      16.0859      0.00000
     29      16.3109      0.00000
     30      18.0583      0.00000
     31      18.3101      0.00000
     32      18.6433      0.00000

 k-point    11 :       0.3333    0.0000    0.3333
  band No.  band energies     occupation 
      1     -20.1705      2.00000
      2     -20.1410      2.00000
      3     -20.1274      2.00000
      4      -9.4166      2.00000
      5      -8.8924      2.00000
      6      -3.5950      2.00000
      7      -3.5715      2.00000
      8      -3.4641      2.00000
      9      -3.3551      2.00000
     10      -3.2766      2.00000
     11      -1.5968      2.00000
     12      -0.5139      2.00000
     13       0.6315      2.00000
     14       1.4231      2.00000
     15       1.5583      2.00000
     16       2.6048      0.00259
     17       6.0955      0.00000
     18       8.3128      0.00000
     19       8.7943      0.00000
     20       9.9630      0.00000
     21      11.0852      0.00000
     22      11.1790      0.00000
     23      12.3582      0.00000
     24      13.7990      0.00000
     25      14.0085      0.00000
     26      14.8694      0.00000
     27      15.9621      0.00000
     28      16.0052      0.00000
     29      16.2591      0.00000
     30      17.3885      0.00000
     31      19.4125      0.00000
     32      20.7240      0.00000

 k-point    12 :       0.0000    0.3333    0.3333
  band No.  band energies     occupation 
      1     -20.1705      2.00000
      2     -20.1410      2.00000
      3     -20.1274      2.00000
      4      -9.4189      2.00000
      5      -8.8905      2.00000
      6      -3.5803      2.00000
      7      -3.5713      2.00000
      8      -3.4485      2.00000
      9      -3.3632      2.00000
     10      -3.2766      2.00000
     11      -1.5045      2.00000
     12      -0.7507      2.00000
     13       0.5153      2.00000
     14       1.4079      2.00000
     15       1.8837      2.00000
     16       2.6291      0.00022
     17       6.2617      0.00000
     18       7.7622      0.00000
     19       8.9979      0.00000
     20       9.8505      0.00000
     21      10.9247      0.00000
     22      10.9283      0.00000
     23      12.9495      0.00000
     24      13.9350      0.00000
     25      14.3064      0.00000
     26      14.9640      0.00000
     27      15.3202      0.00000
     28      15.8564      0.00000
     29      16.7003      0.00000
     30      18.0555      0.00000
     31      19.0814      0.00000
     32      20.1223      0.00000

 k-point    13 :       0.5000    0.0000    0.3333
  band No.  band energies     occupation 
      1     -20.1830      2.00000
      2     -20.1439      2.00000
      3     -20.1243      2.00000
      4      -8.9182      2.00000
      5      -8.8332      2.00000
      6      -3.7030      2.00000
      7      -3.5783      2.00000
      8      -3.4605      2.00000
      9      -3.2255      2.00000
     10      -3.1761      2.00000
     11      -1.9929      2.00000
     12      -1.4354      2.00000
     13       0.5922      2.00000
     14       1.1168      2.00000
     15       1.9234      2.00000
     16       2.5027      0.90233
     17       5.4670      0.00000
     18       8.0049      0.00000
     19       8.3043      0.00000
     20       9.1892      0.00000
     21      10.8128      0.00000
     22      10.9862      0.00000
     23      13.3674      0.00000
     24      14.1949      0.00000
     25      14.7006      0.00000
     26      15.6207      0.00000
     27      16.7806      0.00000
     28      17.6151      0.00000
     29      17.9847      0.00000
     30      18.7684      0.00000
     31      19.2014      0.00000
     32      19.8946      0.00000

 k-point    14 :       0.1667    0.1667    0.3333
  band No.  band energies     occupation 
      1     -20.1617      2.00000
      2     -20.1420      2.00000
      3     -20.1290      2.00000
      4      -9.6031      2.00000
      5      -8.9607      2.00000
      6      -3.5908      2.00000
      7      -3.5716      2.00000
      8      -3.4399      2.00000
      9      -3.3776      2.00000
     10      -3.3148      2.00000
     11      -1.3493      2.00000
     12       0.0517      2.00000
     13       0.4442      2.00000
     14       1.3068      2.00000
     15       1.9457      2.00000
     16       2.1691      2.00000
     17       7.2483      0.00000
     18       7.8552      0.00000
     19      10.1577      0.00000
     20      10.5100      0.00000
     21      10.5796      0.00000
     22      11.2485      0.00000
     23      11.4410      0.00000
     24      12.0931      0.00000
     25      13.5270      0.00000
     26      14.7060      0.00000
     27      15.7023      0.00000
     28      16.4663      0.00000
     29      17.0469      0.00000
     30      17.8978      0.00000
     31      19.6615      0.00000
     32      20.0892      0.00000

 k-point    15 :       0.3333    0.1667    0.3333
  band No.  band energies     occupation 
      1     -20.1764      2.00000
      2     -20.1504      2.00000
      3     -20.1243      2.00000
      4      -9.0027      2.00000
      5      -8.7619      2.00000
      6      -3.6087      2.00000
      7      -3.5419      2.00000
      8      -3.4235      2.00000
      9      -3.3028      2.00000
     10      -3.2502      2.00000
     11      -1.8551      2.00000
     12      -0.9368      2.00000
     13       0.1579      2.00000
     14       0.7224      2.00000
     15       1.6239      2.00000
     16       2.1313      2.00000
     17       6.3369      0.00000
     18       8.1012      0.00000
     19       9.1347      0.00000
     20      10.0134      0.00000
     21      10.3709      0.00000
     22      11.8502      0.00000
     23      12.2850      0.00000
     24      12.7775      0.00000
     25      13.7397      0.00000
     26      15.8036      0.00000
     27      16.4649      0.00000
     28      17.9440      0.00000
     29      18.0560      0.00000
     30      18.6926      0.00000
     31      19.2918      0.00000
     32      20.0206      0.00000

 k-point    16 :      -0.1667    0.5000    0.3333
  band No.  band energies     occupation 
      1     -20.1764      2.00000
      2     -20.1504      2.00000
      3     -20.1243      2.00000
      4      -9.0044      2.00000
      5      -8.7605      2.00000
      6      -3.6118      2.00000
      7      -3.5367      2.00000
      8      -3.4152      2.00000
      9      -3.3032      2.00000
     10      -3.2473      2.00000
     11      -1.8268      2.00000
     12      -1.0395      2.00000
     13       0.3060      2.00000
     14       0.5254      2.00000
     15       1.7962      2.00000
     16       2.1036      2.00000
     17       6.3801      0.00000
     18       7.9363      0.00000
     19       9.2680      0.00000
     20       9.9454      0.00000
     21      10.1917      0.00000
     22      11.8642      0.00000
     23      12.2529      0.00000
     24      12.9916      0.00000
     25      14.1255      0.00000
     26      15.5429      0.00000
     27      16.0262      0.00000
     28      17.9659      0.00000
     29      18.6277      0.00000
     30      18.8766      0.00000
     31      19.4809      0.00000
     32      19.8166      0.00000

 k-point    17 :       0.3333    0.3333    0.3333
  band No.  band energies     occupation 
      1     -20.1672      2.00000
      2     -20.1671      2.00000
      3     -20.1227      2.00000
      4      -8.7356      2.00000
      5      -8.7355      2.00000
      6      -3.5118      2.00000
      7      -3.5118      2.00000
      8      -3.3865      2.00000
      9      -3.3113      2.00000
[...]
     29      16.5877      0.00000
     30      20.1288      0.00000
     31      20.1288      0.00000
     32      20.9989      0.00000

 k-point     8 :       0.0000    0.0000    0.3333
  band No.  band energies     occupation 
      1     -20.2341      2.00000
      2     -20.2340      2.00000
      3     -20.2307      2.00000
      4     -10.3560      2.00000
      5      -9.3482      2.00000
      6      -3.6311      2.00000
      7      -3.6311      2.00000
      8      -3.6259      2.00000
      9      -3.3312      2.00000
     10      -3.3312      2.00000
     11      -1.3848      2.00000
     12       0.7747      2.00000
     13       2.6100      0.03572
     14       2.6100      0.03568
     15       2.9533      0.00000
     16       2.9533      0.00000
     17       6.8082      0.00000
     18       8.0716      0.00000
     19       8.7674      0.00000
     20      10.2461      0.00000
     21      10.2462      0.00000
     22      12.1136      0.00000
     23      12.6391      0.00000
     24      12.6391      0.00000
     25      14.5214      0.00000
     26      14.8308      0.00000
     27      14.8309      0.00000
     28      15.5737      0.00000
     29      15.5737      0.00000
     30      16.1352      0.00000
     31      17.4673      0.00000
     32      17.8064      0.00000

 k-point     9 :       0.1667    0.0000    0.3333
  band No.  band energies     occupation 
      1     -20.2469      2.00000
      2     -20.2369      2.00000
      3     -20.2276      2.00000
      4     -10.0939      2.00000
      5      -9.1990      2.00000
      6      -3.6433      2.00000
      7      -3.5996      2.00000
      8      -3.5332      2.00000
      9      -3.3590      2.00000
     10      -3.3289      2.00000
     11      -1.3118      2.00000
     12       0.9739      2.00000
     13       1.2154      2.00000
     14       1.8972      2.00000
     15       2.1474      2.00000
     16       2.8671      0.00000
     17       7.2771      0.00000
     18       8.3657      0.00000
     19       9.1688      0.00000
     20      10.1776      0.00000
     21      10.9368      0.00000
     22      11.5207      0.00000
     23      11.6548      0.00000
     24      13.0462      0.00000
     25      13.3782      0.00000
     26      14.3615      0.00000
     27      15.3430      0.00000
     28      15.5853      0.00000
     29      15.6485      0.00000
     30      16.3962      0.00000
     31      18.5733      0.00000
     32      19.1485      0.00000

 k-point    10 :       0.0000    0.1667    0.3333
  band No.  band energies     occupation 
      1     -20.2469      2.00000
      2     -20.2369      2.00000
      3     -20.2276      2.00000
      4     -10.0943      2.00000
      5      -9.1986      2.00000
      6      -3.6299      2.00000
      7      -3.5995      2.00000
      8      -3.5440      2.00000
      9      -3.3582      2.00000
     10      -3.3288      2.00000
     11      -1.2976      2.00000
     12       0.7084      2.00000
     13       1.4688      2.00000
     14       1.9158      2.00000
     15       2.1166      2.00000
     16       2.9097      0.00000
     17       7.4420      0.00000
     18       7.9377      0.00000
     19       9.3403      0.00000
     20      10.5531      0.00000
     21      10.7595      0.00000
     22      11.1986      0.00000
     23      11.9154      0.00000
     24      12.7498      0.00000
     25      13.3011      0.00000
     26      14.2248      0.00000
     27      14.7763      0.00000
     28      16.0843      0.00000
     29      16.2549      0.00000
     30      17.9389      0.00000
     31      18.3511      0.00000
     32      18.6889      0.00000

 k-point    11 :       0.3333    0.0000    0.3333
  band No.  band energies     occupation 
      1     -20.2725      2.00000
      2     -20.2428      2.00000
      3     -20.2216      2.00000
      4      -9.4429      2.00000
      5      -8.8990      2.00000
      6      -3.6037      2.00000
      7      -3.5760      2.00000
      8      -3.4650      2.00000
      9      -3.3541      2.00000
     10      -3.2742      2.00000
     11      -1.5994      2.00000
     12      -0.5377      2.00000
     13       0.6125      2.00000
     14       1.4314      2.00000
     15       1.5563      2.00000
     16       2.6464      0.00175
     17       6.1382      0.00000
     18       8.1656      0.00000
     19       8.7954      0.00000
     20       9.9316      0.00000
     21      11.1063      0.00000
     22      11.1186      0.00000
     23      12.3393      0.00000
     24      13.8245      0.00000
     25      13.9892      0.00000
     26      14.8112      0.00000
     27      15.9718      0.00000
     28      15.9951      0.00000
     29      16.3245      0.00000
     30      17.0387      0.00000
     31      19.2482      0.00000
     32      20.5912      0.00000

 k-point    12 :       0.0000    0.3333    0.3333
  band No.  band energies     occupation 
      1     -20.2725      2.00000
      2     -20.2428      2.00000
      3     -20.2216      2.00000
      4      -9.4451      2.00000
      5      -8.8972      2.00000
      6      -3.5901      2.00000
      7      -3.5758      2.00000
      8      -3.4503      2.00000
      9      -3.3622      2.00000
     10      -3.2742      2.00000
     11      -1.5155      2.00000
     12      -0.7576      2.00000
     13       0.5063      2.00000
     14       1.4187      2.00000
     15       1.8673      2.00000
     16       2.6670      0.00020
     17       6.2553      0.00000
     18       7.6897      0.00000
     19       9.0248      0.00000
     20       9.8457      0.00000
     21      10.7835      0.00000
     22      10.9744      0.00000
     23      12.9722      0.00000
     24      13.8497      0.00000
     25      14.3080      0.00000
     26      14.8689      0.00000
     27      15.3572      0.00000
     28      15.7473      0.00000
     29      16.7561      0.00000
     30      17.8288      0.00000
     31      18.9460      0.00000
     32      20.1000      0.00000

 k-point    13 :       0.5000    0.0000    0.3333
  band No.  band energies     occupation 
      1     -20.2852      2.00000
      2     -20.2457      2.00000
      3     -20.2187      2.00000
      4      -8.9289      2.00000
      5      -8.8420      2.00000
      6      -3.7195      2.00000
      7      -3.5827      2.00000
      8      -3.4614      2.00000
      9      -3.2216      2.00000
     10      -3.1678      2.00000
     11      -2.0017      2.00000
     12      -1.4587      2.00000
     13       0.5715      2.00000
     14       1.1208      2.00000
     15       1.9238      2.00000
     16       2.5413      0.87403
     17       5.4809      0.00000
     18       7.9387      0.00000
     19       8.2917      0.00000
     20       9.1416      0.00000
     21      10.8435      0.00000
     22      10.8559      0.00000
     23      13.2802      0.00000
     24      14.1832      0.00000
     25      14.5534      0.00000
     26      15.5863      0.00000
     27      16.5604      0.00000
     28      17.6767      0.00000
     29      17.9366      0.00000
     30      18.8609      0.00000
     31      19.1671      0.00000
     32      19.9248      0.00000

 k-point    14 :       0.1667    0.1667    0.3333
  band No.  band energies     occupation 
      1     -20.2637      2.00000
      2     -20.2438      2.00000
      3     -20.2231      2.00000
      4      -9.6342      2.00000
      5      -8.9682      2.00000
      6      -3.5964      2.00000
      7      -3.5799      2.00000
      8      -3.4414      2.00000
      9      -3.3763      2.00000
     10      -3.3134      2.00000
     11      -1.3580      2.00000
     12       0.0533      2.00000
     13       0.4207      2.00000
     14       1.3086      2.00000
     15       1.9643      2.00000
     16       2.1815      2.00000
     17       7.3198      0.00000
     18       7.6912      0.00000
     19      10.2107      0.00000
     20      10.5214      0.00000
     21      10.5990      0.00000
     22      11.2216      0.00000
     23      11.4170      0.00000
     24      12.0769      0.00000
     25      13.4507      0.00000
     26      14.6867      0.00000
     27      15.6403      0.00000
     28      16.3314      0.00000
     29      17.0133      0.00000
     30      17.8650      0.00000
     31      19.6368      0.00000
     32      19.9524      0.00000

 k-point    15 :       0.3333    0.1667    0.3333
  band No.  band energies     occupation 
      1     -20.2786      2.00000
      2     -20.2523      2.00000
      3     -20.2186      2.00000
      4      -9.0172      2.00000
      5      -8.7674      2.00000
      6      -3.6176      2.00000
      7      -3.5485      2.00000
      8      -3.4226      2.00000
      9      -3.3009      2.00000
     10      -3.2451      2.00000
     11      -1.8659      2.00000
     12      -0.9567      2.00000
     13       0.1505      2.00000
     14       0.7106      2.00000
     15       1.6372      2.00000
     16       2.1380      2.00000
     17       6.3667      0.00000
     18       7.9864      0.00000
     19       9.1161      0.00000
     20      10.0339      0.00000
     21      10.3614      0.00000
     22      11.8009      0.00000
     23      12.1817      0.00000
     24      12.7612      0.00000
     25      13.7054      0.00000
     26      15.6825      0.00000
     27      16.3557      0.00000
     28      17.8933      0.00000
     29      17.9643      0.00000
     30      18.5753      0.00000
     31      19.3268      0.00000
     32      20.0130      0.00000

 k-point    16 :      -0.1667    0.5000    0.3333
  band No.  band energies     occupation 
      1     -20.2786      2.00000
      2     -20.2523      2.00000
      3     -20.2186      2.00000
      4      -9.0189      2.00000
      5      -8.7659      2.00000
      6      -3.6205      2.00000
      7      -3.5436      2.00000
      8      -3.4148      2.00000
      9      -3.3015      2.00000
     10      -3.2423      2.00000
     11      -1.8409      2.00000
     12      -1.0508      2.00000
     13       0.2883      2.00000
     14       0.5265      2.00000
     15       1.8057      2.00000
     16       2.1075      2.00000
     17       6.3841      0.00000
     18       7.8800      0.00000
     19       9.2100      0.00000
     20       9.9622      0.00000
     21      10.2025      0.00000
     22      11.7812      0.00000
     23      12.1797      0.00000
     24      12.9908      0.00000
     25      14.0944      0.00000
     26      15.3730      0.00000
     27      15.9199      0.00000
     28      17.8820      0.00000
     29      18.5825      0.00000
     30      18.7550      0.00000
     31      19.4821      0.00000
     32      19.8569      0.00000

 k-point    17 :       0.3333    0.3333    0.3333
  band No.  band energies     occupation 
      1     -20.2692      2.00000
      2     -20.2692      2.00000
      3     -20.2171      2.00000
      4      -8.7416      2.00000
      5      -8.7416      2.00000
      6      -3.5171      2.00000
      7      -3.5171      2.00000
      8      -3.3848      2.00000
      9      -3.3094      2.00000
     10      -3.3094      2.00000
     11      -1.9392      2.00000
     12      -0.4903      2.00000
     13      -0.4903      2.00000
     14      -0.2871      2.00000
     15       1.8298      2.00000
     16       1.8298      2.00000
     17       6.7315      0.00000
     18       8.2308      0.00000
     19       8.2309      0.00000
     20      10.3105      0.00000
     21      11.9720      0.00000
     22      12.1615      0.00000
     23      12.1615      0.00000
     24      12.2573      0.00000
     25      14.2808      0.00000
     26      14.2809      0.00000
     27      16.6974      0.00000
     28      16.6974      0.00000
     29      18.1207      0.00000
     30      18.3560      0.00000
     31      18.3561      0.00000
     32      21.6896      0.00000


--------------------------------------------------------------------------------------------------------


 soft charge-density along one line, spin component           1
         0         1         2         3         4         5         6         7         8         9
 total charge-density along one line

 pseudopotential strength for first ion, spin component:           1
-24.594   0.000   0.000   2.194  -0.000  -0.000   0.000   0.000
  0.000 -24.571  -0.000  -0.000   2.184   0.000   0.000   0.000
  0.000  -0.000 -24.594  -0.000   0.000   2.194   0.000   0.000
  2.194  -0.000  -0.000   6.704  -0.000  -0.000  -0.000   0.000
 -0.000   2.184   0.000  -0.000   6.705   0.000  -0.000   0.000
 -0.000   0.000   2.194  -0.000   0.000   6.704  -0.000   0.000
  0.000   0.000   0.000  -0.000  -0.000  -0.000   1.434   6.995
  0.000   0.000   0.000   0.000   0.000   0.000   6.995  33.901
 total augmentation occupancy for first ion, spin component:           1
  2.001   0.000  -0.000   0.000  -0.000  -0.000   0.000   0.000
  0.000   2.001  -0.000  -0.000  -0.003  -0.000   0.000   0.000
 -0.000  -0.000   2.001  -0.000   0.000   0.000   0.000   0.000
  0.000  -0.000  -0.000   0.018   0.000  -0.000   0.000   0.000
  0.000  -0.003   0.000   0.000   0.025  -0.000   0.000   0.000
 -0.000   0.000   0.000  -0.000  -0.000   0.018   0.000   0.000
  0.000   0.000   0.000   0.000   0.000   0.000   0.516  -0.001
  0.000   0.000   0.000   0.000   0.000   0.000  -0.001   0.000


------------------------ aborting loop because EDIFF is reached ----------------------------------------


    CHARGE:  cpu time      0.0080: real time      0.0080
    FORLOC:  cpu time      0.0002: real time      0.0002
    FORNL :  cpu time      0.0420: real time      0.0420
    STRESS:  cpu time      0.1281: real time      0.1281
    FORCOR:  cpu time      0.0047: real time      0.0047
    FORHAR:  cpu time      0.0013: real time      0.0013
    MIXING:  cpu time      0.0002: real time      0.0002
    OFIELD:  cpu time      0.0000: real time      0.0000

  FORCE on cell =-STRESS in cart. coord.  units (eV):
  Direction    XX          YY          ZZ          XY          YZ          ZX
  --------------------------------------------------------------------------------------
  Alpha Z    92.80535    92.80535    92.80535
  Ewald    -513.61999  -513.61954  -803.80059     0.00036    -0.00010     0.00016
  Hartree   423.57178   423.57174   155.11229    -0.00004     0.00001    -0.00001
  E(xc)    -152.31881  -152.31892  -152.39857    -0.00010     0.00001    -0.00001
  Local    -265.10166  -265.10296   284.73987    -0.00110     0.00006    -0.00011
  n-local    88.84044    88.09651    92.55577    -0.61573    -0.43633     0.61127
  augment    47.56565    47.56656    46.70047     0.00080     0.00002    -0.00004
  Kinetic   278.78285   278.47595   284.22710     1.29146    -0.87059     0.58304
  Fock        0.00000     0.00000     0.00000     0.00000     0.00000     0.00000
  -------------------------------------------------------------------------------------
  Total       0.00014     0.00014    -0.05832    -0.00000    -0.00000     0.00000
  in kB       0.00308     0.00308    -1.23903    -0.00000    -0.00000     0.00000
  external pressure =       -0.41 kB  Pullay stress =        0.00 kB


 VOLUME and BASIS-vectors are now :
 -----------------------------------------------------------------------------
  energy-cutoff  :      400.00
  volume of cell :       75.41
      direct lattice vectors                 reciprocal lattice vectors
     3.547339549 -0.000000000  0.000000000     0.281901404  0.162755852  0.000000000
    -1.773669774  3.072086165 -0.000000000     0.000000000  0.325511703 -0.000000000
    -0.000000000  0.000000000  6.920210147    -0.000000000 -0.000000000  0.144504282

  length of vectors
     3.547339549  3.547339549  6.920210147     0.325511703  0.325511703  0.144504282


 FORCES acting on ions
    electron-ion (+dipol)            ewald-force                    non-local-force                 convergence-correction
 -----------------------------------------------------------------------------------------------
   -.423E-05 -.792E-05 0.198E-03   -.303E-04 -.568E-04 -.478E-03   -.221E-22 -.690E-22 -.536E-21   -.763E-08 -.143E-07 -.660E-06
   -.197E-04 -.369E-04 -.286E-03   -.143E-03 -.267E-03 0.620E-03   0.201E-20 -.111E-20 -.244E-20   0.140E-07 0.263E-07 0.134E-05
   0.787E-06 0.128E-02 0.188E+03   -.543E-05 0.219E-03 -.189E+03   0.208E-16 0.113E-16 0.598E+00   0.463E-08 0.720E-08 -.598E-03
   0.102E-02 0.636E-03 -.188E+03   0.179E-03 0.105E-03 0.189E+03   -.742E-16 -.174E-16 -.598E+00   0.330E-08 0.766E-08 0.598E-03
 -----------------------------------------------------------------------------------------------
   0.100E-02 0.187E-02 -.249E-02   -.920E-14 0.745E-14 -.284E-13   -.535E-16 -.605E-17 0.000E+00   0.143E-07 0.269E-07 0.928E-06


 POSITION                                       TOTAL-FORCE (eV/Angst)
 -----------------------------------------------------------------------------------
     -0.00000      0.00000      3.46011        -0.000000     -0.000000     -0.000000
     -0.00000      0.00000      0.00000        -0.000000     -0.000000     -0.000000
     -0.00000      2.04805      5.48105         0.000000     -0.000000      0.002949
      1.77367      1.02403      1.43917        -0.000000      0.000000     -0.002949
 -----------------------------------------------------------------------------------
    total drift:                                0.001000      0.001873     -0.002494


--------------------------------------------------------------------------------------------------------



  FREE ENERGIE OF THE ION-ELECTRON SYSTEM (eV)
  ---------------------------------------------------
  free  energy   TOTEN  =       -12.89278296 eV

  energy  without entropy=      -12.89075876  energy(sigma->0) =      -12.89177086

 d Force = 0.1819657E-04[ 0.200E-04, 0.164E-04]  d Energy = 0.6147905E-03-0.597E-03
 d Force =-0.1277731E+01[-0.128E+01,-0.128E+01]  d Ewald  =-0.6500468E+01 0.522E+01


--------------------------------------------------------------------------------------------------------


    POTLOK:  cpu time      0.0066: real time      0.0066


--------------------------------------------------------------------------------------------------------


 Conjugate gradient step on ions:
 trial-energy change:   -0.000615  1 .order   -0.000615   -0.001471    0.000240
  (g-gl).g = 0.124E-02      g.g   = 0.116E-02  gl.gl    = 0.373E-02
 g(Force)  = 0.568E-06   g(Stress)= 0.116E-02 ortho     =-0.788E-04
 gamma     =   0.33307
 trial     =   1.29269
 opt step  =   1.11112  (harmonic =   1.11112) maximal distance =0.00289678
 next E    =   -12.892800   (d E  =  -0.00063)


--------------------------------------------------------------------------------------------------------


  
 reached required accuracy - stopping structural energy minimisation
     LOOP+:  cpu time      2.7340: real time      2.7492
    4ORBIT:  cpu time      0.0000: real time      0.0000

 total amount of memory used by VASP MPI-rank0    32114. kBytes
=======================================================================

   base      :      30000. kBytes
   nonlr-proj:        637. kBytes
   fftplans  :        214. kBytes
   grid      :        810. kBytes
   one-center:         62. kBytes
   wavefun   :        391. kBytes

  
  
 General timing and accounting informations for this job:
 ========================================================
  
                  Total CPU time used (sec):       16.609
                            User time (sec):       15.192
                          System time (sec):        1.416
                         Elapsed time (sec):       18.278
  
                   Maximum memory used (kb):      118884.
                   Average memory used (kb):          N/A
  
                          Minor page faults:        21850
                          Major page faults:          154
                 Voluntary context switches:         1164
