  36  36   0   0
  0.2419903E+02  0.9094524E-09  0.9094524E-09  0.1053275E-08  0.1500000E-16
   1.0000000000000000E-004
  CAR 
 unknown system                          
      8.68186544    -22.74181825  301      1.67700262      1.00000000
    -22.742  0.0000E+00  0.0000E+00
    -22.637  0.0000E+00  0.0000E+00
    -22.532  0.0000E+00  0.0000E+00
    -22.428  0.0000E+00  0.0000E+00
    -22.323  0.0000E+00  0.0000E+00
    -22.218  0.0000E+00  0.0000E+00
    -22.113  0.0000E+00  0.0000E+00
    -22.009  0.0000E+00  0.0000E+00
    -21.904  0.0000E+00  0.0000E+00
    -21.799  0.0000E+00  0.0000E+00
    -21.694  0.0000E+00  0.0000E+00
    -21.590  0.4187E-15  0.4385E-16
    -21.485  0.1088E-06  0.1139E-07
    -21.380  0.6840E-02  0.7165E-03
    -21.275  0.3176E+00  0.3399E-01
    -21.171  0.1633E+00  0.5110E-01
    -21.066  0.7415E-03  0.5117E-01
    -20.961  0.3346E-02  0.5152E-01
    -20.856  0.3033E+00  0.8330E-01
    -20.752  0.1813E+00  0.1023E+00
    -20.647  0.5239E-03  0.1023E+00
    -20.542  0.8457E-09  0.1023E+00
    -20.437  0.0000E+00  0.1023E+00
    -20.333  0.0000E+00  0.1023E+00
    -20.228  0.0000E+00  0.1023E+00
    -20.123  0.0000E+00  0.1023E+00
    -20.018  0.0000E+00  0.1023E+00
    -19.914  0.0000E+00  0.1023E+00
    -19.809  0.0000E+00  0.1023E+00
    -19.704  0.0000E+00  0.1023E+00
    -19.599  0.0000E+00  0.1023E+00
    -19.495  0.0000E+00  0.1023E+00
    -19.390  0.0000E+00  0.1023E+00
    -19.285  0.0000E+00  0.1023E+00
    -19.180  0.0000E+00  0.1023E+00
    -19.076  0.0000E+00  0.1023E+00
    -18.971  0.0000E+00  0.1023E+00
    -18.866  0.0000E+00  0.1023E+00
    -18.761  0.0000E+00  0.1023E+00
    -18.657  0.0000E+00  0.1023E+00
    -18.552  0.0000E+00  0.1023E+00
    -18.447  0.0000E+00  0.1023E+00
    -18.343  0.0000E+00  0.1023E+00
    -18.238  0.0000E+00  0.1023E+00
    -18.133  0.0000E+00  0.1023E+00
    -18.028  0.0000E+00  0.1023E+00
    -17.924  0.0000E+00  0.1023E+00
    -17.819  0.0000E+00  0.1023E+00
    -17.714  0.0000E+00  0.1023E+00
    -17.609  0.0000E+00  0.1023E+00
    -17.505  0.0000E+00  0.1023E+00
    -17.400  0.0000E+00  0.1023E+00
    -17.295  0.0000E+00  0.1023E+00
    -17.190  0.0000E+00  0.1023E+00
    -17.086  0.0000E+00  0.1023E+00
    -16.981  0.0000E+00  0.1023E+00
    -16.876  0.0000E+00  0.1023E+00
    -16.771  0.0000E+00  0.1023E+00
    -16.667  0.0000E+00  0.1023E+00
    -16.562  0.0000E+00  0.1023E+00
    -16.457  0.0000E+00  0.1023E+00
    -16.352  0.0000E+00  0.1023E+00
    -16.248  0.0000E+00  0.1023E+00
    -16.143  0.0000E+00  0.1023E+00
    -16.038  0.0000E+00  0.1023E+00
    -15.933  0.0000E+00  0.1023E+00
    -15.829  0.0000E+00  0.1023E+00
    -15.724  0.0000E+00  0.1023E+00
    -15.619  0.0000E+00  0.1023E+00
    -15.514  0.0000E+00  0.1023E+00
    -15.410  0.0000E+00  0.1023E+00
    -15.305  0.0000E+00  0.1023E+00
    -15.200  0.0000E+00  0.1023E+00
    -15.095  0.0000E+00  0.1023E+00
    -14.991  0.0000E+00  0.1023E+00
    -14.886  0.0000E+00  0.1023E+00
    -14.781  0.0000E+00  0.1023E+00
    -14.676  0.0000E+00  0.1023E+00
    -14.572  0.0000E+00  0.1023E+00
    -14.467  0.0000E+00  0.1023E+00
    -14.362  0.0000E+00  0.1023E+00
    -14.257  0.0000E+00  0.1023E+00
    -14.153  0.0000E+00  0.1023E+00
    -14.048  0.0000E+00  0.1023E+00
    -13.943  0.0000E+00  0.1023E+00
    -13.838  0.0000E+00  0.1023E+00
    -13.734  0.0000E+00  0.1023E+00
    -13.629  0.0000E+00  0.1023E+00
    -13.524  0.0000E+00  0.1023E+00
    -13.419  0.0000E+00  0.1023E+00
    -13.315  0.0000E+00  0.1023E+00
    -13.210  0.0000E+00  0.1023E+00
    -13.105  0.0000E+00  0.1023E+00
    -13.000  0.0000E+00  0.1023E+00
    -12.896  0.0000E+00  0.1023E+00
    -12.791  0.0000E+00  0.1023E+00
    -12.686  0.0000E+00  0.1023E+00
    -12.581  0.1669E-13  0.1023E+00
    -12.477  0.2638E-06  0.1023E+00
    -12.372  0.1807E-02  0.1025E+00
    -12.267  0.5118E-01  0.1079E+00
    -12.163  0.2832E-01  0.1109E+00
    -12.058  0.1138E-03  0.1109E+00
    -11.953  0.2981E-09  0.1109E+00
    -11.848  0.0000E+00  0.1109E+00
    -11.744  0.0000E+00  0.1109E+00
    -11.639  0.0000E+00  0.1109E+00
    -11.534  0.1829E-10  0.1109E+00
    -11.429  0.3021E-04  0.1109E+00
    -11.325  0.2330E-01  0.1133E+00
    -11.220  0.1573E+00  0.1298E+00
    -11.115  0.6335E-01  0.1364E+00
    -11.010  0.2714E-03  0.1365E+00
    -10.906  0.8828E-09  0.1365E+00
    -10.801  0.0000E+00  0.1365E+00
    -10.696  0.0000E+00  0.1365E+00
    -10.591  0.1315E-09  0.1365E+00
    -10.487  0.8539E-04  0.1365E+00
    -10.382  0.4420E-01  0.1411E+00
    -10.277  0.1153E+00  0.1532E+00
    -10.172  0.3239E-02  0.1535E+00
    -10.068  0.1672E-06  0.1535E+00
     -9.963  0.1086E-06  0.1535E+00
     -9.858  0.2732E-02  0.1538E+00
     -9.753  0.7126E-01  0.1613E+00
     -9.649  0.1219E+00  0.1740E+00
     -9.544  0.8048E-01  0.1825E+00
     -9.439  0.4877E-01  0.1876E+00
     -9.334  0.5633E-03  0.1876E+00
     -9.230  0.4694E-08  0.1876E+00
     -9.125  0.1017E-16  0.1876E+00
     -9.020  0.0000E+00  0.1876E+00
     -8.915  0.0000E+00  0.1876E+00
     -8.811  0.0000E+00  0.1876E+00
     -8.706  0.0000E+00  0.1876E+00
     -8.601  0.0000E+00  0.1876E+00
     -8.496  0.0000E+00  0.1876E+00
     -8.392  0.0000E+00  0.1876E+00
     -8.287  0.0000E+00  0.1876E+00
     -8.182  0.0000E+00  0.1876E+00
     -8.077  0.0000E+00  0.1876E+00
     -7.973  0.0000E+00  0.1876E+00
     -7.868  0.0000E+00  0.1876E+00
     -7.763  0.0000E+00  0.1876E+00
     -7.658  0.0000E+00  0.1876E+00
     -7.554  0.0000E+00  0.1876E+00
     -7.449  0.0000E+00  0.1876E+00
     -7.344  0.0000E+00  0.1876E+00
     -7.239  0.0000E+00  0.1876E+00
     -7.135  0.0000E+00  0.1876E+00
     -7.030  0.0000E+00  0.1876E+00
     -6.925  0.0000E+00  0.1876E+00
     -6.820  0.0000E+00  0.1876E+00
     -6.716  0.0000E+00  0.1876E+00
     -6.611  0.0000E+00  0.1876E+00
     -6.506  0.0000E+00  0.1876E+00
     -6.402  0.0000E+00  0.1876E+00
     -6.297  0.0000E+00  0.1876E+00
     -6.192  0.0000E+00  0.1876E+00
     -6.087  0.0000E+00  0.1876E+00
     -5.983  0.0000E+00  0.1876E+00
     -5.878  0.0000E+00  0.1876E+00
     -5.773  0.0000E+00  0.1876E+00
     -5.668  0.0000E+00  0.1876E+00
     -5.564  0.3729E-16  0.1876E+00
     -5.459  0.8806E-08  0.1876E+00
     -5.354  0.6387E-03  0.1877E+00
     -5.249  0.4809E-01  0.1927E+00
     -5.145  0.1181E+00  0.2051E+00
     -5.040  0.7452E-01  0.2129E+00
     -4.935  0.2915E-02  0.2132E+00
     -4.830  0.1316E-06  0.2132E+00
     -4.726  0.1497E-14  0.2132E+00
     -4.621  0.0000E+00  0.2132E+00
     -4.516  0.0000E+00  0.2132E+00
     -4.411  0.0000E+00  0.2132E+00
     -4.307  0.0000E+00  0.2132E+00
     -4.202  0.0000E+00  0.2132E+00
     -4.097  0.0000E+00  0.2132E+00
     -3.992  0.2943E-11  0.2132E+00
     -3.888  0.4547E-05  0.2132E+00
     -3.783  0.2218E-02  0.2135E+00
     -3.678  0.7501E-02  0.2142E+00
     -3.573  0.3966E-01  0.2184E+00
     -3.469  0.3090E-01  0.2216E+00
     -3.364  0.1141E-02  0.2217E+00
     -3.259  0.1374E-06  0.2217E+00
     -3.154  0.6090E-14  0.2217E+00
     -3.050  0.9425E-08  0.2217E+00
     -2.945  0.2996E-03  0.2218E+00
     -2.840  0.1864E-01  0.2237E+00
     -2.735  0.8327E-01  0.2325E+00
     -2.631  0.1227E+00  0.2453E+00
     -2.526  0.1927E-01  0.2473E+00
     -2.421  0.6750E-04  0.2473E+00
     -2.316  0.7163E-03  0.2474E+00
     -2.212  0.1464E-01  0.2489E+00
     -2.107  0.1921E-01  0.2510E+00
     -2.002  0.2603E-01  0.2537E+00
     -1.897  0.2319E-01  0.2561E+00
     -1.793  0.4261E-01  0.2606E+00
     -1.688  0.9668E-01  0.2707E+00
     -1.583  0.5932E-01  0.2769E+00
     -1.478  0.4218E-01  0.2813E+00
     -1.374  0.7126E-02  0.2821E+00
     -1.269  0.3226E-01  0.2855E+00
     -1.164  0.4868E-01  0.2906E+00
     -1.059  0.2696E-01  0.2934E+00
     -0.955  0.2209E-01  0.2957E+00
     -0.850  0.3642E-01  0.2995E+00
     -0.745  0.4665E-01  0.3044E+00
     -0.640  0.2740E-01  0.3073E+00
     -0.536  0.1179E-01  0.3085E+00
     -0.431  0.4179E-01  0.3129E+00
     -0.326  0.5679E-01  0.3188E+00
     -0.222  0.3910E-01  0.3229E+00
     -0.117  0.3187E-01  0.3263E+00
     -0.012  0.3258E-01  0.3297E+00
      0.093  0.2787E-01  0.3326E+00
      0.197  0.6221E-01  0.3391E+00
      0.302  0.5734E-01  0.3451E+00
      0.407  0.8794E-01  0.3543E+00
      0.512  0.5474E-01  0.3601E+00
      0.616  0.8664E-01  0.3691E+00
      0.721  0.1061E+00  0.3803E+00
      0.826  0.9400E-01  0.3901E+00
      0.931  0.1081E+00  0.4014E+00
      1.035  0.1355E+00  0.4156E+00
      1.140  0.8613E-01  0.4246E+00
      1.245  0.9322E-01  0.4344E+00
      1.350  0.5280E-01  0.4399E+00
      1.454  0.3362E-01  0.4435E+00
      1.559  0.4288E-03  0.4435E+00
      1.664  0.4024E-08  0.4435E+00
      1.769  0.1017E-16  0.4435E+00
      1.873  0.0000E+00  0.4435E+00
      1.978  0.0000E+00  0.4435E+00
      2.083  0.0000E+00  0.4435E+00
      2.188  0.0000E+00  0.4435E+00
      2.292  0.0000E+00  0.4435E+00
      2.397  0.0000E+00  0.4435E+00
      2.502  0.0000E+00  0.4435E+00
      2.607  0.0000E+00  0.4435E+00
      2.711  0.0000E+00  0.4435E+00
      2.816  0.0000E+00  0.4435E+00
      2.921  0.0000E+00  0.4435E+00
      3.026  0.0000E+00  0.4435E+00
      3.130  0.0000E+00  0.4435E+00
      3.235  0.0000E+00  0.4435E+00
      3.340  0.0000E+00  0.4435E+00
      3.445  0.0000E+00  0.4435E+00
      3.549  0.0000E+00  0.4435E+00
      3.654  0.0000E+00  0.4435E+00
      3.759  0.0000E+00  0.4435E+00
      3.864  0.0000E+00  0.4435E+00
      3.968  0.0000E+00  0.4435E+00
      4.073  0.0000E+00  0.4435E+00
      4.178  0.0000E+00  0.4435E+00
      4.283  0.0000E+00  0.4435E+00
      4.387  0.0000E+00  0.4435E+00
      4.492  0.0000E+00  0.4435E+00
      4.597  0.0000E+00  0.4435E+00
      4.702  0.4283E-11  0.4435E+00
      4.806  0.5711E-05  0.4435E+00
      4.911  0.3092E-02  0.4438E+00
      5.016  0.1073E-01  0.4449E+00
      5.121  0.2606E-01  0.4477E+00
      5.225  0.4066E-01  0.4519E+00
      5.330  0.3708E-01  0.4558E+00
      5.435  0.3186E-01  0.4592E+00
      5.539  0.7852E-01  0.4674E+00
      5.644  0.4878E-01  0.4725E+00
      5.749  0.6270E-01  0.4791E+00
      5.854  0.4585E-01  0.4839E+00
      5.958  0.4722E-01  0.4888E+00
      6.063  0.4700E-01  0.4937E+00
      6.168  0.4636E-01  0.4986E+00
      6.273  0.3198E-01  0.5019E+00
      6.377  0.3678E-01  0.5058E+00
      6.482  0.6894E-01  0.5130E+00
      6.587  0.3137E-01  0.5163E+00
      6.692  0.3852E-01  0.5203E+00
      6.796  0.3461E-01  0.5240E+00
      6.901  0.5786E-01  0.5300E+00
      7.006  0.3428E-01  0.5336E+00
      7.111  0.5581E-01  0.5394E+00
      7.215  0.5275E-01  0.5450E+00
      7.320  0.8118E-02  0.5458E+00
      7.425  0.1550E-03  0.5458E+00
      7.530  0.3176E-08  0.5458E+00
      7.634  0.1469E-16  0.5458E+00
      7.739  0.0000E+00  0.5458E+00
      7.844  0.0000E+00  0.5458E+00
      7.949  0.0000E+00  0.5458E+00
      8.053  0.0000E+00  0.5458E+00
      8.158  0.0000E+00  0.5458E+00
      8.263  0.0000E+00  0.5458E+00
      8.368  0.0000E+00  0.5458E+00
      8.472  0.0000E+00  0.5458E+00
      8.577  0.0000E+00  0.5458E+00
      8.682  0.0000E+00  0.5458E+00
