       N       E                     dE             d eps       ncg     rms          rms(c)
DAV:   1     0.154560030838E+04    0.15456E+04   -0.79312E+04  1696   0.123E+03
DAV:   2     0.135365289192E+02   -0.15321E+04   -0.14647E+04  1856   0.307E+02
DAV:   3    -0.167094242391E+03   -0.18063E+03   -0.17907E+03  1888   0.123E+02
DAV:   4    -0.175382418475E+03   -0.82882E+01   -0.82378E+01  1904   0.282E+01
DAV:   5    -0.175747283288E+03   -0.36486E+00   -0.36427E+00  2136   0.564E+00    0.341E+01
DAV:   6    -0.170163442319E+03    0.55838E+01   -0.10064E+01  1752   0.639E+00    0.225E+01
DAV:   7    -0.169723445259E+03    0.44000E+00   -0.90119E+00  1960   0.584E+00    0.557E+00
DAV:   8    -0.169565030670E+03    0.15841E+00   -0.10972E+00  1736   0.244E+00    0.343E+00
DAV:   9    -0.169576197699E+03   -0.11167E-01   -0.15402E-01  1864   0.921E-01    0.121E+00
DAV:  10    -0.169574159937E+03    0.20378E-02   -0.18114E-02  1848   0.292E-01    0.581E-01
DAV:  11    -0.169575955814E+03   -0.17959E-02   -0.41890E-03  1728   0.168E-01    0.114E-01
DAV:  12    -0.169576120996E+03   -0.16518E-03   -0.29486E-04  2040   0.579E-02    0.100E-01
DAV:  13    -0.169576271078E+03   -0.15008E-03   -0.35759E-04  1792   0.433E-02    0.562E-02
DAV:  14    -0.169576276802E+03   -0.57241E-05   -0.61702E-05  1808   0.217E-02    0.349E-02
DAV:  15    -0.169576279247E+03   -0.24445E-05   -0.34905E-05  1680   0.120E-02    0.146E-02
DAV:  16    -0.169576280545E+03   -0.12987E-05   -0.21957E-06  1272   0.454E-03    0.125E-02
DAV:  17    -0.169576280842E+03   -0.29626E-06   -0.12591E-06  1064   0.315E-03
   1 F= -.16957628E+03 E0= -.16957628E+03  d E =-.588745E-18
 Found    22 degrees of freedom:
 Adding 6 more for cell shape distortion
       N       E                     dE             d eps       ncg     rms          rms(c)
DAV:   1    -0.170395727283E+03   -0.81945E+00   -0.43997E+01  2248   0.222E+01    0.846E+00
DAV:   2    -0.169619108556E+03    0.77662E+00   -0.19896E+00  2376   0.482E+00    0.364E+00
DAV:   3    -0.169354025812E+03    0.26508E+00   -0.48364E-01  2416   0.190E+00    0.190E+00
DAV:   4    -0.169299340408E+03    0.54685E-01   -0.93043E-02  2544   0.830E-01    0.778E-01
DAV:   5    -0.169292935867E+03    0.64045E-02   -0.11489E-02  2464   0.307E-01    0.452E-01
DAV:   6    -0.169292523465E+03    0.41240E-03   -0.17448E-03  2608   0.113E-01    0.226E-01
DAV:   7    -0.169292454035E+03    0.69430E-04   -0.39508E-04  2512   0.569E-02    0.726E-02
DAV:   8    -0.169292450572E+03    0.34630E-05   -0.69717E-05  2760   0.259E-02    0.475E-02
DAV:   9    -0.169292461290E+03   -0.10718E-04   -0.44475E-05  2376   0.147E-02    0.150E-02
DAV:  10    -0.169292464582E+03   -0.32913E-05   -0.66905E-06  2224   0.767E-03    0.721E-03
DAV:  11    -0.169292466328E+03   -0.17465E-05   -0.23256E-06  1600   0.419E-03    0.348E-03
DAV:  12    -0.169292466948E+03   -0.61960E-06   -0.63800E-07  1344   0.269E-03
   2 F= -.16929247E+03 E0= -.16929247E+03  d E =-.242248E-18
       N       E                     dE             d eps       ncg     rms          rms(c)
DAV:   1    -0.169754501294E+03   -0.46203E+00   -0.16654E+01  2216   0.123E+01    0.401E+00
DAV:   2    -0.169575593833E+03    0.17891E+00   -0.61576E-01  2392   0.247E+00    0.180E+00
DAV:   3    -0.169511237179E+03    0.64357E-01   -0.15343E-01  2408   0.110E+00    0.794E-01
DAV:   4    -0.169503583431E+03    0.76537E-02   -0.17580E-02  2688   0.360E-01    0.498E-01
DAV:   5    -0.169501822348E+03    0.17611E-02   -0.24821E-03  2384   0.145E-01    0.285E-01
DAV:   6    -0.169501682368E+03    0.13998E-03   -0.72307E-04  2448   0.849E-02    0.621E-02
DAV:   7    -0.169501691814E+03   -0.94451E-05   -0.97351E-05  2576   0.328E-02    0.702E-02
DAV:   8    -0.169501695113E+03   -0.32991E-05   -0.39963E-05  2488   0.154E-02    0.325E-02
DAV:   9    -0.169501697278E+03   -0.21655E-05   -0.89837E-06  2128   0.758E-03    0.982E-03
DAV:  10    -0.169501698755E+03   -0.14773E-05   -0.19301E-06  1520   0.435E-03    0.105E-02
DAV:  11    -0.169501698698E+03    0.57795E-07   -0.82622E-07  1296   0.268E-03
   3 F= -.16950170E+03 E0= -.16950170E+03  d E =-.696047E-13
       N       E                     dE             d eps       ncg     rms          rms(c)
DAV:   1    -0.170599094626E+03   -0.10974E+01   -0.39465E+01  2240   0.206E+01    0.922E+00
DAV:   2    -0.169811592992E+03    0.78750E+00   -0.18542E+00  2360   0.443E+00    0.375E+00
DAV:   3    -0.169555339883E+03    0.25625E+00   -0.49188E-01  2384   0.192E+00    0.195E+00
DAV:   4    -0.169505751756E+03    0.49588E-01   -0.82961E-02  2576   0.790E-01    0.953E-01
DAV:   5    -0.169498108428E+03    0.76433E-02   -0.10609E-02  2432   0.303E-01    0.518E-01
DAV:   6    -0.169497404174E+03    0.70425E-03   -0.20280E-03  2712   0.117E-01    0.210E-01
DAV:   7    -0.169497406850E+03   -0.26758E-05   -0.29751E-04  2672   0.503E-02    0.817E-02
DAV:   8    -0.169497415222E+03   -0.83719E-05   -0.96938E-05  2648   0.262E-02    0.383E-02
DAV:   9    -0.169497423387E+03   -0.81655E-05   -0.27974E-05  2216   0.123E-02    0.236E-02
DAV:  10    -0.169497425237E+03   -0.18503E-05   -0.30264E-06  1944   0.526E-03    0.111E-02
DAV:  11    -0.169497425714E+03   -0.47705E-06   -0.21041E-06  1688   0.434E-03
   4 F= -.16949743E+03 E0= -.16949743E+03  d E =-.139015E-10
       N       E                     dE             d eps       ncg     rms          rms(c)
DAV:   1    -0.169501132104E+03   -0.37069E-02   -0.19751E+01  2248   0.132E+01    0.521E+00
DAV:   2    -0.169327573676E+03    0.17356E+00   -0.74897E-01  2376   0.268E+00    0.200E+00
DAV:   3    -0.169264441618E+03    0.63132E-01   -0.10972E-01  2464   0.974E-01    0.118E+00
DAV:   4    -0.169245764350E+03    0.18677E-01   -0.27827E-02  2448   0.468E-01    0.483E-01
DAV:   5    -0.169243994625E+03    0.17697E-02   -0.39242E-03  2760   0.177E-01    0.291E-01
DAV:   6    -0.169243773233E+03    0.22139E-03   -0.70456E-04  2424   0.673E-02    0.139E-01
DAV:   7    -0.169243793096E+03   -0.19863E-04   -0.14188E-04  2608   0.353E-02    0.443E-02
DAV:   8    -0.169243790287E+03    0.28099E-05   -0.22104E-05  2560   0.163E-02    0.254E-02
DAV:   9    -0.169243793002E+03   -0.27157E-05   -0.22580E-05  2232   0.106E-02    0.104E-02
DAV:  10    -0.169243793908E+03   -0.90602E-06   -0.29341E-06  1904   0.570E-03
   5 F= -.16924379E+03 E0= -.16924379E+03  d E =-.967541E-12
       N       E                     dE             d eps       ncg     rms          rms(c)
DAV:   1    -0.172424110975E+03   -0.31803E+01   -0.11455E+02  2384   0.389E+01    0.131E+01
DAV:   2    -0.170055872096E+03    0.23682E+01   -0.51879E+00  2304   0.783E+00    0.577E+00
DAV:   3    -0.169375146328E+03    0.68073E+00   -0.19009E+00  2392   0.371E+00    0.227E+00
DAV:   4    -0.169311551336E+03    0.63595E-01   -0.10327E-01  2968   0.916E-01    0.130E+00
DAV:   5    -0.169294759700E+03    0.16792E-01   -0.16750E-02  2392   0.375E-01    0.704E-01
DAV:   6    -0.169292743526E+03    0.20162E-02   -0.39974E-03  2504   0.192E-01    0.163E-01
DAV:   7    -0.169292477908E+03    0.26562E-03   -0.55027E-04  2416   0.757E-02    0.115E-01
DAV:   8    -0.169292501735E+03   -0.23828E-04   -0.21763E-04  2600   0.336E-02    0.418E-02
DAV:   9    -0.169292509076E+03   -0.73406E-05   -0.49860E-05  2344   0.204E-02    0.277E-02
DAV:  10    -0.169292510770E+03   -0.16941E-05   -0.75381E-06  2160   0.724E-03    0.176E-02
DAV:  11    -0.169292511521E+03   -0.75110E-06   -0.97541E-07  1464   0.317E-03
   6 F= -.16929251E+03 E0= -.16929251E+03  d E =-.248165E-17
       N       E                     dE             d eps       ncg     rms          rms(c)
DAV:   1    -0.169753571109E+03   -0.46106E+00   -0.16648E+01  2184   0.123E+01    0.401E+00
DAV:   2    -0.169575612323E+03    0.17796E+00   -0.62211E-01  2384   0.247E+00    0.180E+00
DAV:   3    -0.169511207042E+03    0.64405E-01   -0.15321E-01  2392   0.110E+00    0.793E-01
DAV:   4    -0.169503580955E+03    0.76261E-02   -0.17711E-02  2688   0.361E-01    0.499E-01
DAV:   5    -0.169501827643E+03    0.17533E-02   -0.25061E-03  2376   0.146E-01    0.283E-01
DAV:   6    -0.169501694593E+03    0.13305E-03   -0.73653E-04  2512   0.857E-02    0.615E-02
DAV:   7    -0.169501704102E+03   -0.95085E-05   -0.94118E-05  2592   0.321E-02    0.711E-02
DAV:   8    -0.169501707391E+03   -0.32893E-05   -0.39691E-05  2504   0.152E-02    0.329E-02
DAV:   9    -0.169501709468E+03   -0.20765E-05   -0.90920E-06  2136   0.763E-03    0.976E-03
DAV:  10    -0.169501711090E+03   -0.16225E-05   -0.20155E-06  1544   0.447E-03    0.107E-02
DAV:  11    -0.169501711051E+03    0.39472E-07   -0.87985E-07  1272   0.275E-03
   7 F= -.16950171E+03 E0= -.16950171E+03  d E =-.888431E-12
       N       E                     dE             d eps       ncg     rms          rms(c)
DAV:   1    -0.170598458120E+03   -0.10967E+01   -0.39459E+01  2248   0.206E+01    0.921E+00
DAV:   2    -0.169811471942E+03    0.78699E+00   -0.18622E+00  2336   0.443E+00    0.375E+00
DAV:   3    -0.169555442292E+03    0.25603E+00   -0.49004E-01  2384   0.191E+00    0.195E+00
DAV:   4    -0.169505726626E+03    0.49716E-01   -0.83277E-02  2592   0.791E-01    0.952E-01
DAV:   5    -0.169498125500E+03    0.76011E-02   -0.10488E-02  2424   0.301E-01    0.518E-01
DAV:   6    -0.169497419243E+03    0.70626E-03   -0.20370E-03  2696   0.117E-01    0.209E-01
DAV:   7    -0.169497423405E+03   -0.41615E-05   -0.30334E-04  2680   0.512E-02    0.821E-02
DAV:   8    -0.169497431727E+03   -0.83226E-05   -0.95795E-05  2616   0.263E-02    0.390E-02
DAV:   9    -0.169497440226E+03   -0.84982E-05   -0.28448E-05  2192   0.125E-02    0.240E-02
DAV:  10    -0.169497442033E+03   -0.18075E-05   -0.29369E-06  1896   0.533E-03    0.114E-02
DAV:  11    -0.169497442491E+03   -0.45829E-06   -0.20949E-06  1696   0.443E-03
   8 F= -.16949744E+03 E0= -.16949744E+03  d E =-.131748E-11
       N       E                     dE             d eps       ncg     rms          rms(c)
DAV:   1    -0.169501685553E+03   -0.42435E-02   -0.19756E+01  2264   0.132E+01    0.520E+00
DAV:   2    -0.169327698888E+03    0.17399E+00   -0.74394E-01  2376   0.267E+00    0.201E+00
DAV:   3    -0.169264512048E+03    0.63187E-01   -0.10964E-01  2472   0.973E-01    0.118E+00
DAV:   4    -0.169245848354E+03    0.18664E-01   -0.27715E-02  2448   0.467E-01    0.482E-01
DAV:   5    -0.169244054976E+03    0.17934E-02   -0.39768E-03  2784   0.179E-01    0.291E-01
DAV:   6    -0.169243840484E+03    0.21449E-03   -0.68599E-04  2424   0.664E-02    0.140E-01
DAV:   7    -0.169243859749E+03   -0.19265E-04   -0.13943E-04  2552   0.348E-02    0.436E-02
DAV:   8    -0.169243857186E+03    0.25630E-05   -0.21991E-05  2560   0.162E-02    0.254E-02
DAV:   9    -0.169243859780E+03   -0.25939E-05   -0.22429E-05  2256   0.105E-02    0.102E-02
DAV:  10    -0.169243860684E+03   -0.90392E-06   -0.29238E-06  1872   0.559E-03
   9 F= -.16924386E+03 E0= -.16924386E+03  d E =-.962311E-13
       N       E                     dE             d eps       ncg     rms          rms(c)
DAV:   1    -0.172509469913E+03   -0.32656E+01   -0.10122E+02  1744   0.377E+01    0.124E+01
DAV:   2    -0.170137197557E+03    0.23723E+01   -0.48741E+00  1712   0.755E+00    0.571E+00
DAV:   3    -0.169396221869E+03    0.74098E+00   -0.22179E+00  1768   0.400E+00    0.208E+00
DAV:   4    -0.169342454856E+03    0.53767E-01   -0.11184E-01  2136   0.988E-01    0.136E+00
DAV:   5    -0.169316929076E+03    0.25526E-01   -0.23578E-02  1808   0.413E-01    0.698E-01
DAV:   6    -0.169311435794E+03    0.54933E-02   -0.16136E-02  1824   0.337E-01    0.181E-01
DAV:   7    -0.169311015487E+03    0.42031E-03   -0.33577E-03  1880   0.170E-01    0.131E-01
DAV:   8    -0.169310726033E+03    0.28945E-03   -0.49026E-04  1880   0.577E-02    0.366E-02
DAV:   9    -0.169310552943E+03    0.17309E-03   -0.25998E-04  1936   0.387E-02    0.422E-02
DAV:  10    -0.169310455368E+03    0.97575E-04   -0.74791E-05  1888   0.212E-02    0.185E-02
DAV:  11    -0.169310327555E+03    0.12781E-03   -0.70030E-05  1928   0.242E-02    0.108E-02
DAV:  12    -0.169310242500E+03    0.85055E-04   -0.93459E-05  1888   0.237E-02    0.171E-02
DAV:  13    -0.169310177865E+03    0.64635E-04   -0.55503E-05  1848   0.228E-02    0.441E-03
DAV:  14    -0.169310162005E+03    0.15860E-04   -0.28681E-05  1792   0.138E-02    0.712E-03
DAV:  15    -0.169310162048E+03   -0.42244E-07   -0.23873E-06  1216   0.480E-03
  10 F= -.16931016E+03 E0= -.16931016E+03  d E =-.208395E-18
       N       E                     dE             d eps       ncg     rms          rms(c)
DAV:   1    -0.169760235522E+03   -0.45007E+00   -0.10413E+01  1648   0.104E+01    0.430E+00
DAV:   2    -0.169579196216E+03    0.18104E+00   -0.44193E-01  1784   0.218E+00    0.180E+00
DAV:   3    -0.169520769045E+03    0.58427E-01   -0.11105E-01  1768   0.908E-01    0.947E-01
DAV:   4    -0.169509094081E+03    0.11675E-01   -0.18455E-02  1944   0.385E-01    0.438E-01
DAV:   5    -0.169507492517E+03    0.16016E-02   -0.24343E-03  1824   0.147E-01    0.252E-01
DAV:   6    -0.169507362136E+03    0.13038E-03   -0.47452E-04  1976   0.561E-02    0.951E-02
DAV:   7    -0.169507375546E+03   -0.13410E-04   -0.68531E-05  1904   0.228E-02    0.510E-02
DAV:   8    -0.169507375787E+03   -0.24098E-06   -0.20609E-05  1752   0.110E-02    0.242E-02
DAV:   9    -0.169507377166E+03   -0.13792E-05   -0.79849E-06  1600   0.678E-03    0.135E-02
DAV:  10    -0.169507377521E+03   -0.35501E-06   -0.70517E-07  1040   0.287E-03
  11 F= -.16950738E+03 E0= -.16950738E+03  d E =-.383430E-13
       N       E                     dE             d eps       ncg     rms          rms(c)
DAV:   1    -0.170542617003E+03   -0.10352E+01   -0.43176E+01  1688   0.212E+01    0.902E+00
DAV:   2    -0.169801762643E+03    0.74085E+00   -0.18563E+00  1768   0.442E+00    0.373E+00
DAV:   3    -0.169559490770E+03    0.24227E+00   -0.45767E-01  1792   0.185E+00    0.192E+00
DAV:   4    -0.169511897506E+03    0.47593E-01   -0.72676E-02  1968   0.721E-01    0.952E-01
DAV:   5    -0.169504436628E+03    0.74609E-02   -0.89267E-03  1840   0.279E-01    0.501E-01
DAV:   6    -0.169503707807E+03    0.72882E-03   -0.20175E-03  1960   0.118E-01    0.168E-01
DAV:   7    -0.169503727318E+03   -0.19511E-04   -0.21910E-04  1992   0.428E-02    0.832E-02
DAV:   8    -0.169503730699E+03   -0.33812E-05   -0.80480E-05  1744   0.207E-02    0.377E-02
DAV:   9    -0.169503737332E+03   -0.66328E-05   -0.19762E-05  1616   0.114E-02    0.241E-02
DAV:  10    -0.169503738469E+03   -0.11371E-05   -0.26935E-06  1328   0.491E-03    0.132E-02
DAV:  11    -0.169503738471E+03   -0.20955E-08   -0.15280E-06  1232   0.432E-03
  12 F= -.16950374E+03 E0= -.16950374E+03  d E =-.353996E-17
       N       E                     dE             d eps       ncg     rms          rms(c)
DAV:   1    -0.169546638969E+03   -0.42900E-01   -0.11309E+01  1704   0.110E+01    0.452E+00
DAV:   2    -0.169352787992E+03    0.19385E+00   -0.48197E-01  1752   0.228E+00    0.191E+00
DAV:   3    -0.169288112862E+03    0.64675E-01   -0.12271E-01  1760   0.965E-01    0.953E-01
DAV:   4    -0.169276105489E+03    0.12007E-01   -0.19183E-02  1968   0.372E-01    0.471E-01
DAV:   5    -0.169274334047E+03    0.17714E-02   -0.22821E-03  1824   0.137E-01    0.249E-01
DAV:   6    -0.169274193780E+03    0.14027E-03   -0.45606E-04  1984   0.542E-02    0.836E-02
DAV:   7    -0.169274208573E+03   -0.14793E-04   -0.56179E-05  1904   0.212E-02    0.438E-02
DAV:   8    -0.169274210332E+03   -0.17595E-05   -0.19591E-05  1752   0.101E-02    0.193E-02
DAV:   9    -0.169274211596E+03   -0.12642E-05   -0.49952E-06  1600   0.559E-03    0.121E-02
DAV:  10    -0.169274211718E+03   -0.12144E-06   -0.61315E-07   992   0.250E-03
  13 F= -.16927421E+03 E0= -.16927421E+03  d E =-.207045E-18
       N       E                     dE             d eps       ncg     rms          rms(c)
DAV:   1    -0.170683606089E+03   -0.14094E+01   -0.57483E+01  2200   0.247E+01    0.796E+00
DAV:   2    -0.169860421867E+03    0.82318E+00   -0.19696E+00  2360   0.484E+00    0.401E+00
DAV:   3    -0.169543479101E+03    0.31694E+00   -0.72030E-01  2360   0.232E+00    0.154E+00
DAV:   4    -0.169520587240E+03    0.22892E-01   -0.65374E-02  2880   0.692E-01    0.920E-01
DAV:   5    -0.169514497691E+03    0.60895E-02   -0.99528E-03  2392   0.290E-01    0.514E-01
DAV:   6    -0.169514070354E+03    0.42734E-03   -0.40306E-03  2384   0.187E-01    0.131E-01
DAV:   7    -0.169514020417E+03    0.49937E-04   -0.35487E-04  2424   0.610E-02    0.124E-01
DAV:   8    -0.169514033249E+03   -0.12831E-04   -0.22004E-04  2432   0.332E-02    0.566E-02
DAV:   9    -0.169514038706E+03   -0.54577E-05   -0.38235E-05  2304   0.183E-02    0.185E-02
DAV:  10    -0.169514044204E+03   -0.54974E-05   -0.12796E-05  2208   0.933E-03    0.143E-02
DAV:  11    -0.169514044739E+03   -0.53556E-06   -0.16611E-06  1456   0.400E-03
  14 F= -.16951404E+03 E0= -.16951404E+03  d E =-.444455E-14
       N       E                     dE             d eps       ncg     rms          rms(c)
DAV:   1    -0.169607430963E+03   -0.93387E-01   -0.40677E+00  2056   0.565E+00    0.199E+00
DAV:   2    -0.169579323032E+03    0.28108E-01   -0.11099E-01  2480   0.102E+00    0.946E-01
DAV:   3    -0.169565293690E+03    0.14029E-01   -0.13125E-02  2704   0.319E-01    0.565E-01
DAV:   4    -0.169560642703E+03    0.46510E-02   -0.97621E-03  2776   0.275E-01    0.938E-02
DAV:   5    -0.169560749586E+03   -0.10688E-03   -0.14036E-03  2376   0.114E-01    0.149E-01
DAV:   6    -0.169560760460E+03   -0.10874E-04   -0.11337E-04  2528   0.269E-02    0.867E-02
DAV:   7    -0.169560766862E+03   -0.64021E-05   -0.10425E-05  2280   0.100E-02    0.280E-02
DAV:   8    -0.169560770588E+03   -0.37262E-05   -0.77865E-06  2152   0.734E-03    0.543E-03
DAV:   9    -0.169560771185E+03   -0.59679E-06   -0.95880E-07  1336   0.353E-03
  15 F= -.16956077E+03 E0= -.16956077E+03  d E =-.594653E-16
       N       E                     dE             d eps       ncg     rms          rms(c)
DAV:   1    -0.169747415667E+03   -0.18665E+00   -0.16207E+01  2064   0.113E+01    0.398E+00
DAV:   2    -0.169634573414E+03    0.11284E+00   -0.44395E-01  2472   0.202E+00    0.189E+00
DAV:   3    -0.169578726017E+03    0.55847E-01   -0.52471E-02  2696   0.618E-01    0.114E+00
DAV:   4    -0.169559973823E+03    0.18752E-01   -0.39215E-02  2656   0.533E-01    0.191E-01
DAV:   5    -0.169560384842E+03   -0.41102E-03   -0.53688E-03  2344   0.221E-01    0.303E-01
DAV:   6    -0.169560428704E+03   -0.43862E-04   -0.45387E-04  2632   0.539E-02    0.174E-01
DAV:   7    -0.169560456207E+03   -0.27503E-04   -0.46600E-05  2288   0.200E-02    0.473E-02
DAV:   8    -0.169560470384E+03   -0.14177E-04   -0.29434E-05  2200   0.139E-02    0.117E-02
DAV:   9    -0.169560472934E+03   -0.25497E-05   -0.43045E-06  2080   0.694E-03    0.958E-03
DAV:  10    -0.169560474449E+03   -0.15150E-05   -0.18110E-06  1536   0.400E-03    0.249E-03
DAV:  11    -0.169560474639E+03   -0.18972E-06   -0.61403E-07  1256   0.249E-03
  16 F= -.16956047E+03 E0= -.16956047E+03  d E =-.478607E-16
       N       E                     dE             d eps       ncg     rms          rms(c)
DAV:   1    -0.169560393913E+03    0.80536E-04   -0.40394E+00  2072   0.563E+00    0.199E+00
DAV:   2    -0.169532020766E+03    0.28373E-01   -0.11074E-01  2464   0.102E+00    0.947E-01
DAV:   3    -0.169518053816E+03    0.13967E-01   -0.13346E-02  2728   0.321E-01    0.570E-01
DAV:   4    -0.169513355998E+03    0.46978E-02   -0.98256E-03  2760   0.275E-01    0.941E-02
DAV:   5    -0.169513467096E+03   -0.11110E-03   -0.13986E-03  2416   0.113E-01    0.151E-01
DAV:   6    -0.169513477742E+03   -0.10646E-04   -0.11158E-04  2600   0.266E-02    0.877E-02
DAV:   7    -0.169513484651E+03   -0.69084E-05   -0.12362E-05  2240   0.103E-02    0.244E-02
DAV:   8    -0.169513488326E+03   -0.36752E-05   -0.75916E-06  2176   0.717E-03    0.599E-03
DAV:   9    -0.169513489000E+03   -0.67393E-06   -0.92643E-07  1288   0.351E-03
  17 F= -.16951349E+03 E0= -.16951349E+03  d E =-.777741E-15
       N       E                     dE             d eps       ncg     rms          rms(c)
DAV:   1    -0.169911282802E+03   -0.39779E+00   -0.33796E+01  2056   0.163E+01    0.646E+00
DAV:   2    -0.169661176676E+03    0.25011E+00   -0.10258E+00  2432   0.316E+00    0.276E+00
DAV:   3    -0.169540260535E+03    0.12092E+00   -0.11465E-01  2744   0.935E-01    0.182E+00
DAV:   4    -0.169491692554E+03    0.48568E-01   -0.99402E-02  2648   0.868E-01    0.271E-01
DAV:   5    -0.169492859213E+03   -0.11667E-02   -0.15310E-02  2336   0.388E-01    0.531E-01
DAV:   6    -0.169492905612E+03   -0.46399E-04   -0.11723E-03  2696   0.918E-02    0.368E-01
DAV:   7    -0.169492958095E+03   -0.52483E-04   -0.15500E-04  2368   0.339E-02    0.139E-01
DAV:   8    -0.169492996075E+03   -0.37980E-04   -0.13102E-04  2656   0.320E-02    0.228E-02
DAV:   9    -0.169493005542E+03   -0.94661E-05   -0.27787E-05  2472   0.156E-02    0.293E-02
DAV:  10    -0.169493009016E+03   -0.34742E-05   -0.51616E-06  2112   0.578E-03    0.700E-03
DAV:  11    -0.169493010320E+03   -0.13044E-05   -0.18494E-06  1568   0.428E-03    0.557E-03
DAV:  12    -0.169493010522E+03   -0.20226E-06   -0.77043E-07  1272   0.238E-03
  18 F= -.16949301E+03 E0= -.16949301E+03  d E =-.169089E-14
       N       E                     dE             d eps       ncg     rms          rms(c)
DAV:   1    -0.169605795060E+03   -0.11278E+00   -0.73256E+00  2064   0.733E+00    0.238E+00
DAV:   2    -0.169578075075E+03    0.27720E-01   -0.22141E-01  2456   0.139E+00    0.102E+00
DAV:   3    -0.169562204563E+03    0.15871E-01   -0.20648E-02  2848   0.415E-01    0.676E-01
DAV:   4    -0.169555272000E+03    0.69326E-02   -0.14006E-02  2800   0.347E-01    0.106E-01
DAV:   5    -0.169555443765E+03   -0.17177E-03   -0.23700E-03  2360   0.150E-01    0.245E-01
DAV:   6    -0.169555446455E+03   -0.26899E-05   -0.17716E-04  2808   0.382E-02    0.160E-01
DAV:   7    -0.169555451129E+03   -0.46736E-05   -0.43366E-05  2240   0.171E-02    0.335E-02
DAV:   8    -0.169555456796E+03   -0.56674E-05   -0.26052E-05  2656   0.144E-02    0.235E-02
DAV:   9    -0.169555457518E+03   -0.72164E-06   -0.37006E-06  1696   0.663E-03
  19 F= -.16955546E+03 E0= -.16955546E+03  d E =-.529670E-16
       N       E                     dE             d eps       ncg     rms          rms(c)
DAV:   1    -0.169792391515E+03   -0.23693E+00   -0.15729E+01  2072   0.109E+01    0.481E+00
DAV:   2    -0.169649181094E+03    0.14321E+00   -0.52750E-01  2432   0.223E+00    0.199E+00
DAV:   3    -0.169581664453E+03    0.67517E-01   -0.62702E-02  2736   0.691E-01    0.134E+00
DAV:   4    -0.169554751528E+03    0.26913E-01   -0.59862E-02  2656   0.661E-01    0.205E-01
DAV:   5    -0.169555376522E+03   -0.62499E-03   -0.90966E-03  2352   0.300E-01    0.452E-01
DAV:   6    -0.169555405977E+03   -0.29455E-04   -0.75562E-04  2648   0.742E-02    0.308E-01
DAV:   7    -0.169555429294E+03   -0.23317E-04   -0.81729E-05  2336   0.256E-02    0.126E-01
DAV:   8    -0.169555449481E+03   -0.20187E-04   -0.94256E-05  2504   0.288E-02    0.173E-02
DAV:   9    -0.169555455964E+03   -0.64830E-05   -0.27087E-05  2496   0.147E-02    0.329E-02
DAV:  10    -0.169555457631E+03   -0.16671E-05   -0.32196E-06  1864   0.484E-03    0.657E-03
DAV:  11    -0.169555458432E+03   -0.80026E-06   -0.17243E-06  1560   0.431E-03
  20 F= -.16955546E+03 E0= -.16955546E+03  d E =-.321869E-16
       N       E                     dE             d eps       ncg     rms          rms(c)
DAV:   1    -0.169543055444E+03    0.12402E-01   -0.77829E+00  2056   0.735E+00    0.242E+00
DAV:   2    -0.169516238426E+03    0.26817E-01   -0.21656E-01  2456   0.137E+00    0.101E+00
DAV:   3    -0.169500069786E+03    0.16169E-01   -0.17795E-02  2856   0.395E-01    0.682E-01
DAV:   4    -0.169492792765E+03    0.72770E-02   -0.14917E-02  2752   0.356E-01    0.992E-02
DAV:   5    -0.169492993394E+03   -0.20063E-03   -0.25954E-03  2352   0.161E-01    0.227E-01
DAV:   6    -0.169492996690E+03   -0.32958E-05   -0.17862E-04  2768   0.366E-02    0.159E-01
DAV:   7    -0.169493002700E+03   -0.60099E-05   -0.27967E-05  2248   0.141E-02    0.518E-02
DAV:   8    -0.169493007973E+03   -0.52738E-05   -0.26006E-05  2656   0.147E-02    0.117E-02
DAV:   9    -0.169493009716E+03   -0.17430E-05   -0.64943E-06  2072   0.741E-03    0.147E-02
DAV:  10    -0.169493010288E+03   -0.57132E-06   -0.10273E-06  1320   0.320E-03
  21 F= -.16949301E+03 E0= -.16949301E+03  d E =-.143659E-14
       N       E                     dE             d eps       ncg     rms          rms(c)
DAV:   1    -0.169859011527E+03   -0.36600E+00   -0.23671E+01  2192   0.122E+01    0.432E+00
DAV:   2    -0.169630703893E+03    0.22831E+00   -0.60073E-01  2392   0.236E+00    0.253E+00
DAV:   3    -0.169493459732E+03    0.13724E+00   -0.19778E-01  2440   0.118E+00    0.687E-01
DAV:   4    -0.169493236499E+03    0.22323E-03   -0.41775E-02  2640   0.556E-01    0.405E-01
DAV:   5    -0.169493048005E+03    0.18849E-03   -0.32618E-03  2856   0.173E-01    0.232E-01
DAV:   6    -0.169493055477E+03   -0.74719E-05   -0.12320E-03  2392   0.825E-02    0.897E-02
DAV:   7    -0.169493121844E+03   -0.66367E-04   -0.21223E-04  2528   0.402E-02    0.865E-02
DAV:   8    -0.169493143864E+03   -0.22020E-04   -0.69593E-05  2808   0.235E-02    0.253E-02
DAV:   9    -0.169493146884E+03   -0.30203E-05   -0.48670E-05  2248   0.153E-02    0.211E-02
DAV:  10    -0.169493147020E+03   -0.13562E-06   -0.46635E-06  2136   0.675E-03
  22 F= -.16949315E+03 E0= -.16949315E+03  d E =-.218662E-14
       N       E                     dE             d eps       ncg     rms          rms(c)
DAV:   1    -0.169605843650E+03   -0.11270E+00   -0.73118E+00  2072   0.733E+00    0.238E+00
DAV:   2    -0.169578112925E+03    0.27731E-01   -0.22161E-01  2448   0.139E+00    0.102E+00
DAV:   3    -0.169562290824E+03    0.15822E-01   -0.20593E-02  2840   0.413E-01    0.679E-01
DAV:   4    -0.169555292376E+03    0.69984E-02   -0.13989E-02  2800   0.348E-01    0.104E-01
DAV:   5    -0.169555468503E+03   -0.17613E-03   -0.23934E-03  2360   0.152E-01    0.245E-01
DAV:   6    -0.169555470840E+03   -0.23368E-05   -0.17084E-04  2744   0.379E-02    0.164E-01
DAV:   7    -0.169555474893E+03   -0.40527E-05   -0.45578E-05  2208   0.177E-02    0.349E-02
DAV:   8    -0.169555480631E+03   -0.57381E-05   -0.27792E-05  2656   0.147E-02    0.241E-02
DAV:   9    -0.169555481330E+03   -0.69937E-06   -0.35057E-06  1648   0.655E-03
  23 F= -.16955548E+03 E0= -.16955548E+03  d E =-.551582E-16
       N       E                     dE             d eps       ncg     rms          rms(c)
DAV:   1    -0.169792353055E+03   -0.23687E+00   -0.15708E+01  2080   0.109E+01    0.481E+00
DAV:   2    -0.169649217062E+03    0.14314E+00   -0.52691E-01  2432   0.223E+00    0.199E+00
DAV:   3    -0.169581773530E+03    0.67444E-01   -0.62504E-02  2728   0.689E-01    0.134E+00
DAV:   4    -0.169554765435E+03    0.27008E-01   -0.59875E-02  2640   0.662E-01    0.204E-01
DAV:   5    -0.169555402894E+03   -0.63746E-03   -0.91627E-03  2360   0.301E-01    0.452E-01
DAV:   6    -0.169555430660E+03   -0.27766E-04   -0.74336E-04  2632   0.739E-02    0.308E-01
DAV:   7    -0.169555452868E+03   -0.22207E-04   -0.87217E-05  2304   0.262E-02    0.123E-01
DAV:   8    -0.169555473351E+03   -0.20483E-04   -0.95320E-05  2520   0.287E-02    0.174E-02
DAV:   9    -0.169555479721E+03   -0.63706E-05   -0.25543E-05  2480   0.145E-02    0.326E-02
DAV:  10    -0.169555481510E+03   -0.17883E-05   -0.35933E-06  1936   0.499E-03    0.642E-03
DAV:  11    -0.169555482286E+03   -0.77628E-06   -0.16671E-06  1504   0.429E-03
  24 F= -.16955548E+03 E0= -.16955548E+03  d E =-.301667E-16
       N       E                     dE             d eps       ncg     rms          rms(c)
DAV:   1    -0.169543244317E+03    0.12237E-01   -0.77939E+00  2056   0.735E+00    0.241E+00
DAV:   2    -0.169516410661E+03    0.26834E-01   -0.21654E-01  2464   0.137E+00    0.101E+00
DAV:   3    -0.169500199324E+03    0.16211E-01   -0.17516E-02  2824   0.393E-01    0.681E-01
DAV:   4    -0.169492927798E+03    0.72715E-02   -0.14995E-02  2744   0.356E-01    0.996E-02
DAV:   5    -0.169493130618E+03   -0.20282E-03   -0.26281E-03  2368   0.162E-01    0.228E-01
DAV:   6    -0.169493133768E+03   -0.31506E-05   -0.17599E-04  2728   0.362E-02    0.159E-01
DAV:   7    -0.169493139837E+03   -0.60688E-05   -0.28244E-05  2240   0.142E-02    0.502E-02
DAV:   8    -0.169493145023E+03   -0.51857E-05   -0.25826E-05  2616   0.146E-02    0.120E-02
DAV:   9    -0.169493146641E+03   -0.16185E-05   -0.61353E-06  2064   0.732E-03    0.144E-02
DAV:  10    -0.169493147280E+03   -0.63898E-06   -0.11377E-06  1352   0.329E-03
  25 F= -.16949315E+03 E0= -.16949315E+03  d E =-.148424E-14
       N       E                     dE             d eps       ncg     rms          rms(c)
DAV:   1    -0.169800555817E+03   -0.30741E+00   -0.20473E+01  2072   0.123E+01    0.299E+00
DAV:   2    -0.169699757059E+03    0.10080E+00   -0.63211E-01  2432   0.242E+00    0.185E+00
DAV:   3    -0.169575619928E+03    0.12414E+00   -0.16009E-01  2560   0.119E+00    0.136E-01
DAV:   4    -0.169577094805E+03   -0.14749E-02   -0.42841E-02  2592   0.544E-01    0.106E-01
DAV:   5    -0.169576432245E+03    0.66256E-03   -0.18481E-03  2624   0.126E-01    0.447E-02
DAV:   6    -0.169576056746E+03    0.37550E-03   -0.11797E-03  2760   0.780E-02    0.153E-02
DAV:   7    -0.169575988395E+03    0.68351E-04   -0.27839E-04  2624   0.401E-02    0.106E-02
DAV:   8    -0.169575921071E+03    0.67324E-04   -0.79158E-05  2808   0.250E-02    0.446E-03
DAV:   9    -0.169575894605E+03    0.26466E-04   -0.80231E-05  2720   0.220E-02    0.555E-03
DAV:  10    -0.169575891453E+03    0.31528E-05   -0.28002E-05  2336   0.120E-02    0.543E-03
DAV:  11    -0.169575890205E+03    0.12481E-05   -0.18588E-06  1584   0.406E-03    0.238E-03
DAV:  12    -0.169575885347E+03    0.48576E-05   -0.62654E-06  2224   0.928E-03    0.173E-03
DAV:  13    -0.169575884544E+03    0.80291E-06   -0.45849E-06  2104   0.504E-03
  26 F= -.16957588E+03 E0= -.16957588E+03  d E =-.737025E-17
       N       E                     dE             d eps       ncg     rms          rms(c)
DAV:   1    -0.169573339339E+03    0.25460E-02   -0.17448E+00  2200   0.114E+00    0.341E-02
DAV:   2    -0.169576029912E+03   -0.26906E-02   -0.26962E-02  2240   0.177E-01    0.112E-02
DAV:   3    -0.169576114486E+03   -0.84574E-04   -0.84839E-04  2600   0.314E-02    0.965E-03
DAV:   4    -0.169576115785E+03   -0.12988E-05   -0.18669E-05  1680   0.790E-03    0.650E-03
DAV:   5    -0.169576115880E+03   -0.95319E-07   -0.21178E-06  1632   0.691E-03
  27 F= -.16957612E+03 E0= -.16957612E+03  d E =-.620340E-17
       N       E                     dE             d eps       ncg     rms          rms(c)
DAV:   1    -0.169571503382E+03    0.46124E-02   -0.30610E+00  2200   0.161E+00    0.803E-02
DAV:   2    -0.169576192491E+03   -0.46891E-02   -0.47346E-02  2272   0.234E-01    0.201E-02
DAV:   3    -0.169576341598E+03   -0.14911E-03   -0.14937E-03  2632   0.439E-02    0.186E-02
DAV:   4    -0.169576346735E+03   -0.51366E-05   -0.70129E-05  1872   0.125E-02    0.151E-02
DAV:   5    -0.169576346593E+03    0.14171E-06   -0.64486E-06  1888   0.126E-02
  28 F= -.16957635E+03 E0= -.16957635E+03  d E =-.480724E-17
       N       E                     dE             d eps       ncg     rms          rms(c)
DAV:   1    -0.169573487308E+03    0.28594E-02   -0.17459E+00  2176   0.125E+00    0.557E-02
DAV:   2    -0.169576186798E+03   -0.26995E-02   -0.27304E-02  2280   0.169E-01    0.137E-02
DAV:   3    -0.169576274248E+03   -0.87450E-04   -0.88090E-04  2616   0.329E-02    0.134E-02
DAV:   4    -0.169576276658E+03   -0.24096E-05   -0.38466E-05  1696   0.109E-02    0.103E-02
DAV:   5    -0.169576276109E+03    0.54871E-06   -0.47190E-06  1720   0.118E-02
  29 F= -.16957628E+03 E0= -.16957628E+03  d E =-.448039E-17
       N       E                     dE             d eps       ncg     rms          rms(c)
DAV:   1    -0.169563894206E+03    0.12382E-01   -0.70363E+00  2224   0.257E+00    0.121E-01
DAV:   2    -0.169575348466E+03   -0.11454E-01   -0.11580E-01  2208   0.393E-01    0.313E-02
DAV:   3    -0.169575725147E+03   -0.37668E-03   -0.38391E-03  2616   0.695E-02    0.298E-02
DAV:   4    -0.169575737057E+03   -0.11910E-04   -0.18663E-04  2568   0.199E-02    0.227E-02
DAV:   5    -0.169575735119E+03    0.19384E-05   -0.12068E-05  1872   0.104E-02    0.116E-02
DAV:   6    -0.169575734570E+03    0.54863E-06   -0.13221E-05  2472   0.166E-02    0.920E-03
DAV:   7    -0.169575734745E+03   -0.17496E-06   -0.73031E-06  2256   0.900E-03
  30 F= -.16957573E+03 E0= -.16957573E+03  d E =-.632905E-17
       N       E                     dE             d eps       ncg     rms          rms(c)
DAV:   1    -0.169573334178E+03    0.24004E-02   -0.17458E+00  2160   0.126E+00    0.352E-02
DAV:   2    -0.169576062769E+03   -0.27286E-02   -0.27344E-02  2176   0.184E-01    0.136E-02
DAV:   3    -0.169576146772E+03   -0.84003E-04   -0.85377E-04  2632   0.335E-02    0.108E-02
DAV:   4    -0.169576149649E+03   -0.28771E-05   -0.37057E-05  1680   0.101E-02    0.636E-03
DAV:   5    -0.169576149759E+03   -0.11021E-06   -0.39496E-06  1960   0.842E-03
  31 F= -.16957615E+03 E0= -.16957615E+03  d E =-.567344E-17
       N       E                     dE             d eps       ncg     rms          rms(c)
DAV:   1    -0.169571226432E+03    0.49232E-02   -0.30611E+00  2184   0.175E+00    0.836E-02
DAV:   2    -0.169575994557E+03   -0.47681E-02   -0.48044E-02  2248   0.264E-01    0.230E-02
DAV:   3    -0.169576139833E+03   -0.14528E-03   -0.15066E-03  2608   0.469E-02    0.194E-02
DAV:   4    -0.169576143838E+03   -0.40050E-05   -0.71680E-05  2472   0.146E-02    0.139E-02
DAV:   5    -0.169576143362E+03    0.47659E-06   -0.62827E-06  2032   0.127E-02
  32 F= -.16957614E+03 E0= -.16957614E+03  d E =-.536701E-17
       N       E                     dE             d eps       ncg     rms          rms(c)
DAV:   1    -0.169572906841E+03    0.32370E-02   -0.17454E+00  2160   0.138E+00    0.583E-02
DAV:   2    -0.169575682777E+03   -0.27759E-02   -0.28064E-02  2256   0.185E-01    0.149E-02
DAV:   3    -0.169575770634E+03   -0.87856E-04   -0.90783E-04  2528   0.349E-02    0.143E-02
DAV:   4    -0.169575772633E+03   -0.19994E-05   -0.41006E-05  1776   0.105E-02    0.105E-02
DAV:   5    -0.169575771804E+03    0.82881E-06   -0.48893E-06  1920   0.135E-02
  33 F= -.16957577E+03 E0= -.16957577E+03  d E =-.598132E-17
       N       E                     dE             d eps       ncg     rms          rms(c)
DAV:   1    -0.169564053081E+03    0.11720E-01   -0.70335E+00  2144   0.266E+00    0.119E-01
DAV:   2    -0.169575613995E+03   -0.11561E-01   -0.11670E-01  2256   0.381E-01    0.325E-02
DAV:   3    -0.169575986358E+03   -0.37236E-03   -0.38146E-03  2584   0.708E-02    0.302E-02
DAV:   4    -0.169575997395E+03   -0.11037E-04   -0.18084E-04  2544   0.202E-02    0.229E-02
DAV:   5    -0.169575996645E+03    0.74975E-06   -0.13365E-05  1992   0.122E-02    0.110E-02
DAV:   6    -0.169575997494E+03   -0.84867E-06   -0.11283E-05  2384   0.195E-02    0.912E-03
DAV:   7    -0.169575997631E+03   -0.13696E-06   -0.70090E-06  2176   0.968E-03
  34 F= -.16957600E+03 E0= -.16957600E+03  d E =-.535532E-17
       N       E                     dE             d eps       ncg     rms          rms(c)
DAV:   1    -0.169573357084E+03    0.26404E-02   -0.17449E+00  2168   0.133E+00    0.345E-02
DAV:   2    -0.169576116782E+03   -0.27597E-02   -0.27665E-02  2216   0.195E-01    0.117E-02
DAV:   3    -0.169576202690E+03   -0.85908E-04   -0.86710E-04  2600   0.319E-02    0.883E-03
DAV:   4    -0.169576206240E+03   -0.35500E-05   -0.39590E-05  1656   0.890E-03    0.603E-03
DAV:   5    -0.169576206553E+03   -0.31292E-06   -0.36829E-06  1688   0.863E-03
  35 F= -.16957621E+03 E0= -.16957621E+03  d E =-.530716E-17
       N       E                     dE             d eps       ncg     rms          rms(c)
DAV:   1    -0.169571180225E+03    0.50260E-02   -0.30606E+00  2168   0.189E+00    0.813E-02
DAV:   2    -0.169576049602E+03   -0.48694E-02   -0.49074E-02  2256   0.255E-01    0.214E-02
DAV:   3    -0.169576199959E+03   -0.15036E-03   -0.15327E-03  2664   0.438E-02    0.193E-02
DAV:   4    -0.169576205212E+03   -0.52531E-05   -0.68257E-05  1824   0.116E-02    0.153E-02
DAV:   5    -0.169576206090E+03   -0.87832E-06   -0.87032E-06  2088   0.116E-02
  36 F= -.16957621E+03 E0= -.16957621E+03  d E =-.535592E-17
       N       E                     dE             d eps       ncg     rms          rms(c)
DAV:   1    -0.169573115104E+03    0.30901E-02   -0.17451E+00  2160   0.137E+00    0.570E-02
DAV:   2    -0.169575908272E+03   -0.27932E-02   -0.28177E-02  2224   0.185E-01    0.144E-02
DAV:   3    -0.169575994668E+03   -0.86396E-04   -0.88203E-04  2536   0.325E-02    0.135E-02
DAV:   4    -0.169575997499E+03   -0.28308E-05   -0.38687E-05  1640   0.822E-03    0.102E-02
DAV:   5    -0.169575997438E+03    0.61704E-07   -0.44531E-06  1768   0.790E-03
  37 F= -.16957600E+03 E0= -.16957600E+03  d E =-.536874E-17
       N       E                     dE             d eps       ncg     rms          rms(c)
DAV:   1    -0.169564136152E+03    0.11861E-01   -0.69984E+00  2360   0.374E+00    0.127E-01
DAV:   2    -0.169575597039E+03   -0.11461E-01   -0.11619E-01  2280   0.513E-01    0.380E-02
DAV:   3    -0.169575910604E+03   -0.31357E-03   -0.34561E-03  2904   0.896E-02    0.315E-02
DAV:   4    -0.169575917630E+03   -0.70258E-05   -0.14616E-04  2464   0.219E-02    0.229E-02
DAV:   5    -0.169575916076E+03    0.15538E-05   -0.20662E-05  2456   0.258E-02    0.653E-03
DAV:   6    -0.169575917051E+03   -0.97486E-06   -0.72092E-06  2216   0.121E-02
  38 F= -.16957592E+03 E0= -.16957592E+03  d E =-.591079E-17
       N       E                     dE             d eps       ncg     rms          rms(c)
DAV:   1    -0.169573550188E+03    0.23659E-02   -0.17504E+00  2096   0.120E+00    0.349E-02
DAV:   2    -0.169576149772E+03   -0.25996E-02   -0.26052E-02  2240   0.164E-01    0.111E-02
DAV:   3    -0.169576225728E+03   -0.75956E-04   -0.76964E-04  2544   0.306E-02    0.901E-03
DAV:   4    -0.169576228868E+03   -0.31401E-05   -0.35107E-05  1776   0.932E-03    0.570E-03
DAV:   5    -0.169576229179E+03   -0.31043E-06   -0.32274E-06  1816   0.629E-03
  39 F= -.16957623E+03 E0= -.16957623E+03  d E =-.567471E-17
       N       E                     dE             d eps       ncg     rms          rms(c)
DAV:   1    -0.169571403157E+03    0.48257E-02   -0.30671E+00  2104   0.173E+00    0.827E-02
DAV:   2    -0.169575928292E+03   -0.45251E-02   -0.45550E-02  2264   0.263E-01    0.206E-02
DAV:   3    -0.169576058519E+03   -0.13023E-03   -0.13364E-03  2608   0.416E-02    0.182E-02
DAV:   4    -0.169576063423E+03   -0.49038E-05   -0.58731E-05  2264   0.115E-02    0.132E-02
DAV:   5    -0.169576064032E+03   -0.60869E-06   -0.54074E-06  1960   0.939E-03
  40 F= -.16957606E+03 E0= -.16957606E+03  d E =-.550905E-17
       N       E                     dE             d eps       ncg     rms          rms(c)
DAV:   1    -0.169572878222E+03    0.31852E-02   -0.17506E+00  2112   0.125E+00    0.546E-02
DAV:   2    -0.169575522650E+03   -0.26444E-02   -0.26617E-02  2248   0.175E-01    0.124E-02
DAV:   3    -0.169575603412E+03   -0.80761E-04   -0.81284E-04  2472   0.281E-02    0.129E-02
DAV:   4    -0.169575606276E+03   -0.28640E-05   -0.36692E-05  1792   0.751E-03    0.966E-03
DAV:   5    -0.169575606169E+03    0.10695E-06   -0.37647E-06  1752   0.646E-03
  41 F= -.16957561E+03 E0= -.16957561E+03  d E =-.593834E-17
       N       E                     dE             d eps       ncg     rms          rms(c)
DAV:   1    -0.169563742332E+03    0.11864E-01   -0.70525E+00  2120   0.265E+00    0.121E-01
DAV:   2    -0.169575108962E+03   -0.11367E-01   -0.11458E-01  2288   0.413E-01    0.320E-02
DAV:   3    -0.169575451292E+03   -0.34233E-03   -0.35448E-03  2520   0.662E-02    0.296E-02
DAV:   4    -0.169575461850E+03   -0.10558E-04   -0.15891E-04  2608   0.189E-02    0.209E-02
DAV:   5    -0.169575460521E+03    0.13293E-05   -0.12311E-05  2200   0.136E-02    0.882E-03
DAV:   6    -0.169575460729E+03   -0.20787E-06   -0.95191E-06  2488   0.161E-02
  42 F= -.16957546E+03 E0= -.16957546E+03  d E =-.786019E-17
       N       E                     dE             d eps       ncg     rms          rms(c)
DAV:   1    -0.169571733386E+03    0.37271E-02   -0.26406E+00  2128   0.153E+00    0.268E-02
DAV:   2    -0.169575948225E+03   -0.42148E-02   -0.42240E-02  2256   0.220E-01    0.153E-02
DAV:   3    -0.169576074932E+03   -0.12671E-03   -0.13046E-03  2560   0.334E-02    0.102E-02
DAV:   4    -0.169576078811E+03   -0.38791E-05   -0.61370E-05  2024   0.150E-02    0.373E-03
DAV:   5    -0.169576079567E+03   -0.75527E-06   -0.74541E-06  1880   0.888E-03
  43 F= -.16957608E+03 E0= -.16957608E+03  d E =-.632997E-17
       N       E                     dE             d eps       ncg     rms          rms(c)
DAV:   1    -0.169571910919E+03    0.41679E-02   -0.26276E+00  2184   0.157E+00    0.790E-02
DAV:   2    -0.169575956821E+03   -0.40459E-02   -0.40758E-02  2312   0.228E-01    0.221E-02
DAV:   3    -0.169576075576E+03   -0.11876E-03   -0.12688E-03  2472   0.380E-02    0.170E-02
DAV:   4    -0.169576079749E+03   -0.41731E-05   -0.62933E-05  2520   0.138E-02    0.111E-02
DAV:   5    -0.169576079533E+03    0.21606E-06   -0.61306E-06  2048   0.120E-02
  44 F= -.16957608E+03 E0= -.16957608E+03  d E =-.578379E-17
       N       E                     dE             d eps       ncg     rms          rms(c)
DAV:   1    -0.169570978208E+03    0.51015E-02   -0.26392E+00  2160   0.167E+00    0.673E-02
DAV:   2    -0.169575329265E+03   -0.43511E-02   -0.43930E-02  2304   0.213E-01    0.186E-02
DAV:   3    -0.169575458672E+03   -0.12941E-03   -0.13708E-03  2568   0.351E-02    0.177E-02
DAV:   4    -0.169575462335E+03   -0.36630E-05   -0.62699E-05  1848   0.961E-03    0.128E-02
DAV:   5    -0.169575460893E+03    0.14419E-05   -0.63395E-06  1960   0.948E-03    0.430E-03
DAV:   6    -0.169575460750E+03    0.14258E-06   -0.25177E-06  1736   0.790E-03
  45 F= -.16957546E+03 E0= -.16957546E+03  d E =-.795296E-17
       N       E                     dE             d eps       ncg     rms          rms(c)
DAV:   1    -0.169561214879E+03    0.14246E-01   -0.37268E+00  2064   0.279E+00    0.719E-01
DAV:   2    -0.169567832334E+03   -0.66175E-02   -0.73698E-02  2432   0.525E-01    0.175E-01
DAV:   3    -0.169567876446E+03   -0.44111E-04   -0.30884E-03  2728   0.129E-01    0.862E-02
DAV:   4    -0.169567831070E+03    0.45376E-04   -0.26222E-04  2456   0.379E-02    0.552E-02
DAV:   5    -0.169567808501E+03    0.22568E-04   -0.51995E-05  2424   0.224E-02    0.234E-02
DAV:   6    -0.169567806887E+03    0.16140E-05   -0.25459E-05  2560   0.142E-02    0.227E-02
DAV:   7    -0.169567806636E+03    0.25108E-06   -0.10292E-05  2376   0.885E-03    0.131E-02
DAV:   8    -0.169567806586E+03    0.50140E-07   -0.13734E-06  1616   0.327E-03
  46 F= -.16956781E+03 E0= -.16956781E+03  d E =-.220603E-15
       N       E                     dE             d eps       ncg     rms          rms(c)
DAV:   1    -0.169573133870E+03   -0.53272E-02   -0.10906E-01  2056   0.659E-01    0.287E-01
DAV:   2    -0.169573903877E+03   -0.77001E-03   -0.93895E-03  2368   0.180E-01    0.104E-01
DAV:   3    -0.169573893104E+03    0.10774E-04   -0.43820E-04  2872   0.514E-02    0.569E-02
DAV:   4    -0.169573882699E+03    0.10404E-04   -0.57534E-05  2368   0.201E-02    0.244E-02
DAV:   5    -0.169573881654E+03    0.10451E-05   -0.12162E-05  2416   0.107E-02    0.131E-02
DAV:   6    -0.169573881599E+03    0.55508E-07   -0.32921E-06  2184   0.467E-03
  47 F= -.16957388E+03 E0= -.16957388E+03  d E =-.296937E-16
       N       E                     dE             d eps       ncg     rms          rms(c)
DAV:   1    -0.169574001083E+03   -0.11943E-03   -0.20008E-01  2056   0.920E-01    0.695E-01
DAV:   2    -0.169574822435E+03   -0.82135E-03   -0.15090E-02  2376   0.255E-01    0.176E-01
DAV:   3    -0.169574708970E+03    0.11346E-03   -0.12275E-03  2688   0.852E-02    0.777E-02
DAV:   4    -0.169574665581E+03    0.43389E-04   -0.16860E-04  2400   0.325E-02    0.514E-02
DAV:   5    -0.169574648661E+03    0.16920E-04   -0.36722E-05  2360   0.256E-02    0.235E-02
DAV:   6    -0.169574647848E+03    0.81283E-06   -0.19527E-05  2640   0.142E-02    0.201E-02
DAV:   7    -0.169574648057E+03   -0.20956E-06   -0.86379E-06  2288   0.768E-03
  48 F= -.16957465E+03 E0= -.16957465E+03  d E =-.191142E-17
       N       E                     dE             d eps       ncg     rms          rms(c)
DAV:   1    -0.169568039862E+03    0.66080E-02   -0.11210E-01  1992   0.661E-01    0.438E-01
DAV:   2    -0.169568807749E+03   -0.76789E-03   -0.99002E-03  2368   0.184E-01    0.933E-02
DAV:   3    -0.169568769108E+03    0.38641E-04   -0.45091E-04  2656   0.532E-02    0.601E-02
DAV:   4    -0.169568751547E+03    0.17561E-04   -0.69789E-05  2232   0.179E-02    0.361E-02
DAV:   5    -0.169568743922E+03    0.76254E-05   -0.16952E-05  2288   0.121E-02    0.137E-02
DAV:   6    -0.169568743708E+03    0.21428E-06   -0.80103E-06  2376   0.763E-03
  49 F= -.16956874E+03 E0= -.16956874E+03  d E =-.120342E-17
       N       E                     dE             d eps       ncg     rms          rms(c)
DAV:   1    -0.169563084210E+03    0.56597E-02   -0.46868E-01  2048   0.142E+00    0.122E+00
DAV:   2    -0.169565210660E+03   -0.21264E-02   -0.38054E-02  2488   0.416E-01    0.248E-01
DAV:   3    -0.169564800674E+03    0.40999E-03   -0.26751E-03  2880   0.137E-01    0.147E-01
DAV:   4    -0.169564624757E+03    0.17592E-03   -0.48818E-04  2504   0.538E-02    0.676E-02
DAV:   5    -0.169564577304E+03    0.47454E-04   -0.12045E-04  2496   0.356E-02    0.527E-02
DAV:   6    -0.169564577262E+03    0.42011E-07   -0.52393E-05  2744   0.173E-02    0.501E-02
DAV:   7    -0.169564575965E+03    0.12966E-05   -0.10170E-05  2240   0.686E-03    0.318E-02
DAV:   8    -0.169564575177E+03    0.78823E-06   -0.28124E-06  2152   0.541E-03
  50 F= -.16956458E+03 E0= -.16956458E+03  d E =-.440482E-17
       N       E                     dE             d eps       ncg     rms          rms(c)
DAV:   1    -0.169572458445E+03   -0.78825E-02   -0.11294E-01  2048   0.671E-01    0.372E-01
DAV:   2    -0.169573215553E+03   -0.75711E-03   -0.10007E-02  2376   0.186E-01    0.982E-02
DAV:   3    -0.169573174634E+03    0.40919E-04   -0.47869E-04  2856   0.530E-02    0.623E-02
DAV:   4    -0.169573151656E+03    0.22977E-04   -0.78713E-05  2408   0.228E-02    0.304E-02
DAV:   5    -0.169573150192E+03    0.14643E-05   -0.20303E-05  2528   0.134E-02    0.211E-02
DAV:   6    -0.169573150036E+03    0.15554E-06   -0.58340E-06  2160   0.570E-03
  51 F= -.16957315E+03 E0= -.16957315E+03  d E =-.425521E-17
       N       E                     dE             d eps       ncg     rms          rms(c)
DAV:   1    -0.169573827604E+03   -0.67741E-03   -0.20734E-01  2048   0.932E-01    0.844E-01
DAV:   2    -0.169574606680E+03   -0.77908E-03   -0.16125E-02  2384   0.264E-01    0.158E-01
DAV:   3    -0.169574382575E+03    0.22410E-03   -0.12170E-03  2880   0.882E-02    0.919E-02
DAV:   4    -0.169574288980E+03    0.93595E-04   -0.23133E-04  2464   0.497E-02    0.510E-02
DAV:   5    -0.169574267472E+03    0.21508E-04   -0.67508E-05  2464   0.336E-02    0.397E-02
DAV:   6    -0.169574267874E+03   -0.40185E-06   -0.26627E-05  2672   0.134E-02    0.362E-02
DAV:   7    -0.169574267367E+03    0.50711E-06   -0.45860E-06  2120   0.502E-03
  52 F= -.16957427E+03 E0= -.16957427E+03  d E =-.239067E-16
       N       E                     dE             d eps       ncg     rms          rms(c)
DAV:   1    -0.169566660973E+03    0.76069E-02   -0.11422E-01  2072   0.661E-01    0.499E-01
DAV:   2    -0.169567387726E+03   -0.72675E-03   -0.96353E-03  2384   0.183E-01    0.957E-02
DAV:   3    -0.169567329509E+03    0.58217E-04   -0.43125E-04  2880   0.524E-02    0.653E-02
DAV:   4    -0.169567299076E+03    0.30433E-04   -0.83485E-05  2312   0.183E-02    0.312E-02
DAV:   5    -0.169567290894E+03    0.81819E-05   -0.22783E-05  2432   0.133E-02    0.200E-02
DAV:   6    -0.169567290926E+03   -0.31418E-07   -0.76286E-06  2440   0.659E-03
  53 F= -.16956729E+03 E0= -.16956729E+03  d E =-.225364E-15
       N       E                     dE             d eps       ncg     rms          rms(c)
DAV:   1    -0.169567705378E+03   -0.41448E-03   -0.45303E-01  2048   0.143E+00    0.103E+00
DAV:   2    -0.169569708283E+03   -0.20029E-02   -0.34761E-02  2384   0.402E-01    0.225E-01
DAV:   3    -0.169569430280E+03    0.27800E-03   -0.24973E-03  2808   0.125E-01    0.122E-01
DAV:   4    -0.169569318126E+03    0.11215E-03   -0.36014E-04  2472   0.444E-02    0.759E-02
DAV:   5    -0.169569280127E+03    0.37999E-04   -0.95532E-05  2448   0.335E-02    0.393E-02
DAV:   6    -0.169569280192E+03   -0.65271E-07   -0.42379E-05  2768   0.190E-02    0.361E-02
DAV:   7    -0.169569279604E+03    0.58792E-06   -0.11190E-05  2376   0.876E-03    0.216E-02
DAV:   8    -0.169569279391E+03    0.21313E-06   -0.18869E-06  1736   0.585E-03
  54 F= -.16956928E+03 E0= -.16956928E+03  d E =-.665803E-17
       N       E                     dE             d eps       ncg     rms          rms(c)
DAV:   1    -0.169573831520E+03   -0.45519E-02   -0.10781E-01  1952   0.679E-01    0.276E-01
DAV:   2    -0.169574562111E+03   -0.73059E-03   -0.88436E-03  2360   0.180E-01    0.997E-02
DAV:   3    -0.169574553907E+03    0.82042E-05   -0.40422E-04  2640   0.493E-02    0.531E-02
DAV:   4    -0.169574545263E+03    0.86438E-05   -0.51907E-05  2352   0.180E-02    0.237E-02
DAV:   5    -0.169574544276E+03    0.98750E-06   -0.10074E-05  2328   0.991E-03    0.135E-02
DAV:   6    -0.169574544323E+03   -0.47481E-07   -0.33526E-06  2152   0.482E-03
  55 F= -.16957454E+03 E0= -.16957454E+03  d E =-.567753E-17
       N       E                     dE             d eps       ncg     rms          rms(c)
DAV:   1    -0.169573838471E+03    0.70580E-03   -0.19579E-01  2048   0.963E-01    0.653E-01
DAV:   2    -0.169574682320E+03   -0.84385E-03   -0.14651E-02  2408   0.259E-01    0.170E-01
DAV:   3    -0.169574594587E+03    0.87734E-04   -0.11604E-03  2704   0.823E-02    0.756E-02
DAV:   4    -0.169574558717E+03    0.35869E-04   -0.14926E-04  2328   0.279E-02    0.501E-02
DAV:   5    -0.169574544129E+03    0.14588E-04   -0.40740E-05  2288   0.199E-02    0.221E-02
DAV:   6    -0.169574543841E+03    0.28795E-06   -0.16470E-05  2432   0.118E-02    0.193E-02
DAV:   7    -0.169574544136E+03   -0.29404E-06   -0.73590E-06  2448   0.708E-03
  56 F= -.16957454E+03 E0= -.16957454E+03  d E =-.548646E-17
       N       E                     dE             d eps       ncg     rms          rms(c)
DAV:   1    -0.169568609484E+03    0.59344E-02   -0.10981E-01  2016   0.684E-01    0.401E-01
DAV:   2    -0.169569327184E+03   -0.71770E-03   -0.92030E-03  2312   0.183E-01    0.859E-02
DAV:   3    -0.169569299317E+03    0.27867E-04   -0.41243E-04  2512   0.511E-02    0.554E-02
DAV:   4    -0.169569285311E+03    0.14005E-04   -0.61283E-05  2248   0.168E-02    0.327E-02
DAV:   5    -0.169569279466E+03    0.58453E-05   -0.15195E-05  2224   0.110E-02    0.130E-02
DAV:   6    -0.169569279447E+03    0.19118E-07   -0.74206E-06  2368   0.765E-03
  57 F= -.16956928E+03 E0= -.16956928E+03  d E =-.649992E-17
       N       E                     dE             d eps       ncg     rms          rms(c)
DAV:   1    -0.169566491397E+03    0.27881E-02   -0.44279E-01  2048   0.151E+00    0.101E+00
DAV:   2    -0.169568905060E+03   -0.24137E-02   -0.38656E-02  2448   0.435E-01    0.241E-01
DAV:   3    -0.169568663511E+03    0.24155E-03   -0.26017E-03  2760   0.132E-01    0.130E-01
DAV:   4    -0.169568569705E+03    0.93805E-04   -0.37999E-04  2432   0.449E-02    0.813E-02
DAV:   5    -0.169568526839E+03    0.42867E-04   -0.84742E-05  2432   0.301E-02    0.345E-02
DAV:   6    -0.169568523617E+03    0.32219E-05   -0.46969E-05  2680   0.195E-02    0.328E-02
DAV:   7    -0.169568524090E+03   -0.47328E-06   -0.22455E-05  2496   0.116E-02    0.194E-02
DAV:   8    -0.169568524148E+03   -0.57265E-07   -0.29191E-06  1784   0.453E-03
  58 F= -.16956852E+03 E0= -.16956852E+03  d E =-.306937E-16
       N       E                     dE             d eps       ncg     rms          rms(c)
DAV:   1    -0.169573693854E+03   -0.51698E-02   -0.10811E-01  1960   0.681E-01    0.304E-01
DAV:   2    -0.169574468153E+03   -0.77430E-03   -0.94779E-03  2416   0.185E-01    0.102E-01
DAV:   3    -0.169574451127E+03    0.17026E-04   -0.43153E-04  2808   0.522E-02    0.553E-02
DAV:   4    -0.169574439293E+03    0.11834E-04   -0.58642E-05  2328   0.203E-02    0.263E-02
DAV:   5    -0.169574437661E+03    0.16322E-05   -0.12223E-05  2488   0.112E-02    0.151E-02
DAV:   6    -0.169574437565E+03    0.95697E-07   -0.40270E-06  2160   0.498E-03
  59 F= -.16957444E+03 E0= -.16957444E+03  d E =-.115835E-16
       N       E                     dE             d eps       ncg     rms          rms(c)
DAV:   1    -0.169573679772E+03    0.75789E-03   -0.19562E-01  2056   0.946E-01    0.696E-01
DAV:   2    -0.169574520390E+03   -0.84062E-03   -0.15041E-02  2416   0.262E-01    0.166E-01
DAV:   3    -0.169574394837E+03    0.12555E-03   -0.11663E-03  2840   0.873E-02    0.797E-02
DAV:   4    -0.169574347594E+03    0.47243E-04   -0.17564E-04  2472   0.341E-02    0.499E-02
DAV:   5    -0.169574328686E+03    0.18908E-04   -0.36859E-05  2488   0.262E-02    0.245E-02
DAV:   6    -0.169574327361E+03    0.13256E-05   -0.21733E-05  2664   0.147E-02    0.207E-02
DAV:   7    -0.169574327282E+03    0.78704E-07   -0.88622E-06  2448   0.814E-03
  60 F= -.16957433E+03 E0= -.16957433E+03  d E =-.459748E-17
       N       E                     dE             d eps       ncg     rms          rms(c)
DAV:   1    -0.169567981783E+03    0.63456E-02   -0.10905E-01  2016   0.671E-01    0.412E-01
DAV:   2    -0.169568697864E+03   -0.71608E-03   -0.92925E-03  2424   0.183E-01    0.877E-02
DAV:   3    -0.169568664111E+03    0.33753E-04   -0.41191E-04  2704   0.524E-02    0.579E-02
DAV:   4    -0.169568647544E+03    0.16567E-04   -0.63891E-05  2320   0.175E-02    0.327E-02
DAV:   5    -0.169568639886E+03    0.76582E-05   -0.16219E-05  2232   0.125E-02    0.130E-02
DAV:   6    -0.169568639576E+03    0.30933E-06   -0.80547E-06  2416   0.775E-03
  61 F= -.16956864E+03 E0= -.16956864E+03  d E =-.544191E-17
       N       E                     dE             d eps       ncg     rms          rms(c)
DAV:   1    -0.169566096703E+03    0.25432E-02   -0.45890E-01  1544   0.140E+00    0.107E+00
DAV:   2    -0.169568097156E+03   -0.20005E-02   -0.33749E-02  1784   0.376E-01    0.243E-01
DAV:   3    -0.169567691014E+03    0.40614E-03   -0.21801E-03  2112   0.115E-01    0.149E-01
DAV:   4    -0.169567465559E+03    0.22546E-03   -0.46702E-04  1816   0.507E-02    0.663E-02
DAV:   5    -0.169567383157E+03    0.82402E-04   -0.16067E-04  1904   0.399E-02    0.567E-02
DAV:   6    -0.169567370447E+03    0.12709E-04   -0.89195E-05  1912   0.216E-02    0.522E-02
DAV:   7    -0.169567364514E+03    0.59333E-05   -0.72209E-06  1720   0.695E-03    0.314E-02
DAV:   8    -0.169567345566E+03    0.18948E-04   -0.10978E-05  1680   0.133E-02    0.132E-02
DAV:   9    -0.169567334113E+03    0.11453E-04   -0.14730E-05  1920   0.125E-02    0.556E-03
DAV:  10    -0.169567330225E+03    0.38878E-05   -0.60111E-06  1664   0.671E-03    0.772E-03
DAV:  11    -0.169567328693E+03    0.15326E-05   -0.69137E-07  1024   0.284E-03    0.534E-03
DAV:  12    -0.169567323167E+03    0.55252E-05   -0.13067E-06  1296   0.670E-03    0.314E-03
DAV:  13    -0.169567319270E+03    0.38969E-05   -0.25145E-06  1432   0.647E-03    0.271E-03
DAV:  14    -0.169567317937E+03    0.13336E-05   -0.90543E-07   960   0.332E-03    0.226E-03
DAV:  15    -0.169567315882E+03    0.20552E-05   -0.32631E-07  1112   0.406E-03    0.670E-04
DAV:  16    -0.169567314829E+03    0.10529E-05   -0.48871E-07   912   0.288E-03    0.939E-04
DAV:  17    -0.169567314746E+03    0.83011E-07   -0.26202E-07   912   0.216E-03
  62 F= -.16956731E+03 E0= -.16956731E+03  d E =-.276564E-16
       N       E                     dE             d eps       ncg     rms          rms(c)
DAV:   1    -0.169573955193E+03   -0.66404E-02   -0.57628E-02  1440   0.494E-01    0.423E-01
DAV:   2    -0.169574202140E+03   -0.24695E-03   -0.44031E-03  1800   0.133E-01    0.809E-02
DAV:   3    -0.169574155710E+03    0.46431E-04   -0.30131E-04  2080   0.413E-02    0.487E-02
DAV:   4    -0.169574135930E+03    0.19779E-04   -0.51578E-05  1664   0.150E-02    0.241E-02
DAV:   5    -0.169574128397E+03    0.75332E-05   -0.16422E-05  1752   0.129E-02    0.166E-02
DAV:   6    -0.169574128298E+03    0.98993E-07   -0.83997E-06  1856   0.700E-03
  63 F= -.16957413E+03 E0= -.16957413E+03  d E =-.967283E-17
       N       E                     dE             d eps       ncg     rms          rms(c)
DAV:   1    -0.169573123463E+03    0.10049E-02   -0.23094E-01  1536   0.996E-01    0.865E-01
DAV:   2    -0.169574113688E+03   -0.99023E-03   -0.17843E-02  1800   0.270E-01    0.166E-01
DAV:   3    -0.169573927466E+03    0.18622E-03   -0.12527E-03  2072   0.835E-02    0.971E-02
DAV:   4    -0.169573847201E+03    0.80264E-04   -0.20354E-04  1816   0.315E-02    0.486E-02
DAV:   5    -0.169573815283E+03    0.31918E-04   -0.69200E-05  1848   0.277E-02    0.331E-02
DAV:   6    -0.169573815041E+03    0.24277E-06   -0.36271E-05  1920   0.146E-02    0.330E-02
DAV:   7    -0.169573814397E+03    0.64361E-06   -0.62122E-06  1600   0.551E-03
  64 F= -.16957381E+03 E0= -.16957381E+03  d E =-.132308E-16
       N       E                     dE             d eps       ncg     rms          rms(c)
DAV:   1    -0.169566566092E+03    0.72489E-02   -0.57953E-02  1456   0.498E-01    0.435E-01
DAV:   2    -0.169566817796E+03   -0.25170E-03   -0.45293E-03  1800   0.134E-01    0.829E-02
DAV:   3    -0.169566770411E+03    0.47385E-04   -0.31265E-04  2080   0.418E-02    0.458E-02
DAV:   4    -0.169566749316E+03    0.21096E-04   -0.53909E-05  1712   0.157E-02    0.235E-02
DAV:   5    -0.169566741751E+03    0.75645E-05   -0.16160E-05  1824   0.132E-02    0.169E-02
DAV:   6    -0.169566741608E+03    0.14372E-06   -0.96586E-06  1856   0.745E-03
  65 F= -.16956674E+03 E0= -.16956674E+03  d E =-.102389E-15
       N       E                     dE             d eps       ncg     rms          rms(c)
DAV:   1    -0.169565884388E+03    0.85736E-03   -0.11623E+00  2048   0.199E+00    0.101E+00
DAV:   2    -0.169571158827E+03   -0.52744E-02   -0.70878E-02  2592   0.572E-01    0.238E-01
DAV:   3    -0.169570690544E+03    0.46828E-03   -0.30654E-03  2728   0.150E-01    0.151E-01
DAV:   4    -0.169570533965E+03    0.15658E-03   -0.72557E-04  2400   0.588E-02    0.757E-02
DAV:   5    -0.169570523424E+03    0.10541E-04   -0.10616E-04  2648   0.292E-02    0.514E-02
DAV:   6    -0.169570522764E+03    0.66025E-06   -0.28767E-05  2568   0.148E-02    0.318E-02
DAV:   7    -0.169570520703E+03    0.20603E-05   -0.12144E-05  2216   0.870E-03    0.168E-02
DAV:   8    -0.169570520616E+03    0.87388E-07   -0.38714E-06  2184   0.503E-03
  66 F= -.16957052E+03 E0= -.16957052E+03  d E =-.470808E-17
       N       E                     dE             d eps       ncg     rms          rms(c)
DAV:   1    -0.169572948804E+03   -0.24281E-02   -0.43840E-01  2048   0.105E+00    0.276E-01
DAV:   2    -0.169574856442E+03   -0.19076E-02   -0.22283E-02  2384   0.291E-01    0.715E-02
DAV:   3    -0.169574862283E+03   -0.58408E-05   -0.78396E-04  2808   0.699E-02    0.484E-02
DAV:   4    -0.169574850919E+03    0.11364E-04   -0.79592E-05  2296   0.205E-02    0.259E-02
DAV:   5    -0.169574851427E+03   -0.50850E-06   -0.10967E-05  2248   0.858E-03    0.152E-02
DAV:   6    -0.169574851362E+03    0.65585E-07   -0.12233E-06  1648   0.375E-03
  67 F= -.16957485E+03 E0= -.16957485E+03  d E =-.500455E-17
       N       E                     dE             d eps       ncg     rms          rms(c)
DAV:   1    -0.169571935520E+03    0.29159E-02   -0.83126E-01  2048   0.153E+00    0.681E-01
DAV:   2    -0.169574921251E+03   -0.29857E-02   -0.39774E-02  2424   0.428E-01    0.146E-01
DAV:   3    -0.169574654871E+03    0.26638E-03   -0.13998E-03  2688   0.106E-01    0.103E-01
DAV:   4    -0.169574587870E+03    0.67001E-04   -0.47149E-04  2400   0.490E-02    0.438E-02
DAV:   5    -0.169574592522E+03   -0.46514E-05   -0.58537E-05  2344   0.202E-02    0.354E-02
DAV:   6    -0.169574592119E+03    0.40266E-06   -0.74735E-06  2192   0.883E-03
  68 F= -.16957459E+03 E0= -.16957459E+03  d E =-.688280E-17
       N       E                     dE             d eps       ncg     rms          rms(c)
DAV:   1    -0.169567739322E+03    0.68532E-02   -0.45730E-01  2048   0.108E+00    0.427E-01
DAV:   2    -0.169569866767E+03   -0.21274E-02   -0.23692E-02  2488   0.299E-01    0.101E-01
DAV:   3    -0.169569794498E+03    0.72270E-04   -0.68479E-04  2664   0.712E-02    0.754E-02
DAV:   4    -0.169569757678E+03    0.36820E-04   -0.18412E-04  2200   0.287E-02    0.344E-02
DAV:   5    -0.169569760549E+03   -0.28718E-05   -0.31452E-05  2264   0.132E-02    0.194E-02
DAV:   6    -0.169569760473E+03    0.76734E-07   -0.35325E-06  2088   0.525E-03
  69 F= -.16956976E+03 E0= -.16956976E+03  d E =-.982279E-17
       N       E                     dE             d eps       ncg     rms          rms(c)
DAV:   1    -0.169567225408E+03    0.25351E-02   -0.19135E+00  2048   0.235E+00    0.654E-01
DAV:   2    -0.169574825189E+03   -0.75998E-02   -0.91186E-02  2456   0.629E-01    0.267E-01
DAV:   3    -0.169574541478E+03    0.28371E-03   -0.28120E-03  2896   0.152E-01    0.205E-01
DAV:   4    -0.169574338209E+03    0.20327E-03   -0.85115E-04  2368   0.695E-02    0.851E-02
DAV:   5    -0.169574357253E+03   -0.19044E-04   -0.22055E-04  2496   0.355E-02    0.547E-02
DAV:   6    -0.169574355994E+03    0.12589E-05   -0.99064E-06  2440   0.105E-02    0.362E-02
DAV:   7    -0.169574353411E+03    0.25835E-05   -0.93320E-06  2208   0.783E-03    0.213E-02
DAV:   8    -0.169574353497E+03   -0.85849E-07   -0.36735E-06  2064   0.539E-03
  70 F= -.16957435E+03 E0= -.16957435E+03  d E =-.749261E-17
       N       E                     dE             d eps       ncg     rms          rms(c)
DAV:   1    -0.169573800697E+03    0.55271E-03   -0.48075E-01  2072   0.107E+00    0.194E-01
DAV:   2    -0.169575889594E+03   -0.20889E-02   -0.22148E-02  2320   0.275E-01    0.818E-02
DAV:   3    -0.169575921403E+03   -0.31809E-04   -0.65691E-04  2664   0.602E-02    0.560E-02
DAV:   4    -0.169575905341E+03    0.16061E-04   -0.10107E-04  2320   0.233E-02    0.228E-02
DAV:   5    -0.169575907646E+03   -0.23045E-05   -0.25895E-05  2256   0.113E-02    0.148E-02
DAV:   6    -0.169575907002E+03    0.64404E-06   -0.77095E-07  1456   0.298E-03
  71 F= -.16957591E+03 E0= -.16957591E+03  d E =-.624656E-17
       N       E                     dE             d eps       ncg     rms          rms(c)
DAV:   1    -0.169572190415E+03    0.37172E-02   -0.86943E-01  2096   0.151E+00    0.416E-01
DAV:   2    -0.169575599670E+03   -0.34093E-02   -0.39020E-02  2416   0.390E-01    0.194E-01
DAV:   3    -0.169575522621E+03    0.77049E-04   -0.98423E-04  2528   0.894E-02    0.134E-01
DAV:   4    -0.169575422835E+03    0.99786E-04   -0.58411E-04  2416   0.584E-02    0.548E-02
DAV:   5    -0.169575436094E+03   -0.13259E-04   -0.15766E-04  2416   0.282E-02    0.309E-02
DAV:   6    -0.169575433704E+03    0.23904E-05   -0.50239E-06  2352   0.659E-03    0.258E-02
DAV:   7    -0.169575429266E+03    0.44376E-05   -0.17273E-05  2152   0.104E-02    0.787E-03
DAV:   8    -0.169575429667E+03   -0.40017E-06   -0.43794E-06  2088   0.507E-03
  72 F= -.16957543E+03 E0= -.16957543E+03  d E =-.533495E-17
       N       E                     dE             d eps       ncg     rms          rms(c)
DAV:   1    -0.169571334841E+03    0.40944E-02   -0.48887E-01  2072   0.108E+00    0.269E-01
DAV:   2    -0.169573487351E+03   -0.21525E-02   -0.23550E-02  2288   0.277E-01    0.129E-01
DAV:   3    -0.169573477767E+03    0.95840E-05   -0.58651E-04  2376   0.630E-02    0.902E-02
DAV:   4    -0.169573430492E+03    0.47274E-04   -0.21138E-04  2352   0.324E-02    0.442E-02
DAV:   5    -0.169573437236E+03   -0.67432E-05   -0.62626E-05  2408   0.167E-02    0.162E-02
DAV:   6    -0.169573436636E+03    0.59975E-06   -0.14379E-06  1720   0.378E-03
  73 F= -.16957344E+03 E0= -.16957344E+03  d E =-.564742E-17
       N       E                     dE             d eps       ncg     rms          rms(c)
DAV:   1    -0.169563511201E+03    0.99260E-02   -0.19787E+00  2080   0.231E+00    0.590E-01
DAV:   2    -0.169571097828E+03   -0.75866E-02   -0.86384E-02  2480   0.581E-01    0.291E-01
DAV:   3    -0.169571035376E+03    0.62452E-04   -0.23302E-03  2736   0.136E-01    0.207E-01
DAV:   4    -0.169570830643E+03    0.20473E-03   -0.84856E-04  2328   0.667E-02    0.101E-01
DAV:   5    -0.169570862597E+03   -0.31954E-04   -0.30183E-04  2496   0.365E-02    0.350E-02
DAV:   6    -0.169570854164E+03    0.84333E-05   -0.14424E-05  2320   0.107E-02    0.286E-02
DAV:   7    -0.169570849111E+03    0.50531E-05   -0.22961E-05  2176   0.132E-02    0.756E-03
DAV:   8    -0.169570849408E+03   -0.29788E-06   -0.36969E-06  2088   0.510E-03
  74 F= -.16957085E+03 E0= -.16957085E+03  d E =-.884158E-17
       N       E                     dE             d eps       ncg     rms          rms(c)
DAV:   1    -0.169572753571E+03   -0.19045E-02   -0.46485E-01  2048   0.108E+00    0.250E-01
DAV:   2    -0.169574803393E+03   -0.20498E-02   -0.22572E-02  2304   0.288E-01    0.739E-02
DAV:   3    -0.169574818937E+03   -0.15544E-04   -0.70806E-04  2776   0.661E-02    0.506E-02
DAV:   4    -0.169574804681E+03    0.14255E-04   -0.78355E-05  2248   0.204E-02    0.223E-02
DAV:   5    -0.169574805523E+03   -0.84150E-06   -0.16335E-05  2280   0.965E-03    0.167E-02
DAV:   6    -0.169574805126E+03    0.39711E-06   -0.66818E-07  1496   0.289E-03
  75 F= -.16957481E+03 E0= -.16957481E+03  d E =-.707136E-17
       N       E                     dE             d eps       ncg     rms          rms(c)
DAV:   1    -0.169572359165E+03    0.24464E-02   -0.85529E-01  2048   0.155E+00    0.491E-01
DAV:   2    -0.169575596017E+03   -0.32369E-02   -0.38620E-02  2400   0.408E-01    0.160E-01
DAV:   3    -0.169575438066E+03    0.15795E-03   -0.11332E-03  2552   0.967E-02    0.110E-01
DAV:   4    -0.169575353124E+03    0.84942E-04   -0.41838E-04  2256   0.464E-02    0.451E-02
DAV:   5    -0.169575361756E+03   -0.86323E-05   -0.11005E-04  2256   0.238E-02    0.403E-02
DAV:   6    -0.169575360745E+03    0.10113E-05   -0.44410E-06  2208   0.622E-03    0.279E-02
DAV:   7    -0.169575359247E+03    0.14983E-05   -0.49932E-06  2080   0.551E-03    0.128E-02
DAV:   8    -0.169575359238E+03    0.91113E-08   -0.14765E-06  1664   0.343E-03
  76 F= -.16957536E+03 E0= -.16957536E+03  d E =-.462850E-17
       N       E                     dE             d eps       ncg     rms          rms(c)
DAV:   1    -0.169570082838E+03    0.52764E-02   -0.47479E-01  2048   0.109E+00    0.302E-01
DAV:   2    -0.169572259984E+03   -0.21771E-02   -0.23685E-02  2288   0.285E-01    0.105E-01
DAV:   3    -0.169572226404E+03    0.33580E-04   -0.60334E-04  2456   0.663E-02    0.771E-02
DAV:   4    -0.169572184437E+03    0.41967E-04   -0.15485E-04  2184   0.270E-02    0.376E-02
DAV:   5    -0.169572188009E+03   -0.35724E-05   -0.45633E-05  2296   0.144E-02    0.208E-02
DAV:   6    -0.169572187838E+03    0.17164E-06   -0.16516E-06  1848   0.395E-03
  77 F= -.16957219E+03 E0= -.16957219E+03  d E =-.428903E-17
       N       E                     dE             d eps       ncg     rms          rms(c)
DAV:   1    -0.169564254506E+03    0.79335E-02   -0.19288E+00  2056   0.240E+00    0.639E-01
DAV:   2    -0.169573698658E+03   -0.94442E-02   -0.10562E-01  2432   0.655E-01    0.303E-01
DAV:   3    -0.169573518930E+03    0.17973E-03   -0.28813E-03  2744   0.154E-01    0.238E-01
DAV:   4    -0.169573239650E+03    0.27928E-03   -0.76899E-04  2200   0.643E-02    0.107E-01
DAV:   5    -0.169573231963E+03    0.76871E-05   -0.31375E-04  2472   0.390E-02    0.498E-02
DAV:   6    -0.169573222497E+03    0.94660E-05   -0.23920E-05  2632   0.127E-02    0.449E-02
DAV:   7    -0.169573211054E+03    0.11442E-04   -0.11098E-05  2264   0.103E-02    0.228E-02
DAV:   8    -0.169573207368E+03    0.36866E-05   -0.93229E-06  2464   0.761E-03    0.706E-03
DAV:   9    -0.169573206176E+03    0.11918E-05   -0.16872E-06  1616   0.395E-03    0.450E-03
DAV:  10    -0.169573204906E+03    0.12699E-05   -0.58767E-07  1560   0.333E-03    0.302E-03
DAV:  11    -0.169573202503E+03    0.24029E-05   -0.29228E-06  1976   0.612E-03    0.149E-03
DAV:  12    -0.169573202090E+03    0.41351E-06   -0.22393E-06  1912   0.374E-03
  78 F= -.16957320E+03 E0= -.16957320E+03  d E =-.142064E-16
       N       E                     dE             d eps       ncg     rms          rms(c)
DAV:   1    -0.169573329816E+03   -0.12731E-03   -0.47752E-01  1952   0.955E-01    0.223E-01
DAV:   2    -0.169575509695E+03   -0.21799E-02   -0.23024E-02  2248   0.252E-01    0.823E-02
DAV:   3    -0.169575541858E+03   -0.32163E-04   -0.70979E-04  2752   0.587E-02    0.555E-02
DAV:   4    -0.169575526040E+03    0.15818E-04   -0.10182E-04  2224   0.222E-02    0.225E-02
DAV:   5    -0.169575528015E+03   -0.19748E-05   -0.24369E-05  2256   0.108E-02    0.157E-02
DAV:   6    -0.169575527310E+03    0.70572E-06   -0.10174E-06  1600   0.324E-03
  79 F= -.16957553E+03 E0= -.16957553E+03  d E =-.820243E-17
       N       E                     dE             d eps       ncg     rms          rms(c)
DAV:   1    -0.169571507259E+03    0.40208E-02   -0.86457E-01  1984   0.133E+00    0.468E-01
DAV:   2    -0.169575309106E+03   -0.38018E-02   -0.43114E-02  2328   0.353E-01    0.197E-01
DAV:   3    -0.169575220729E+03    0.88377E-04   -0.11674E-03  2512   0.857E-02    0.138E-01
DAV:   4    -0.169575119619E+03    0.10111E-03   -0.56030E-04  2240   0.493E-02    0.559E-02
DAV:   5    -0.169575130844E+03   -0.11225E-04   -0.14044E-04  2272   0.255E-02    0.341E-02
DAV:   6    -0.169575128864E+03    0.19800E-05   -0.55664E-06  2448   0.732E-03    0.285E-02
DAV:   7    -0.169575126547E+03    0.23167E-05   -0.86610E-06  2136   0.750E-03    0.135E-02
DAV:   8    -0.169575126736E+03   -0.18819E-06   -0.21860E-06  1856   0.407E-03
  80 F= -.16957513E+03 E0= -.16957513E+03  d E =-.419461E-17
       N       E                     dE             d eps       ncg     rms          rms(c)
DAV:   1    -0.169569690708E+03    0.54358E-02   -0.48407E-01  1936   0.957E-01    0.288E-01
DAV:   2    -0.169572019400E+03   -0.23287E-02   -0.25422E-02  2224   0.256E-01    0.129E-01
DAV:   3    -0.169572002418E+03    0.16983E-04   -0.64350E-04  2400   0.612E-02    0.960E-02
DAV:   4    -0.169571955925E+03    0.46493E-04   -0.14447E-04  2224   0.244E-02    0.522E-02
DAV:   5    -0.169571959548E+03   -0.36234E-05   -0.55224E-05  2400   0.140E-02    0.187E-02
DAV:   6    -0.169571959378E+03    0.17039E-06   -0.17108E-06  1872   0.382E-03
  81 F= -.16957196E+03 E0= -.16957196E+03  d E =-.361198E-17
       N       E                     dE             d eps       ncg     rms          rms(c)
DAV:   1    -0.169562691605E+03    0.92679E-02   -0.19353E+00  1488   0.208E+00    0.723E-01
DAV:   2    -0.169570058975E+03   -0.73674E-02   -0.89331E-02  1776   0.601E-01    0.220E-01
DAV:   3    -0.169569629452E+03    0.42952E-03   -0.29394E-03  2120   0.142E-01    0.161E-01
DAV:   4    -0.169569452907E+03    0.17654E-03   -0.80265E-04  1752   0.578E-02    0.659E-02
DAV:   5    -0.169569447872E+03    0.50352E-05   -0.12561E-04  1728   0.259E-02    0.497E-02
DAV:   6    -0.169569439897E+03    0.79749E-05   -0.13940E-05  1664   0.100E-02    0.255E-02
DAV:   7    -0.169569434326E+03    0.55712E-05   -0.56764E-06  1680   0.674E-03    0.177E-02
DAV:   8    -0.169569430470E+03    0.38563E-05   -0.26966E-06  1544   0.506E-03    0.589E-03
DAV:   9    -0.169569428734E+03    0.17361E-05   -0.81688E-07  1048   0.302E-03    0.258E-03
DAV:  10    -0.169569426883E+03    0.18507E-05   -0.38370E-07  1016   0.310E-03    0.113E-03
DAV:  11    -0.169569424551E+03    0.23315E-05   -0.62294E-07  1048   0.369E-03    0.758E-04
DAV:  12    -0.169569423295E+03    0.12561E-05   -0.54717E-07   976   0.318E-03    0.837E-04
DAV:  13    -0.169569422223E+03    0.10726E-05   -0.39544E-07   912   0.265E-03    0.875E-04
DAV:  14    -0.169569421930E+03    0.29233E-06   -0.28345E-07   912   0.185E-03
  82 F= -.16956942E+03 E0= -.16956942E+03  d E =-.600255E-17
       N       E                     dE             d eps       ncg     rms          rms(c)
DAV:   1    -0.169573935775E+03   -0.45136E-02   -0.23753E-01  1464   0.789E-01    0.340E-01
DAV:   2    -0.169574706554E+03   -0.77078E-03   -0.11041E-02  1680   0.220E-01    0.746E-02
DAV:   3    -0.169574622598E+03    0.83956E-04   -0.43603E-04  1880   0.541E-02    0.509E-02
DAV:   4    -0.169574604056E+03    0.18543E-04   -0.12498E-04  1664   0.231E-02    0.238E-02
DAV:   5    -0.169574604883E+03   -0.82682E-06   -0.13713E-05  1672   0.864E-03    0.185E-02
DAV:   6    -0.169574604339E+03    0.54354E-06   -0.22443E-06  1416   0.379E-03
  83 F= -.16957460E+03 E0= -.16957460E+03  d E =-.550073E-17
       N       E                     dE             d eps       ncg     rms          rms(c)
DAV:   1    -0.169571883865E+03    0.27210E-02   -0.95014E-01  1520   0.158E+00    0.690E-01
DAV:   2    -0.169575013483E+03   -0.31296E-02   -0.44543E-02  1720   0.441E-01    0.153E-01
DAV:   3    -0.169574677809E+03    0.33567E-03   -0.17547E-03  1928   0.108E-01    0.108E-01
DAV:   4    -0.169574602872E+03    0.74937E-04   -0.49395E-04  1744   0.474E-02    0.489E-02
DAV:   5    -0.169574606135E+03   -0.32632E-05   -0.53531E-05  1688   0.170E-02    0.347E-02
DAV:   6    -0.169574604450E+03    0.16851E-05   -0.99491E-06  1624   0.805E-03    0.832E-03
DAV:   7    -0.169574604005E+03    0.44495E-06   -0.21833E-06  1424   0.417E-03
  84 F= -.16957460E+03 E0= -.16957460E+03  d E =-.545650E-17
       N       E                     dE             d eps       ncg     rms          rms(c)
DAV:   1    -0.169568799678E+03    0.58048E-02   -0.23831E-01  1464   0.789E-01    0.338E-01
DAV:   2    -0.169569517130E+03   -0.71745E-03   -0.10550E-02  1664   0.218E-01    0.726E-02
DAV:   3    -0.169569437548E+03    0.79583E-04   -0.43157E-04  1880   0.533E-02    0.477E-02
DAV:   4    -0.169569420814E+03    0.16734E-04   -0.11887E-04  1648   0.225E-02    0.215E-02
DAV:   5    -0.169569421714E+03   -0.90053E-06   -0.13364E-05  1664   0.851E-03    0.176E-02
DAV:   6    -0.169569421352E+03    0.36166E-06   -0.18163E-06  1368   0.347E-03
  85 F= -.16956942E+03 E0= -.16956942E+03  d E =-.597591E-17
       N       E                     dE             d eps       ncg     rms          rms(c)
DAV:   1    -0.169567013938E+03    0.24078E-02   -0.19270E+00  2056   0.238E+00    0.867E-01
DAV:   2    -0.169575012123E+03   -0.79982E-02   -0.10120E-01  2592   0.696E-01    0.260E-01
DAV:   3    -0.169574536705E+03    0.47542E-03   -0.37331E-03  2584   0.179E-01    0.199E-01
DAV:   4    -0.169574275952E+03    0.26075E-03   -0.11436E-03  2416   0.779E-02    0.918E-02
DAV:   5    -0.169574296720E+03   -0.20769E-04   -0.24757E-04  2416   0.372E-02    0.488E-02
DAV:   6    -0.169574295411E+03    0.13098E-05   -0.16290E-05  2288   0.102E-02    0.299E-02
DAV:   7    -0.169574293245E+03    0.21657E-05   -0.68937E-06  2120   0.659E-03    0.128E-02
DAV:   8    -0.169574293282E+03   -0.37076E-07   -0.25747E-06  1936   0.407E-03
  86 F= -.16957429E+03 E0= -.16957429E+03  d E =-.836270E-17
       N       E                     dE             d eps       ncg     rms          rms(c)
DAV:   1    -0.169573981233E+03    0.31201E-03   -0.48422E-01  2080   0.982E-01    0.172E-01
DAV:   2    -0.169575872335E+03   -0.18911E-02   -0.20757E-02  2368   0.270E-01    0.698E-02
DAV:   3    -0.169575904166E+03   -0.31831E-04   -0.80127E-04  2920   0.622E-02    0.563E-02
DAV:   4    -0.169575880601E+03    0.23565E-04   -0.10293E-04  2352   0.215E-02    0.255E-02
DAV:   5    -0.169575882009E+03   -0.14085E-05   -0.23554E-05  2464   0.107E-02    0.137E-02
DAV:   6    -0.169575881572E+03    0.43747E-06   -0.79525E-07  1424   0.294E-03
  87 F= -.16957588E+03 E0= -.16957588E+03  d E =-.659537E-17
       N       E                     dE             d eps       ncg     rms          rms(c)
DAV:   1    -0.169572612636E+03    0.32694E-02   -0.89327E-01  2072   0.139E+00    0.386E-01
DAV:   2    -0.169575731616E+03   -0.31190E-02   -0.37143E-02  2368   0.386E-01    0.164E-01
DAV:   3    -0.169575603181E+03    0.12843E-03   -0.11771E-03  2744   0.939E-02    0.132E-01
DAV:   4    -0.169575464708E+03    0.13847E-03   -0.73010E-04  2496   0.770E-02    0.533E-02
DAV:   5    -0.169575476666E+03   -0.11957E-04   -0.16376E-04  2400   0.295E-02    0.330E-02
DAV:   6    -0.169575475647E+03    0.10188E-05   -0.63780E-06  2376   0.715E-03    0.243E-02
DAV:   7    -0.169575473655E+03    0.19914E-05   -0.62828E-06  2064   0.577E-03    0.119E-02
DAV:   8    -0.169575473769E+03   -0.11411E-06   -0.18847E-06  1656   0.346E-03
  88 F= -.16957547E+03 E0= -.16957547E+03  d E =-.650467E-17
       N       E                     dE             d eps       ncg     rms          rms(c)
DAV:   1    -0.169571525651E+03    0.39480E-02   -0.49541E-01  2080   0.984E-01    0.265E-01
DAV:   2    -0.169573535448E+03   -0.20098E-02   -0.22042E-02  2424   0.273E-01    0.107E-01
DAV:   3    -0.169573521149E+03    0.14299E-04   -0.72700E-04  2568   0.653E-02    0.868E-02
DAV:   4    -0.169573464565E+03    0.56584E-04   -0.29346E-04  2384   0.347E-02    0.379E-02
DAV:   5    -0.169573469515E+03   -0.49493E-05   -0.63012E-05  2256   0.175E-02    0.189E-02
DAV:   6    -0.169573469751E+03   -0.23602E-06   -0.28986E-06  2040   0.435E-03
  89 F= -.16957347E+03 E0= -.16957347E+03  d E =-.898031E-17
       N       E                     dE             d eps       ncg     rms          rms(c)
DAV:   1    -0.169563127558E+03    0.10342E-01   -0.20399E+00  1536   0.206E+00    0.488E-01
DAV:   2    -0.169570168607E+03   -0.70410E-02   -0.79512E-02  1760   0.546E-01    0.218E-01
DAV:   3    -0.169570057042E+03    0.11156E-03   -0.27042E-03  1960   0.128E-01    0.178E-01
DAV:   4    -0.169569759762E+03    0.29728E-03   -0.12395E-03  1744   0.693E-02    0.743E-02
DAV:   5    -0.169569774381E+03   -0.14620E-04   -0.28680E-04  1872   0.342E-02    0.362E-02
DAV:   6    -0.169569763204E+03    0.11178E-04   -0.17386E-05  1800   0.105E-02    0.285E-02
DAV:   7    -0.169569757598E+03    0.56051E-05   -0.19767E-05  1688   0.112E-02    0.110E-02
DAV:   8    -0.169569758838E+03   -0.12392E-05   -0.66947E-06  1904   0.668E-03    0.343E-03
DAV:   9    -0.169569760223E+03   -0.13855E-05   -0.76715E-07  1120   0.336E-03    0.210E-03
DAV:  10    -0.169569763601E+03   -0.33777E-05   -0.24448E-06  1400   0.586E-03    0.132E-03
DAV:  11    -0.169569765811E+03   -0.22096E-05   -0.10225E-06  1064   0.425E-03    0.128E-03
DAV:  12    -0.169569766677E+03   -0.86621E-06   -0.55571E-07   928   0.261E-03
  90 F= -.16956977E+03 E0= -.16956977E+03  d E =-.208939E-16
       N       E                     dE             d eps       ncg     rms          rms(c)
DAV:   1    -0.169573622975E+03   -0.38572E-02   -0.25409E-01  1536   0.729E-01    0.367E-01
DAV:   2    -0.169574474222E+03   -0.85125E-03   -0.10757E-02  1768   0.205E-01    0.840E-02
DAV:   3    -0.169574401537E+03    0.72685E-04   -0.32067E-04  1864   0.459E-02    0.584E-02
DAV:   4    -0.169574372711E+03    0.28827E-04   -0.18444E-04  1744   0.266E-02    0.247E-02
DAV:   5    -0.169574375374E+03   -0.26630E-05   -0.37047E-05  1632   0.137E-02    0.261E-02
DAV:   6    -0.169574375645E+03   -0.27158E-06   -0.18985E-06  1448   0.372E-03
  91 F= -.16957438E+03 E0= -.16957438E+03  d E =-.100366E-16
       N       E                     dE             d eps       ncg     rms          rms(c)
DAV:   1    -0.169572333861E+03    0.20415E-02   -0.10234E+00  1536   0.147E+00    0.782E-01
DAV:   2    -0.169575680878E+03   -0.33470E-02   -0.43076E-02  1776   0.405E-01    0.176E-01
DAV:   3    -0.169575381908E+03    0.29897E-03   -0.12985E-03  1904   0.899E-02    0.123E-01
DAV:   4    -0.169575261512E+03    0.12040E-03   -0.74321E-04  1768   0.539E-02    0.518E-02
DAV:   5    -0.169575271707E+03   -0.10195E-04   -0.14772E-04  1776   0.277E-02    0.519E-02
DAV:   6    -0.169575271669E+03    0.37775E-07   -0.80886E-06  1680   0.714E-03
  92 F= -.16957527E+03 E0= -.16957527E+03  d E =-.529063E-17
       N       E                     dE             d eps       ncg     rms          rms(c)
DAV:   1    -0.169570486406E+03    0.47853E-02   -0.25892E-01  1544   0.742E-01    0.385E-01
DAV:   2    -0.169571359991E+03   -0.87358E-03   -0.11203E-02  1776   0.204E-01    0.883E-02
DAV:   3    -0.169571279876E+03    0.80115E-04   -0.34257E-04  1912   0.469E-02    0.619E-02
DAV:   4    -0.169571248265E+03    0.31611E-04   -0.20406E-04  1728   0.278E-02    0.255E-02
DAV:   5    -0.169571250850E+03   -0.25855E-05   -0.42061E-05  1648   0.146E-02    0.281E-02
DAV:   6    -0.169571250887E+03   -0.36960E-07   -0.21782E-06  1472   0.404E-03
  93 F= -.16957125E+03 E0= -.16957125E+03  d E =-.799837E-17
       N       E                     dE             d eps       ncg     rms          rms(c)
DAV:   1    -0.169561634620E+03    0.96162E-02   -0.20100E+00  2064   0.226E+00    0.893E-01
DAV:   2    -0.169569863567E+03   -0.82289E-02   -0.10094E-01  2520   0.668E-01    0.255E-01
DAV:   3    -0.169569153729E+03    0.70984E-03   -0.31400E-03  2696   0.157E-01    0.189E-01
DAV:   4    -0.169568792365E+03    0.36136E-03   -0.15736E-03  2360   0.824E-02    0.652E-02
DAV:   5    -0.169568783692E+03    0.86720E-05   -0.37176E-04  2360   0.432E-02    0.783E-02
DAV:   6    -0.169568772472E+03    0.11221E-04   -0.40206E-05  2384   0.148E-02    0.502E-02
DAV:   7    -0.169568767586E+03    0.48858E-05   -0.10407E-05  2352   0.749E-03    0.304E-02
DAV:   8    -0.169568765703E+03    0.18828E-05   -0.41560E-06  2176   0.519E-03    0.163E-02
DAV:   9    -0.169568765302E+03    0.40149E-06   -0.88903E-07  1480   0.287E-03
  94 F= -.16956877E+03 E0= -.16956877E+03  d E =-.576266E-16
       N       E                     dE             d eps       ncg     rms          rms(c)
DAV:   1    -0.169572639182E+03   -0.38735E-02   -0.46298E-01  2048   0.907E-01    0.372E-01
DAV:   2    -0.169574469568E+03   -0.18304E-02   -0.22195E-02  2368   0.256E-01    0.865E-02
DAV:   3    -0.169574452705E+03    0.16863E-04   -0.75697E-04  2736   0.601E-02    0.563E-02
DAV:   4    -0.169574433646E+03    0.19059E-04   -0.12502E-04  2336   0.230E-02    0.275E-02
DAV:   5    -0.169574434699E+03   -0.10529E-05   -0.17749E-05  2304   0.105E-02    0.219E-02
DAV:   6    -0.169574434801E+03   -0.10193E-06   -0.15927E-06  1688   0.375E-03
  95 F= -.16957443E+03 E0= -.16957443E+03  d E =-.161855E-16
       N       E                     dE             d eps       ncg     rms          rms(c)
DAV:   1    -0.169571343832E+03    0.30909E-02   -0.89925E-01  2072   0.132E+00    0.932E-01
DAV:   2    -0.169574493660E+03   -0.31498E-02   -0.43630E-02  2376   0.384E-01    0.180E-01
DAV:   3    -0.169574086594E+03    0.40707E-03   -0.13972E-03  2752   0.958E-02    0.123E-01
DAV:   4    -0.169573971781E+03    0.11481E-03   -0.79083E-04  2432   0.674E-02    0.448E-02
DAV:   5    -0.169573978880E+03   -0.70993E-05   -0.11547E-04  2368   0.258E-02    0.522E-02
DAV:   6    -0.169573979357E+03   -0.47654E-06   -0.90809E-06  2232   0.883E-03
  96 F= -.16957398E+03 E0= -.16957398E+03  d E =-.304294E-17
       N       E                     dE             d eps       ncg     rms          rms(c)
DAV:   1    -0.169565254917E+03    0.87240E-02   -0.49112E-01  2072   0.944E-01    0.557E-01
DAV:   2    -0.169567395372E+03   -0.21405E-02   -0.24263E-02  2408   0.268E-01    0.120E-01
DAV:   3    -0.169567275401E+03    0.11997E-03   -0.62170E-04  2672   0.608E-02    0.814E-02
DAV:   4    -0.169567224359E+03    0.51042E-04   -0.35029E-04  2288   0.340E-02    0.351E-02
DAV:   5    -0.169567227850E+03   -0.34915E-05   -0.70160E-05  2256   0.178E-02    0.314E-02
DAV:   6    -0.169567227839E+03    0.10896E-07   -0.29827E-06  2152   0.533E-03
  97 F= -.16956723E+03 E0= -.16956723E+03  d E =-.253743E-17
       N       E                     dE             d eps       ncg     rms          rms(c)
DAV:   1    -0.169568776954E+03   -0.15491E-02   -0.20248E+00  2088   0.203E+00    0.808E-01
DAV:   2    -0.169576107837E+03   -0.73309E-02   -0.94222E-02  2384   0.577E-01    0.262E-01
DAV:   3    -0.169575538942E+03    0.56890E-03   -0.31941E-03  2680   0.138E-01    0.199E-01
DAV:   4    -0.169575279545E+03    0.25940E-03   -0.13661E-03  2408   0.824E-02    0.843E-02
DAV:   5    -0.169575296954E+03   -0.17409E-04   -0.24377E-04  2368   0.373E-02    0.741E-02
DAV:   6    -0.169575295686E+03    0.12683E-05   -0.16210E-05  2544   0.106E-02    0.469E-02
DAV:   7    -0.169575294471E+03    0.12151E-05   -0.40767E-06  2040   0.535E-03    0.296E-02
DAV:   8    -0.169575294361E+03    0.10953E-06   -0.33208E-06  2016   0.437E-03
  98 F= -.16957529E+03 E0= -.16957529E+03  d E =-.360747E-17
       N       E                     dE             d eps       ncg     rms          rms(c)
DAV:   1    -0.169574195079E+03    0.10994E-02   -0.48737E-01  2048   0.890E-01    0.175E-01
DAV:   2    -0.169576181462E+03   -0.19864E-02   -0.21224E-02  2376   0.248E-01    0.822E-02
DAV:   3    -0.169576213102E+03   -0.31640E-04   -0.70825E-04  2912   0.553E-02    0.615E-02
DAV:   4    -0.169576185326E+03    0.27776E-04   -0.15477E-04  2384   0.253E-02    0.293E-02
DAV:   5    -0.169576188761E+03   -0.34350E-05   -0.34506E-05  2344   0.121E-02    0.118E-02
DAV:   6    -0.169576187334E+03    0.14265E-05   -0.16827E-06  1688   0.361E-03    0.827E-03
DAV:   7    -0.169576186574E+03    0.76081E-06   -0.53624E-06  1992   0.496E-03
  99 F= -.16957619E+03 E0= -.16957619E+03  d E =-.399986E-17
       N       E                     dE             d eps       ncg     rms          rms(c)
DAV:   1    -0.169572558140E+03    0.36292E-02   -0.89091E-01  2048   0.126E+00    0.434E-01
DAV:   2    -0.169575839657E+03   -0.32815E-02   -0.37787E-02  2360   0.354E-01    0.201E-01
DAV:   3    -0.169575766725E+03    0.72932E-04   -0.13109E-03  2720   0.878E-02    0.148E-01
DAV:   4    -0.169575615444E+03    0.15128E-03   -0.88478E-04  2520   0.766E-02    0.651E-02
DAV:   5    -0.169575633814E+03   -0.18369E-04   -0.19754E-04  2432   0.298E-02    0.244E-02
DAV:   6    -0.169575626239E+03    0.75752E-05   -0.87452E-06  2216   0.787E-03    0.169E-02
DAV:   7    -0.169575622436E+03    0.38026E-05   -0.25457E-05  2152   0.103E-02    0.486E-03
DAV:   8    -0.169575622656E+03   -0.21994E-06   -0.38431E-06  1968   0.498E-03
 100 F= -.16957562E+03 E0= -.16957562E+03  d E =-.143997E-16
       N       E                     dE             d eps       ncg     rms          rms(c)
DAV:   1    -0.169572231143E+03    0.33913E-02   -0.49725E-01  2056   0.903E-01    0.287E-01
DAV:   2    -0.169574316063E+03   -0.20849E-02   -0.22839E-02  2408   0.255E-01    0.135E-01
DAV:   3    -0.169574306475E+03    0.95876E-05   -0.73011E-04  2568   0.590E-02    0.103E-01
DAV:   4    -0.169574243682E+03    0.62793E-04   -0.30151E-04  2368   0.339E-02    0.479E-02
DAV:   5    -0.169574250512E+03   -0.68298E-05   -0.67948E-05  2384   0.162E-02    0.128E-02
DAV:   6    -0.169574249486E+03    0.10258E-05   -0.21006E-06  1864   0.399E-03    0.821E-03
DAV:   7    -0.169574248748E+03    0.73811E-06   -0.54077E-06  2016   0.464E-03
 101 F= -.16957425E+03 E0= -.16957425E+03  d E =-.512788E-16
       N       E                     dE             d eps       ncg     rms          rms(c)
DAV:   1    -0.169567613755E+03    0.66357E-02   -0.20325E+00  2056   0.204E+00    0.505E-01
DAV:   2    -0.169574953841E+03   -0.73401E-02   -0.83563E-02  2416   0.580E-01    0.241E-01
DAV:   3    -0.169574822257E+03    0.13158E-03   -0.26468E-03  2608   0.137E-01    0.192E-01
DAV:   4    -0.169574518407E+03    0.30385E-03   -0.13897E-03  2392   0.844E-02    0.886E-02
DAV:   5    -0.169574552169E+03   -0.33762E-04   -0.34597E-04  2496   0.398E-02    0.312E-02
DAV:   6    -0.169574541579E+03    0.10590E-04   -0.16709E-05  2320   0.110E-02    0.226E-02
DAV:   7    -0.169574538464E+03    0.31147E-05   -0.17039E-05  2232   0.946E-03    0.400E-03
DAV:   8    -0.169574538461E+03    0.32960E-08   -0.14060E-06  1608   0.357E-03
 102 F= -.16957454E+03 E0= -.16957454E+03  d E =-.573249E-17
       N       E                     dE             d eps       ncg     rms          rms(c)
DAV:   1    -0.169573974031E+03    0.56443E-03   -0.49095E-01  2064   0.976E-01    0.143E-01
DAV:   2    -0.169575848832E+03   -0.18748E-02   -0.20054E-02  2432   0.269E-01    0.674E-02
DAV:   3    -0.169575871618E+03   -0.22786E-04   -0.57802E-04  2824   0.537E-02    0.522E-02
DAV:   4    -0.169575845795E+03    0.25823E-04   -0.14360E-04  2376   0.276E-02    0.240E-02
DAV:   5    -0.169575848631E+03   -0.28360E-05   -0.32582E-05  2400   0.126E-02    0.108E-02
DAV:   6    -0.169575847335E+03    0.12955E-05   -0.14411E-06  1624   0.369E-03    0.828E-03
DAV:   7    -0.169575846578E+03    0.75716E-06   -0.50970E-06  1976   0.504E-03
 103 F= -.16957585E+03 E0= -.16957585E+03  d E =-.542595E-17
       N       E                     dE             d eps       ncg     rms          rms(c)
DAV:   1    -0.169573076686E+03    0.27706E-02   -0.89584E-01  2056   0.139E+00    0.343E-01
DAV:   2    -0.169576065392E+03   -0.29887E-02   -0.34501E-02  2432   0.393E-01    0.167E-01
DAV:   3    -0.169575980772E+03    0.84620E-04   -0.10284E-03  2560   0.861E-02    0.131E-01
DAV:   4    -0.169575839622E+03    0.14115E-03   -0.77500E-04  2472   0.806E-02    0.547E-02
DAV:   5    -0.169575854742E+03   -0.15120E-04   -0.18038E-04  2360   0.307E-02    0.221E-02
DAV:   6    -0.169575849058E+03    0.56837E-05   -0.81981E-06  2208   0.778E-03    0.158E-02
DAV:   7    -0.169575846557E+03    0.25008E-05   -0.15649E-05  2168   0.847E-03    0.390E-03
DAV:   8    -0.169575846602E+03   -0.44962E-07   -0.14850E-06  1632   0.380E-03
 104 F= -.16957585E+03 E0= -.16957585E+03  d E =-.541634E-17
       N       E                     dE             d eps       ncg     rms          rms(c)
DAV:   1    -0.169572607042E+03    0.32395E-02   -0.50213E-01  2072   0.976E-01    0.245E-01
DAV:   2    -0.169574627878E+03   -0.20208E-02   -0.22001E-02  2528   0.276E-01    0.118E-01
DAV:   3    -0.169574590595E+03    0.37282E-04   -0.43947E-04  2488   0.505E-02    0.917E-02
DAV:   4    -0.169574534303E+03    0.56293E-04   -0.27544E-04  2336   0.341E-02    0.431E-02
DAV:   5    -0.169574539830E+03   -0.55274E-05   -0.58995E-05  2360   0.166E-02    0.122E-02
DAV:   6    -0.169574538938E+03    0.89172E-06   -0.20474E-06  1800   0.397E-03
 105 F= -.16957454E+03 E0= -.16957454E+03  d E =-.576228E-17
       N       E                     dE             d eps       ncg     rms          rms(c)
DAV:   1    -0.169561999672E+03    0.12540E-01   -0.19628E+00  2056   0.241E+00    0.793E-01
DAV:   2    -0.169570536332E+03   -0.85367E-02   -0.96420E-02  2496   0.663E-01    0.193E-01
DAV:   3    -0.169570286902E+03    0.24943E-03   -0.34377E-03  2808   0.156E-01    0.146E-01
DAV:   4    -0.169570060084E+03    0.22682E-03   -0.71893E-04  2432   0.587E-02    0.570E-02
DAV:   5    -0.169570028132E+03    0.31951E-04   -0.15156E-04  2512   0.305E-02    0.430E-02
DAV:   6    -0.169570007244E+03    0.20888E-04   -0.29793E-05  2592   0.171E-02    0.253E-02
DAV:   7    -0.169569994971E+03    0.12273E-04   -0.14452E-05  2640   0.120E-02    0.144E-02
DAV:   8    -0.169569987429E+03    0.75415E-05   -0.89942E-06  2400   0.992E-03    0.348E-03
DAV:   9    -0.169569984547E+03    0.28826E-05   -0.51153E-06  2552   0.629E-03    0.222E-03
DAV:  10    -0.169569982073E+03    0.24738E-05   -0.12900E-06  1728   0.520E-03    0.185E-03
DAV:  11    -0.169569980149E+03    0.19238E-05   -0.31436E-06  1968   0.634E-03    0.199E-03
DAV:  12    -0.169569979630E+03    0.51943E-06   -0.22681E-06  1824   0.481E-03
 106 F= -.16956998E+03 E0= -.16956998E+03  d E =-.307234E-17
       N       E                     dE             d eps       ncg     rms          rms(c)
DAV:   1    -0.169572859134E+03   -0.28790E-02   -0.44734E-01  2000   0.966E-01    0.277E-01
DAV:   2    -0.169574874692E+03   -0.20156E-02   -0.23440E-02  2352   0.268E-01    0.767E-02
DAV:   3    -0.169574876871E+03   -0.21789E-05   -0.84013E-04  2800   0.670E-02    0.533E-02
DAV:   4    -0.169574862236E+03    0.14635E-04   -0.91115E-05  2312   0.212E-02    0.276E-02
DAV:   5    -0.169574862421E+03   -0.18525E-06   -0.13073E-05  2256   0.892E-03    0.189E-02
DAV:   6    -0.169574861989E+03    0.43223E-06   -0.11069E-06  1680   0.341E-03
 107 F= -.16957486E+03 E0= -.16957486E+03  d E =-.379022E-17
       N       E                     dE             d eps       ncg     rms          rms(c)
DAV:   1    -0.169571649673E+03    0.32127E-02   -0.84383E-01  2000   0.137E+00    0.598E-01
DAV:   2    -0.169575069421E+03   -0.34197E-02   -0.43331E-02  2424   0.386E-01    0.169E-01
DAV:   3    -0.169574806174E+03    0.26325E-03   -0.14611E-03  2624   0.101E-01    0.126E-01
DAV:   4    -0.169574715619E+03    0.90556E-04   -0.50162E-04  2312   0.491E-02    0.490E-02
DAV:   5    -0.169574720908E+03   -0.52890E-05   -0.79258E-05  2296   0.232E-02    0.428E-02
DAV:   6    -0.169574720100E+03    0.80779E-06   -0.73828E-06  2184   0.862E-03
 108 F= -.16957472E+03 E0= -.16957472E+03  d E =-.103990E-16
       N       E                     dE             d eps       ncg     rms          rms(c)
DAV:   1    -0.169567907866E+03    0.68130E-02   -0.46155E-01  2064   0.971E-01    0.374E-01
DAV:   2    -0.169570208531E+03   -0.23007E-02   -0.25227E-02  2352   0.273E-01    0.108E-01
DAV:   3    -0.169570145587E+03    0.62944E-04   -0.71674E-04  2560   0.670E-02    0.848E-02
DAV:   4    -0.169570101946E+03    0.43641E-04   -0.18591E-04  2264   0.282E-02    0.363E-02
DAV:   5    -0.169570104800E+03   -0.28540E-05   -0.38053E-05  2216   0.137E-02    0.248E-02
DAV:   6    -0.169570104684E+03    0.11658E-06   -0.36493E-06  2184   0.488E-03
 109 F= -.16957010E+03 E0= -.16957010E+03  d E =-.255498E-16
       N       E                     dE             d eps       ncg     rms          rms(c)
DAV:   1    -0.169568973038E+03    0.11318E-02   -0.19800E+00  1488   0.203E+00    0.613E-01
DAV:   2    -0.169576102465E+03   -0.71294E-02   -0.81867E-02  1744   0.547E-01    0.240E-01
DAV:   3    -0.169575912351E+03    0.19011E-03   -0.21654E-03  1968   0.121E-01    0.174E-01
DAV:   4    -0.169575547344E+03    0.36501E-03   -0.11705E-03  1776   0.729E-02    0.537E-02
DAV:   5    -0.169575543357E+03    0.39868E-05   -0.34990E-04  1752   0.385E-02    0.457E-02
DAV:   6    -0.169575526481E+03    0.16876E-04   -0.34785E-05  1904   0.137E-02    0.336E-02
DAV:   7    -0.169575511660E+03    0.14822E-04   -0.22566E-05  1656   0.137E-02    0.976E-03
DAV:   8    -0.169575507501E+03    0.41586E-05   -0.16498E-05  1768   0.117E-02    0.756E-03
DAV:   9    -0.169575506979E+03    0.52220E-06   -0.42044E-06  1648   0.557E-03
 110 F= -.16957551E+03 E0= -.16957551E+03  d E =-.637223E-17
       N       E                     dE             d eps       ncg     rms          rms(c)
DAV:   1    -0.169575240085E+03    0.26742E-03   -0.25415E-01  1504   0.744E-01    0.157E-01
DAV:   2    -0.169576136420E+03   -0.89633E-03   -0.10491E-02  1696   0.183E-01    0.108E-01
DAV:   3    -0.169576133530E+03    0.28896E-05   -0.25047E-04  1752   0.401E-02    0.779E-02
DAV:   4    -0.169576103438E+03    0.30092E-04   -0.11867E-04  1600   0.241E-02    0.382E-02
DAV:   5    -0.169576109436E+03   -0.59977E-05   -0.49828E-05  1864   0.138E-02    0.105E-02
DAV:   6    -0.169576106118E+03    0.33181E-05   -0.80479E-06  1584   0.609E-03    0.681E-03
DAV:   7    -0.169576105786E+03    0.33226E-06   -0.35095E-06  1472   0.400E-03
 111 F= -.16957611E+03 E0= -.16957611E+03  d E =-.567454E-17
       N       E                     dE             d eps       ncg     rms          rms(c)
DAV:   1    -0.169572592312E+03    0.35138E-02   -0.10171E+00  1528   0.149E+00    0.325E-01
DAV:   2    -0.169576240055E+03   -0.36477E-02   -0.42561E-02  1712   0.366E-01    0.220E-01
DAV:   3    -0.169576217285E+03    0.22771E-04   -0.95622E-04  1784   0.784E-02    0.164E-01
DAV:   4    -0.169576096360E+03    0.12092E-03   -0.46002E-04  1600   0.445E-02    0.794E-02
DAV:   5    -0.169576118985E+03   -0.22625E-04   -0.19309E-04  1864   0.262E-02    0.203E-02
DAV:   6    -0.169576106184E+03    0.12801E-04   -0.38080E-05  1576   0.123E-02    0.124E-02
DAV:   7    -0.169576105840E+03    0.34429E-06   -0.12699E-05  1784   0.673E-03    0.766E-03
DAV:   8    -0.169576105846E+03   -0.60427E-08   -0.91393E-07  1032   0.284E-03
 112 F= -.16957611E+03 E0= -.16957611E+03  d E =-.530650E-17
       N       E                     dE             d eps       ncg     rms          rms(c)
DAV:   1    -0.169574636010E+03    0.14698E-02   -0.25410E-01  1504   0.744E-01    0.153E-01
DAV:   2    -0.169575537536E+03   -0.90153E-03   -0.10503E-02  1696   0.183E-01    0.109E-01
DAV:   3    -0.169575534447E+03    0.30890E-05   -0.24980E-04  1760   0.397E-02    0.796E-02
DAV:   4    -0.169575503454E+03    0.30993E-04   -0.11237E-04  1600   0.221E-02    0.411E-02
DAV:   5    -0.169575509494E+03   -0.60409E-05   -0.51705E-05  1872   0.132E-02    0.109E-02
DAV:   6    -0.169575505948E+03    0.35464E-05   -0.11084E-05  1568   0.650E-03    0.599E-03
DAV:   7    -0.169575505830E+03    0.11773E-06   -0.37726E-06  1504   0.347E-03
 113 F= -.16957551E+03 E0= -.16957551E+03  d E =-.637500E-17
