<?xml version="1.0" encoding="ISO-8859-1"?>
<modeling>
 <generator>
  <i name="program" type="string">vasp </i>
  <i name="version" type="string">6.3.2  </i>
  <i name="subversion" type="string">27Jun22 (build Mar 25 2024 10:42:18) complex                          parallel </i>
  <i name="platform" type="string">LinuxGNU </i>
  <i name="date" type="string">2024 03 27 </i>
  <i name="time" type="string">00:09:40 </i>
 </generator>
 <incar>
  <i type="int" name="ISTART">     0</i>
  <i type="string" name="PREC">Accurate</i>
  <i type="int" name="ISPIN">     2</i>
  <i type="int" name="ICHARG">     2</i>
  <i type="int" name="NELM">   200</i>
  <i type="int" name="IBRION">     2</i>
  <i name="EDIFF">      0.00000000</i>
  <i name="EDIFFG">     -0.00050000</i>
  <i type="int" name="NSW">   200</i>
  <i type="int" name="ISIF">     3</i>
  <i type="int" name="ISYM">     1</i>
  <i name="ENCUT">    520.00000000</i>
  <v name="MAGMOM">      0.60000000      0.60000000      0.60000000      0.60000000      0.60000000      0.60000000</v>
  <i type="string" name="LREAL">Auto</i>
  <i type="int" name="ISMEAR">    -5</i>
  <i name="SIGMA">      0.05000000</i>
  <i type="logical" name="LWAVE"> F  </i>
  <i type="logical" name="LCHARG"> F  </i>
  <i type="int" name="LORBIT">    11</i>
  <i type="logical" name="LASPH"> T  </i>
 </incar>
 <primitive_cell>
  <structure name="primitive_cell" >
   <crystal>
    <varray name="basis" >
     <v>      -2.02955544       3.05021485      -0.10430027 </v>
     <v>       2.02955544       3.05021485      -0.10430027 </v>
     <v>       0.00000000      -1.77113462      -8.84544891 </v>
    </varray>
    <i name="volume">    110.26675978 </i>
    <varray name="rec_basis" >
     <v>      -0.24635937       0.16280817      -0.03259927 </v>
     <v>       0.24635937       0.16280817      -0.03259927 </v>
     <v>      -0.00000000      -0.00383947      -0.11228370 </v>
    </varray>
   </crystal>
   <varray name="positions" >
    <v>       0.00000000       0.00000000       0.00000000 </v>
    <v>       0.66659189       0.66659189       0.33337181 </v>
    <v>       0.33340811       0.33340811       0.66662819 </v>
   </varray>
  </structure>
  <varray name="primitive_index" >
   <v type="int" >        1 </v>
   <v type="int" >        2 </v>
   <v type="int" >        6 </v>
  </varray>
 </primitive_cell>
 <kpoints>
  <generation param="Gamma">
   <v type="int" name="divisions">       3        6        2 </v>
   <v name="usershift">      0.00000000       0.00000000       0.00000000 </v>
   <v name="genvec1">      0.33333333       0.00000000       0.00000000 </v>
   <v name="genvec2">      0.00000000       0.16666667       0.00000000 </v>
   <v name="genvec3">     -0.00000000       0.00000000       0.50000000 </v>
   <v name="shift">      0.00000000       0.00000000       0.00000000 </v>
  </generation>
  <varray name="kpointlist" >
   <v>       0.00000000       0.00000000       0.00000000 </v>
   <v>       0.33333333       0.00000000       0.00000000 </v>
   <v>       0.00000000       0.16666667       0.00000000 </v>
   <v>       0.33333333       0.16666667       0.00000000 </v>
   <v>       0.00000000       0.33333333       0.00000000 </v>
   <v>       0.33333333       0.33333333       0.00000000 </v>
   <v>       0.00000000       0.50000000       0.00000000 </v>
   <v>       0.33333333       0.50000000       0.00000000 </v>
   <v>       0.00000000       0.00000000       0.50000000 </v>
   <v>       0.33333333       0.00000000       0.50000000 </v>
   <v>       0.00000000       0.16666667       0.50000000 </v>
   <v>       0.33333333       0.16666667       0.50000000 </v>
   <v>       0.00000000       0.33333333       0.50000000 </v>
   <v>       0.33333333       0.33333333       0.50000000 </v>
   <v>       0.00000000       0.50000000       0.50000000 </v>
   <v>       0.33333333       0.50000000       0.50000000 </v>
  </varray>
  <varray name="weights" >
   <v>       0.02777778 </v>
   <v>       0.05555556 </v>
   <v>       0.05555556 </v>
   <v>       0.11111111 </v>
   <v>       0.05555556 </v>
   <v>       0.11111111 </v>
   <v>       0.02777778 </v>
   <v>       0.05555556 </v>
   <v>       0.02777778 </v>
   <v>       0.05555556 </v>
   <v>       0.05555556 </v>
   <v>       0.11111111 </v>
   <v>       0.05555556 </v>
   <v>       0.11111111 </v>
   <v>       0.02777778 </v>
   <v>       0.05555556 </v>
  </varray>
  <varray name="tetrahedronlist"  type="int" >
   <v type="int" >        2        4       11       12       13 </v>
   <v type="int" >        2        4       12       13       14 </v>
   <v type="int" >        2        4        6       13       14 </v>
   <v type="int" >        2        3        4       11       13 </v>
   <v type="int" >        2        3        4        5       13 </v>
   <v type="int" >        2        4        5        6       13 </v>
   <v type="int" >        2        6       13       14       15 </v>
   <v type="int" >        2        6       14       15       16 </v>
   <v type="int" >        2        6        8       15       16 </v>
   <v type="int" >        2        5        6       13       15 </v>
   <v type="int" >        2        5        6        7       15 </v>
   <v type="int" >        2        6        7        8       15 </v>
   <v type="int" >        2        8       13       15       16 </v>
   <v type="int" >        2        8       13       14       16 </v>
   <v type="int" >        2        6        8       13       14 </v>
   <v type="int" >        2        7        8       13       15 </v>
   <v type="int" >        2        5        7        8       13 </v>
   <v type="int" >        2        5        6        8       13 </v>
   <v type="int" >        2        6       11       13       14 </v>
   <v type="int" >        2        6       11       12       14 </v>
   <v type="int" >        2        4        6       11       12 </v>
   <v type="int" >        2        5        6       11       13 </v>
   <v type="int" >        2        3        5        6       11 </v>
   <v type="int" >        2        3        4        6       11 </v>
   <v type="int" >        2        4        9       11       12 </v>
   <v type="int" >        2        4        9       10       12 </v>
   <v type="int" >        2        2        4        9       10 </v>
   <v type="int" >        2        3        4        9       11 </v>
   <v type="int" >        2        1        3        4        9 </v>
   <v type="int" >        2        1        2        4        9 </v>
   <v type="int" >        2        2        9       10       11 </v>
   <v type="int" >        2        2       10       11       12 </v>
   <v type="int" >        2        2        4       11       12 </v>
   <v type="int" >        2        1        2        9       11 </v>
   <v type="int" >        2        1        2        3       11 </v>
   <v type="int" >        2        2        3        4       11 </v>
   <v type="int" >        2        4        4        6       12 </v>
   <v type="int" >        2        4        6        6       12 </v>
   <v type="int" >        2        6        6       12       14 </v>
   <v type="int" >        2        4        6       12       12 </v>
   <v type="int" >        2        6       12       12       14 </v>
   <v type="int" >        2        6       12       14       14 </v>
   <v type="int" >        2        6        6        8       14 </v>
   <v type="int" >        2        6        8        8       14 </v>
   <v type="int" >        2        8        8       14       16 </v>
   <v type="int" >        2        6        8       14       14 </v>
   <v type="int" >        2        8       14       14       16 </v>
   <v type="int" >        2        8       14       16       16 </v>
   <v type="int" >        2        6        8        8       16 </v>
   <v type="int" >        2        6        6        8       16 </v>
   <v type="int" >        2        6        6       14       16 </v>
   <v type="int" >        2        6        8       16       16 </v>
   <v type="int" >        2        6       14       16       16 </v>
   <v type="int" >        2        6       14       14       16 </v>
   <v type="int" >        2        4        6        6       14 </v>
   <v type="int" >        2        4        4        6       14 </v>
   <v type="int" >        2        4        4       12       14 </v>
   <v type="int" >        2        4        6       14       14 </v>
   <v type="int" >        2        4       12       14       14 </v>
   <v type="int" >        2        4       12       12       14 </v>
   <v type="int" >        2        2        4        4       12 </v>
   <v type="int" >        2        2        2        4       12 </v>
   <v type="int" >        2        2        2       10       12 </v>
   <v type="int" >        2        2        4       12       12 </v>
   <v type="int" >        2        2       10       12       12 </v>
   <v type="int" >        2        2       10       10       12 </v>
   <v type="int" >        2        2        2        4       10 </v>
   <v type="int" >        2        2        4        4       10 </v>
   <v type="int" >        2        4        4       10       12 </v>
   <v type="int" >        2        2        4       10       10 </v>
   <v type="int" >        2        4       10       10       12 </v>
   <v type="int" >        2        4       10       12       12 </v>
   <v type="int" >        2        3       11       12       14 </v>
   <v type="int" >        2        3       11       13       14 </v>
   <v type="int" >        2        3        5       13       14 </v>
   <v type="int" >        2        3        4       12       14 </v>
   <v type="int" >        2        3        4        6       14 </v>
   <v type="int" >        2        3        5        6       14 </v>
   <v type="int" >        2        5       13       14       16 </v>
   <v type="int" >        2        5       13       15       16 </v>
   <v type="int" >        2        5        7       15       16 </v>
   <v type="int" >        2        5        6       14       16 </v>
   <v type="int" >        2        5        6        8       16 </v>
   <v type="int" >        2        5        7        8       16 </v>
   <v type="int" >        2        7       14       15       16 </v>
   <v type="int" >        2        7       13       14       15 </v>
   <v type="int" >        2        5        7       13       14 </v>
   <v type="int" >        2        7        8       14       16 </v>
   <v type="int" >        2        6        7        8       14 </v>
   <v type="int" >        2        5        6        7       14 </v>
   <v type="int" >        2        5       12       13       14 </v>
   <v type="int" >        2        5       11       12       13 </v>
   <v type="int" >        2        3        5       11       12 </v>
   <v type="int" >        2        5        6       12       14 </v>
   <v type="int" >        2        4        5        6       12 </v>
   <v type="int" >        2        3        4        5       12 </v>
   <v type="int" >        2        3       10       11       12 </v>
   <v type="int" >        2        3        9       10       11 </v>
   <v type="int" >        2        1        3        9       10 </v>
   <v type="int" >        2        3        4       10       12 </v>
   <v type="int" >        2        2        3        4       10 </v>
   <v type="int" >        2        1        2        3       10 </v>
   <v type="int" >        2        1        9       10       12 </v>
   <v type="int" >        2        1        9       11       12 </v>
   <v type="int" >        2        1        3       11       12 </v>
   <v type="int" >        2        1        2       10       12 </v>
   <v type="int" >        2        1        2        4       12 </v>
   <v type="int" >        2        1        3        4       12 </v>
  </varray>
  <i name="volumeweight">      0.00462963 </i>
 </kpoints>
 <parameters>
  <separator name="general" >
   <i type="string" name="SYSTEM">unknown system</i>
   <i type="logical" name="LCOMPAT"> F  </i>
  </separator>
  <separator name="electronic" >
   <i type="string" name="PREC">accura</i>
   <i name="ENMAX">    520.00000000</i>
   <i name="ENAUG">    368.05600000</i>
   <i name="EDIFF">      0.00000000</i>
   <i type="int" name="IALGO">    38</i>
   <i type="int" name="IWAVPR">    11</i>
   <i type="int" name="NBANDS">    32</i>
   <i type="int" name="NBANDSLOW">    -1</i>
   <i type="int" name="NBANDSHIGH">    -1</i>
   <i name="NELECT">     42.00000000</i>
   <i type="int" name="TURBO">     0</i>
   <i type="int" name="IRESTART">     0</i>
   <i type="int" name="NREBOOT">     0</i>
   <i type="int" name="NMIN">     0</i>
   <i name="EREF">      0.00000000</i>
   <separator name="electronic smearing" >
    <i type="int" name="ISMEAR">    -5</i>
    <i name="SIGMA">      0.05000000</i>
    <i name="KSPACING">      0.50000000</i>
    <i type="logical" name="KGAMMA"> T  </i>
    <i type="logical" name="KBLOWUP"> T  </i>
   </separator>
   <separator name="electronic projectors" >
    <i type="logical" name="LREAL"> T  </i>
    <v name="ROPT">     -0.00025000</v>
    <i type="int" name="LMAXPAW">  -100</i>
    <i type="int" name="LMAXMIX">     2</i>
    <i type="logical" name="NLSPLINE"> F  </i>
   </separator>
   <separator name="electronic startup" >
    <i type="int" name="ISTART">     0</i>
    <i type="int" name="ICHARG">     2</i>
    <i type="int" name="INIWAV">     1</i>
   </separator>
   <separator name="electronic spin" >
    <i type="int" name="ISPIN">     2</i>
    <i type="logical" name="LNONCOLLINEAR"> F  </i>
    <v name="MAGMOM">      0.60000000      0.60000000      0.60000000      0.60000000      0.60000000      0.60000000</v>
    <i name="NUPDOWN">     -1.00000000</i>
    <i type="logical" name="LSORBIT"> F  </i>
    <v name="SAXIS">      0.00000000      0.00000000      1.00000000</v>
    <i type="logical" name="LSPIRAL"> F  </i>
    <v name="QSPIRAL">      0.00000000      0.00000000      0.00000000</v>
    <i type="logical" name="LZEROZ"> F  </i>
   </separator>
   <separator name="electronic exchange-correlation" >
    <i type="logical" name="LASPH"> T  </i>
    <i type="logical" name="LMETAGGA"> F  </i>
   </separator>
   <separator name="electronic convergence" >
    <i type="int" name="NELM">   200</i>
    <i type="int" name="NELMDL">    -5</i>
    <i type="int" name="NELMIN">     2</i>
    <i name="ENINI">    520.00000000</i>
    <separator name="electronic convergence detail" >
     <i type="logical" name="LDIAG"> T  </i>
     <i type="logical" name="LSUBROT"> F  </i>
     <i name="WEIMIN">      0.00100000</i>
     <i name="EBREAK">      0.00000000</i>
     <i name="DEPER">      0.30000000</i>
     <i type="int" name="NRMM">     4</i>
     <i name="TIME">      0.40000000</i>
    </separator>
   </separator>
   <separator name="electronic mixer" >
    <i name="AMIX">      0.40000000</i>
    <i name="BMIX">      1.00000000</i>
    <i name="AMIN">      0.10000000</i>
    <i name="AMIX_MAG">      1.60000000</i>
    <i name="BMIX_MAG">      1.00000000</i>
    <separator name="electronic mixer details" >
     <i type="int" name="IMIX">     4</i>
     <i type="logical" name="MIXFIRST"> F  </i>
     <i type="int" name="MAXMIX">   -45</i>
     <i name="WC">    100.00000000</i>
     <i type="int" name="INIMIX">     1</i>
     <i type="int" name="MIXPRE">     1</i>
     <i type="int" name="MREMOVE">     5</i>
    </separator>
   </separator>
   <separator name="electronic dipolcorrection" >
    <i type="logical" name="LDIPOL"> F  </i>
    <i type="logical" name="LMONO"> F  </i>
    <i type="int" name="IDIPOL">     0</i>
    <i name="EPSILON">      1.00000000</i>
    <v name="DIPOL">   -100.00000000   -100.00000000   -100.00000000</v>
    <i name="EFIELD">      0.00000000</i>
   </separator>
  </separator>
  <separator name="grids" >
   <i type="int" name="NGX">    48</i>
   <i type="int" name="NGY">    30</i>
   <i type="int" name="NGZ">    70</i>
   <i type="int" name="NGXF">    96</i>
   <i type="int" name="NGYF">    60</i>
   <i type="int" name="NGZF">   140</i>
   <i type="logical" name="ADDGRID"> F  </i>
  </separator>
  <separator name="ionic" >
   <i type="int" name="NSW">   200</i>
   <i type="int" name="IBRION">     2</i>
   <i type="int" name="MDALGO">     0</i>
   <i type="int" name="ISIF">     3</i>
   <i name="PSTRESS">      0.00000000</i>
   <i name="EDIFFG">     -0.00050000</i>
   <i type="int" name="NFREE">     1</i>
   <i name="POTIM">      0.50000000</i>
   <i name="SMASS">     -3.00000000</i>
   <i name="SCALEE">      1.00000000</i>
  </separator>
  <separator name="ionic md" >
   <i name="TEBEG">      0.00010000</i>
   <i name="TEEND">      0.00010000</i>
   <i type="int" name="NBLOCK">     1</i>
   <i type="int" name="KBLOCK">   200</i>
   <i type="int" name="NPACO">   256</i>
   <i name="APACO">     10.00000000</i>
  </separator>
  <separator name="symmetry" >
   <i type="int" name="ISYM">     1</i>
   <i name="SYMPREC">      0.00001000</i>
  </separator>
  <separator name="dos" >
   <i type="int" name="LORBIT">    11</i>
   <v name="RWIGS">     -1.00000000</v>
   <i type="int" name="NEDOS">   301</i>
   <i name="EMIN">     10.00000000</i>
   <i name="EMAX">    -10.00000000</i>
   <i name="EFERMI">      0.00000000</i>
  </separator>
  <separator name="writing" >
   <i type="int" name="NWRITE">     2</i>
   <i type="logical" name="LWAVE"> F  </i>
   <i type="logical" name="LDOWNSAMPLE"> F  </i>
   <i type="logical" name="LCHARG"> F  </i>
   <i type="logical" name="LPARD"> F  </i>
   <i type="logical" name="LVTOT"> F  </i>
   <i type="logical" name="LVHAR"> F  </i>
   <i type="logical" name="LELF"> F  </i>
   <i type="logical" name="LOPTICS"> F  </i>
   <v name="STM">      0.00000000      0.00000000      0.00000000      0.00000000      0.00000000      0.00000000      0.00000000</v>
  </separator>
  <separator name="performance" >
   <i type="int" name="NPAR">    32</i>
   <i type="int" name="NSIM">     4</i>
   <i type="int" name="NBLK">    -1</i>
   <i type="logical" name="LPLANE"> T  </i>
   <i type="logical" name="LSCALAPACK"> F  </i>
   <i type="logical" name="LSCAAWARE"> F  </i>
   <i type="logical" name="LSCALU"> F  </i>
   <i type="logical" name="LASYNC"> F  </i>
   <i type="logical" name="LORBITALREAL"> F  </i>
  </separator>
  <separator name="miscellaneous" >
   <i type="int" name="IDIOT">     3</i>
   <i type="int" name="PHON_NSTRUCT">    -1</i>
   <i type="logical" name="LMUSIC"> F  </i>
   <v name="POMASS">     22.99000000</v>
   <v name="DARWINR">      0.00000000</v>
   <v name="DARWINV">      1.00000000</v>
   <i type="logical" name="LCORR"> T  </i>
  </separator>
  <i type="logical" name="GGA_COMPAT"> T  </i>
  <i type="logical" name="LBERRY"> F  </i>
  <i type="int" name="ICORELEVEL">     0</i>
  <i type="logical" name="LDAU"> F  </i>
  <i type="int" name="I_CONSTRAINED_M">     0</i>
  <separator name="electronic exchange-correlation" >
   <i type="string" name="GGA">--</i>
   <i type="int" name="VOSKOWN">     0</i>
   <i type="logical" name="LHFCALC"> F  </i>
   <i type="string" name="PRECFOCK"></i>
   <i type="logical" name="LSYMGRAD"> F  </i>
   <i type="logical" name="LHFONE"> F  </i>
   <i type="logical" name="LRHFCALC"> F  </i>
   <i type="logical" name="LTHOMAS"> F  </i>
   <i type="logical" name="LMODELHF"> F  </i>
   <i type="logical" name="LFOCKACE"> F  </i>
   <i name="ENCUT4O">     -1.00000000</i>
   <i type="int" name="EXXOEP">     0</i>
   <i type="int" name="FOURORBIT">     0</i>
   <i name="AEXX">      0.00000000</i>
   <i name="HFALPHA">      0.00000000</i>
   <i name="MCALPHA">      0.00000000</i>
   <i name="ALDAX">      1.00000000</i>
   <i name="AGGAX">      1.00000000</i>
   <i name="ALDAC">      1.00000000</i>
   <i name="AGGAC">      1.00000000</i>
   <i type="int" name="NKREDX">     1</i>
   <i type="int" name="NKREDY">     1</i>
   <i type="int" name="NKREDZ">     1</i>
   <i type="logical" name="SHIFTRED"> F  </i>
   <i type="logical" name="ODDONLY"> F  </i>
   <i type="logical" name="EVENONLY"> F  </i>
   <i type="int" name="LMAXFOCK">     0</i>
   <i type="int" name="NMAXFOCKAE">     0</i>
   <i type="logical" name="LFOCKAEDFT"> F  </i>
   <i name="HFSCREEN">      0.00000000</i>
   <i name="HFSCREENC">      0.00000000</i>
   <i type="int" name="NBANDSGWLOW">     0</i>
  </separator>
  <separator name="vdW DFT" >
   <i type="logical" name="LUSE_VDW"> F  </i>
   <i name="Zab_VDW">     -0.84910000</i>
   <i name="PARAM1">      0.12340000</i>
   <i name="PARAM2">      1.00000000</i>
   <i name="PARAM3">      0.00000000</i>
  </separator>
  <separator name="model GW" >
   <i type="int" name="MODEL_GW">     0</i>
   <i name="MODEL_EPS0">     22.05335196</i>
   <i name="MODEL_ALPHA">      1.00000000</i>
  </separator>
  <separator name="linear response parameters" >
   <i type="logical" name="LEPSILON"> F  </i>
   <i type="logical" name="LRPA"> F  </i>
   <i type="logical" name="LNABLA"> F  </i>
   <i type="logical" name="LVEL"> F  </i>
   <i name="CSHIFT">      0.10000000</i>
   <i name="OMEGAMAX">     -1.00000000</i>
   <i name="DEG_THRESHOLD">      0.00200000</i>
   <i name="RTIME">     -0.10000000</i>
   <i name="WPLASMAI">      0.00000000</i>
   <v name="DFIELD">      0.00000000      0.00000000      0.00000000</v>
   <v name="WPLASMA">      0.00000000      0.00000000      0.00000000      0.00000000      0.00000000      0.00000000      0.00000000      0.00000000      0.00000000</v>
  </separator>
  <separator name="orbital magnetization" >
   <i type="logical" name="NUCIND"> F  </i>
   <v name="MAGPOS">      0.00000000      0.00000000      0.00000000</v>
   <i type="logical" name="LNICSALL"> T  </i>
   <i type="logical" name="ORBITALMAG"> F  </i>
   <i type="logical" name="LMAGBLOCH"> F  </i>
   <i type="logical" name="LCHIMAG"> F  </i>
   <i type="logical" name="LGAUGE"> T  </i>
   <i type="int" name="MAGATOM">     0</i>
   <v name="MAGDIPOL">      0.00000000      0.00000000      0.00000000</v>
   <v name="AVECCONST">      0.00000000      0.00000000      0.00000000</v>
  </separator>
  <separator name="response functions" >
   <i type="logical" name="LFINITE_TEMPERATURE"> F  </i>
   <i type="logical" name="LADDER"> F  </i>
   <i type="logical" name="LRPAFORCE"> F  </i>
   <i type="logical" name="LFXC"> F  </i>
   <i type="logical" name="LHARTREE"> T  </i>
   <i type="int" name="IBSE">     0</i>
   <v type="int" name="KPOINT">    -1     0     0     0</v>
   <i type="logical" name="LTCTC"> F  </i>
   <i type="logical" name="LTCTE"> F  </i>
   <i type="logical" name="LTETE"> F  </i>
   <i type="logical" name="LTRIPLET"> F  </i>
   <i type="logical" name="LFXCEPS"> F  </i>
   <i type="logical" name="LFXHEG"> F  </i>
   <i type="int" name="NATURALO">     2</i>
   <i type="logical" name="LHOLEGF"> F  </i>
   <i type="logical" name="L2ORDER"> F  </i>
   <i type="logical" name="LDMP1"> F  </i>
   <i type="logical" name="LMP2LT"> F  </i>
   <i type="logical" name="LSMP2LT"> F  </i>
   <i type="logical" name="LGWLF"> F  </i>
   <i name="ENCUTGW">     -2.00000000</i>
   <i name="ENCUTGWSOFT">     -2.00000000</i>
   <i name="ENCUTLF">     -1.00000000</i>
   <i type="logical" name="LESF_SPLINES"> F  </i>
   <i type="int" name="LMAXMP2">    -1</i>
   <i name="SCISSOR">      0.00000000</i>
   <i type="int" name="NOMEGA">     0</i>
   <i type="int" name="NOMEGAR">     0</i>
   <i type="int" name="NBANDSGW">    -1</i>
   <i type="int" name="NBANDSO">    -1</i>
   <i type="int" name="NBANDSV">    -1</i>
   <i type="int" name="NELMGW">     1</i>
   <i type="int" name="NELMHF">     1</i>
   <i type="int" name="DIM">     3</i>
   <i type="int" name="IESPILON">     4</i>
   <i type="int" name="ANTIRES">     0</i>
   <i name="OMEGAMAX">    -30.00000000</i>
   <i name="OMEGAMIN">    -30.00000000</i>
   <i name="OMEGATL">   -200.00000000</i>
   <i type="int" name="OMEGAGRID">     0</i>
   <i name="CSHIFT">     -0.10000000</i>
   <i type="logical" name="LSELFENERGY"> F  </i>
   <i type="logical" name="LSPECTRAL"> F  </i>
   <i type="logical" name="LSPECTRALGW"> F  </i>
   <i type="logical" name="LSINGLES"> F  </i>
   <i type="logical" name="LFERMIGW"> F  </i>
   <i type="logical" name="ODDONLYGW"> F  </i>
   <i type="logical" name="EVENONLYGW"> F  </i>
   <i type="int" name="NKREDLFX">     1</i>
   <i type="int" name="NKREDLFY">     1</i>
   <i type="int" name="NKREDLFZ">     1</i>
   <i type="int" name="MAXMEM">  2800</i>
   <i type="int" name="TELESCOPE">     0</i>
   <i type="int" name="NTAUPAR">    -1</i>
   <i type="int" name="NOMEGAPAR">    -1</i>
   <i name="DAMP_NEWTON">      0.80000001</i>
   <i name="LAMBDA">      1.00000000</i>
  </separator>
  <separator name="External order field" >
   <i name="OFIELD_KAPPA">      0.00000000</i>
   <v name="OFIELD_K">      0.00000000      0.00000000      0.00000000</v>
   <i name="OFIELD_Q6_NEAR">      0.00000000</i>
   <i name="OFIELD_Q6_FAR">      0.00000000</i>
   <i name="OFIELD_A">      0.00000000</i>
  </separator>
  <separator name="optional k-points parameters" >
   <i type="int" name="KPOINTS_OPT_MODE">     1</i>
   <i type="logical" name="LKPOINTS_OPT"> F  </i>
  </separator>
 </parameters>
 <atominfo>
  <atoms>       6 </atoms>
  <types>       1 </types>
  <array name="atoms" >
   <dimension dim="1">ion</dimension>
   <field type="string">element</field>
   <field type="int">atomtype</field>
   <set>
    <rc><c>Na</c><c>   1</c></rc>
    <rc><c>Na</c><c>   1</c></rc>
    <rc><c>Na</c><c>   1</c></rc>
    <rc><c>Na</c><c>   1</c></rc>
    <rc><c>Na</c><c>   1</c></rc>
    <rc><c>Na</c><c>   1</c></rc>
   </set>
  </array>
  <array name="atomtypes" >
   <dimension dim="1">type</dimension>
   <field type="int">atomspertype</field>
   <field type="string">element</field>
   <field>mass</field>
   <field>valence</field>
   <field type="string">pseudopotential</field>
   <set>
    <rc><c>   6</c><c>Na</c><c>     22.99000000</c><c>      7.00000000</c><c>  PAW_PBE Na_pv 19Sep2006               </c></rc>
   </set>
  </array>
 </atominfo>
 <structure name="initialpos" >
  <crystal>
   <varray name="basis" >
    <v>       0.00000000       6.10042970      -0.20860054 </v>
    <v>       4.05911089       0.00000000       0.00000000 </v>
    <v>       0.00000000      -1.77113462      -8.84544891 </v>
   </varray>
   <i name="volume">    220.53351956 </i>
   <varray name="rec_basis" >
    <v>       0.00000000       0.16280817      -0.03259927 </v>
    <v>       0.24635937       0.00000000       0.00000000 </v>
    <v>       0.00000000      -0.00383947      -0.11228370 </v>
   </varray>
  </crystal>
  <varray name="positions" >
   <v>       0.00000000       0.00000000       0.00000000 </v>
   <v>       0.66659189       0.00000000       0.33337181 </v>
   <v>       0.83340811       0.50000000       0.66662819 </v>
   <v>       0.50000000       0.50000000       0.00000000 </v>
   <v>       0.16659189       0.50000000       0.33337181 </v>
   <v>       0.33340811       0.00000000       0.66662819 </v>
  </varray>
 </structure>
 <calculation>
  <scstep>
   <time name="dav">    1.22    1.22</time>
   <time name="total">    1.75    1.94</time>
   <energy>
    <i name="alphaZ">     49.77208755 </i>
    <i name="ewald">  -1838.46003129 </i>
    <i name="hartreedc">  -1550.16847013 </i>
    <i name="XCdc">    147.16952809 </i>
    <i name="pawpsdc">   3013.75815067 </i>
    <i name="pawaedc">  -3545.07748986 </i>
    <i name="eentropy">      0.00000000 </i>
    <i name="bandstr">   -711.10969359 </i>
    <i name="atom">   4596.25202615 </i>
    <i name="e_fr_energy">    162.13610760 </i>
    <i name="e_wo_entrp">    162.13610760 </i>
    <i name="e_0_energy">    162.13610760 </i>
   </energy>
  </scstep>
  <scstep>
   <time name="dav">    1.10    1.10</time>
   <time name="total">    1.13    1.13</time>
   <energy>
    <i name="e_fr_energy">     -2.78132664 </i>
    <i name="e_wo_entrp">     -2.78132664 </i>
    <i name="e_0_energy">     -2.78132664 </i>
   </energy>
  </scstep>
  <scstep>
   <time name="dav">    3.68    3.69</time>
   <time name="total">    3.71    3.71</time>
   <energy>
    <i name="e_fr_energy">     -7.12872311 </i>
    <i name="e_wo_entrp">     -7.12872311 </i>
    <i name="e_0_energy">     -7.12872311 </i>
   </energy>
  </scstep>
  <scstep>
   <time name="dav">    1.28    1.28</time>
   <time name="total">    1.31    1.31</time>
   <energy>
    <i name="e_fr_energy">     -7.14036421 </i>
    <i name="e_wo_entrp">     -7.14036421 </i>
    <i name="e_0_energy">     -7.14036421 </i>
   </energy>
  </scstep>
  <scstep>
   <time name="dav">    2.07    2.07</time>
   <time name="total">    3.01    3.02</time>
   <energy>
    <i name="e_fr_energy">     -7.14042236 </i>
    <i name="e_wo_entrp">     -7.14042236 </i>
    <i name="e_0_energy">     -7.14042236 </i>
   </energy>
  </scstep>
  <scstep>
   <time name="dav">    1.26    1.26</time>
   <time name="total">    2.69    2.69</time>
   <energy>
    <i name="e_fr_energy">     -7.58122923 </i>
    <i name="e_wo_entrp">     -7.58122923 </i>
    <i name="e_0_energy">     -7.58122923 </i>
   </energy>
  </scstep>
  <scstep>
   <time name="dav">    1.47    1.47</time>
   <time name="total">    2.91    2.91</time>
   <energy>
    <i name="e_fr_energy">     -7.81920633 </i>
    <i name="e_wo_entrp">     -7.81920633 </i>
    <i name="e_0_energy">     -7.81920633 </i>
   </energy>
  </scstep>
  <scstep>
   <time name="dav">    1.23    1.23</time>
   <time name="total">    2.69    2.70</time>
   <energy>
    <i name="e_fr_energy">     -7.89702512 </i>
    <i name="e_wo_entrp">     -7.89702512 </i>
    <i name="e_0_energy">     -7.89702512 </i>
   </energy>
  </scstep>
  <scstep>
   <time name="dav">    1.27    1.27</time>
   <time name="total">    2.99    2.99</time>
   <energy>
    <i name="e_fr_energy">     -7.92072173 </i>
    <i name="e_wo_entrp">     -7.92072173 </i>
    <i name="e_0_energy">     -7.92072173 </i>
   </energy>
  </scstep>
  <scstep>
   <time name="dav">    1.69    1.69</time>
   <time name="total">    3.15    3.15</time>
   <energy>
    <i name="e_fr_energy">     -7.92136453 </i>
    <i name="e_wo_entrp">     -7.92136453 </i>
    <i name="e_0_energy">     -7.92136453 </i>
   </energy>
  </scstep>
  <scstep>
   <time name="dav">    3.48    3.49</time>
   <time name="total">    5.01    5.02</time>
   <energy>
    <i name="e_fr_energy">     -7.92137500 </i>
    <i name="e_wo_entrp">     -7.92137500 </i>
    <i name="e_0_energy">     -7.92137500 </i>
   </energy>
  </scstep>
  <scstep>
   <time name="dav">    1.51    1.51</time>
   <time name="total">    2.92    2.92</time>
   <energy>
    <i name="e_fr_energy">     -7.92138268 </i>
    <i name="e_wo_entrp">     -7.92138268 </i>
    <i name="e_0_energy">     -7.92138268 </i>
   </energy>
  </scstep>
  <scstep>
   <time name="dav">    1.60    1.60</time>
   <time name="total">    3.00    3.01</time>
   <energy>
    <i name="e_fr_energy">     -7.92137400 </i>
    <i name="e_wo_entrp">     -7.92137400 </i>
    <i name="e_0_energy">     -7.92137400 </i>
   </energy>
  </scstep>
  <scstep>
   <time name="dav">    1.60    1.60</time>
   <time name="total">    3.15    3.15</time>
   <energy>
    <i name="e_fr_energy">     -7.92135054 </i>
    <i name="e_wo_entrp">     -7.92135054 </i>
    <i name="e_0_energy">     -7.92135054 </i>
   </energy>
  </scstep>
  <scstep>
   <time name="dav">    1.64    1.64</time>
   <time name="total">    3.06    3.06</time>
   <energy>
    <i name="e_fr_energy">     -7.92136029 </i>
    <i name="e_wo_entrp">     -7.92136029 </i>
    <i name="e_0_energy">     -7.92136029 </i>
   </energy>
  </scstep>
  <scstep>
   <time name="dav">    3.48    3.48</time>
   <time name="total">    4.87    4.87</time>
   <energy>
    <i name="e_fr_energy">     -7.92133406 </i>
    <i name="e_wo_entrp">     -7.92133406 </i>
    <i name="e_0_energy">     -7.92133406 </i>
   </energy>
  </scstep>
  <scstep>
   <time name="dav">    1.75    1.76</time>
   <time name="total">    3.16    3.16</time>
   <energy>
    <i name="e_fr_energy">     -7.92132539 </i>
    <i name="e_wo_entrp">     -7.92132539 </i>
    <i name="e_0_energy">     -7.92132539 </i>
   </energy>
  </scstep>
  <scstep>
   <time name="dav">    1.51    1.51</time>
   <time name="total">    3.00    3.00</time>
   <energy>
    <i name="e_fr_energy">     -7.92132585 </i>
    <i name="e_wo_entrp">     -7.92132585 </i>
    <i name="e_0_energy">     -7.92132585 </i>
   </energy>
  </scstep>
  <scstep>
   <time name="dav">    3.41    3.42</time>
   <time name="total">    4.82    4.82</time>
   <energy>
    <i name="e_fr_energy">     -7.92132682 </i>
    <i name="e_wo_entrp">     -7.92132682 </i>
    <i name="e_0_energy">     -7.92132682 </i>
   </energy>
  </scstep>
  <scstep>
   <time name="dav">    1.78    1.78</time>
   <time name="total">    3.17    3.17</time>
   <energy>
    <i name="e_fr_energy">     -7.92132781 </i>
    <i name="e_wo_entrp">     -7.92132781 </i>
    <i name="e_0_energy">     -7.92132781 </i>
   </energy>
  </scstep>
  <scstep>
   <time name="dav">    1.65    1.65</time>
   <time name="total">    3.04    3.05</time>
   <energy>
    <i name="e_fr_energy">     -7.92132768 </i>
    <i name="e_wo_entrp">     -7.92132768 </i>
    <i name="e_0_energy">     -7.92132768 </i>
   </energy>
  </scstep>
  <scstep>
   <time name="dav">    1.69    1.69</time>
   <time name="total">    3.06    3.06</time>
   <energy>
    <i name="e_fr_energy">     -7.92132786 </i>
    <i name="e_wo_entrp">     -7.92132786 </i>
    <i name="e_0_energy">     -7.92132786 </i>
   </energy>
  </scstep>
  <scstep>
   <time name="dav">    1.78    1.78</time>
   <time name="total">    3.15    3.15</time>
   <energy>
    <i name="e_fr_energy">     -7.92132785 </i>
    <i name="e_wo_entrp">     -7.92132785 </i>
    <i name="e_0_energy">     -7.92132785 </i>
   </energy>
  </scstep>
  <scstep>
   <time name="dav">    1.50    1.50</time>
   <time name="total">    2.87    2.88</time>
   <energy>
    <i name="e_fr_energy">     -7.92132781 </i>
    <i name="e_wo_entrp">     -7.92132781 </i>
    <i name="e_0_energy">     -7.92132781 </i>
   </energy>
  </scstep>
  <scstep>
   <time name="dav">    1.72    1.72</time>
   <time name="total">    3.26    3.26</time>
   <energy>
    <i name="e_fr_energy">     -7.92132770 </i>
    <i name="e_wo_entrp">     -7.92132770 </i>
    <i name="e_0_energy">     -7.92132770 </i>
   </energy>
  </scstep>
  <scstep>
   <time name="dav">    1.57    1.57</time>
   <time name="total">    2.94    2.94</time>
   <energy>
    <i name="e_fr_energy">     -7.92132339 </i>
    <i name="e_wo_entrp">     -7.92132339 </i>
    <i name="e_0_energy">     -7.92132339 </i>
   </energy>
  </scstep>
  <scstep>
   <time name="dav">    1.38    1.38</time>
   <time name="total">    2.76    2.76</time>
   <energy>
    <i name="e_fr_energy">     -7.92132443 </i>
    <i name="e_wo_entrp">     -7.92132443 </i>
    <i name="e_0_energy">     -7.92132443 </i>
   </energy>
  </scstep>
  <scstep>
   <time name="dav">    1.72    1.73</time>
   <time name="total">    3.10    3.11</time>
   <energy>
    <i name="e_fr_energy">     -7.92132465 </i>
    <i name="e_wo_entrp">     -7.92132465 </i>
    <i name="e_0_energy">     -7.92132465 </i>
   </energy>
  </scstep>
  <scstep>
   <time name="dav">    1.64    1.64</time>
   <time name="total">    3.00    3.00</time>
   <energy>
    <i name="e_fr_energy">     -7.92132516 </i>
    <i name="e_wo_entrp">     -7.92132516 </i>
    <i name="e_0_energy">     -7.92132516 </i>
   </energy>
  </scstep>
  <scstep>
   <time name="dav">    1.50    1.50</time>
   <time name="total">    2.89    2.89</time>
   <energy>
    <i name="e_fr_energy">     -7.92132618 </i>
    <i name="e_wo_entrp">     -7.92132618 </i>
    <i name="e_0_energy">     -7.92132618 </i>
   </energy>
  </scstep>
  <scstep>
   <time name="dav">    1.58    1.58</time>
   <time name="total">    2.97    2.97</time>
   <energy>
    <i name="e_fr_energy">     -7.92132628 </i>
    <i name="e_wo_entrp">     -7.92132628 </i>
    <i name="e_0_energy">     -7.92132628 </i>
   </energy>
  </scstep>
  <scstep>
   <time name="dav">    1.74    1.74</time>
   <time name="total">    3.13    3.13</time>
   <energy>
    <i name="e_fr_energy">     -7.92132650 </i>
    <i name="e_wo_entrp">     -7.92132650 </i>
    <i name="e_0_energy">     -7.92132650 </i>
   </energy>
  </scstep>
  <scstep>
   <time name="dav">    1.59    1.59</time>
   <time name="total">    3.14    3.14</time>
   <energy>
    <i name="e_fr_energy">     -7.92132719 </i>
    <i name="e_wo_entrp">     -7.92132719 </i>
    <i name="e_0_energy">     -7.92132719 </i>
   </energy>
  </scstep>
  <scstep>
   <time name="dav">    1.78    1.79</time>
   <time name="total">    3.18    3.18</time>
   <energy>
    <i name="e_fr_energy">     -7.92132764 </i>
    <i name="e_wo_entrp">     -7.92132764 </i>
    <i name="e_0_energy">     -7.92132764 </i>
   </energy>
  </scstep>
  <scstep>
   <time name="dav">    1.45    1.45</time>
   <time name="total">    2.81    2.82</time>
   <energy>
    <i name="e_fr_energy">     -7.92132782 </i>
    <i name="e_wo_entrp">     -7.92132782 </i>
    <i name="e_0_energy">     -7.92132782 </i>
   </energy>
  </scstep>
  <scstep>
   <time name="dav">    1.63    1.63</time>
   <time name="total">    4.71    4.71</time>
   <energy>
    <i name="e_fr_energy">     -7.92132145 </i>
    <i name="e_wo_entrp">     -7.92132145 </i>
    <i name="e_0_energy">     -7.92132145 </i>
   </energy>
  </scstep>
  <scstep>
   <time name="dav">    1.42    1.42</time>
   <time name="total">    2.81    2.81</time>
   <energy>
    <i name="e_fr_energy">     -7.92132418 </i>
    <i name="e_wo_entrp">     -7.92132418 </i>
    <i name="e_0_energy">     -7.92132418 </i>
   </energy>
  </scstep>
  <scstep>
   <time name="dav">    1.65    1.65</time>
   <time name="total">    3.02    3.02</time>
   <energy>
    <i name="e_fr_energy">     -7.92132465 </i>
    <i name="e_wo_entrp">     -7.92132465 </i>
    <i name="e_0_energy">     -7.92132465 </i>
   </energy>
  </scstep>
  <scstep>
   <time name="dav">    2.68    2.68</time>
   <time name="total">    4.08    4.08</time>
   <energy>
    <i name="e_fr_energy">     -7.92132562 </i>
    <i name="e_wo_entrp">     -7.92132562 </i>
    <i name="e_0_energy">     -7.92132562 </i>
   </energy>
  </scstep>
  <scstep>
   <time name="dav">    1.52    1.52</time>
   <time name="total">    2.89    2.90</time>
   <energy>
    <i name="e_fr_energy">     -7.92132666 </i>
    <i name="e_wo_entrp">     -7.92132666 </i>
    <i name="e_0_energy">     -7.92132666 </i>
   </energy>
  </scstep>
  <scstep>
   <time name="dav">    1.53    1.53</time>
   <time name="total">    2.91    2.91</time>
   <energy>
    <i name="e_fr_energy">     -7.92132764 </i>
    <i name="e_wo_entrp">     -7.92132764 </i>
    <i name="e_0_energy">     -7.92132764 </i>
   </energy>
  </scstep>
  <scstep>
   <time name="dav">    1.74    1.74</time>
   <time name="total">    5.24    5.24</time>
   <energy>
    <i name="e_fr_energy">     -7.92132780 </i>
    <i name="e_wo_entrp">     -7.92132780 </i>
    <i name="e_0_energy">     -7.92132780 </i>
   </energy>
  </scstep>
  <scstep>
   <time name="dav">    3.76    3.76</time>
   <time name="total">    5.13    5.14</time>
   <energy>
    <i name="e_fr_energy">     -7.92131552 </i>
    <i name="e_wo_entrp">     -7.92131552 </i>
    <i name="e_0_energy">     -7.92131552 </i>
   </energy>
  </scstep>
  <scstep>
   <time name="dav">    1.44    1.44</time>
   <time name="total">    2.81    2.81</time>
   <energy>
    <i name="e_fr_energy">     -7.92132172 </i>
    <i name="e_wo_entrp">     -7.92132172 </i>
    <i name="e_0_energy">     -7.92132172 </i>
   </energy>
  </scstep>
  <scstep>
   <time name="dav">    1.50    1.50</time>
   <time name="total">    3.07    3.08</time>
   <energy>
    <i name="e_fr_energy">     -7.92132455 </i>
    <i name="e_wo_entrp">     -7.92132455 </i>
    <i name="e_0_energy">     -7.92132455 </i>
   </energy>
  </scstep>
  <scstep>
   <time name="dav">    1.61    1.61</time>
   <time name="total">    2.98    3.00</time>
   <energy>
    <i name="e_fr_energy">     -7.92132604 </i>
    <i name="e_wo_entrp">     -7.92132604 </i>
    <i name="e_0_energy">     -7.92132604 </i>
   </energy>
  </scstep>
  <scstep>
   <time name="dav">    1.51    1.52</time>
   <time name="total">    2.89    2.89</time>
   <energy>
    <i name="e_fr_energy">     -7.92132748 </i>
    <i name="e_wo_entrp">     -7.92132748 </i>
    <i name="e_0_energy">     -7.92132748 </i>
   </energy>
  </scstep>
  <scstep>
   <time name="dav">    1.89    1.89</time>
   <time name="total">    3.27    3.28</time>
   <energy>
    <i name="e_fr_energy">     -7.92132775 </i>
    <i name="e_wo_entrp">     -7.92132775 </i>
    <i name="e_0_energy">     -7.92132775 </i>
   </energy>
  </scstep>
  <scstep>
   <time name="dav">    1.59    1.59</time>
   <time name="total">    2.97    2.97</time>
   <energy>
    <i name="e_fr_energy">     -7.92131275 </i>
    <i name="e_wo_entrp">     -7.92131275 </i>
    <i name="e_0_energy">     -7.92131275 </i>
   </energy>
  </scstep>
  <scstep>
   <time name="dav">    1.51    1.51</time>
   <time name="total">    4.57    4.57</time>
   <energy>
    <i name="e_fr_energy">     -7.92132076 </i>
    <i name="e_wo_entrp">     -7.92132076 </i>
    <i name="e_0_energy">     -7.92132076 </i>
   </energy>
  </scstep>
  <scstep>
   <time name="dav">    1.66    1.66</time>
   <time name="total">    3.04    3.05</time>
   <energy>
    <i name="e_fr_energy">     -7.92132437 </i>
    <i name="e_wo_entrp">     -7.92132437 </i>
    <i name="e_0_energy">     -7.92132437 </i>
   </energy>
  </scstep>
  <scstep>
   <time name="dav">    1.61    1.61</time>
   <time name="total">    2.99    2.99</time>
   <energy>
    <i name="e_fr_energy">     -7.92132634 </i>
    <i name="e_wo_entrp">     -7.92132634 </i>
    <i name="e_0_energy">     -7.92132634 </i>
   </energy>
  </scstep>
  <scstep>
   <time name="dav">    1.58    1.58</time>
   <time name="total">    4.73    4.73</time>
   <energy>
    <i name="e_fr_energy">     -7.92132743 </i>
    <i name="e_wo_entrp">     -7.92132743 </i>
    <i name="e_0_energy">     -7.92132743 </i>
   </energy>
  </scstep>
  <scstep>
   <time name="dav">    1.74    1.74</time>
   <time name="total">    3.23    3.24</time>
   <energy>
    <i name="e_fr_energy">     -7.92132774 </i>
    <i name="e_wo_entrp">     -7.92132774 </i>
    <i name="e_0_energy">     -7.92132774 </i>
   </energy>
  </scstep>
  <scstep>
   <time name="dav">    1.47    1.47</time>
   <time name="total">    2.86    2.86</time>
   <energy>
    <i name="e_fr_energy">     -7.92131160 </i>
    <i name="e_wo_entrp">     -7.92131160 </i>
    <i name="e_0_energy">     -7.92131160 </i>
   </energy>
  </scstep>
  <scstep>
   <time name="dav">    1.52    1.52</time>
   <time name="total">    3.03    3.04</time>
   <energy>
    <i name="e_fr_energy">     -7.92132058 </i>
    <i name="e_wo_entrp">     -7.92132058 </i>
    <i name="e_0_energy">     -7.92132058 </i>
   </energy>
  </scstep>
  <scstep>
   <time name="dav">    1.66    1.66</time>
   <time name="total">    3.23    3.23</time>
   <energy>
    <i name="e_fr_energy">     -7.92132438 </i>
    <i name="e_wo_entrp">     -7.92132438 </i>
    <i name="e_0_energy">     -7.92132438 </i>
   </energy>
  </scstep>
  <scstep>
   <time name="dav">    1.73    1.73</time>
   <time name="total">    3.12    3.13</time>
   <energy>
    <i name="e_fr_energy">     -7.92132644 </i>
    <i name="e_wo_entrp">     -7.92132644 </i>
    <i name="e_0_energy">     -7.92132644 </i>
   </energy>
  </scstep>
  <scstep>
   <time name="dav">    1.60    1.60</time>
   <time name="total">    2.98    2.98</time>
   <energy>
    <i name="e_fr_energy">     -7.92132732 </i>
    <i name="e_wo_entrp">     -7.92132732 </i>
    <i name="e_0_energy">     -7.92132732 </i>
   </energy>
  </scstep>
  <scstep>
   <time name="dav">    1.53    1.53</time>
   <time name="total">    2.92    2.92</time>
   <energy>
    <i name="e_fr_energy">     -7.92132744 </i>
    <i name="e_wo_entrp">     -7.92132744 </i>
    <i name="e_0_energy">     -7.92132744 </i>
   </energy>
  </scstep>
  <scstep>
   <time name="dav">    1.55    1.55</time>
   <time name="total">    3.07    3.07</time>
   <energy>
    <i name="e_fr_energy">     -7.92132552 </i>
    <i name="e_wo_entrp">     -7.92132552 </i>
    <i name="e_0_energy">     -7.92132552 </i>
   </energy>
  </scstep>
  <scstep>
   <time name="dav">    1.52    1.53</time>
   <time name="total">    2.91    2.91</time>
   <energy>
    <i name="e_fr_energy">     -7.92132531 </i>
    <i name="e_wo_entrp">     -7.92132531 </i>
    <i name="e_0_energy">     -7.92132531 </i>
   </energy>
  </scstep>
  <scstep>
   <time name="dav">    1.41    1.41</time>
   <time name="total">    3.04    3.04</time>
   <energy>
    <i name="e_fr_energy">     -7.92132586 </i>
    <i name="e_wo_entrp">     -7.92132586 </i>
    <i name="e_0_energy">     -7.92132586 </i>
   </energy>
  </scstep>
  <scstep>
   <time name="dav">    1.59    1.59</time>
   <time name="total">    3.00    3.00</time>
   <energy>
    <i name="e_fr_energy">     -7.92132708 </i>
    <i name="e_wo_entrp">     -7.92132708 </i>
    <i name="e_0_energy">     -7.92132708 </i>
   </energy>
  </scstep>
  <scstep>
   <time name="dav">    1.70    1.70</time>
   <time name="total">    3.06    3.06</time>
   <energy>
    <i name="e_fr_energy">     -7.92132783 </i>
    <i name="e_wo_entrp">     -7.92132783 </i>
    <i name="e_0_energy">     -7.92132783 </i>
   </energy>
  </scstep>
  <scstep>
   <time name="dav">    1.55    1.56</time>
   <time name="total">    2.95    2.95</time>
   <energy>
    <i name="e_fr_energy">     -7.92131273 </i>
    <i name="e_wo_entrp">     -7.92131273 </i>
    <i name="e_0_energy">     -7.92131273 </i>
   </energy>
  </scstep>
  <scstep>
   <time name="dav">    1.41    1.41</time>
   <time name="total">    2.81    2.81</time>
   <energy>
    <i name="e_fr_energy">     -7.92131941 </i>
    <i name="e_wo_entrp">     -7.92131941 </i>
    <i name="e_0_energy">     -7.92131941 </i>
   </energy>
  </scstep>
  <scstep>
   <time name="dav">    1.47    1.48</time>
   <time name="total">    2.86    2.86</time>
   <energy>
    <i name="e_fr_energy">     -7.92132370 </i>
    <i name="e_wo_entrp">     -7.92132370 </i>
    <i name="e_0_energy">     -7.92132370 </i>
   </energy>
  </scstep>
  <scstep>
   <time name="dav">    1.53    1.53</time>
   <time name="total">    2.91    2.92</time>
   <energy>
    <i name="e_fr_energy">     -7.92132656 </i>
    <i name="e_wo_entrp">     -7.92132656 </i>
    <i name="e_0_energy">     -7.92132656 </i>
   </energy>
  </scstep>
  <scstep>
   <time name="dav">    1.56    1.56</time>
   <time name="total">    2.94    2.95</time>
   <energy>
    <i name="e_fr_energy">     -7.92132789 </i>
    <i name="e_wo_entrp">     -7.92132789 </i>
    <i name="e_0_energy">     -7.92132789 </i>
   </energy>
  </scstep>
  <scstep>
   <time name="dav">    1.47    1.47</time>
   <time name="total">    2.84    2.85</time>
   <energy>
    <i name="e_fr_energy">     -7.92130919 </i>
    <i name="e_wo_entrp">     -7.92130919 </i>
    <i name="e_0_energy">     -7.92130919 </i>
   </energy>
  </scstep>
  <scstep>
   <time name="dav">    1.37    1.38</time>
   <time name="total">    2.74    2.74</time>
   <energy>
    <i name="e_fr_energy">     -7.92131956 </i>
    <i name="e_wo_entrp">     -7.92131956 </i>
    <i name="e_0_energy">     -7.92131956 </i>
   </energy>
  </scstep>
  <scstep>
   <time name="dav">    1.50    1.50</time>
   <time name="total">    2.87    2.88</time>
   <energy>
    <i name="e_fr_energy">     -7.92132418 </i>
    <i name="e_wo_entrp">     -7.92132418 </i>
    <i name="e_0_energy">     -7.92132418 </i>
   </energy>
  </scstep>
  <scstep>
   <time name="dav">    1.52    1.52</time>
   <time name="total">    2.90    2.90</time>
   <energy>
    <i name="e_fr_energy">     -7.92132728 </i>
    <i name="e_wo_entrp">     -7.92132728 </i>
    <i name="e_0_energy">     -7.92132728 </i>
   </energy>
  </scstep>
  <scstep>
   <time name="dav">    1.81    1.81</time>
   <time name="total">    3.20    3.20</time>
   <energy>
    <i name="e_fr_energy">     -7.92132798 </i>
    <i name="e_wo_entrp">     -7.92132798 </i>
    <i name="e_0_energy">     -7.92132798 </i>
   </energy>
  </scstep>
  <scstep>
   <time name="dav">    1.55    1.56</time>
   <time name="total">    3.05    3.05</time>
   <energy>
    <i name="e_fr_energy">     -7.92130740 </i>
    <i name="e_wo_entrp">     -7.92130740 </i>
    <i name="e_0_energy">     -7.92130740 </i>
   </energy>
  </scstep>
  <scstep>
   <time name="dav">    1.44    1.44</time>
   <time name="total">    2.82    2.82</time>
   <energy>
    <i name="e_fr_energy">     -7.92131883 </i>
    <i name="e_wo_entrp">     -7.92131883 </i>
    <i name="e_0_energy">     -7.92131883 </i>
   </energy>
  </scstep>
  <scstep>
   <time name="dav">    1.52    1.52</time>
   <time name="total">    2.89    2.90</time>
   <energy>
    <i name="e_fr_energy">     -7.92132469 </i>
    <i name="e_wo_entrp">     -7.92132469 </i>
    <i name="e_0_energy">     -7.92132469 </i>
   </energy>
  </scstep>
  <scstep>
   <time name="dav">    1.73    1.73</time>
   <time name="total">    3.15    3.15</time>
   <energy>
    <i name="e_fr_energy">     -7.92132776 </i>
    <i name="e_wo_entrp">     -7.92132776 </i>
    <i name="e_0_energy">     -7.92132776 </i>
   </energy>
  </scstep>
  <scstep>
   <time name="dav">    1.46    1.46</time>
   <time name="total">    2.85    2.85</time>
   <energy>
    <i name="e_fr_energy">     -7.92130442 </i>
    <i name="e_wo_entrp">     -7.92130442 </i>
    <i name="e_0_energy">     -7.92130442 </i>
   </energy>
  </scstep>
  <scstep>
   <time name="dav">    1.41    1.41</time>
   <time name="total">    2.81    2.81</time>
   <energy>
    <i name="e_fr_energy">     -7.92132015 </i>
    <i name="e_wo_entrp">     -7.92132015 </i>
    <i name="e_0_energy">     -7.92132015 </i>
   </energy>
  </scstep>
  <scstep>
   <time name="dav">    1.79    1.79</time>
   <time name="total">    3.20    3.20</time>
   <energy>
    <i name="e_fr_energy">     -7.92132553 </i>
    <i name="e_wo_entrp">     -7.92132553 </i>
    <i name="e_0_energy">     -7.92132553 </i>
   </energy>
  </scstep>
  <scstep>
   <time name="dav">    1.72    1.73</time>
   <time name="total">    3.12    3.12</time>
   <energy>
    <i name="e_fr_energy">     -7.92132785 </i>
    <i name="e_wo_entrp">     -7.92132785 </i>
    <i name="e_0_energy">     -7.92132785 </i>
   </energy>
  </scstep>
  <scstep>
   <time name="dav">    1.46    1.46</time>
   <time name="total">    2.83    2.83</time>
   <energy>
    <i name="e_fr_energy">     -7.92130388 </i>
    <i name="e_wo_entrp">     -7.92130388 </i>
    <i name="e_0_energy">     -7.92130388 </i>
   </energy>
  </scstep>
  <scstep>
   <time name="dav">    1.41    1.41</time>
   <time name="total">    2.84    2.85</time>
   <energy>
    <i name="e_fr_energy">     -7.92131987 </i>
    <i name="e_wo_entrp">     -7.92131987 </i>
    <i name="e_0_energy">     -7.92131987 </i>
   </energy>
  </scstep>
  <scstep>
   <time name="dav">    1.65    1.65</time>
   <time name="total">    3.20    3.20</time>
   <energy>
    <i name="e_fr_energy">     -7.92132600 </i>
    <i name="e_wo_entrp">     -7.92132600 </i>
    <i name="e_0_energy">     -7.92132600 </i>
   </energy>
  </scstep>
  <scstep>
   <time name="dav">    1.72    1.72</time>
   <time name="total">    3.17    3.18</time>
   <energy>
    <i name="e_fr_energy">     -7.92132792 </i>
    <i name="e_wo_entrp">     -7.92132792 </i>
    <i name="e_0_energy">     -7.92132792 </i>
   </energy>
  </scstep>
  <scstep>
   <time name="dav">    1.48    1.48</time>
   <time name="total">    2.87    2.87</time>
   <energy>
    <i name="e_fr_energy">     -7.92130263 </i>
    <i name="e_wo_entrp">     -7.92130263 </i>
    <i name="e_0_energy">     -7.92130263 </i>
   </energy>
  </scstep>
  <scstep>
   <time name="dav">    1.42    1.43</time>
   <time name="total">    2.81    2.81</time>
   <energy>
    <i name="e_fr_energy">     -7.92132004 </i>
    <i name="e_wo_entrp">     -7.92132004 </i>
    <i name="e_0_energy">     -7.92132004 </i>
   </energy>
  </scstep>
  <scstep>
   <time name="dav">    1.52    1.52</time>
   <time name="total">    2.89    2.90</time>
   <energy>
    <i name="e_fr_energy">     -7.92132606 </i>
    <i name="e_wo_entrp">     -7.92132606 </i>
    <i name="e_0_energy">     -7.92132606 </i>
   </energy>
  </scstep>
  <scstep>
   <time name="dav">    1.61    1.62</time>
   <time name="total">    2.99    3.00</time>
   <energy>
    <i name="e_fr_energy">     -7.92132792 </i>
    <i name="e_wo_entrp">     -7.92132792 </i>
    <i name="e_0_energy">     -7.92132792 </i>
   </energy>
  </scstep>
  <scstep>
   <time name="dav">    1.45    1.45</time>
   <time name="total">    2.86    2.86</time>
   <energy>
    <i name="e_fr_energy">     -7.92130176 </i>
    <i name="e_wo_entrp">     -7.92130176 </i>
    <i name="e_0_energy">     -7.92130176 </i>
   </energy>
  </scstep>
  <scstep>
   <time name="dav">    1.51    1.51</time>
   <time name="total">    2.97    2.97</time>
   <energy>
    <i name="e_fr_energy">     -7.92132024 </i>
    <i name="e_wo_entrp">     -7.92132024 </i>
    <i name="e_0_energy">     -7.92132024 </i>
   </energy>
  </scstep>
  <scstep>
   <time name="dav">    1.52    1.53</time>
   <time name="total">    2.91    2.91</time>
   <energy>
    <i name="e_fr_energy">     -7.92132631 </i>
    <i name="e_wo_entrp">     -7.92132631 </i>
    <i name="e_0_energy">     -7.92132631 </i>
   </energy>
  </scstep>
  <scstep>
   <time name="dav">    1.74    1.74</time>
   <time name="total">    3.11    3.11</time>
   <energy>
    <i name="e_fr_energy">     -7.92132793 </i>
    <i name="e_wo_entrp">     -7.92132793 </i>
    <i name="e_0_energy">     -7.92132793 </i>
   </energy>
  </scstep>
  <scstep>
   <time name="dav">    2.91    2.91</time>
   <time name="total">    4.28    4.28</time>
   <energy>
    <i name="e_fr_energy">     -7.92130132 </i>
    <i name="e_wo_entrp">     -7.92130132 </i>
    <i name="e_0_energy">     -7.92130132 </i>
   </energy>
  </scstep>
  <scstep>
   <time name="dav">    3.30    3.30</time>
   <time name="total">    4.67    4.68</time>
   <energy>
    <i name="e_fr_energy">     -7.92132033 </i>
    <i name="e_wo_entrp">     -7.92132033 </i>
    <i name="e_0_energy">     -7.92132033 </i>
   </energy>
  </scstep>
  <scstep>
   <time name="dav">    1.55    1.55</time>
   <time name="total">    2.93    2.93</time>
   <energy>
    <i name="e_fr_energy">     -7.92132653 </i>
    <i name="e_wo_entrp">     -7.92132653 </i>
    <i name="e_0_energy">     -7.92132653 </i>
   </energy>
  </scstep>
  <scstep>
   <time name="dav">    1.72    1.72</time>
   <time name="total">    3.24    3.24</time>
   <energy>
    <i name="e_fr_energy">     -7.92132792 </i>
    <i name="e_wo_entrp">     -7.92132792 </i>
    <i name="e_0_energy">     -7.92132792 </i>
   </energy>
  </scstep>
  <scstep>
   <time name="dav">    1.53    1.53</time>
   <time name="total">    2.90    2.91</time>
   <energy>
    <i name="e_fr_energy">     -7.92130183 </i>
    <i name="e_wo_entrp">     -7.92130183 </i>
    <i name="e_0_energy">     -7.92130183 </i>
   </energy>
  </scstep>
  <scstep>
   <time name="dav">    1.45    1.45</time>
   <time name="total">    2.83    2.83</time>
   <energy>
    <i name="e_fr_energy">     -7.92131830 </i>
    <i name="e_wo_entrp">     -7.92131830 </i>
    <i name="e_0_energy">     -7.92131830 </i>
   </energy>
  </scstep>
  <scstep>
   <time name="dav">    1.49    1.49</time>
   <time name="total">    2.86    2.86</time>
   <energy>
    <i name="e_fr_energy">     -7.92132385 </i>
    <i name="e_wo_entrp">     -7.92132385 </i>
    <i name="e_0_energy">     -7.92132385 </i>
   </energy>
  </scstep>
  <scstep>
   <time name="dav">    1.57    1.57</time>
   <time name="total">    2.95    2.95</time>
   <energy>
    <i name="e_fr_energy">     -7.92132620 </i>
    <i name="e_wo_entrp">     -7.92132620 </i>
    <i name="e_0_energy">     -7.92132620 </i>
   </energy>
  </scstep>
  <scstep>
   <time name="dav">    1.65    1.65</time>
   <time name="total">    3.04    3.05</time>
   <energy>
    <i name="e_fr_energy">     -7.92132755 </i>
    <i name="e_wo_entrp">     -7.92132755 </i>
    <i name="e_0_energy">     -7.92132755 </i>
   </energy>
  </scstep>
  <scstep>
   <time name="dav">    1.56    1.56</time>
   <time name="total">    3.17    3.18</time>
   <energy>
    <i name="e_fr_energy">     -7.92132799 </i>
    <i name="e_wo_entrp">     -7.92132799 </i>
    <i name="e_0_energy">     -7.92132799 </i>
   </energy>
  </scstep>
  <scstep>
   <time name="dav">    1.50    1.50</time>
   <time name="total">    2.91    2.91</time>
   <energy>
    <i name="e_fr_energy">     -7.92131801 </i>
    <i name="e_wo_entrp">     -7.92131801 </i>
    <i name="e_0_energy">     -7.92131801 </i>
   </energy>
  </scstep>
  <scstep>
   <time name="dav">    1.39    1.40</time>
   <time name="total">    2.79    2.80</time>
   <energy>
    <i name="e_fr_energy">     -7.92131910 </i>
    <i name="e_wo_entrp">     -7.92131910 </i>
    <i name="e_0_energy">     -7.92131910 </i>
   </energy>
  </scstep>
  <scstep>
   <time name="dav">    1.67    1.67</time>
   <time name="total">    3.08    3.08</time>
   <energy>
    <i name="e_fr_energy">     -7.92132203 </i>
    <i name="e_wo_entrp">     -7.92132203 </i>
    <i name="e_0_energy">     -7.92132203 </i>
   </energy>
  </scstep>
  <scstep>
   <time name="dav">    1.57    1.57</time>
   <time name="total">    2.95    2.95</time>
   <energy>
    <i name="e_fr_energy">     -7.92132669 </i>
    <i name="e_wo_entrp">     -7.92132669 </i>
    <i name="e_0_energy">     -7.92132669 </i>
   </energy>
  </scstep>
  <scstep>
   <time name="dav">    1.70    1.70</time>
   <time name="total">    3.08    3.08</time>
   <energy>
    <i name="e_fr_energy">     -7.92132783 </i>
    <i name="e_wo_entrp">     -7.92132783 </i>
    <i name="e_0_energy">     -7.92132783 </i>
   </energy>
  </scstep>
  <scstep>
   <time name="dav">    1.48    1.48</time>
   <time name="total">    2.87    2.87</time>
   <energy>
    <i name="e_fr_energy">     -7.92130623 </i>
    <i name="e_wo_entrp">     -7.92130623 </i>
    <i name="e_0_energy">     -7.92130623 </i>
   </energy>
  </scstep>
  <scstep>
   <time name="dav">    1.37    1.37</time>
   <time name="total">    2.74    2.75</time>
   <energy>
    <i name="e_fr_energy">     -7.92131866 </i>
    <i name="e_wo_entrp">     -7.92131866 </i>
    <i name="e_0_energy">     -7.92131866 </i>
   </energy>
  </scstep>
  <scstep>
   <time name="dav">    5.30    5.30</time>
   <time name="total">    6.73    6.73</time>
   <energy>
    <i name="e_fr_energy">     -7.92132420 </i>
    <i name="e_wo_entrp">     -7.92132420 </i>
    <i name="e_0_energy">     -7.92132420 </i>
   </energy>
  </scstep>
  <scstep>
   <time name="dav">    1.88    1.88</time>
   <time name="total">    3.26    3.26</time>
   <energy>
    <i name="e_fr_energy">     -7.92132712 </i>
    <i name="e_wo_entrp">     -7.92132712 </i>
    <i name="e_0_energy">     -7.92132712 </i>
   </energy>
  </scstep>
  <scstep>
   <time name="dav">    1.77    1.77</time>
   <time name="total">    3.15    3.15</time>
   <energy>
    <i name="e_fr_energy">     -7.92132782 </i>
    <i name="e_wo_entrp">     -7.92132782 </i>
    <i name="e_0_energy">     -7.92132782 </i>
   </energy>
  </scstep>
  <scstep>
   <time name="dav">    1.57    1.57</time>
   <time name="total">    2.96    2.96</time>
   <energy>
    <i name="e_fr_energy">     -7.92130665 </i>
    <i name="e_wo_entrp">     -7.92130665 </i>
    <i name="e_0_energy">     -7.92130665 </i>
   </energy>
  </scstep>
  <scstep>
   <time name="dav">    1.53    1.53</time>
   <time name="total">    3.08    3.08</time>
   <energy>
    <i name="e_fr_energy">     -7.92131924 </i>
    <i name="e_wo_entrp">     -7.92131924 </i>
    <i name="e_0_energy">     -7.92131924 </i>
   </energy>
  </scstep>
  <scstep>
   <time name="dav">    1.61    1.61</time>
   <time name="total">    3.00    3.01</time>
   <energy>
    <i name="e_fr_energy">     -7.92132473 </i>
    <i name="e_wo_entrp">     -7.92132473 </i>
    <i name="e_0_energy">     -7.92132473 </i>
   </energy>
  </scstep>
  <scstep>
   <time name="dav">    3.60    3.60</time>
   <time name="total">    4.96    4.97</time>
   <energy>
    <i name="e_fr_energy">     -7.92132751 </i>
    <i name="e_wo_entrp">     -7.92132751 </i>
    <i name="e_0_energy">     -7.92132751 </i>
   </energy>
  </scstep>
  <scstep>
   <time name="dav">    1.67    1.67</time>
   <time name="total">    3.05    3.05</time>
   <energy>
    <i name="e_fr_energy">     -7.92132781 </i>
    <i name="e_wo_entrp">     -7.92132781 </i>
    <i name="e_0_energy">     -7.92132781 </i>
   </energy>
  </scstep>
  <scstep>
   <time name="dav">    3.20    3.20</time>
   <time name="total">    4.75    4.75</time>
   <energy>
    <i name="e_fr_energy">     -7.92130591 </i>
    <i name="e_wo_entrp">     -7.92130591 </i>
    <i name="e_0_energy">     -7.92130591 </i>
   </energy>
  </scstep>
  <scstep>
   <time name="dav">    1.59    1.59</time>
   <time name="total">    3.05    3.05</time>
   <energy>
    <i name="e_fr_energy">     -7.92131905 </i>
    <i name="e_wo_entrp">     -7.92131905 </i>
    <i name="e_0_energy">     -7.92131905 </i>
   </energy>
  </scstep>
  <scstep>
   <time name="dav">    1.49    1.50</time>
   <time name="total">    2.97    2.97</time>
   <energy>
    <i name="e_fr_energy">     -7.92132493 </i>
    <i name="e_wo_entrp">     -7.92132493 </i>
    <i name="e_0_energy">     -7.92132493 </i>
   </energy>
  </scstep>
  <scstep>
   <time name="dav">    1.78    1.78</time>
   <time name="total">    3.43    3.43</time>
   <energy>
    <i name="e_fr_energy">     -7.92132777 </i>
    <i name="e_wo_entrp">     -7.92132777 </i>
    <i name="e_0_energy">     -7.92132777 </i>
   </energy>
  </scstep>
  <scstep>
   <time name="dav">    1.62    1.62</time>
   <time name="total">    3.02    3.02</time>
   <energy>
    <i name="e_fr_energy">     -7.92130356 </i>
    <i name="e_wo_entrp">     -7.92130356 </i>
    <i name="e_0_energy">     -7.92130356 </i>
   </energy>
  </scstep>
  <scstep>
   <time name="dav">    1.42    1.42</time>
   <time name="total">    2.80    2.80</time>
   <energy>
    <i name="e_fr_energy">     -7.92131888 </i>
    <i name="e_wo_entrp">     -7.92131888 </i>
    <i name="e_0_energy">     -7.92131888 </i>
   </energy>
  </scstep>
  <scstep>
   <time name="dav">    1.71    1.71</time>
   <time name="total">    3.27    3.27</time>
   <energy>
    <i name="e_fr_energy">     -7.92132625 </i>
    <i name="e_wo_entrp">     -7.92132625 </i>
    <i name="e_0_energy">     -7.92132625 </i>
   </energy>
  </scstep>
  <scstep>
   <time name="dav">    1.76    1.76</time>
   <time name="total">    3.37    3.38</time>
   <energy>
    <i name="e_fr_energy">     -7.92132797 </i>
    <i name="e_wo_entrp">     -7.92132797 </i>
    <i name="e_0_energy">     -7.92132797 </i>
   </energy>
  </scstep>
  <scstep>
   <time name="dav">    1.54    1.54</time>
   <time name="total">    2.97    2.97</time>
   <energy>
    <i name="e_fr_energy">     -7.92130432 </i>
    <i name="e_wo_entrp">     -7.92130432 </i>
    <i name="e_0_energy">     -7.92130432 </i>
   </energy>
  </scstep>
  <scstep>
   <time name="dav">    1.47    1.48</time>
   <time name="total">    2.84    2.84</time>
   <energy>
    <i name="e_fr_energy">     -7.92131930 </i>
    <i name="e_wo_entrp">     -7.92131930 </i>
    <i name="e_0_energy">     -7.92131930 </i>
   </energy>
  </scstep>
  <scstep>
   <time name="dav">    1.70    1.71</time>
   <time name="total">    3.10    3.11</time>
   <energy>
    <i name="e_fr_energy">     -7.92132549 </i>
    <i name="e_wo_entrp">     -7.92132549 </i>
    <i name="e_0_energy">     -7.92132549 </i>
   </energy>
  </scstep>
  <scstep>
   <time name="dav">    1.88    1.88</time>
   <time name="total">    3.28    3.28</time>
   <energy>
    <i name="e_fr_energy">     -7.92132795 </i>
    <i name="e_wo_entrp">     -7.92132795 </i>
    <i name="e_0_energy">     -7.92132795 </i>
   </energy>
  </scstep>
  <scstep>
   <time name="dav">    1.45    1.45</time>
   <time name="total">    2.84    2.84</time>
   <energy>
    <i name="e_fr_energy">     -7.92130233 </i>
    <i name="e_wo_entrp">     -7.92130233 </i>
    <i name="e_0_energy">     -7.92130233 </i>
   </energy>
  </scstep>
  <scstep>
   <time name="dav">    1.43    1.43</time>
   <time name="total">    2.82    2.82</time>
   <energy>
    <i name="e_fr_energy">     -7.92131904 </i>
    <i name="e_wo_entrp">     -7.92131904 </i>
    <i name="e_0_energy">     -7.92131904 </i>
   </energy>
  </scstep>
  <scstep>
   <time name="dav">    1.64    1.65</time>
   <time name="total">    3.17    3.17</time>
   <energy>
    <i name="e_fr_energy">     -7.92132648 </i>
    <i name="e_wo_entrp">     -7.92132648 </i>
    <i name="e_0_energy">     -7.92132648 </i>
   </energy>
  </scstep>
  <scstep>
   <time name="dav">    1.61    1.61</time>
   <time name="total">    3.00    3.01</time>
   <energy>
    <i name="e_fr_energy">     -7.92132799 </i>
    <i name="e_wo_entrp">     -7.92132799 </i>
    <i name="e_0_energy">     -7.92132799 </i>
   </energy>
  </scstep>
  <scstep>
   <time name="dav">    1.27    1.27</time>
   <time name="total">    2.65    2.66</time>
   <energy>
    <i name="e_fr_energy">     -7.92132799 </i>
    <i name="e_wo_entrp">     -7.92132799 </i>
    <i name="e_0_energy">     -7.92132799 </i>
   </energy>
  </scstep>
  <scstep>
   <time name="dav">    1.53    1.53</time>
   <time name="total">    2.91    2.91</time>
   <energy>
    <i name="e_fr_energy">     -7.92132785 </i>
    <i name="e_wo_entrp">     -7.92132785 </i>
    <i name="e_0_energy">     -7.92132785 </i>
   </energy>
  </scstep>
  <scstep>
   <time name="dav">    1.69    1.69</time>
   <time name="total">    3.08    3.08</time>
   <energy>
    <i name="e_fr_energy">     -7.92132767 </i>
    <i name="e_wo_entrp">     -7.92132767 </i>
    <i name="e_0_energy">     -7.92132767 </i>
   </energy>
  </scstep>
  <scstep>
   <time name="dav">    1.52    1.52</time>
   <time name="total">    3.12    3.12</time>
   <energy>
    <i name="e_fr_energy">     -7.92132761 </i>
    <i name="e_wo_entrp">     -7.92132761 </i>
    <i name="e_0_energy">     -7.92132761 </i>
   </energy>
  </scstep>
  <scstep>
   <time name="dav">    1.52    1.52</time>
   <time name="total">    3.03    3.03</time>
   <energy>
    <i name="e_fr_energy">     -7.92132790 </i>
    <i name="e_wo_entrp">     -7.92132790 </i>
    <i name="e_0_energy">     -7.92132790 </i>
   </energy>
  </scstep>
  <scstep>
   <time name="dav">    1.53    1.53</time>
   <time name="total">    2.91    2.91</time>
   <energy>
    <i name="e_fr_energy">     -7.92129836 </i>
    <i name="e_wo_entrp">     -7.92129836 </i>
    <i name="e_0_energy">     -7.92129836 </i>
   </energy>
  </scstep>
  <scstep>
   <time name="dav">    1.36    1.37</time>
   <time name="total">    2.75    2.75</time>
   <energy>
    <i name="e_fr_energy">     -7.92131877 </i>
    <i name="e_wo_entrp">     -7.92131877 </i>
    <i name="e_0_energy">     -7.92131877 </i>
   </energy>
  </scstep>
  <scstep>
   <time name="dav">    3.31    3.31</time>
   <time name="total">    4.70    4.70</time>
   <energy>
    <i name="e_fr_energy">     -7.92132550 </i>
    <i name="e_wo_entrp">     -7.92132550 </i>
    <i name="e_0_energy">     -7.92132550 </i>
   </energy>
  </scstep>
  <scstep>
   <time name="dav">    1.65    1.65</time>
   <time name="total">    3.03    3.03</time>
   <energy>
    <i name="e_fr_energy">     -7.92132759 </i>
    <i name="e_wo_entrp">     -7.92132759 </i>
    <i name="e_0_energy">     -7.92132759 </i>
   </energy>
  </scstep>
  <scstep>
   <time name="dav">    1.71    1.72</time>
   <time name="total">    3.10    3.10</time>
   <energy>
    <i name="e_fr_energy">     -7.92132787 </i>
    <i name="e_wo_entrp">     -7.92132787 </i>
    <i name="e_0_energy">     -7.92132787 </i>
   </energy>
  </scstep>
  <scstep>
   <time name="dav">    1.57    1.57</time>
   <time name="total">    4.95    4.95</time>
   <energy>
    <i name="e_fr_energy">     -7.92129958 </i>
    <i name="e_wo_entrp">     -7.92129958 </i>
    <i name="e_0_energy">     -7.92129958 </i>
   </energy>
  </scstep>
  <scstep>
   <time name="dav">    1.50    1.50</time>
   <time name="total">    3.03    3.03</time>
   <energy>
    <i name="e_fr_energy">     -7.92131874 </i>
    <i name="e_wo_entrp">     -7.92131874 </i>
    <i name="e_0_energy">     -7.92131874 </i>
   </energy>
  </scstep>
  <scstep>
   <time name="dav">    1.60    1.60</time>
   <time name="total">    2.97    2.97</time>
   <energy>
    <i name="e_fr_energy">     -7.92132571 </i>
    <i name="e_wo_entrp">     -7.92132571 </i>
    <i name="e_0_energy">     -7.92132571 </i>
   </energy>
  </scstep>
  <scstep>
   <time name="dav">    1.64    1.64</time>
   <time name="total">    3.02    3.02</time>
   <energy>
    <i name="e_fr_energy">     -7.92132760 </i>
    <i name="e_wo_entrp">     -7.92132760 </i>
    <i name="e_0_energy">     -7.92132760 </i>
   </energy>
  </scstep>
  <scstep>
   <time name="dav">    1.69    1.69</time>
   <time name="total">    3.19    3.20</time>
   <energy>
    <i name="e_fr_energy">     -7.92132794 </i>
    <i name="e_wo_entrp">     -7.92132794 </i>
    <i name="e_0_energy">     -7.92132794 </i>
   </energy>
  </scstep>
  <scstep>
   <time name="dav">    1.56    1.56</time>
   <time name="total">    3.07    3.07</time>
   <energy>
    <i name="e_fr_energy">     -7.92129985 </i>
    <i name="e_wo_entrp">     -7.92129985 </i>
    <i name="e_0_energy">     -7.92129985 </i>
   </energy>
  </scstep>
  <scstep>
   <time name="dav">    1.49    1.49</time>
   <time name="total">    2.87    2.87</time>
   <energy>
    <i name="e_fr_energy">     -7.92131905 </i>
    <i name="e_wo_entrp">     -7.92131905 </i>
    <i name="e_0_energy">     -7.92131905 </i>
   </energy>
  </scstep>
  <scstep>
   <time name="dav">    1.67    1.68</time>
   <time name="total">    3.05    3.05</time>
   <energy>
    <i name="e_fr_energy">     -7.92132599 </i>
    <i name="e_wo_entrp">     -7.92132599 </i>
    <i name="e_0_energy">     -7.92132599 </i>
   </energy>
  </scstep>
  <scstep>
   <time name="dav">    1.83    1.83</time>
   <time name="total">    3.33    3.33</time>
   <energy>
    <i name="e_fr_energy">     -7.92132783 </i>
    <i name="e_wo_entrp">     -7.92132783 </i>
    <i name="e_0_energy">     -7.92132783 </i>
   </energy>
  </scstep>
  <scstep>
   <time name="dav">    1.52    1.52</time>
   <time name="total">    2.89    2.90</time>
   <energy>
    <i name="e_fr_energy">     -7.92129962 </i>
    <i name="e_wo_entrp">     -7.92129962 </i>
    <i name="e_0_energy">     -7.92129962 </i>
   </energy>
  </scstep>
  <scstep>
   <time name="dav">    1.64    1.64</time>
   <time name="total">    3.01    3.02</time>
   <energy>
    <i name="e_fr_energy">     -7.92131883 </i>
    <i name="e_wo_entrp">     -7.92131883 </i>
    <i name="e_0_energy">     -7.92131883 </i>
   </energy>
  </scstep>
  <scstep>
   <time name="dav">    1.62    1.62</time>
   <time name="total">    3.14    3.14</time>
   <energy>
    <i name="e_fr_energy">     -7.92132581 </i>
    <i name="e_wo_entrp">     -7.92132581 </i>
    <i name="e_0_energy">     -7.92132581 </i>
   </energy>
  </scstep>
  <scstep>
   <time name="dav">    3.02    3.03</time>
   <time name="total">    4.39    4.39</time>
   <energy>
    <i name="e_fr_energy">     -7.92132778 </i>
    <i name="e_wo_entrp">     -7.92132778 </i>
    <i name="e_0_energy">     -7.92132778 </i>
   </energy>
  </scstep>
  <scstep>
   <time name="dav">    1.41    1.41</time>
   <time name="total">    2.79    2.79</time>
   <energy>
    <i name="e_fr_energy">     -7.92129998 </i>
    <i name="e_wo_entrp">     -7.92129998 </i>
    <i name="e_0_energy">     -7.92129998 </i>
   </energy>
  </scstep>
  <scstep>
   <time name="dav">    1.53    1.53</time>
   <time name="total">    3.02    3.02</time>
   <energy>
    <i name="e_fr_energy">     -7.92131890 </i>
    <i name="e_wo_entrp">     -7.92131890 </i>
    <i name="e_0_energy">     -7.92131890 </i>
   </energy>
  </scstep>
  <scstep>
   <time name="dav">    1.72    1.72</time>
   <time name="total">    3.10    3.10</time>
   <energy>
    <i name="e_fr_energy">     -7.92132559 </i>
    <i name="e_wo_entrp">     -7.92132559 </i>
    <i name="e_0_energy">     -7.92132559 </i>
   </energy>
  </scstep>
  <scstep>
   <time name="dav">    1.86    1.86</time>
   <time name="total">    3.24    3.24</time>
   <energy>
    <i name="e_fr_energy">     -7.92132762 </i>
    <i name="e_wo_entrp">     -7.92132762 </i>
    <i name="e_0_energy">     -7.92132762 </i>
   </energy>
  </scstep>
  <scstep>
   <time name="dav">    1.57    1.57</time>
   <time name="total">    2.95    2.95</time>
   <energy>
    <i name="e_fr_energy">     -7.92132798 </i>
    <i name="e_wo_entrp">     -7.92132798 </i>
    <i name="e_0_energy">     -7.92132798 </i>
   </energy>
  </scstep>
  <scstep>
   <time name="dav">    1.48    1.49</time>
   <time name="total">    2.86    2.87</time>
   <energy>
    <i name="e_fr_energy">     -7.92130098 </i>
    <i name="e_wo_entrp">     -7.92130098 </i>
    <i name="e_0_energy">     -7.92130098 </i>
   </energy>
  </scstep>
  <scstep>
   <time name="dav">    1.41    1.41</time>
   <time name="total">    2.79    2.79</time>
   <energy>
    <i name="e_fr_energy">     -7.92131939 </i>
    <i name="e_wo_entrp">     -7.92131939 </i>
    <i name="e_0_energy">     -7.92131939 </i>
   </energy>
  </scstep>
  <scstep>
   <time name="dav">    1.60    1.60</time>
   <time name="total">    2.98    2.98</time>
   <energy>
    <i name="e_fr_energy">     -7.92132611 </i>
    <i name="e_wo_entrp">     -7.92132611 </i>
    <i name="e_0_energy">     -7.92132611 </i>
   </energy>
  </scstep>
  <scstep>
   <time name="dav">    1.74    1.74</time>
   <time name="total">    3.13    3.13</time>
   <energy>
    <i name="e_fr_energy">     -7.92132784 </i>
    <i name="e_wo_entrp">     -7.92132784 </i>
    <i name="e_0_energy">     -7.92132784 </i>
   </energy>
  </scstep>
  <scstep>
   <time name="dav">    1.54    1.55</time>
   <time name="total">    3.03    3.03</time>
   <energy>
    <i name="e_fr_energy">     -7.92129964 </i>
    <i name="e_wo_entrp">     -7.92129964 </i>
    <i name="e_0_energy">     -7.92129964 </i>
   </energy>
  </scstep>
  <scstep>
   <time name="dav">    1.59    1.59</time>
   <time name="total">    2.97    2.97</time>
   <energy>
    <i name="e_fr_energy">     -7.92131884 </i>
    <i name="e_wo_entrp">     -7.92131884 </i>
    <i name="e_0_energy">     -7.92131884 </i>
   </energy>
  </scstep>
  <scstep>
   <time name="dav">    1.58    1.59</time>
   <time name="total">    2.96    2.96</time>
   <energy>
    <i name="e_fr_energy">     -7.92132598 </i>
    <i name="e_wo_entrp">     -7.92132598 </i>
    <i name="e_0_energy">     -7.92132598 </i>
   </energy>
  </scstep>
  <scstep>
   <time name="dav">    1.67    1.68</time>
   <time name="total">    3.05    3.06</time>
   <energy>
    <i name="e_fr_energy">     -7.92132782 </i>
    <i name="e_wo_entrp">     -7.92132782 </i>
    <i name="e_0_energy">     -7.92132782 </i>
   </energy>
  </scstep>
  <scstep>
   <time name="dav">    1.49    1.49</time>
   <time name="total">    2.98    2.99</time>
   <energy>
    <i name="e_fr_energy">     -7.92130091 </i>
    <i name="e_wo_entrp">     -7.92130091 </i>
    <i name="e_0_energy">     -7.92130091 </i>
   </energy>
  </scstep>
  <scstep>
   <time name="dav">    1.73    1.73</time>
   <time name="total">    3.21    3.21</time>
   <energy>
    <i name="e_fr_energy">     -7.92131854 </i>
    <i name="e_wo_entrp">     -7.92131854 </i>
    <i name="e_0_energy">     -7.92131854 </i>
   </energy>
  </scstep>
  <scstep>
   <time name="dav">    1.90    1.90</time>
   <time name="total">    3.30    3.30</time>
   <energy>
    <i name="e_fr_energy">     -7.92132584 </i>
    <i name="e_wo_entrp">     -7.92132584 </i>
    <i name="e_0_energy">     -7.92132584 </i>
   </energy>
  </scstep>
  <scstep>
   <time name="dav">    1.88    1.89</time>
   <time name="total">    3.54    3.55</time>
   <energy>
    <i name="e_fr_energy">     -7.92132781 </i>
    <i name="e_wo_entrp">     -7.92132781 </i>
    <i name="e_0_energy">     -7.92132781 </i>
   </energy>
  </scstep>
  <scstep>
   <time name="dav">    1.70    1.71</time>
   <time name="total">    3.43    3.43</time>
   <energy>
    <i name="e_fr_energy">     -7.92130149 </i>
    <i name="e_wo_entrp">     -7.92130149 </i>
    <i name="e_0_energy">     -7.92130149 </i>
   </energy>
  </scstep>
  <scstep>
   <time name="dav">    1.62    1.62</time>
   <time name="total">    3.13    3.13</time>
   <energy>
    <i name="e_fr_energy">     -7.92131861 </i>
    <i name="e_wo_entrp">     -7.92131861 </i>
    <i name="e_0_energy">     -7.92131861 </i>
   </energy>
  </scstep>
  <scstep>
   <time name="dav">    1.74    1.74</time>
   <time name="total">    3.13    3.14</time>
   <energy>
    <i name="e_fr_energy">     -7.92132565 </i>
    <i name="e_wo_entrp">     -7.92132565 </i>
    <i name="e_0_energy">     -7.92132565 </i>
   </energy>
  </scstep>
  <scstep>
   <time name="dav">    1.73    1.74</time>
   <time name="total">    3.23    3.23</time>
   <energy>
    <i name="e_fr_energy">     -7.92132777 </i>
    <i name="e_wo_entrp">     -7.92132777 </i>
    <i name="e_0_energy">     -7.92132777 </i>
   </energy>
  </scstep>
  <scstep>
   <time name="dav">    3.01    3.01</time>
   <time name="total">    4.38    4.40</time>
   <energy>
    <i name="e_fr_energy">     -7.92130431 </i>
    <i name="e_wo_entrp">     -7.92130431 </i>
    <i name="e_0_energy">     -7.92130431 </i>
   </energy>
  </scstep>
  <scstep>
   <time name="dav">    1.42    1.42</time>
   <time name="total">    2.79    2.79</time>
   <energy>
    <i name="e_fr_energy">     -7.92131835 </i>
    <i name="e_wo_entrp">     -7.92131835 </i>
    <i name="e_0_energy">     -7.92131835 </i>
   </energy>
  </scstep>
  <scstep>
   <time name="dav">    1.54    1.54</time>
   <time name="total">    2.92    2.92</time>
   <energy>
    <i name="e_fr_energy">     -7.92132532 </i>
    <i name="e_wo_entrp">     -7.92132532 </i>
    <i name="e_0_energy">     -7.92132532 </i>
   </energy>
  </scstep>
  <scstep>
   <time name="dav">    1.71    1.72</time>
   <time name="total">    3.08    3.09</time>
   <energy>
    <i name="e_fr_energy">     -7.92132795 </i>
    <i name="e_wo_entrp">     -7.92132795 </i>
    <i name="e_0_energy">     -7.92132795 </i>
   </energy>
  </scstep>
  <scstep>
   <time name="dav">    1.52    1.52</time>
   <time name="total">    3.10    3.10</time>
   <energy>
    <i name="e_fr_energy">     -7.92130444 </i>
    <i name="e_wo_entrp">     -7.92130444 </i>
    <i name="e_0_energy">     -7.92130444 </i>
   </energy>
  </scstep>
  <scstep>
   <time name="dav">    1.86    1.86</time>
   <time name="total">    3.24    3.25</time>
   <energy>
    <i name="e_fr_energy">     -7.92129881 </i>
    <i name="e_wo_entrp">     -7.92129881 </i>
    <i name="e_0_energy">     -7.92129881 </i>
   </energy>
  </scstep>
  <scstep>
   <time name="dav">    1.37    1.37</time>
   <time name="total">    2.74    2.75</time>
   <energy>
    <i name="e_fr_energy">     -7.92130628 </i>
    <i name="e_wo_entrp">     -7.92130628 </i>
    <i name="e_0_energy">     -7.92130628 </i>
   </energy>
  </scstep>
  <scstep>
   <time name="dav">    1.52    1.52</time>
[...]
        <r>  0.0153  0.0000  0.0000  0.0027  0.0000  0.0000  0.0000  0.0000  0.0000 </r>
        <r>  0.0040  0.0137  0.0018  0.0006  0.0000  0.0000  0.0000  0.0000  0.0000 </r>
        <r>  0.0027  0.0093  0.0012  0.0010  0.0000  0.0000  0.0000  0.0000  0.0000 </r>
       </set>
      </set>
      <set comment="kpoint 16">
       <set comment="band 1">
        <r>  0.0000  0.0571  0.0896  0.0034  0.0000  0.0000  0.0000  0.0000  0.0000 </r>
        <r>  0.0000  0.0685  0.0893  0.0039  0.0000  0.0000  0.0000  0.0000  0.0000 </r>
        <r>  0.0000  0.0015  0.0020  0.1765  0.0000  0.0000  0.0000  0.0000  0.0000 </r>
        <r>  0.0000  0.0013  0.0020  0.1510  0.0000  0.0000  0.0000  0.0000  0.0000 </r>
        <r>  0.0000  0.0015  0.0020  0.1765  0.0000  0.0000  0.0000  0.0000  0.0000 </r>
        <r>  0.0000  0.0685  0.0893  0.0039  0.0000  0.0000  0.0000  0.0000  0.0000 </r>
       </set>
       <set comment="band 2">
        <r>  0.0000  0.0013  0.0020  0.1510  0.0000  0.0000  0.0000  0.0000  0.0000 </r>
        <r>  0.0000  0.0015  0.0020  0.1765  0.0000  0.0000  0.0000  0.0000  0.0000 </r>
        <r>  0.0000  0.0685  0.0893  0.0039  0.0000  0.0000  0.0000  0.0000  0.0000 </r>
        <r>  0.0000  0.0571  0.0896  0.0034  0.0000  0.0000  0.0000  0.0000  0.0000 </r>
        <r>  0.0000  0.0685  0.0893  0.0039  0.0000  0.0000  0.0000  0.0000  0.0000 </r>
        <r>  0.0000  0.0015  0.0020  0.1765  0.0000  0.0000  0.0000  0.0000  0.0000 </r>
       </set>
       <set comment="band 3">
        <r>  0.0000  0.0011  0.0019  0.0719  0.0000  0.0000  0.0000  0.0000  0.0000 </r>
        <r>  0.0000  0.0052  0.0059  0.2078  0.0000  0.0000  0.0000  0.0000  0.0000 </r>
        <r>  0.0000  0.0921  0.1051  0.0117  0.0000  0.0000  0.0000  0.0000  0.0000 </r>
        <r>  0.0000  0.0193  0.0344  0.0040  0.0000  0.0000  0.0000  0.0000  0.0000 </r>
        <r>  0.0000  0.0921  0.1051  0.0117  0.0000  0.0000  0.0000  0.0000  0.0000 </r>
        <r>  0.0000  0.0052  0.0059  0.2078  0.0000  0.0000  0.0000  0.0000  0.0000 </r>
       </set>
       <set comment="band 4">
        <r>  0.0000  0.0193  0.0344  0.0040  0.0000  0.0000  0.0000  0.0000  0.0000 </r>
        <r>  0.0000  0.0921  0.1051  0.0117  0.0000  0.0000  0.0000  0.0000  0.0000 </r>
        <r>  0.0000  0.0052  0.0059  0.2078  0.0000  0.0000  0.0000  0.0000  0.0000 </r>
        <r>  0.0000  0.0011  0.0019  0.0719  0.0000  0.0000  0.0000  0.0000  0.0000 </r>
        <r>  0.0000  0.0052  0.0059  0.2078  0.0000  0.0000  0.0000  0.0000  0.0000 </r>
        <r>  0.0000  0.0921  0.1051  0.0117  0.0000  0.0000  0.0000  0.0000  0.0000 </r>
       </set>
       <set comment="band 5">
        <r>  0.0000  0.0759  0.0510  0.1359  0.0000  0.0000  0.0000  0.0000  0.0000 </r>
        <r>  0.0000  0.0377  0.0243  0.0524  0.0000  0.0000  0.0000  0.0000  0.0000 </r>
        <r>  0.0000  0.0426  0.0274  0.0464  0.0000  0.0000  0.0000  0.0000  0.0000 </r>
        <r>  0.0000  0.0858  0.0576  0.1203  0.0000  0.0000  0.0000  0.0000  0.0000 </r>
        <r>  0.0000  0.0426  0.0274  0.0464  0.0000  0.0000  0.0000  0.0000  0.0000 </r>
        <r>  0.0000  0.0377  0.0243  0.0524  0.0000  0.0000  0.0000  0.0000  0.0000 </r>
       </set>
       <set comment="band 6">
        <r>  0.0000  0.0858  0.0576  0.1203  0.0000  0.0000  0.0000  0.0000  0.0000 </r>
        <r>  0.0000  0.0426  0.0274  0.0464  0.0000  0.0000  0.0000  0.0000  0.0000 </r>
        <r>  0.0000  0.0377  0.0243  0.0524  0.0000  0.0000  0.0000  0.0000  0.0000 </r>
        <r>  0.0000  0.0759  0.0510  0.1359  0.0000  0.0000  0.0000  0.0000  0.0000 </r>
        <r>  0.0000  0.0377  0.0243  0.0524  0.0000  0.0000  0.0000  0.0000  0.0000 </r>
        <r>  0.0000  0.0426  0.0274  0.0464  0.0000  0.0000  0.0000  0.0000  0.0000 </r>
       </set>
       <set comment="band 7">
        <r>  0.0000  0.0005  0.0034  0.0233  0.0000  0.0000  0.0000  0.0000  0.0000 </r>
        <r>  0.0000  0.0008  0.0045  0.0257  0.0000  0.0000  0.0000  0.0000  0.0000 </r>
        <r>  0.0000  0.0513  0.2765  0.0004  0.0000  0.0000  0.0000  0.0000  0.0000 </r>
        <r>  0.0000  0.0336  0.2098  0.0004  0.0000  0.0000  0.0000  0.0000  0.0000 </r>
        <r>  0.0000  0.0513  0.2765  0.0004  0.0000  0.0000  0.0000  0.0000  0.0000 </r>
        <r>  0.0000  0.0008  0.0045  0.0257  0.0000  0.0000  0.0000  0.0000  0.0000 </r>
       </set>
       <set comment="band 8">
        <r>  0.0000  0.0336  0.2098  0.0004  0.0000  0.0000  0.0000  0.0000  0.0000 </r>
        <r>  0.0000  0.0513  0.2765  0.0004  0.0000  0.0000  0.0000  0.0000  0.0000 </r>
        <r>  0.0000  0.0008  0.0045  0.0257  0.0000  0.0000  0.0000  0.0000  0.0000 </r>
        <r>  0.0000  0.0005  0.0034  0.0233  0.0000  0.0000  0.0000  0.0000  0.0000 </r>
        <r>  0.0000  0.0008  0.0045  0.0257  0.0000  0.0000  0.0000  0.0000  0.0000 </r>
        <r>  0.0000  0.0513  0.2765  0.0004  0.0000  0.0000  0.0000  0.0000  0.0000 </r>
       </set>
       <set comment="band 9">
        <r>  0.0000  0.0001  0.0001  0.0145  0.0000  0.0000  0.0000  0.0000  0.0000 </r>
        <r>  0.0000  0.0000  0.0001  0.0063  0.0000  0.0000  0.0000  0.0000  0.0000 </r>
        <r>  0.0000  0.1185  0.1747  0.0000  0.0000  0.0000  0.0000  0.0000  0.0000 </r>
        <r>  0.0000  0.1393  0.2367  0.0000  0.0000  0.0000  0.0000  0.0000  0.0000 </r>
        <r>  0.0000  0.1185  0.1747  0.0000  0.0000  0.0000  0.0000  0.0000  0.0000 </r>
        <r>  0.0000  0.0000  0.0001  0.0063  0.0000  0.0000  0.0000  0.0000  0.0000 </r>
       </set>
       <set comment="band 10">
        <r>  0.0000  0.1393  0.2367  0.0000  0.0000  0.0000  0.0000  0.0000  0.0000 </r>
        <r>  0.0000  0.1185  0.1747  0.0000  0.0000  0.0000  0.0000  0.0000  0.0000 </r>
        <r>  0.0000  0.0000  0.0001  0.0063  0.0000  0.0000  0.0000  0.0000  0.0000 </r>
        <r>  0.0000  0.0001  0.0001  0.0145  0.0000  0.0000  0.0000  0.0000  0.0000 </r>
        <r>  0.0000  0.0000  0.0001  0.0063  0.0000  0.0000  0.0000  0.0000  0.0000 </r>
        <r>  0.0000  0.1185  0.1747  0.0000  0.0000  0.0000  0.0000  0.0000  0.0000 </r>
       </set>
       <set comment="band 11">
        <r>  0.0000  0.0000  0.0000  0.0067  0.0000  0.0000  0.0000  0.0000  0.0000 </r>
        <r>  0.0000  0.0000  0.0000  0.0009  0.0000  0.0000  0.0000  0.0000  0.0000 </r>
        <r>  0.0000  0.1734  0.1637  0.0000  0.0000  0.0000  0.0000  0.0000  0.0000 </r>
        <r>  0.0000  0.1403  0.1671  0.0000  0.0000  0.0000  0.0000  0.0000  0.0000 </r>
        <r>  0.0000  0.1734  0.1637  0.0000  0.0000  0.0000  0.0000  0.0000  0.0000 </r>
        <r>  0.0000  0.0000  0.0000  0.0009  0.0000  0.0000  0.0000  0.0000  0.0000 </r>
       </set>
       <set comment="band 12">
        <r>  0.0000  0.1403  0.1671  0.0000  0.0000  0.0000  0.0000  0.0000  0.0000 </r>
        <r>  0.0000  0.1734  0.1637  0.0000  0.0000  0.0000  0.0000  0.0000  0.0000 </r>
        <r>  0.0000  0.0000  0.0000  0.0009  0.0000  0.0000  0.0000  0.0000  0.0000 </r>
        <r>  0.0000  0.0000  0.0000  0.0067  0.0000  0.0000  0.0000  0.0000  0.0000 </r>
        <r>  0.0000  0.0000  0.0000  0.0009  0.0000  0.0000  0.0000  0.0000  0.0000 </r>
        <r>  0.0000  0.1734  0.1637  0.0000  0.0000  0.0000  0.0000  0.0000  0.0000 </r>
       </set>
       <set comment="band 13">
        <r>  0.0000  0.0534  0.0008  0.0702  0.0000  0.0000  0.0000  0.0000  0.0000 </r>
        <r>  0.0000  0.0690  0.0018  0.1105  0.0000  0.0000  0.0000  0.0000  0.0000 </r>
        <r>  0.0000  0.1165  0.0030  0.0655  0.0000  0.0000  0.0000  0.0000  0.0000 </r>
        <r>  0.0000  0.0902  0.0013  0.0416  0.0000  0.0000  0.0000  0.0000  0.0000 </r>
        <r>  0.0000  0.1165  0.0030  0.0655  0.0000  0.0000  0.0000  0.0000  0.0000 </r>
        <r>  0.0000  0.0690  0.0018  0.1105  0.0000  0.0000  0.0000  0.0000  0.0000 </r>
       </set>
       <set comment="band 14">
        <r>  0.0000  0.0902  0.0013  0.0416  0.0000  0.0000  0.0000  0.0000  0.0000 </r>
        <r>  0.0000  0.1165  0.0030  0.0655  0.0000  0.0000  0.0000  0.0000  0.0000 </r>
        <r>  0.0000  0.0690  0.0018  0.1105  0.0000  0.0000  0.0000  0.0000  0.0000 </r>
        <r>  0.0000  0.0534  0.0008  0.0702  0.0000  0.0000  0.0000  0.0000  0.0000 </r>
        <r>  0.0000  0.0690  0.0018  0.1105  0.0000  0.0000  0.0000  0.0000  0.0000 </r>
        <r>  0.0000  0.1165  0.0030  0.0655  0.0000  0.0000  0.0000  0.0000  0.0000 </r>
       </set>
       <set comment="band 15">
        <r>  0.0000  0.1065  0.0390  0.0626  0.0000  0.0000  0.0000  0.0000  0.0000 </r>
        <r>  0.0000  0.0749  0.0244  0.0512  0.0000  0.0000  0.0000  0.0000  0.0000 </r>
        <r>  0.0000  0.0448  0.0146  0.0856  0.0000  0.0000  0.0000  0.0000  0.0000 </r>
        <r>  0.0000  0.0637  0.0233  0.1046  0.0000  0.0000  0.0000  0.0000  0.0000 </r>
        <r>  0.0000  0.0448  0.0146  0.0856  0.0000  0.0000  0.0000  0.0000  0.0000 </r>
        <r>  0.0000  0.0749  0.0244  0.0512  0.0000  0.0000  0.0000  0.0000  0.0000 </r>
       </set>
       <set comment="band 16">
        <r>  0.0000  0.0637  0.0233  0.1046  0.0000  0.0000  0.0000  0.0000  0.0000 </r>
        <r>  0.0000  0.0448  0.0146  0.0856  0.0000  0.0000  0.0000  0.0000  0.0000 </r>
        <r>  0.0000  0.0749  0.0244  0.0512  0.0000  0.0000  0.0000  0.0000  0.0000 </r>
        <r>  0.0000  0.1065  0.0390  0.0626  0.0000  0.0000  0.0000  0.0000  0.0000 </r>
        <r>  0.0000  0.0749  0.0244  0.0512  0.0000  0.0000  0.0000  0.0000  0.0000 </r>
        <r>  0.0000  0.0448  0.0146  0.0856  0.0000  0.0000  0.0000  0.0000  0.0000 </r>
       </set>
       <set comment="band 17">
        <r>  0.0000  0.0281  0.0166  0.1375  0.0000  0.0000  0.0000  0.0000  0.0000 </r>
        <r>  0.0000  0.0214  0.0167  0.1110  0.0000  0.0000  0.0000  0.0000  0.0000 </r>
        <r>  0.0000  0.0713  0.0557  0.0333  0.0000  0.0000  0.0000  0.0000  0.0000 </r>
        <r>  0.0000  0.0935  0.0552  0.0413  0.0000  0.0000  0.0000  0.0000  0.0000 </r>
        <r>  0.0000  0.0713  0.0557  0.0333  0.0000  0.0000  0.0000  0.0000  0.0000 </r>
        <r>  0.0000  0.0214  0.0167  0.1110  0.0000  0.0000  0.0000  0.0000  0.0000 </r>
       </set>
       <set comment="band 18">
        <r>  0.0000  0.0935  0.0552  0.0413  0.0000  0.0000  0.0000  0.0000  0.0000 </r>
        <r>  0.0000  0.0713  0.0557  0.0333  0.0000  0.0000  0.0000  0.0000  0.0000 </r>
        <r>  0.0000  0.0214  0.0167  0.1110  0.0000  0.0000  0.0000  0.0000  0.0000 </r>
        <r>  0.0000  0.0281  0.0166  0.1375  0.0000  0.0000  0.0000  0.0000  0.0000 </r>
        <r>  0.0000  0.0214  0.0167  0.1110  0.0000  0.0000  0.0000  0.0000  0.0000 </r>
        <r>  0.0000  0.0713  0.0557  0.0333  0.0000  0.0000  0.0000  0.0000  0.0000 </r>
       </set>
       <set comment="band 19">
        <r>  0.0122  0.0009  0.0006  0.0051  0.0000  0.0000  0.0000  0.0000  0.0000 </r>
        <r>  0.0126  0.0010  0.0006  0.0053  0.0000  0.0000  0.0000  0.0000  0.0000 </r>
        <r>  0.0149  0.0012  0.0007  0.0044  0.0000  0.0000  0.0000  0.0000  0.0000 </r>
        <r>  0.0145  0.0011  0.0008  0.0043  0.0000  0.0000  0.0000  0.0000  0.0000 </r>
        <r>  0.0149  0.0012  0.0007  0.0044  0.0000  0.0000  0.0000  0.0000  0.0000 </r>
        <r>  0.0126  0.0010  0.0006  0.0053  0.0000  0.0000  0.0000  0.0000  0.0000 </r>
       </set>
       <set comment="band 20">
        <r>  0.0145  0.0011  0.0008  0.0043  0.0000  0.0000  0.0000  0.0000  0.0000 </r>
        <r>  0.0149  0.0012  0.0007  0.0044  0.0000  0.0000  0.0000  0.0000  0.0000 </r>
        <r>  0.0126  0.0010  0.0006  0.0053  0.0000  0.0000  0.0000  0.0000  0.0000 </r>
        <r>  0.0122  0.0009  0.0006  0.0051  0.0000  0.0000  0.0000  0.0000  0.0000 </r>
        <r>  0.0126  0.0010  0.0006  0.0053  0.0000  0.0000  0.0000  0.0000  0.0000 </r>
        <r>  0.0149  0.0012  0.0007  0.0044  0.0000  0.0000  0.0000  0.0000  0.0000 </r>
       </set>
       <set comment="band 21">
        <r>  0.0155  0.0014  0.0021  0.0035  0.0000  0.0000  0.0000  0.0000  0.0000 </r>
        <r>  0.0149  0.0014  0.0021  0.0034  0.0000  0.0000  0.0000  0.0000  0.0000 </r>
        <r>  0.0075  0.0007  0.0011  0.0068  0.0000  0.0000  0.0000  0.0000  0.0000 </r>
        <r>  0.0078  0.0007  0.0011  0.0069  0.0000  0.0000  0.0000  0.0000  0.0000 </r>
        <r>  0.0075  0.0007  0.0011  0.0068  0.0000  0.0000  0.0000  0.0000  0.0000 </r>
        <r>  0.0149  0.0014  0.0021  0.0034  0.0000  0.0000  0.0000  0.0000  0.0000 </r>
       </set>
       <set comment="band 22">
        <r>  0.0078  0.0007  0.0011  0.0069  0.0000  0.0000  0.0000  0.0000  0.0000 </r>
        <r>  0.0075  0.0007  0.0011  0.0068  0.0000  0.0000  0.0000  0.0000  0.0000 </r>
        <r>  0.0149  0.0014  0.0021  0.0034  0.0000  0.0000  0.0000  0.0000  0.0000 </r>
        <r>  0.0155  0.0014  0.0021  0.0035  0.0000  0.0000  0.0000  0.0000  0.0000 </r>
        <r>  0.0149  0.0014  0.0021  0.0034  0.0000  0.0000  0.0000  0.0000  0.0000 </r>
        <r>  0.0075  0.0007  0.0011  0.0068  0.0000  0.0000  0.0000  0.0000  0.0000 </r>
       </set>
       <set comment="band 23">
        <r>  0.0149  0.0065  0.0008  0.0016  0.0000  0.0000  0.0000  0.0000  0.0000 </r>
        <r>  0.0153  0.0065  0.0008  0.0016  0.0000  0.0000  0.0000  0.0000  0.0000 </r>
        <r>  0.0031  0.0013  0.0002  0.0081  0.0000  0.0000  0.0000  0.0000  0.0000 </r>
        <r>  0.0030  0.0013  0.0002  0.0081  0.0000  0.0000  0.0000  0.0000  0.0000 </r>
        <r>  0.0031  0.0013  0.0002  0.0081  0.0000  0.0000  0.0000  0.0000  0.0000 </r>
        <r>  0.0153  0.0065  0.0008  0.0016  0.0000  0.0000  0.0000  0.0000  0.0000 </r>
       </set>
       <set comment="band 24">
        <r>  0.0030  0.0013  0.0002  0.0081  0.0000  0.0000  0.0000  0.0000  0.0000 </r>
        <r>  0.0031  0.0013  0.0002  0.0081  0.0000  0.0000  0.0000  0.0000  0.0000 </r>
        <r>  0.0153  0.0065  0.0008  0.0016  0.0000  0.0000  0.0000  0.0000  0.0000 </r>
        <r>  0.0149  0.0065  0.0008  0.0016  0.0000  0.0000  0.0000  0.0000  0.0000 </r>
        <r>  0.0153  0.0065  0.0008  0.0016  0.0000  0.0000  0.0000  0.0000  0.0000 </r>
        <r>  0.0031  0.0013  0.0002  0.0081  0.0000  0.0000  0.0000  0.0000  0.0000 </r>
       </set>
       <set comment="band 25">
        <r>  0.0020  0.0003  0.0001  0.0048  0.0000  0.0000  0.0000  0.0000  0.0000 </r>
        <r>  0.0020  0.0003  0.0001  0.0047  0.0000  0.0000  0.0000  0.0000  0.0000 </r>
        <r>  0.0291  0.0049  0.0021  0.0003  0.0000  0.0000  0.0000  0.0000  0.0000 </r>
        <r>  0.0294  0.0050  0.0020  0.0003  0.0000  0.0000  0.0000  0.0000  0.0000 </r>
        <r>  0.0291  0.0049  0.0021  0.0003  0.0000  0.0000  0.0000  0.0000  0.0000 </r>
        <r>  0.0020  0.0003  0.0001  0.0047  0.0000  0.0000  0.0000  0.0000  0.0000 </r>
       </set>
       <set comment="band 26">
        <r>  0.0294  0.0050  0.0020  0.0003  0.0000  0.0000  0.0000  0.0000  0.0000 </r>
        <r>  0.0291  0.0049  0.0021  0.0003  0.0000  0.0000  0.0000  0.0000  0.0000 </r>
        <r>  0.0020  0.0003  0.0001  0.0047  0.0000  0.0000  0.0000  0.0000  0.0000 </r>
        <r>  0.0020  0.0003  0.0001  0.0048  0.0000  0.0000  0.0000  0.0000  0.0000 </r>
        <r>  0.0020  0.0003  0.0001  0.0047  0.0000  0.0000  0.0000  0.0000  0.0000 </r>
        <r>  0.0291  0.0049  0.0021  0.0003  0.0000  0.0000  0.0000  0.0000  0.0000 </r>
       </set>
       <set comment="band 27">
        <r>  0.0027  0.0000  0.0050  0.0014  0.0000  0.0000  0.0000  0.0000  0.0000 </r>
        <r>  0.0027  0.0000  0.0050  0.0014  0.0000  0.0000  0.0000  0.0000  0.0000 </r>
        <r>  0.0069  0.0001  0.0126  0.0005  0.0000  0.0000  0.0000  0.0000  0.0000 </r>
        <r>  0.0069  0.0001  0.0126  0.0006  0.0000  0.0000  0.0000  0.0000  0.0000 </r>
        <r>  0.0069  0.0001  0.0126  0.0005  0.0000  0.0000  0.0000  0.0000  0.0000 </r>
        <r>  0.0027  0.0000  0.0050  0.0014  0.0000  0.0000  0.0000  0.0000  0.0000 </r>
       </set>
       <set comment="band 28">
        <r>  0.0069  0.0001  0.0126  0.0006  0.0000  0.0000  0.0000  0.0000  0.0000 </r>
        <r>  0.0069  0.0001  0.0126  0.0005  0.0000  0.0000  0.0000  0.0000  0.0000 </r>
        <r>  0.0027  0.0000  0.0050  0.0014  0.0000  0.0000  0.0000  0.0000  0.0000 </r>
        <r>  0.0027  0.0000  0.0050  0.0014  0.0000  0.0000  0.0000  0.0000  0.0000 </r>
        <r>  0.0027  0.0000  0.0050  0.0014  0.0000  0.0000  0.0000  0.0000  0.0000 </r>
        <r>  0.0069  0.0001  0.0126  0.0005  0.0000  0.0000  0.0000  0.0000  0.0000 </r>
       </set>
       <set comment="band 29">
        <r>  0.0057  0.0020  0.0051  0.0016  0.0000  0.0000  0.0000  0.0000  0.0000 </r>
        <r>  0.0057  0.0020  0.0051  0.0016  0.0000  0.0000  0.0000  0.0000  0.0000 </r>
        <r>  0.0068  0.0023  0.0060  0.0013  0.0000  0.0000  0.0000  0.0000  0.0000 </r>
        <r>  0.0068  0.0023  0.0060  0.0013  0.0000  0.0000  0.0000  0.0000  0.0000 </r>
        <r>  0.0068  0.0023  0.0060  0.0013  0.0000  0.0000  0.0000  0.0000  0.0000 </r>
        <r>  0.0057  0.0020  0.0051  0.0016  0.0000  0.0000  0.0000  0.0000  0.0000 </r>
       </set>
       <set comment="band 30">
        <r>  0.0068  0.0023  0.0060  0.0013  0.0000  0.0000  0.0000  0.0000  0.0000 </r>
        <r>  0.0068  0.0023  0.0060  0.0013  0.0000  0.0000  0.0000  0.0000  0.0000 </r>
        <r>  0.0057  0.0020  0.0051  0.0016  0.0000  0.0000  0.0000  0.0000  0.0000 </r>
        <r>  0.0057  0.0020  0.0051  0.0016  0.0000  0.0000  0.0000  0.0000  0.0000 </r>
        <r>  0.0057  0.0020  0.0051  0.0016  0.0000  0.0000  0.0000  0.0000  0.0000 </r>
        <r>  0.0068  0.0023  0.0060  0.0013  0.0000  0.0000  0.0000  0.0000  0.0000 </r>
       </set>
       <set comment="band 31">
        <r>  0.0135  0.0000  0.0033  0.0051  0.0000  0.0000  0.0000  0.0000  0.0000 </r>
        <r>  0.0135  0.0000  0.0033  0.0051  0.0000  0.0000  0.0000  0.0000  0.0000 </r>
        <r>  0.0112  0.0000  0.0027  0.0062  0.0000  0.0000  0.0000  0.0000  0.0000 </r>
        <r>  0.0112  0.0000  0.0027  0.0062  0.0000  0.0000  0.0000  0.0000  0.0000 </r>
        <r>  0.0112  0.0000  0.0027  0.0062  0.0000  0.0000  0.0000  0.0000  0.0000 </r>
        <r>  0.0135  0.0000  0.0033  0.0051  0.0000  0.0000  0.0000  0.0000  0.0000 </r>
       </set>
       <set comment="band 32">
        <r>  0.0112  0.0000  0.0027  0.0062  0.0000  0.0000  0.0000  0.0000  0.0000 </r>
        <r>  0.0112  0.0000  0.0027  0.0062  0.0000  0.0000  0.0000  0.0000  0.0000 </r>
        <r>  0.0135  0.0000  0.0033  0.0051  0.0000  0.0000  0.0000  0.0000  0.0000 </r>
        <r>  0.0135  0.0000  0.0033  0.0051  0.0000  0.0000  0.0000  0.0000  0.0000 </r>
        <r>  0.0135  0.0000  0.0033  0.0051  0.0000  0.0000  0.0000  0.0000  0.0000 </r>
        <r>  0.0112  0.0000  0.0027  0.0062  0.0000  0.0000  0.0000  0.0000  0.0000 </r>
       </set>
      </set>
     </set>
    </set>
   </array>
  </projected>
 </calculation>
 <structure name="finalpos" >
  <crystal>
   <varray name="basis" >
    <v>       0.00000000       6.08351415      -0.19372350 </v>
    <v>       4.08603572       0.00000000       0.00000000 </v>
    <v>       0.00000000      -1.78751183      -8.83590426 </v>
   </varray>
   <i name="volume">    221.05302756 </i>
   <varray name="rec_basis" >
    <v>       0.00000000       0.16332651      -0.03304111 </v>
    <v>       0.24473599       0.00000000       0.00000000 </v>
    <v>       0.00000000      -0.00358087      -0.11245020 </v>
   </varray>
  </crystal>
  <varray name="positions" >
   <v>      -0.00000000       0.00000000      -0.00000000 </v>
   <v>       0.66670510      -0.00000000       0.33335552 </v>
   <v>       0.83329490       0.50000000       0.66664448 </v>
   <v>       0.50000000       0.50000000      -0.00000000 </v>
   <v>       0.16670510       0.50000000       0.33335552 </v>
   <v>       0.33329490       0.00000000       0.66664448 </v>
  </varray>
 </structure>
</modeling>
