   4   4   0   0
  0.1815523E+02  0.7068925E-09  0.7068925E-09  0.7068925E-09  0.1500000E-16
   1.0000000000000000E-004
  CAR 
 unknown system                          
     12.59736384    -20.11034328  301      6.40047396      1.00000000
    -20.110  0.0000E+00  0.0000E+00
    -20.001  0.0000E+00  0.0000E+00
    -19.892  0.0000E+00  0.0000E+00
    -19.783  0.0000E+00  0.0000E+00
    -19.674  0.0000E+00  0.0000E+00
    -19.565  0.0000E+00  0.0000E+00
    -19.456  0.0000E+00  0.0000E+00
    -19.347  0.0000E+00  0.0000E+00
    -19.238  0.0000E+00  0.0000E+00
    -19.129  0.0000E+00  0.0000E+00
    -19.020  0.0000E+00  0.0000E+00
    -18.911  0.2013E-16  0.2194E-17
    -18.802  0.2357E-07  0.2569E-08
    -18.693  0.3549E-02  0.3869E-03
    -18.584  0.3146E+00  0.3469E-01
    -18.475  0.3255E+00  0.7018E-01
    -18.366  0.3786E-02  0.7059E-01
    -18.257  0.2111E-07  0.7059E-01
    -18.148  0.5750E-17  0.7059E-01
    -18.039  0.0000E+00  0.7059E-01
    -17.930  0.0000E+00  0.7059E-01
    -17.821  0.0000E+00  0.7059E-01
    -17.712  0.0000E+00  0.7059E-01
    -17.603  0.0000E+00  0.7059E-01
    -17.494  0.0000E+00  0.7059E-01
    -17.385  0.0000E+00  0.7059E-01
    -17.276  0.0000E+00  0.7059E-01
    -17.167  0.0000E+00  0.7059E-01
    -17.058  0.0000E+00  0.7059E-01
    -16.949  0.0000E+00  0.7059E-01
    -16.840  0.0000E+00  0.7059E-01
    -16.731  0.0000E+00  0.7059E-01
    -16.622  0.0000E+00  0.7059E-01
    -16.512  0.0000E+00  0.7059E-01
    -16.403  0.0000E+00  0.7059E-01
    -16.294  0.0000E+00  0.7059E-01
    -16.185  0.0000E+00  0.7059E-01
    -16.076  0.0000E+00  0.7059E-01
    -15.967  0.0000E+00  0.7059E-01
    -15.858  0.0000E+00  0.7059E-01
    -15.749  0.0000E+00  0.7059E-01
    -15.640  0.0000E+00  0.7059E-01
    -15.531  0.0000E+00  0.7059E-01
    -15.422  0.0000E+00  0.7059E-01
    -15.313  0.0000E+00  0.7059E-01
    -15.204  0.0000E+00  0.7059E-01
    -15.095  0.0000E+00  0.7059E-01
    -14.986  0.0000E+00  0.7059E-01
    -14.877  0.0000E+00  0.7059E-01
    -14.768  0.0000E+00  0.7059E-01
    -14.659  0.0000E+00  0.7059E-01
    -14.550  0.0000E+00  0.7059E-01
    -14.441  0.0000E+00  0.7059E-01
    -14.332  0.0000E+00  0.7059E-01
    -14.223  0.0000E+00  0.7059E-01
    -14.114  0.0000E+00  0.7059E-01
    -14.005  0.0000E+00  0.7059E-01
    -13.896  0.0000E+00  0.7059E-01
    -13.787  0.0000E+00  0.7059E-01
    -13.678  0.0000E+00  0.7059E-01
    -13.569  0.0000E+00  0.7059E-01
    -13.460  0.0000E+00  0.7059E-01
    -13.351  0.0000E+00  0.7059E-01
    -13.242  0.0000E+00  0.7059E-01
    -13.133  0.0000E+00  0.7059E-01
    -13.024  0.0000E+00  0.7059E-01
    -12.915  0.0000E+00  0.7059E-01
    -12.806  0.0000E+00  0.7059E-01
    -12.697  0.0000E+00  0.7059E-01
    -12.588  0.0000E+00  0.7059E-01
    -12.479  0.0000E+00  0.7059E-01
    -12.370  0.0000E+00  0.7059E-01
    -12.260  0.0000E+00  0.7059E-01
    -12.151  0.0000E+00  0.7059E-01
    -12.042  0.0000E+00  0.7059E-01
    -11.933  0.0000E+00  0.7059E-01
    -11.824  0.0000E+00  0.7059E-01
    -11.715  0.0000E+00  0.7059E-01
    -11.606  0.0000E+00  0.7059E-01
    -11.497  0.0000E+00  0.7059E-01
    -11.388  0.0000E+00  0.7059E-01
    -11.279  0.0000E+00  0.7059E-01
    -11.170  0.0000E+00  0.7059E-01
    -11.061  0.0000E+00  0.7059E-01
    -10.952  0.0000E+00  0.7059E-01
    -10.843  0.0000E+00  0.7059E-01
    -10.734  0.0000E+00  0.7059E-01
    -10.625  0.0000E+00  0.7059E-01
    -10.516  0.0000E+00  0.7059E-01
    -10.407  0.0000E+00  0.7059E-01
    -10.298  0.0000E+00  0.7059E-01
    -10.189  0.0000E+00  0.7059E-01
    -10.080  0.1474E-11  0.7059E-01
     -9.971  0.3633E-05  0.7059E-01
     -9.862  0.2487E-02  0.7086E-01
     -9.753  0.6002E-02  0.7151E-01
     -9.644  0.1395E-03  0.7153E-01
     -9.535  0.7935E-06  0.7153E-01
     -9.426  0.5056E-02  0.7208E-01
     -9.317  0.4294E-01  0.7676E-01
     -9.208  0.3798E-02  0.7718E-01
     -9.099  0.4038E-06  0.7718E-01
     -8.990  0.7437E-14  0.7718E-01
     -8.881  0.0000E+00  0.7718E-01
     -8.772  0.1974E-10  0.7718E-01
     -8.663  0.3749E-04  0.7718E-01
     -8.554  0.1954E-01  0.7931E-01
     -8.445  0.3194E-01  0.8279E-01
     -8.336  0.3030E-03  0.8283E-01
     -8.227  0.1558E-01  0.8452E-01
     -8.118  0.3570E-01  0.8842E-01
     -8.008  0.6212E-03  0.8848E-01
     -7.899  0.3752E-02  0.8889E-01
     -7.790  0.4443E-02  0.8938E-01
     -7.681  0.7670E-02  0.9021E-01
     -7.572  0.7103E-01  0.9796E-01
     -7.463  0.2517E-01  0.1007E+00
     -7.354  0.3266E-02  0.1011E+00
     -7.245  0.1090E+00  0.1129E+00
     -7.136  0.4310E-01  0.1176E+00
     -7.027  0.7277E-04  0.1176E+00
     -6.918  0.4607E-10  0.1176E+00
     -6.809  0.0000E+00  0.1176E+00
     -6.700  0.0000E+00  0.1176E+00
     -6.591  0.0000E+00  0.1176E+00
     -6.482  0.0000E+00  0.1176E+00
     -6.373  0.0000E+00  0.1176E+00
     -6.264  0.0000E+00  0.1176E+00
     -6.155  0.0000E+00  0.1176E+00
     -6.046  0.0000E+00  0.1176E+00
     -5.937  0.0000E+00  0.1176E+00
     -5.828  0.0000E+00  0.1176E+00
     -5.719  0.0000E+00  0.1176E+00
     -5.610  0.0000E+00  0.1176E+00
     -5.501  0.0000E+00  0.1176E+00
     -5.392  0.0000E+00  0.1176E+00
     -5.283  0.0000E+00  0.1176E+00
     -5.174  0.0000E+00  0.1176E+00
     -5.065  0.0000E+00  0.1176E+00
     -4.956  0.0000E+00  0.1176E+00
     -4.847  0.0000E+00  0.1176E+00
     -4.738  0.0000E+00  0.1176E+00
     -4.629  0.0000E+00  0.1176E+00
     -4.520  0.0000E+00  0.1176E+00
     -4.411  0.0000E+00  0.1176E+00
     -4.302  0.0000E+00  0.1176E+00
     -4.193  0.0000E+00  0.1176E+00
     -4.084  0.0000E+00  0.1176E+00
     -3.975  0.0000E+00  0.1176E+00
     -3.866  0.0000E+00  0.1176E+00
     -3.756  0.0000E+00  0.1176E+00
     -3.647  0.0000E+00  0.1176E+00
     -3.538  0.0000E+00  0.1176E+00
     -3.429  0.0000E+00  0.1176E+00
     -3.320  0.6977E-13  0.1176E+00
     -3.211  0.2325E-05  0.1176E+00
     -3.102  0.1037E-01  0.1188E+00
     -2.993  0.4077E-01  0.1232E+00
     -2.884  0.6590E-03  0.1233E+00
     -2.775  0.1689E-04  0.1233E+00
     -2.666  0.1846E-01  0.1253E+00
     -2.557  0.3312E-01  0.1289E+00
     -2.448  0.1936E-03  0.1289E+00
     -2.339  0.2707E-09  0.1289E+00
     -2.230  0.4371E-06  0.1289E+00
     -2.121  0.3391E-02  0.1293E+00
     -2.012  0.4066E-01  0.1337E+00
     -1.903  0.7742E-02  0.1346E+00
     -1.794  0.3482E-05  0.1346E+00
     -1.685  0.2459E-05  0.1346E+00
     -1.576  0.9299E-03  0.1347E+00
     -1.467  0.3086E-02  0.1350E+00
     -1.358  0.2041E-01  0.1373E+00
     -1.249  0.6577E-02  0.1380E+00
     -1.140  0.1570E-01  0.1397E+00
     -1.031  0.1196E-01  0.1410E+00
     -0.922  0.1759E-02  0.1412E+00
     -0.813  0.6237E-06  0.1412E+00
     -0.704  0.3055E-03  0.1412E+00
     -0.595  0.3285E-01  0.1448E+00
     -0.486  0.5664E-01  0.1510E+00
     -0.377  0.1379E-01  0.1525E+00
     -0.268  0.4421E-03  0.1525E+00
     -0.159  0.2193E-01  0.1549E+00
     -0.050  0.2685E-01  0.1578E+00
      0.059  0.2658E-02  0.1581E+00
      0.168  0.1598E-01  0.1599E+00
      0.277  0.3400E-01  0.1636E+00
      0.386  0.1097E-01  0.1648E+00
      0.496  0.1772E-01  0.1667E+00
      0.605  0.5597E-02  0.1673E+00
      0.714  0.2226E-01  0.1697E+00
      0.823  0.2058E-01  0.1720E+00
      0.932  0.1950E-01  0.1741E+00
      1.041  0.2138E-01  0.1764E+00
      1.150  0.3030E-01  0.1797E+00
      1.259  0.2699E-01  0.1827E+00
      1.368  0.3657E-02  0.1831E+00
      1.477  0.1843E-01  0.1851E+00
      1.586  0.4047E-01  0.1895E+00
      1.695  0.2274E-01  0.1920E+00
      1.804  0.1185E-03  0.1920E+00
      1.913  0.3534E-02  0.1924E+00
      2.022  0.4545E-01  0.1973E+00
      2.131  0.3142E-01  0.2008E+00
      2.240  0.1525E-01  0.2024E+00
      2.349  0.3312E-01  0.2060E+00
      2.458  0.6942E-01  0.2136E+00
      2.567  0.2535E-01  0.2164E+00
      2.676  0.5412E-01  0.2223E+00
      2.785  0.2334E-01  0.2248E+00
      2.894  0.2087E-01  0.2271E+00
      3.003  0.1797E-01  0.2291E+00
      3.112  0.4335E-01  0.2338E+00
      3.221  0.4304E-01  0.2385E+00
      3.330  0.1044E-01  0.2396E+00
      3.439  0.3002E-01  0.2429E+00
      3.548  0.6537E-01  0.2500E+00
      3.657  0.2825E-01  0.2531E+00
      3.766  0.3857E-02  0.2535E+00
      3.875  0.4381E-01  0.2583E+00
      3.984  0.4900E-02  0.2588E+00
      4.093  0.5754E-06  0.2588E+00
      4.202  0.1153E-13  0.2588E+00
      4.311  0.0000E+00  0.2588E+00
      4.420  0.0000E+00  0.2588E+00
      4.529  0.0000E+00  0.2588E+00
      4.638  0.0000E+00  0.2588E+00
      4.748  0.0000E+00  0.2588E+00
      4.857  0.6121E-12  0.2588E+00
      4.966  0.4074E-05  0.2588E+00
      5.075  0.4475E-02  0.2593E+00
      5.184  0.1740E-01  0.2612E+00
      5.293  0.1043E-01  0.2623E+00
      5.402  0.1660E-01  0.2642E+00
      5.511  0.2884E-02  0.2645E+00
      5.620  0.2187E-05  0.2645E+00
      5.729  0.7977E-03  0.2646E+00
      5.838  0.9251E-03  0.2647E+00
      5.947  0.2517E-03  0.2647E+00
      6.056  0.1635E-01  0.2665E+00
      6.165  0.1027E-01  0.2676E+00
      6.274  0.1774E-01  0.2695E+00
      6.383  0.8692E-02  0.2705E+00
      6.492  0.2014E-02  0.2707E+00
      6.601  0.8624E-02  0.2716E+00
      6.710  0.4470E-01  0.2765E+00
      6.819  0.4855E-01  0.2818E+00
      6.928  0.5106E-02  0.2824E+00
      7.037  0.4925E-06  0.2824E+00
      7.146  0.6102E-14  0.2824E+00
      7.255  0.0000E+00  0.2824E+00
      7.364  0.0000E+00  0.2824E+00
      7.473  0.1416E-12  0.2824E+00
      7.582  0.1319E-05  0.2824E+00
      7.691  0.3015E-02  0.2827E+00
      7.800  0.1475E-01  0.2843E+00
      7.909  0.2057E-02  0.2845E+00
      8.018  0.9273E-02  0.2855E+00
      8.127  0.2416E-01  0.2882E+00
      8.236  0.3083E-01  0.2915E+00
      8.345  0.7381E-02  0.2923E+00
      8.454  0.6145E-02  0.2930E+00
      8.563  0.2984E-01  0.2962E+00
      8.672  0.2624E-01  0.2991E+00
      8.781  0.1959E-01  0.3012E+00
      8.890  0.4783E-01  0.3065E+00
      9.000  0.1633E-02  0.3066E+00
      9.109  0.8745E-02  0.3076E+00
      9.218  0.3069E-01  0.3109E+00
      9.327  0.2739E-01  0.3139E+00
      9.436  0.4270E-01  0.3186E+00
      9.545  0.4856E-01  0.3239E+00
      9.654  0.4469E-01  0.3287E+00
      9.763  0.2238E-01  0.3312E+00
      9.872  0.3781E-01  0.3353E+00
      9.981  0.1881E-01  0.3374E+00
     10.090  0.1589E-01  0.3391E+00
     10.199  0.4784E-01  0.3443E+00
     10.308  0.4244E-01  0.3489E+00
     10.417  0.7393E-01  0.3570E+00
     10.526  0.3153E-01  0.3604E+00
     10.635  0.4978E-01  0.3659E+00
     10.744  0.2463E-01  0.3685E+00
     10.853  0.1520E-01  0.3702E+00
     10.962  0.4272E-01  0.3749E+00
     11.071  0.5776E-02  0.3755E+00
     11.180  0.8745E-02  0.3764E+00
     11.289  0.2575E-03  0.3765E+00
     11.398  0.2336E-08  0.3765E+00
     11.507  0.2300E-17  0.3765E+00
     11.616  0.0000E+00  0.3765E+00
     11.725  0.0000E+00  0.3765E+00
     11.834  0.0000E+00  0.3765E+00
     11.943  0.0000E+00  0.3765E+00
     12.052  0.0000E+00  0.3765E+00
     12.161  0.0000E+00  0.3765E+00
     12.270  0.0000E+00  0.3765E+00
     12.379  0.0000E+00  0.3765E+00
     12.488  0.0000E+00  0.3765E+00
     12.597  0.0000E+00  0.3765E+00
