   4   4   0   0
  0.1815523E+02  0.7068925E-09  0.7068925E-09  0.7068925E-09  0.1500000E-16
   1.0000000000000000E-004
  CAR 
 unknown system                          
     26.24501094    -20.76028705  301      6.40056076      1.00000000
    -20.760  0.0000E+00  0.0000E+00
    -20.604  0.0000E+00  0.0000E+00
    -20.447  0.0000E+00  0.0000E+00
    -20.290  0.0000E+00  0.0000E+00
    -20.134  0.0000E+00  0.0000E+00
    -19.977  0.0000E+00  0.0000E+00
    -19.820  0.0000E+00  0.0000E+00
    -19.663  0.0000E+00  0.0000E+00
    -19.507  0.0000E+00  0.0000E+00
    -19.350  0.0000E+00  0.0000E+00
    -19.193  0.0000E+00  0.0000E+00
    -19.037  0.0000E+00  0.0000E+00
    -18.880  0.1352E-13  0.2119E-14
    -18.723  0.2103E-03  0.3295E-04
    -18.567  0.2883E+00  0.4520E-01
    -18.410  0.1620E+00  0.7059E-01
    -18.253  0.5602E-05  0.7059E-01
    -18.097  0.0000E+00  0.7059E-01
    -17.940  0.0000E+00  0.7059E-01
    -17.783  0.0000E+00  0.7059E-01
    -17.627  0.0000E+00  0.7059E-01
    -17.470  0.0000E+00  0.7059E-01
    -17.313  0.0000E+00  0.7059E-01
    -17.157  0.0000E+00  0.7059E-01
    -17.000  0.0000E+00  0.7059E-01
    -16.843  0.0000E+00  0.7059E-01
    -16.686  0.0000E+00  0.7059E-01
    -16.530  0.0000E+00  0.7059E-01
    -16.373  0.0000E+00  0.7059E-01
    -16.216  0.0000E+00  0.7059E-01
    -16.060  0.0000E+00  0.7059E-01
    -15.903  0.0000E+00  0.7059E-01
    -15.746  0.0000E+00  0.7059E-01
    -15.590  0.0000E+00  0.7059E-01
    -15.433  0.0000E+00  0.7059E-01
    -15.276  0.0000E+00  0.7059E-01
    -15.120  0.0000E+00  0.7059E-01
    -14.963  0.0000E+00  0.7059E-01
    -14.806  0.0000E+00  0.7059E-01
    -14.650  0.0000E+00  0.7059E-01
    -14.493  0.0000E+00  0.7059E-01
    -14.336  0.0000E+00  0.7059E-01
    -14.180  0.0000E+00  0.7059E-01
    -14.023  0.0000E+00  0.7059E-01
    -13.866  0.0000E+00  0.7059E-01
    -13.709  0.0000E+00  0.7059E-01
    -13.553  0.0000E+00  0.7059E-01
    -13.396  0.0000E+00  0.7059E-01
    -13.239  0.0000E+00  0.7059E-01
    -13.083  0.0000E+00  0.7059E-01
    -12.926  0.0000E+00  0.7059E-01
    -12.769  0.0000E+00  0.7059E-01
    -12.613  0.0000E+00  0.7059E-01
    -12.456  0.0000E+00  0.7059E-01
    -12.299  0.0000E+00  0.7059E-01
    -12.143  0.0000E+00  0.7059E-01
    -11.986  0.0000E+00  0.7059E-01
    -11.829  0.0000E+00  0.7059E-01
    -11.673  0.0000E+00  0.7059E-01
    -11.516  0.0000E+00  0.7059E-01
    -11.359  0.0000E+00  0.7059E-01
    -11.203  0.0000E+00  0.7059E-01
    -11.046  0.0000E+00  0.7059E-01
    -10.889  0.0000E+00  0.7059E-01
    -10.732  0.0000E+00  0.7059E-01
    -10.576  0.0000E+00  0.7059E-01
    -10.419  0.0000E+00  0.7059E-01
    -10.262  0.0000E+00  0.7059E-01
    -10.106  0.8472E-14  0.7059E-01
     -9.949  0.1714E-04  0.7059E-01
     -9.792  0.5229E-02  0.7141E-01
     -9.636  0.7605E-03  0.7153E-01
     -9.479  0.1345E-03  0.7155E-01
     -9.322  0.3248E-01  0.7664E-01
     -9.166  0.3427E-02  0.7718E-01
     -9.009  0.8447E-09  0.7718E-01
     -8.852  0.8003E-18  0.7718E-01
     -8.696  0.8309E-06  0.7718E-01
     -8.539  0.1902E-01  0.8016E-01
     -8.382  0.1702E-01  0.8282E-01
     -8.226  0.1118E-01  0.8458E-01
     -8.069  0.2486E-01  0.8847E-01
     -7.912  0.2290E-02  0.8883E-01
     -7.755  0.3782E-02  0.8942E-01
     -7.599  0.3915E-01  0.9555E-01
     -7.442  0.3287E-01  0.1007E+00
     -7.285  0.3865E-01  0.1068E+00
     -7.129  0.6945E-01  0.1176E+00
     -6.972  0.2494E-04  0.1176E+00
     -6.815  0.0000E+00  0.1176E+00
     -6.659  0.0000E+00  0.1176E+00
     -6.502  0.0000E+00  0.1176E+00
     -6.345  0.0000E+00  0.1176E+00
     -6.189  0.0000E+00  0.1176E+00
     -6.032  0.0000E+00  0.1176E+00
     -5.875  0.0000E+00  0.1176E+00
     -5.719  0.0000E+00  0.1176E+00
     -5.562  0.0000E+00  0.1176E+00
     -5.405  0.0000E+00  0.1176E+00
     -5.249  0.0000E+00  0.1176E+00
     -5.092  0.0000E+00  0.1176E+00
     -4.935  0.0000E+00  0.1176E+00
     -4.778  0.0000E+00  0.1176E+00
     -4.622  0.0000E+00  0.1176E+00
     -4.465  0.0000E+00  0.1176E+00
     -4.308  0.0000E+00  0.1176E+00
     -4.152  0.0000E+00  0.1176E+00
     -3.995  0.0000E+00  0.1176E+00
     -3.838  0.0000E+00  0.1176E+00
     -3.682  0.0000E+00  0.1176E+00
     -3.525  0.0000E+00  0.1176E+00
     -3.368  0.8003E-18  0.1176E+00
     -3.212  0.1560E-05  0.1176E+00
     -3.055  0.2485E-01  0.1215E+00
     -2.898  0.1119E-01  0.1233E+00
     -2.742  0.2432E-03  0.1233E+00
     -2.585  0.3476E-01  0.1288E+00
     -2.428  0.1034E-02  0.1289E+00
     -2.272  0.1111E-08  0.1289E+00
     -2.115  0.3130E-02  0.1294E+00
     -1.958  0.3259E-01  0.1345E+00
     -1.801  0.3227E-03  0.1346E+00
     -1.645  0.3857E-04  0.1346E+00
     -1.488  0.1671E-02  0.1349E+00
     -1.331  0.1615E-01  0.1374E+00
     -1.175  0.1261E-01  0.1394E+00
     -1.018  0.1089E-01  0.1411E+00
     -0.861  0.7002E-03  0.1412E+00
     -0.705  0.1973E-03  0.1412E+00
     -0.548  0.3835E-01  0.1472E+00
     -0.391  0.3352E-01  0.1525E+00
     -0.235  0.2001E-02  0.1528E+00
     -0.078  0.2935E-01  0.1574E+00
      0.079  0.4949E-02  0.1582E+00
      0.235  0.2845E-01  0.1626E+00
      0.392  0.1408E-01  0.1648E+00
      0.549  0.1477E-01  0.1671E+00
      0.705  0.1546E-01  0.1696E+00
      0.862  0.2082E-01  0.1728E+00
      1.019  0.1908E-01  0.1758E+00
      1.176  0.3005E-01  0.1805E+00
      1.332  0.1568E-01  0.1830E+00
      1.489  0.1441E-01  0.1852E+00
      1.646  0.4144E-01  0.1917E+00
      1.802  0.1759E-02  0.1920E+00
      1.959  0.1096E-01  0.1937E+00
      2.116  0.4368E-01  0.2006E+00
      2.272  0.1653E-01  0.2032E+00
      2.429  0.6135E-01  0.2128E+00
      2.586  0.3117E-01  0.2176E+00
      2.742  0.3926E-01  0.2238E+00
      2.899  0.2209E-01  0.2273E+00
      3.056  0.2215E-01  0.2307E+00
      3.212  0.4768E-01  0.2382E+00
      3.369  0.1368E-01  0.2403E+00
      3.526  0.5445E-01  0.2489E+00
      3.682  0.2735E-01  0.2532E+00
      3.839  0.2315E-01  0.2568E+00
      3.996  0.1297E-01  0.2588E+00
      4.153  0.9492E-07  0.2588E+00
      4.309  0.0000E+00  0.2588E+00
      4.466  0.0000E+00  0.2588E+00
      4.623  0.0000E+00  0.2588E+00
      4.779  0.0000E+00  0.2588E+00
      4.936  0.9750E-07  0.2588E+00
      5.093  0.5053E-02  0.2596E+00
      5.249  0.1554E-01  0.2621E+00
      5.406  0.1375E-01  0.2642E+00
      5.563  0.1693E-02  0.2645E+00
      5.719  0.4323E-03  0.2645E+00
      5.876  0.7692E-03  0.2647E+00
      6.033  0.8209E-02  0.2659E+00
      6.189  0.1380E-01  0.2681E+00
      6.346  0.1238E-01  0.2700E+00
      6.503  0.4156E-02  0.2707E+00
      6.659  0.1971E-01  0.2738E+00
      6.816  0.5061E-01  0.2817E+00
      6.973  0.4061E-02  0.2824E+00
      7.130  0.5941E-09  0.2824E+00
      7.286  0.0000E+00  0.2824E+00
      7.443  0.2269E-15  0.2824E+00
      7.600  0.5284E-05  0.2824E+00
      7.756  0.9376E-02  0.2838E+00
      7.913  0.4534E-02  0.2845E+00
      8.070  0.9727E-02  0.2861E+00
      8.226  0.3381E-01  0.2914E+00
      8.383  0.6294E-02  0.2923E+00
      8.540  0.2053E-01  0.2956E+00
      8.696  0.2472E-01  0.2994E+00
      8.853  0.3890E-01  0.3055E+00
      9.010  0.7127E-02  0.3066E+00
      9.166  0.1672E-01  0.3093E+00
      9.323  0.2932E-01  0.3139E+00
      9.480  0.4190E-01  0.3204E+00
      9.636  0.4868E-01  0.3280E+00
      9.793  0.2686E-01  0.3323E+00
      9.950  0.2767E-01  0.3366E+00
     10.107  0.1951E-01  0.3396E+00
     10.263  0.4831E-01  0.3472E+00
     10.420  0.6334E-01  0.3571E+00
     10.577  0.3741E-01  0.3630E+00
     10.733  0.3508E-01  0.3685E+00
     10.890  0.2853E-01  0.3730E+00
     11.047  0.2257E-01  0.3765E+00
     11.203  0.1649E-01  0.3791E+00
     11.360  0.1497E-01  0.3814E+00
     11.517  0.3716E-01  0.3873E+00
     11.673  0.3345E-01  0.3925E+00
     11.830  0.5806E-02  0.3934E+00
     11.987  0.2349E-01  0.3971E+00
     12.143  0.1257E-01  0.3991E+00
     12.300  0.1312E-01  0.4011E+00
     12.457  0.2399E-01  0.4049E+00
     12.613  0.1881E-01  0.4078E+00
     12.770  0.1857E-01  0.4107E+00
     12.927  0.3382E-01  0.4160E+00
     13.084  0.9917E-02  0.4176E+00
     13.240  0.2843E-01  0.4220E+00
     13.397  0.6078E-01  0.4316E+00
     13.554  0.2535E-01  0.4355E+00
     13.710  0.2394E-01  0.4393E+00
     13.867  0.2644E-01  0.4434E+00
     14.024  0.2205E-01  0.4469E+00
     14.180  0.9116E-02  0.4483E+00
     14.337  0.2773E-01  0.4527E+00
     14.494  0.4056E-03  0.4527E+00
     14.650  0.5903E-02  0.4536E+00
     14.807  0.4861E-01  0.4613E+00
     14.964  0.4366E-01  0.4681E+00
     15.120  0.1825E-01  0.4710E+00
     15.277  0.2768E-01  0.4753E+00
     15.434  0.2374E-01  0.4790E+00
     15.590  0.6167E-01  0.4887E+00
     15.747  0.8510E-02  0.4900E+00
     15.904  0.2394E-01  0.4938E+00
     16.061  0.3262E-01  0.4989E+00
     16.217  0.5971E-01  0.5082E+00
     16.374  0.2850E-01  0.5127E+00
     16.531  0.3134E-01  0.5176E+00
     16.687  0.2454E-01  0.5215E+00
     16.844  0.3999E-01  0.5277E+00
     17.001  0.3251E-01  0.5328E+00
     17.157  0.1870E-02  0.5331E+00
     17.314  0.2685E-01  0.5373E+00
     17.471  0.2773E-01  0.5417E+00
     17.627  0.2967E-01  0.5463E+00
     17.784  0.4361E-01  0.5531E+00
     17.941  0.2165E-01  0.5565E+00
     18.097  0.2098E-01  0.5598E+00
     18.254  0.2146E-01  0.5632E+00
     18.411  0.2743E-01  0.5675E+00
     18.567  0.4241E-01  0.5741E+00
     18.724  0.2126E-01  0.5775E+00
     18.881  0.2716E-01  0.5817E+00
     19.038  0.1377E-01  0.5839E+00
     19.194  0.3205E-01  0.5889E+00
     19.351  0.2343E-01  0.5926E+00
     19.508  0.3649E-01  0.5983E+00
     19.664  0.4610E-01  0.6055E+00
     19.821  0.4672E-01  0.6128E+00
     19.978  0.3123E-01  0.6177E+00
     20.134  0.6047E-01  0.6272E+00
     20.291  0.1688E-01  0.6298E+00
     20.448  0.1470E-01  0.6321E+00
     20.604  0.4441E-01  0.6391E+00
     20.761  0.4066E-01  0.6455E+00
     20.918  0.3312E-01  0.6507E+00
     21.074  0.2238E-01  0.6542E+00
     21.231  0.2924E-01  0.6588E+00
     21.388  0.1661E-01  0.6614E+00
     21.544  0.3555E-01  0.6669E+00
     21.701  0.3776E-01  0.6728E+00
     21.858  0.2774E-01  0.6772E+00
     22.015  0.5992E-01  0.6866E+00
     22.171  0.4241E-01  0.6932E+00
     22.328  0.2236E-01  0.6967E+00
     22.485  0.1179E-01  0.6986E+00
     22.641  0.3509E-01  0.7041E+00
     22.798  0.2683E-01  0.7083E+00
     22.955  0.3914E-01  0.7144E+00
     23.111  0.5949E-01  0.7237E+00
     23.268  0.4305E-01  0.7305E+00
     23.425  0.2067E-01  0.7337E+00
     23.581  0.2980E-01  0.7384E+00
     23.738  0.3257E-01  0.7435E+00
     23.895  0.3036E-01  0.7482E+00
     24.051  0.1635E-01  0.7508E+00
     24.208  0.1361E-01  0.7529E+00
     24.365  0.3460E-04  0.7529E+00
     24.521  0.0000E+00  0.7529E+00
     24.678  0.0000E+00  0.7529E+00
     24.835  0.0000E+00  0.7529E+00
     24.992  0.0000E+00  0.7529E+00
     25.148  0.0000E+00  0.7529E+00
     25.305  0.0000E+00  0.7529E+00
     25.462  0.0000E+00  0.7529E+00
     25.618  0.0000E+00  0.7529E+00
     25.775  0.0000E+00  0.7529E+00
     25.932  0.0000E+00  0.7529E+00
     26.088  0.0000E+00  0.7529E+00
     26.245  0.0000E+00  0.7529E+00
