       N       E                     dE             d eps       ncg     rms          rms(c)
DAV:   1     0.301915009112E+02    0.30192E+02   -0.10441E+04  1216   0.553E+02
DAV:   2    -0.171966223762E+02   -0.47388E+02   -0.47225E+02  1824   0.736E+01
DAV:   3    -0.176766810335E+02   -0.48006E+00   -0.48006E+00  1280   0.978E+00
DAV:   4    -0.176782160632E+02   -0.15350E-02   -0.15350E-02  2368   0.630E-01
DAV:   5    -0.176782161168E+02   -0.53592E-07   -0.53672E-07  1280   0.384E-03    0.899E+00
DAV:   6    -0.173727374009E+02    0.30548E+00   -0.10379E+00  1728   0.213E+00    0.610E+00
DAV:   7    -0.173442153327E+02    0.28522E-01   -0.26816E-01  1856   0.135E+00    0.153E+00
DAV:   8    -0.173430656586E+02    0.11497E-02   -0.17349E-02  1472   0.373E-01    0.241E-01
DAV:   9    -0.173433513388E+02   -0.28568E-03   -0.23250E-03  2016   0.138E-01    0.129E-01
DAV:  10    -0.173434381961E+02   -0.86857E-04   -0.98454E-05  1632   0.337E-02    0.502E-02
DAV:  11    -0.173435074410E+02   -0.69245E-04   -0.11473E-04  1760   0.388E-02    0.153E-02
DAV:  12    -0.173435090329E+02   -0.15919E-05   -0.17120E-06  1824   0.448E-03    0.101E-02
DAV:  13    -0.173435104681E+02   -0.14352E-05   -0.19603E-06  1696   0.380E-03    0.265E-03
DAV:  14    -0.173435103541E+02    0.11397E-06   -0.42743E-08  1152   0.653E-04
   1 F= -.17343510E+02 E0= -.17343250E+02  d E =-.520361E-03
 Found     8 degrees of freedom:
 Adding 6 more for cell shape distortion
       N       E                     dE             d eps       ncg     rms          rms(c)
DAV:   1    -0.174232707076E+02   -0.79760E-01   -0.46133E+00  2912   0.100E+01    0.213E+00
DAV:   2    -0.173472873855E+02    0.75983E-01   -0.22528E-01  4352   0.202E+00    0.119E+00
DAV:   3    -0.173231239172E+02    0.24163E-01   -0.47607E-02  3392   0.920E-01    0.336E-01
DAV:   4    -0.173213460851E+02    0.17778E-02   -0.20190E-03  3712   0.172E-01    0.228E-01
DAV:   5    -0.173209380192E+02    0.40807E-03   -0.49763E-04  3808   0.907E-02    0.574E-02
DAV:   6    -0.173209325961E+02    0.54231E-05   -0.25913E-05  3584   0.239E-02    0.143E-02
DAV:   7    -0.173209327709E+02   -0.17481E-06   -0.32188E-06  3744   0.729E-03
   2 F= -.17320933E+02 E0= -.17320275E+02  d E =-.131493E-02
       N       E                     dE             d eps       ncg     rms          rms(c)
DAV:   1    -0.173623120835E+02   -0.41379E-01   -0.22633E+00  3488   0.619E+00    0.106E+00
DAV:   2    -0.173443574598E+02    0.17955E-01   -0.59683E-02  3456   0.107E+00    0.587E-01
DAV:   3    -0.173386004440E+02    0.57570E-02   -0.12672E-02  3968   0.476E-01    0.188E-01
DAV:   4    -0.173382575094E+02    0.34293E-03   -0.37281E-04  3296   0.752E-02    0.139E-01
DAV:   5    -0.173381519713E+02    0.10554E-03   -0.15177E-04  4160   0.478E-02    0.320E-02
DAV:   6    -0.173381529782E+02   -0.10069E-05   -0.63209E-06  3200   0.119E-02    0.914E-03
DAV:   7    -0.173381530846E+02   -0.10640E-06   -0.86093E-07  3520   0.349E-03
   3 F= -.17338153E+02 E0= -.17337916E+02  d E =-.473929E-03
       N       E                     dE             d eps       ncg     rms          rms(c)
DAV:   1    -0.174385120196E+02   -0.10036E+00   -0.38763E+00  2816   0.922E+00    0.228E+00
DAV:   2    -0.173615575560E+02    0.76954E-01   -0.20428E-01  4384   0.196E+00    0.126E+00
DAV:   3    -0.173372387586E+02    0.24319E-01   -0.50697E-02  3104   0.966E-01    0.358E-01
DAV:   4    -0.173359618911E+02    0.12769E-02   -0.17230E-03  3840   0.162E-01    0.278E-01
DAV:   5    -0.173355204639E+02    0.44143E-03   -0.57198E-04  3776   0.936E-02    0.480E-02
DAV:   6    -0.173355214586E+02   -0.99472E-06   -0.19931E-05  3264   0.197E-02    0.174E-02
DAV:   7    -0.173355214041E+02    0.54517E-07   -0.37916E-06  3904   0.687E-03
   4 F= -.17335521E+02 E0= -.17335338E+02  d E =-.367014E-03
       N       E                     dE             d eps       ncg     rms          rms(c)
DAV:   1    -0.173380969296E+02   -0.25755E-02   -0.26121E+00  3680   0.655E+00    0.116E+00
DAV:   2    -0.173192065515E+02    0.18890E-01   -0.63748E-02  3456   0.113E+00    0.661E-01
DAV:   3    -0.173128710482E+02    0.63355E-02   -0.12888E-02  3808   0.488E-01    0.182E-01
DAV:   4    -0.173124440728E+02    0.42698E-03   -0.45568E-04  3392   0.846E-02    0.131E-01
DAV:   5    -0.173123383666E+02    0.10571E-03   -0.14838E-04  4032   0.479E-02    0.300E-02
DAV:   6    -0.173123392368E+02   -0.87020E-06   -0.61383E-06  3200   0.114E-02
   5 F= -.17312339E+02 E0= -.17312127E+02  d E =-.425057E-03
       N       E                     dE             d eps       ncg     rms          rms(c)
DAV:   1    -0.176348649931E+02   -0.32253E+00   -0.13640E+01  2720   0.189E+01    0.390E+00
DAV:   2    -0.173925661732E+02    0.24230E+00   -0.77334E-01  4256   0.369E+00    0.200E+00
DAV:   3    -0.173280101342E+02    0.64556E-01   -0.14883E-01  3232   0.170E+00    0.566E-01
DAV:   4    -0.173233774189E+02    0.46327E-02   -0.35074E-03  3648   0.204E-01    0.384E-01
DAV:   5    -0.173216082918E+02    0.17691E-02   -0.13054E-03  3744   0.120E-01    0.116E-01
DAV:   6    -0.173215886571E+02    0.19635E-04   -0.91826E-05  3744   0.467E-02    0.233E-02
DAV:   7    -0.173215882294E+02    0.42773E-06   -0.13264E-05  3232   0.175E-02    0.674E-03
DAV:   8    -0.173215887346E+02   -0.50517E-06   -0.80808E-07  3584   0.369E-03
   6 F= -.17321589E+02 E0= -.17321065E+02  d E =-.104718E-02
       N       E                     dE             d eps       ncg     rms          rms(c)
DAV:   1    -0.173626795948E+02   -0.41091E-01   -0.22394E+00  3648   0.614E+00    0.106E+00
DAV:   2    -0.173445139337E+02    0.18166E-01   -0.57792E-02  3456   0.106E+00    0.593E-01
DAV:   3    -0.173386708197E+02    0.58431E-02   -0.13190E-02  3936   0.483E-01    0.190E-01
DAV:   4    -0.173383370664E+02    0.33375E-03   -0.36039E-04  3264   0.755E-02    0.141E-01
DAV:   5    -0.173382301942E+02    0.10687E-03   -0.16143E-04  4032   0.494E-02    0.333E-02
DAV:   6    -0.173382312204E+02   -0.10262E-05   -0.71932E-06  3328   0.127E-02    0.937E-03
DAV:   7    -0.173382313430E+02   -0.12254E-06   -0.81401E-07  3360   0.338E-03
   7 F= -.17338231E+02 E0= -.17338036E+02  d E =-.390482E-03
       N       E                     dE             d eps       ncg     rms          rms(c)
DAV:   1    -0.174389719945E+02   -0.10074E+00   -0.38752E+00  3232   0.920E+00    0.229E+00
DAV:   2    -0.173613078868E+02    0.77664E-01   -0.19623E-01  3968   0.192E+00    0.126E+00
DAV:   3    -0.173370937152E+02    0.24214E-01   -0.52875E-02  3520   0.986E-01    0.378E-01
DAV:   4    -0.173359146144E+02    0.11791E-02   -0.14795E-03  3552   0.154E-01    0.286E-01
DAV:   5    -0.173354391282E+02    0.47549E-03   -0.64142E-04  3936   0.101E-01    0.477E-02
DAV:   6    -0.173354397950E+02   -0.66674E-06   -0.22691E-05  3040   0.204E-02    0.168E-02
DAV:   7    -0.173354400658E+02   -0.27080E-06   -0.29656E-06  4320   0.601E-03
   8 F= -.17335440E+02 E0= -.17335207E+02  d E =-.466560E-03
       N       E                     dE             d eps       ncg     rms          rms(c)
DAV:   1    -0.173379239844E+02   -0.24842E-02   -0.26195E+00  3712   0.656E+00    0.114E+00
DAV:   2    -0.173191470839E+02    0.18777E-01   -0.61571E-02  3520   0.113E+00    0.663E-01
DAV:   3    -0.173128288385E+02    0.63182E-02   -0.13327E-02  3840   0.497E-01    0.182E-01
DAV:   4    -0.173124269720E+02    0.40187E-03   -0.41316E-04  3392   0.836E-02    0.134E-01
DAV:   5    -0.173123195442E+02    0.10743E-03   -0.15736E-04  4032   0.506E-02    0.315E-02
DAV:   6    -0.173123203746E+02   -0.83039E-06   -0.62214E-06  3296   0.117E-02
   9 F= -.17312320E+02 E0= -.17312068E+02  d E =-.505747E-03
       N       E                     dE             d eps       ncg     rms          rms(c)
DAV:   1    -0.176751462763E+02   -0.36283E+00   -0.11511E+01  1248   0.180E+01    0.394E+00
DAV:   2    -0.174113586633E+02    0.26379E+00   -0.64269E-01  1888   0.330E+00    0.197E+00
DAV:   3    -0.173364491958E+02    0.74909E-01   -0.22468E-01  1696   0.183E+00    0.635E-01
DAV:   4    -0.173328216570E+02    0.36275E-02   -0.43944E-03  1280   0.258E-01    0.435E-01
DAV:   5    -0.173300955196E+02    0.27261E-02   -0.24898E-03  2176   0.160E-01    0.891E-02
DAV:   6    -0.173300179409E+02    0.77579E-04   -0.11066E-04  1376   0.466E-02    0.452E-02
DAV:   7    -0.173299710088E+02    0.46932E-04   -0.25321E-05  2176   0.164E-02    0.885E-03
DAV:   8    -0.173299716794E+02   -0.67053E-06   -0.12887E-06  1248   0.562E-03
  10 F= -.17329972E+02 E0= -.17329711E+02  d E =-.520369E-03
       N       E                     dE             d eps       ncg     rms          rms(c)
DAV:   1    -0.173719194201E+02   -0.41948E-01   -0.11022E+00  1728   0.467E+00    0.109E+00
DAV:   2    -0.173500540373E+02    0.21865E-01   -0.52945E-02  1632   0.872E-01    0.588E-01
DAV:   3    -0.173439229560E+02    0.61311E-02   -0.21317E-02  1856   0.507E-01    0.217E-01
DAV:   4    -0.173437410858E+02    0.18187E-03   -0.37812E-04  1216   0.813E-02    0.152E-01
DAV:   5    -0.173436238486E+02    0.11724E-03   -0.19191E-04  2304   0.428E-02    0.257E-02
DAV:   6    -0.173436241037E+02   -0.25506E-06   -0.47983E-06  1280   0.968E-03
  11 F= -.17343624E+02 E0= -.17343364E+02  d E =-.520363E-03
       N       E                     dE             d eps       ncg     rms          rms(c)
DAV:   1    -0.174441062176E+02   -0.10048E+00   -0.45778E+00  1600   0.947E+00    0.222E+00
DAV:   2    -0.173556920600E+02    0.88414E-01   -0.22697E-01  1824   0.182E+00    0.122E+00
DAV:   3    -0.173302114021E+02    0.25481E-01   -0.84368E-02  1728   0.102E+00    0.444E-01
DAV:   4    -0.173294404288E+02    0.77097E-03   -0.15235E-03  1280   0.165E-01    0.317E-01
DAV:   5    -0.173289251951E+02    0.51523E-03   -0.79427E-04  2208   0.878E-02    0.527E-02
DAV:   6    -0.173289245058E+02    0.68928E-06   -0.21564E-05  1280   0.195E-02    0.323E-02
DAV:   7    -0.173289255439E+02   -0.10381E-05   -0.66420E-06  2016   0.860E-03    0.428E-03
DAV:   8    -0.173289252724E+02    0.27156E-06   -0.30097E-07   832   0.246E-03
  12 F= -.17328925E+02 E0= -.17328665E+02  d E =-.520381E-03
       N       E                     dE             d eps       ncg     rms          rms(c)
DAV:   1    -0.173293695178E+02   -0.44397E-03   -0.12073E+00  1664   0.493E+00    0.114E+00
DAV:   2    -0.173061485141E+02    0.23221E-01   -0.57309E-02  1888   0.927E-01    0.623E-01
DAV:   3    -0.172994127623E+02    0.67358E-02   -0.22260E-02  1792   0.527E-01    0.227E-01
DAV:   4    -0.172992196447E+02    0.19312E-03   -0.39940E-04  1280   0.845E-02    0.161E-01
DAV:   5    -0.172990940485E+02    0.12560E-03   -0.20120E-04  2144   0.441E-02    0.282E-02
DAV:   6    -0.172990943837E+02   -0.33520E-06   -0.55203E-06  1280   0.102E-02
  13 F= -.17299094E+02 E0= -.17298813E+02  d E =-.561858E-03
       N       E                     dE             d eps       ncg     rms          rms(c)
DAV:   1    -0.174816368984E+02   -0.18254E+00   -0.68495E+00  6112   0.117E+01    0.238E+00
DAV:   2    -0.173715993086E+02    0.11004E+00   -0.26974E-01  6048   0.208E+00    0.141E+00
DAV:   3    -0.173353788123E+02    0.36220E-01   -0.10417E-01  6368   0.111E+00    0.408E-01
DAV:   4    -0.173339677288E+02    0.14111E-02   -0.23589E-03  4320   0.200E-01    0.276E-01
DAV:   5    -0.173334545935E+02    0.51314E-03   -0.87731E-04  7584   0.108E-01    0.633E-02
DAV:   6    -0.173334486065E+02    0.59869E-05   -0.31283E-05  4416   0.251E-02    0.291E-02
DAV:   7    -0.173334471006E+02    0.15060E-05   -0.70885E-06  7008   0.875E-03    0.563E-03
DAV:   8    -0.173334474357E+02   -0.33508E-06   -0.41488E-07  3456   0.264E-03
  14 F= -.17333447E+02 E0= -.17333164E+02  d E =-.567286E-03
       N       E                     dE             d eps       ncg     rms          rms(c)
DAV:   1    -0.173468739038E+02   -0.13427E-01   -0.17348E+00  7072   0.483E+00    0.546E-01
DAV:   2    -0.173431548391E+02    0.37191E-02   -0.15742E-02  4512   0.528E-01    0.310E-01
DAV:   3    -0.173410827648E+02    0.20721E-02   -0.44268E-03  7520   0.220E-01    0.533E-02
DAV:   4    -0.173410728931E+02    0.98717E-05   -0.15962E-04  4320   0.576E-02    0.253E-02
DAV:   5    -0.173410713735E+02    0.15196E-05   -0.98829E-06  7648   0.122E-02    0.799E-03
DAV:   6    -0.173410714588E+02   -0.85285E-07   -0.10875E-06  4288   0.395E-03
  15 F= -.17341071E+02 E0= -.17340873E+02  d E =-.396608E-03
       N       E                     dE             d eps       ncg     rms          rms(c)
DAV:   1    -0.173681225030E+02   -0.27051E-01   -0.11699E+00  6944   0.376E+00    0.111E+00
DAV:   2    -0.173496307109E+02    0.18492E-01   -0.22484E-02  5088   0.549E-01    0.622E-01
DAV:   3    -0.173411272933E+02    0.85034E-02   -0.17118E-02  7296   0.398E-01    0.112E-01
DAV:   4    -0.173410805467E+02    0.46747E-04   -0.55852E-04  4512   0.108E-01    0.488E-02
DAV:   5    -0.173410710559E+02    0.94908E-05   -0.52859E-05  7360   0.289E-02    0.997E-03
DAV:   6    -0.173410713613E+02   -0.30543E-06   -0.37454E-06  4576   0.686E-03
  16 F= -.17341071E+02 E0= -.17340873E+02  d E =-.396714E-03
       N       E                     dE             d eps       ncg     rms          rms(c)
DAV:   1    -0.173388710208E+02    0.22000E-02   -0.19576E+00  6912   0.500E+00    0.571E-01
DAV:   2    -0.173356132462E+02    0.32578E-02   -0.18120E-02  4896   0.565E-01    0.311E-01
DAV:   3    -0.173335042318E+02    0.21090E-02   -0.36226E-03  7360   0.196E-01    0.772E-02
DAV:   4    -0.173334513360E+02    0.52896E-04   -0.19734E-04  4544   0.652E-02    0.269E-02
DAV:   5    -0.173334474370E+02    0.38991E-05   -0.22705E-05  7264   0.183E-02    0.596E-03
DAV:   6    -0.173334475580E+02   -0.12108E-06   -0.13404E-06  4544   0.425E-03
  17 F= -.17333448E+02 E0= -.17333164E+02  d E =-.567168E-03
       N       E                     dE             d eps       ncg     rms          rms(c)
DAV:   1    -0.173931004615E+02   -0.59653E-01   -0.40620E+00  4384   0.751E+00    0.153E+00
DAV:   2    -0.173560520973E+02    0.37048E-01   -0.52417E-02  2880   0.950E-01    0.890E-01
DAV:   3    -0.173334239302E+02    0.22628E-01   -0.37568E-02  4800   0.651E-01    0.137E-01
DAV:   4    -0.173328862377E+02    0.53769E-03   -0.15003E-03  2624   0.181E-01    0.639E-02
DAV:   5    -0.173326307165E+02    0.25552E-03   -0.31274E-04  4704   0.608E-02    0.115E-02
DAV:   6    -0.173325952144E+02    0.35502E-04   -0.17495E-05  2688   0.162E-02    0.606E-03
DAV:   7    -0.173325758468E+02    0.19368E-04   -0.22658E-06  4640   0.494E-03    0.160E-03
DAV:   8    -0.173325713700E+02    0.44768E-05   -0.14608E-07  1696   0.148E-03    0.601E-04
DAV:   9    -0.173325679956E+02    0.33744E-05   -0.50528E-08  1792   0.799E-04    0.299E-04
DAV:  10    -0.173325677626E+02    0.23304E-06   -0.53334E-09  1472   0.334E-04
  18 F= -.17332568E+02 E0= -.17332327E+02  d E =-.481278E-03
       N       E                     dE             d eps       ncg     rms          rms(c)
DAV:   1    -0.173477832759E+02   -0.15215E-01   -0.18236E+00  4224   0.490E+00    0.568E-01
DAV:   2    -0.173433249987E+02    0.44583E-02   -0.18214E-02  2848   0.574E-01    0.324E-01
DAV:   3    -0.173407730952E+02    0.25519E-02   -0.50999E-03  4640   0.270E-01    0.520E-02
DAV:   4    -0.173407710369E+02    0.20583E-05   -0.19271E-04  2752   0.678E-02    0.291E-02
DAV:   5    -0.173407689008E+02    0.21361E-05   -0.10898E-05  4544   0.150E-02    0.904E-03
DAV:   6    -0.173407691024E+02   -0.20165E-06   -0.12545E-06  2720   0.530E-03
  19 F= -.17340769E+02 E0= -.17340514E+02  d E =-.509839E-03
       N       E                     dE             d eps       ncg     rms          rms(c)
DAV:   1    -0.173728100199E+02   -0.32041E-01   -0.13632E+00  4256   0.402E+00    0.115E+00
DAV:   2    -0.173510739089E+02    0.21736E-01   -0.24463E-02  3104   0.604E-01    0.647E-01
DAV:   3    -0.173407703967E+02    0.10304E-01   -0.19543E-02  4704   0.485E-01    0.109E-01
DAV:   4    -0.173407397253E+02    0.30671E-04   -0.62807E-04  2624   0.127E-01    0.548E-02
DAV:   5    -0.173407279937E+02    0.11732E-04   -0.60900E-05  4608   0.371E-02    0.885E-03
DAV:   6    -0.173407284676E+02   -0.47391E-06   -0.37024E-06  2912   0.788E-03
  20 F= -.17340728E+02 E0= -.17340473E+02  d E =-.511448E-03
       N       E                     dE             d eps       ncg     rms          rms(c)
DAV:   1    -0.173388112332E+02    0.19168E-02   -0.20784E+00  4256   0.498E+00    0.596E-01
DAV:   2    -0.173348500253E+02    0.39612E-02   -0.19180E-02  2848   0.586E-01    0.323E-01
DAV:   3    -0.173323089651E+02    0.25411E-02   -0.41573E-03  4704   0.244E-01    0.751E-02
DAV:   4    -0.173322553599E+02    0.53605E-04   -0.23135E-04  2720   0.789E-02    0.293E-02
DAV:   5    -0.173322518243E+02    0.35357E-05   -0.26595E-05  4576   0.234E-02    0.575E-03
DAV:   6    -0.173322519910E+02   -0.16673E-06   -0.11579E-06  2720   0.435E-03
  21 F= -.17332252E+02 E0= -.17332006E+02  d E =-.492881E-03
       N       E                     dE             d eps       ncg     rms          rms(c)
DAV:   1    -0.173956972993E+02   -0.63445E-01   -0.40975E+00  7168   0.696E+00    0.162E+00
DAV:   2    -0.173531348466E+02    0.42562E-01   -0.58354E-02  4448   0.941E-01    0.914E-01
DAV:   3    -0.173326917833E+02    0.20443E-01   -0.39188E-02  7680   0.653E-01    0.156E-01
DAV:   4    -0.173326234237E+02    0.68360E-04   -0.12809E-03  4096   0.178E-01    0.807E-02
DAV:   5    -0.173325985138E+02    0.24910E-04   -0.11669E-04  7776   0.520E-02    0.142E-02
DAV:   6    -0.173325992909E+02   -0.77710E-06   -0.80162E-06  4384   0.115E-02
  22 F= -.17332599E+02 E0= -.17332355E+02  d E =-.488357E-03
       N       E                     dE             d eps       ncg     rms          rms(c)
DAV:   1    -0.173479000208E+02   -0.15302E-01   -0.18984E+00  7264   0.510E+00    0.561E-01
DAV:   2    -0.173433175554E+02    0.45825E-02   -0.16334E-02  4256   0.556E-01    0.322E-01
DAV:   3    -0.173407940059E+02    0.25235E-02   -0.52099E-03  7968   0.271E-01    0.510E-02
DAV:   4    -0.173407903068E+02    0.36991E-05   -0.17957E-04  4064   0.654E-02    0.282E-02
DAV:   5    -0.173407886887E+02    0.16181E-05   -0.98530E-06  8000   0.145E-02    0.911E-03
DAV:   6    -0.173407888804E+02   -0.19168E-06   -0.10645E-06  4032   0.512E-03
  23 F= -.17340789E+02 E0= -.17340534E+02  d E =-.510718E-03
       N       E                     dE             d eps       ncg     rms          rms(c)
DAV:   1    -0.173731441076E+02   -0.32355E-01   -0.13118E+00  7104   0.392E+00    0.113E+00
DAV:   2    -0.173511489153E+02    0.21995E-01   -0.23568E-02  4992   0.586E-01    0.644E-01
DAV:   3    -0.173408281779E+02    0.10321E-01   -0.19906E-02  7712   0.484E-01    0.108E-01
DAV:   4    -0.173407989471E+02    0.29231E-04   -0.60839E-04  4160   0.123E-01    0.538E-02
DAV:   5    -0.173407882650E+02    0.10682E-04   -0.57049E-05  7712   0.365E-02    0.858E-03
DAV:   6    -0.173407887424E+02   -0.47742E-06   -0.36375E-06  4384   0.778E-03
  24 F= -.17340789E+02 E0= -.17340533E+02  d E =-.510737E-03
       N       E                     dE             d eps       ncg     rms          rms(c)
DAV:   1    -0.173393065056E+02    0.14818E-02   -0.21764E+00  7104   0.518E+00    0.584E-01
DAV:   2    -0.173352216035E+02    0.40849E-02   -0.18785E-02  4480   0.587E-01    0.323E-01
DAV:   3    -0.173326538804E+02    0.25677E-02   -0.42787E-03  7968   0.244E-01    0.745E-02
DAV:   4    -0.173326030731E+02    0.50807E-04   -0.21627E-04  4160   0.768E-02    0.291E-02
DAV:   5    -0.173325995879E+02    0.34852E-05   -0.25923E-05  7808   0.231E-02    0.569E-03
DAV:   6    -0.173325997738E+02   -0.18588E-06   -0.11920E-06  4224   0.435E-03
  25 F= -.17332600E+02 E0= -.17332356E+02  d E =-.488344E-03
       N       E                     dE             d eps       ncg     rms          rms(c)
DAV:   1    -0.173695182439E+02   -0.36919E-01   -0.53743E+00  4320   0.776E+00    0.113E+00
DAV:   2    -0.173533800008E+02    0.16138E-01   -0.79470E-02  7424   0.116E+00    0.645E-01
DAV:   3    -0.173429847690E+02    0.10395E-01   -0.19537E-02  4992   0.487E-01    0.104E-01
DAV:   4    -0.173430013800E+02   -0.16611E-04   -0.99311E-04  7040   0.142E-01    0.541E-02
DAV:   5    -0.173429898899E+02    0.11490E-04   -0.37223E-05  5184   0.307E-02    0.122E-02
DAV:   6    -0.173429906278E+02   -0.73790E-06   -0.53673E-06  6880   0.102E-02
  26 F= -.17342991E+02 E0= -.17342730E+02  d E =-.520361E-03
       N       E                     dE             d eps       ncg     rms          rms(c)
DAV:   1    -0.173419044784E+02    0.10854E-02   -0.40806E+00  4032   0.499E+00    0.130E-02
DAV:   2    -0.173433692939E+02   -0.14648E-02   -0.14464E-02  4256   0.326E-01    0.571E-03
DAV:   3    -0.173433790844E+02   -0.97904E-05   -0.93796E-05  7648   0.276E-02    0.204E-03
DAV:   4    -0.173433791985E+02   -0.11407E-06   -0.24330E-07  4288   0.196E-03
  27 F= -.17343379E+02 E0= -.17343119E+02  d E =-.520361E-03
       N       E                     dE             d eps       ncg     rms          rms(c)
DAV:   1    -0.173425093692E+02    0.86972E-03   -0.19528E+00  4192   0.338E+00    0.242E-02
DAV:   2    -0.173433708213E+02   -0.86145E-03   -0.79191E-03  4416   0.228E-01    0.121E-02
DAV:   3    -0.173433786880E+02   -0.78667E-05   -0.63822E-05  7488   0.239E-02    0.353E-03
DAV:   4    -0.173433791243E+02   -0.43636E-06   -0.57087E-07  4352   0.308E-03
  28 F= -.17343379E+02 E0= -.17343119E+02  d E =-.520361E-03
       N       E                     dE             d eps       ncg     rms          rms(c)
DAV:   1    -0.173414831335E+02    0.18956E-02   -0.40801E+00  4032   0.499E+00    0.144E-02
DAV:   2    -0.173429805296E+02   -0.14974E-02   -0.14784E-02  4320   0.326E-01    0.735E-03
DAV:   3    -0.173429906909E+02   -0.10161E-04   -0.95398E-05  7584   0.270E-02    0.414E-03
DAV:   4    -0.173429908443E+02   -0.15344E-06   -0.48959E-07  4384   0.270E-03
  29 F= -.17342991E+02 E0= -.17342731E+02  d E =-.520361E-03
       N       E                     dE             d eps       ncg     rms          rms(c)
DAV:   1    -0.173384164670E+02    0.45742E-02   -0.71438E+00  1216   0.736E+00    0.796E-02
DAV:   2    -0.173424819413E+02   -0.40655E-02   -0.39476E-02  1376   0.601E-01    0.326E-02
DAV:   3    -0.173425127752E+02   -0.30834E-04   -0.29656E-04  2304   0.670E-02    0.192E-02
DAV:   4    -0.173425044736E+02    0.83016E-05   -0.84376E-06  1344   0.939E-03    0.406E-03
DAV:   5    -0.173425012052E+02    0.32684E-05   -0.95539E-07  2240   0.368E-03    0.173E-03
DAV:   6    -0.173424998362E+02    0.13690E-05   -0.84389E-08  1056   0.940E-04    0.849E-04
DAV:   7    -0.173424981348E+02    0.17014E-05   -0.49842E-08  1024   0.782E-04    0.258E-04
DAV:   8    -0.173424980576E+02    0.77174E-07   -0.37836E-09   704   0.269E-04
  30 F= -.17342498E+02 E0= -.17342238E+02  d E =-.520361E-03
       N       E                     dE             d eps       ncg     rms          rms(c)
DAV:   1    -0.173428331394E+02   -0.33500E-03   -0.88331E-01  1216   0.253E+00    0.403E-02
DAV:   2    -0.173433422913E+02   -0.50915E-03   -0.48523E-03  1280   0.213E-01    0.150E-02
DAV:   3    -0.173433495686E+02   -0.72773E-05   -0.47849E-05  2304   0.273E-02    0.891E-03
DAV:   4    -0.173433500059E+02   -0.43735E-06   -0.99421E-07  1344   0.323E-03
  31 F= -.17343350E+02 E0= -.17343090E+02  d E =-.520361E-03
       N       E                     dE             d eps       ncg     rms          rms(c)
DAV:   1    -0.173408816526E+02    0.24679E-02   -0.35531E+00  1216   0.513E+00    0.805E-02
DAV:   2    -0.173429303763E+02   -0.20487E-02   -0.19683E-02  1280   0.429E-01    0.301E-02
DAV:   3    -0.173429593471E+02   -0.28971E-04   -0.19161E-04  2336   0.550E-02    0.178E-02
DAV:   4    -0.173429613495E+02   -0.20024E-05   -0.41131E-06  1376   0.654E-03    0.431E-03
DAV:   5    -0.173429615495E+02   -0.19993E-06   -0.48031E-07  2080   0.267E-03
  32 F= -.17342962E+02 E0= -.17342701E+02  d E =-.520361E-03
       N       E                     dE             d eps       ncg     rms          rms(c)
DAV:   1    -0.173411978447E+02    0.17635E-02   -0.88334E-01  1216   0.253E+00    0.405E-02
DAV:   2    -0.173417099817E+02   -0.51214E-03   -0.48792E-03  1280   0.213E-01    0.152E-02
DAV:   3    -0.173417175573E+02   -0.75756E-05   -0.48391E-05  2336   0.276E-02    0.897E-03
DAV:   4    -0.173417181331E+02   -0.57585E-06   -0.10649E-06  1376   0.334E-03
  33 F= -.17341718E+02 E0= -.17341458E+02  d E =-.520361E-03
       N       E                     dE             d eps       ncg     rms          rms(c)
DAV:   1    -0.173387399232E+02    0.29776E-02   -0.37558E+00  4032   0.570E+00    0.212E-01
DAV:   2    -0.173420120960E+02   -0.32722E-02   -0.32217E-02  6464   0.671E-01    0.942E-02
DAV:   3    -0.173420455294E+02   -0.33433E-04   -0.19727E-04  5696   0.539E-02    0.477E-02
DAV:   4    -0.173420539533E+02   -0.84239E-05   -0.17584E-05  6432   0.151E-02    0.830E-03
DAV:   5    -0.173420541984E+02   -0.24516E-06   -0.14316E-06  5504   0.443E-03
  34 F= -.17342054E+02 E0= -.17341794E+02  d E =-.520309E-03
       N       E                     dE             d eps       ncg     rms          rms(c)
DAV:   1    -0.173428781728E+02   -0.82422E-03   -0.24609E-01  4032   0.123E+00    0.755E-02
DAV:   2    -0.173431440398E+02   -0.26587E-03   -0.26981E-03  7552   0.185E-01    0.518E-02
DAV:   3    -0.173431444658E+02   -0.42598E-06   -0.15904E-05  4480   0.119E-02    0.146E-02
DAV:   4    -0.173431451613E+02   -0.69553E-06   -0.15905E-06  7488   0.475E-03
  35 F= -.17343145E+02 E0= -.17342885E+02  d E =-.520355E-03
       N       E                     dE             d eps       ncg     rms          rms(c)
DAV:   1    -0.173430317662E+02    0.11270E-03   -0.11815E-01  4192   0.843E-01    0.170E-01
DAV:   2    -0.173431334937E+02   -0.10173E-03   -0.12340E-03  7456   0.126E-01    0.943E-02
DAV:   3    -0.173431432127E+02   -0.97190E-05   -0.71913E-05  4608   0.258E-02    0.165E-02
DAV:   4    -0.173431451054E+02   -0.18926E-05   -0.42044E-06  7392   0.830E-03    0.547E-03
DAV:   5    -0.173431451556E+02   -0.50181E-07   -0.86552E-07  4224   0.265E-03
  36 F= -.17343145E+02 E0= -.17342885E+02  d E =-.520355E-03
       N       E                     dE             d eps       ncg     rms          rms(c)
DAV:   1    -0.173418023510E+02    0.13428E-02   -0.24475E-01  4032   0.122E+00    0.101E-01
DAV:   2    -0.173420499312E+02   -0.24758E-03   -0.25604E-03  7584   0.181E-01    0.450E-02
DAV:   3    -0.173420524334E+02   -0.25022E-05   -0.82540E-06  4448   0.919E-03    0.206E-02
DAV:   4    -0.173420542360E+02   -0.18026E-05   -0.34048E-06  7552   0.658E-03    0.252E-03
DAV:   5    -0.173420542491E+02   -0.13128E-07   -0.31894E-07  4192   0.175E-03
  37 F= -.17342054E+02 E0= -.17341794E+02  d E =-.520309E-03
       N       E                     dE             d eps       ncg     rms          rms(c)
DAV:   1    -0.173384042963E+02    0.36499E-02   -0.41794E-01  1216   0.173E+00    0.324E-01
DAV:   2    -0.173371344609E+02    0.12698E-02   -0.14496E-02  2240   0.376E-01    0.240E-01
DAV:   3    -0.173370521352E+02    0.82326E-04   -0.59909E-04  1280   0.935E-02    0.136E-01
DAV:   4    -0.173370308024E+02    0.21333E-04   -0.21453E-04  2272   0.405E-02    0.192E-02
DAV:   5    -0.173370298337E+02    0.96866E-06   -0.82892E-06  1376   0.932E-03
  38 F= -.17337030E+02 E0= -.17336770E+02  d E =-.520361E-03
       N       E                     dE             d eps       ncg     rms          rms(c)
DAV:   1    -0.173423030948E+02   -0.52723E-02   -0.50535E-02  1216   0.624E-01    0.146E-01
DAV:   2    -0.173419383476E+02    0.36475E-03   -0.31327E-03  2080   0.164E-01    0.107E-01
DAV:   3    -0.173419220408E+02    0.16307E-04   -0.14777E-04  1344   0.458E-02    0.631E-02
DAV:   4    -0.173419187497E+02    0.32911E-05   -0.49048E-05  2176   0.187E-02    0.920E-03
DAV:   5    -0.173419184642E+02    0.28552E-06   -0.18614E-06  1312   0.416E-03
  39 F= -.17341918E+02 E0= -.17341658E+02  d E =-.520361E-03
       N       E                     dE             d eps       ncg     rms          rms(c)
DAV:   1    -0.173433959627E+02   -0.14772E-02   -0.20064E-01  1216   0.124E+00    0.290E-01
DAV:   2    -0.173419194219E+02    0.14765E-02   -0.12481E-02  2080   0.328E-01    0.212E-01
DAV:   3    -0.173418531119E+02    0.66310E-04   -0.59419E-04  1376   0.919E-02    0.126E-01
DAV:   4    -0.173418403438E+02    0.12768E-04   -0.20244E-04  2240   0.381E-02    0.190E-02
DAV:   5    -0.173418392014E+02    0.11424E-05   -0.75821E-06  1408   0.840E-03    0.652E-03
DAV:   6    -0.173418390374E+02    0.16406E-06   -0.23503E-06  2112   0.395E-03
  40 F= -.17341839E+02 E0= -.17341579E+02  d E =-.520361E-03
       N       E                     dE             d eps       ncg     rms          rms(c)
DAV:   1    -0.173372431055E+02    0.45961E-02   -0.50296E-02  1216   0.623E-01    0.146E-01
DAV:   2    -0.173368750942E+02    0.36801E-03   -0.31279E-03  2144   0.162E-01    0.106E-01
DAV:   3    -0.173368581421E+02    0.16952E-04   -0.14378E-04  1344   0.451E-02    0.630E-02
DAV:   4    -0.173368552007E+02    0.29414E-05   -0.51503E-05  2208   0.192E-02    0.953E-03
DAV:   5    -0.173368548904E+02    0.31024E-06   -0.20422E-06  1376   0.432E-03
  41 F= -.17336855E+02 E0= -.17336595E+02  d E =-.520361E-03
       N       E                     dE             d eps       ncg     rms          rms(c)
DAV:   1    -0.173407937114E+02   -0.39385E-02   -0.12779E+00  4032   0.270E+00    0.347E-01
DAV:   2    -0.173418735133E+02   -0.10798E-02   -0.40097E-02  7648   0.716E-01    0.245E-01
DAV:   3    -0.173417388933E+02    0.13462E-03   -0.95479E-04  4128   0.114E-01    0.125E-01
DAV:   4    -0.173417223917E+02    0.16502E-04   -0.19465E-04  7648   0.398E-02    0.284E-02
DAV:   5    -0.173417230633E+02   -0.67161E-06   -0.85131E-06  4256   0.108E-02
  42 F= -.17341723E+02 E0= -.17341465E+02  d E =-.516392E-03
       N       E                     dE             d eps       ncg     rms          rms(c)
DAV:   1    -0.173420907504E+02   -0.36836E-03   -0.11741E+00  4032   0.233E+00    0.828E-02
DAV:   2    -0.173430877954E+02   -0.99704E-03   -0.10652E-02  7648   0.375E-01    0.439E-02
DAV:   3    -0.173430751867E+02    0.12609E-04   -0.26011E-05  4320   0.156E-02    0.177E-02
DAV:   4    -0.173430740559E+02    0.11309E-05   -0.48781E-06  7744   0.725E-03    0.276E-03
DAV:   5    -0.173430740138E+02    0.42062E-07   -0.52303E-07  4128   0.214E-03
  43 F= -.17343074E+02 E0= -.17342814E+02  d E =-.519353E-03
       N       E                     dE             d eps       ncg     rms          rms(c)
DAV:   1    -0.173428413931E+02    0.23266E-03   -0.61363E-01  4096   0.164E+00    0.172E-01
DAV:   2    -0.173431335005E+02   -0.29211E-03   -0.52506E-03  7296   0.259E-01    0.818E-02
DAV:   3    -0.173430738699E+02    0.59631E-04   -0.26251E-04  4384   0.424E-02    0.195E-02
DAV:   4    -0.173430741619E+02   -0.29202E-06   -0.11126E-05  7552   0.141E-02    0.952E-03
DAV:   5    -0.173430739560E+02    0.20593E-06   -0.24666E-06  4352   0.468E-03
  44 F= -.17343074E+02 E0= -.17342814E+02  d E =-.519354E-03
       N       E                     dE             d eps       ncg     rms          rms(c)
DAV:   1    -0.173408788888E+02    0.21953E-02   -0.12088E+00  4032   0.236E+00    0.903E-02
DAV:   2    -0.173417395063E+02   -0.86062E-03   -0.91310E-03  7424   0.357E-01    0.381E-02
DAV:   3    -0.173417225515E+02    0.16955E-04   -0.74946E-05  4352   0.222E-02    0.128E-02
DAV:   4    -0.173417230022E+02   -0.45070E-06   -0.50253E-06  7616   0.862E-03
  45 F= -.17341723E+02 E0= -.17341465E+02  d E =-.516376E-03
       N       E                     dE             d eps       ncg     rms          rms(c)
DAV:   1    -0.173369936569E+02    0.47289E-02   -0.22116E+00  1216   0.339E+00    0.289E-01
DAV:   2    -0.173379446473E+02   -0.95099E-03   -0.25030E-02  2208   0.576E-01    0.156E-01
DAV:   3    -0.173379758681E+02   -0.31221E-04   -0.48178E-04  1408   0.705E-02    0.698E-02
DAV:   4    -0.173380999139E+02   -0.12405E-03   -0.14908E-04  2208   0.326E-02    0.178E-02
DAV:   5    -0.173381415310E+02   -0.41617E-04   -0.11870E-05  1376   0.110E-02    0.642E-03
DAV:   6    -0.173381502030E+02   -0.86721E-05   -0.24834E-06  2176   0.459E-03    0.235E-03
DAV:   7    -0.173381521505E+02   -0.19475E-05   -0.10701E-07   736   0.114E-03    0.101E-03
DAV:   8    -0.173381559338E+02   -0.37833E-05   -0.11583E-07   896   0.944E-04    0.173E-04
DAV:   9    -0.173381559267E+02    0.70984E-08   -0.10970E-08   704   0.440E-04
  46 F= -.17338156E+02 E0= -.17337896E+02  d E =-.520369E-03
       N       E                     dE             d eps       ncg     rms          rms(c)
DAV:   1    -0.173417982404E+02   -0.36423E-02   -0.27675E-01  1216   0.119E+00    0.122E-01
DAV:   2    -0.173418260387E+02   -0.27798E-04   -0.42276E-03  2080   0.223E-01    0.664E-02
DAV:   3    -0.173418055581E+02    0.20481E-04   -0.90679E-05  1504   0.302E-02    0.312E-02
DAV:   4    -0.173418028179E+02    0.27402E-05   -0.16569E-05  2080   0.111E-02    0.113E-02
DAV:   5    -0.173418030598E+02   -0.24186E-06   -0.81523E-07  1312   0.315E-03
  47 F= -.17341803E+02 E0= -.17341543E+02  d E =-.520361E-03
       N       E                     dE             d eps       ncg     rms          rms(c)
DAV:   1    -0.173432901106E+02   -0.14873E-02   -0.11071E+00  1216   0.239E+00    0.237E-01
DAV:   2    -0.173433675683E+02   -0.77458E-04   -0.17259E-02  2080   0.453E-01    0.130E-01
DAV:   3    -0.173432879817E+02    0.79587E-04   -0.36201E-04  1472   0.613E-02    0.618E-02
DAV:   4    -0.173432771310E+02    0.10851E-04   -0.67760E-05  2144   0.226E-02    0.228E-02
DAV:   5    -0.173432777907E+02   -0.65974E-06   -0.33281E-06  1248   0.643E-03
  48 F= -.17343278E+02 E0= -.17343018E+02  d E =-.520362E-03
       N       E                     dE             d eps       ncg     rms          rms(c)
DAV:   1    -0.173410923919E+02    0.21847E-02   -0.27719E-01  1216   0.119E+00    0.116E-01
DAV:   2    -0.173410978326E+02   -0.54407E-05   -0.43623E-03  2112   0.225E-01    0.628E-02
DAV:   3    -0.173410773156E+02    0.20517E-04   -0.88404E-05  1408   0.305E-02    0.303E-02
DAV:   4    -0.173410742805E+02    0.30351E-05   -0.18430E-05  2176   0.117E-02    0.119E-02
DAV:   5    -0.173410745581E+02   -0.27754E-06   -0.89711E-07  1248   0.335E-03
  49 F= -.17341075E+02 E0= -.17340814E+02  d E =-.520365E-03
       N       E                     dE             d eps       ncg     rms          rms(c)
DAV:   1    -0.173370679597E+02    0.40063E-02   -0.21600E+00  4032   0.342E+00    0.342E-01
DAV:   2    -0.173418013883E+02   -0.47334E-02   -0.66105E-02  7584   0.919E-01    0.156E-01
DAV:   3    -0.173416206054E+02    0.18078E-03   -0.86850E-04  4320   0.921E-02    0.656E-02
DAV:   4    -0.173416067823E+02    0.13823E-04   -0.14297E-04  7616   0.345E-02    0.297E-02
DAV:   5    -0.173416071006E+02   -0.31838E-06   -0.86820E-06  4672   0.107E-02
  50 F= -.17341607E+02 E0= -.17341349E+02  d E =-.516835E-03
       N       E                     dE             d eps       ncg     rms          rms(c)
DAV:   1    -0.173421371244E+02   -0.53034E-03   -0.11751E+00  4032   0.234E+00    0.801E-02
DAV:   2    -0.173430519812E+02   -0.91486E-03   -0.97619E-03  7712   0.364E-01    0.433E-02
DAV:   3    -0.173430396411E+02    0.12340E-04   -0.31243E-05  4352   0.163E-02    0.138E-02
DAV:   4    -0.173430392036E+02    0.43749E-06   -0.29878E-06  7552   0.622E-03
  51 F= -.17343039E+02 E0= -.17342779E+02  d E =-.519475E-03
       N       E                     dE             d eps       ncg     rms          rms(c)
DAV:   1    -0.173428053854E+02    0.23426E-03   -0.61246E-01  4128   0.164E+00    0.170E-01
DAV:   2    -0.173430935521E+02   -0.28817E-03   -0.49518E-03  7360   0.254E-01    0.814E-02
DAV:   3    -0.173430390324E+02    0.54520E-04   -0.24001E-04  4320   0.398E-02    0.189E-02
DAV:   4    -0.173430393071E+02   -0.27478E-06   -0.10068E-05  7616   0.133E-02    0.877E-03
DAV:   5    -0.173430391272E+02    0.17994E-06   -0.23049E-06  4416   0.436E-03
  52 F= -.17343039E+02 E0= -.17342779E+02  d E =-.519472E-03
       N       E                     dE             d eps       ncg     rms          rms(c)
DAV:   1    -0.173406741413E+02    0.23652E-02   -0.12063E+00  4032   0.236E+00    0.921E-02
DAV:   2    -0.173416222744E+02   -0.94813E-03   -0.99414E-03  7552   0.367E-01    0.388E-02
DAV:   3    -0.173416063354E+02    0.15939E-04   -0.64248E-05  4288   0.203E-02    0.145E-02
DAV:   4    -0.173416066213E+02   -0.28592E-06   -0.63326E-06  7648   0.874E-03
  53 F= -.17341607E+02 E0= -.17341348E+02  d E =-.516828E-03
       N       E                     dE             d eps       ncg     rms          rms(c)
DAV:   1    -0.173406708008E+02    0.93553E-03   -0.21995E+00  1216   0.339E+00    0.276E-01
DAV:   2    -0.173413415559E+02   -0.67076E-03   -0.27680E-02  2112   0.600E-01    0.158E-01
DAV:   3    -0.173409737995E+02    0.36776E-03   -0.49095E-04  1408   0.721E-02    0.709E-02
DAV:   4    -0.173407482725E+02    0.22553E-03   -0.13290E-04  2144   0.314E-02    0.169E-02
DAV:   5    -0.173406957572E+02    0.52515E-04   -0.10647E-05  1344   0.106E-02    0.618E-03
DAV:   6    -0.173406859703E+02    0.97869E-05   -0.24044E-06  2080   0.449E-03    0.226E-03
DAV:   7    -0.173406856065E+02    0.36380E-06   -0.78500E-08   768   0.104E-03
  54 F= -.17340686E+02 E0= -.17340425E+02  d E =-.520365E-03
       N       E                     dE             d eps       ncg     rms          rms(c)
DAV:   1    -0.173430673737E+02   -0.23814E-02   -0.27681E-01  1216   0.118E+00    0.118E-01
DAV:   2    -0.173430645130E+02    0.28607E-05   -0.43261E-03  2080   0.221E-01    0.645E-02
DAV:   3    -0.173430452853E+02    0.19228E-04   -0.85874E-05  1376   0.305E-02    0.311E-02
DAV:   4    -0.173430422799E+02    0.30055E-05   -0.19926E-05  2176   0.119E-02    0.122E-02
DAV:   5    -0.173430421405E+02    0.13934E-06   -0.86508E-07  1248   0.329E-03
  55 F= -.17343042E+02 E0= -.17342782E+02  d E =-.520362E-03
       N       E                     dE             d eps       ncg     rms          rms(c)
DAV:   1    -0.173421126330E+02    0.92965E-03   -0.11075E+00  1216   0.237E+00    0.240E-01
DAV:   2    -0.173421439173E+02   -0.31284E-04   -0.17014E-02  2080   0.442E-01    0.132E-01
DAV:   3    -0.173420656251E+02    0.78292E-04   -0.34959E-04  1408   0.610E-02    0.629E-02
DAV:   4    -0.173420542007E+02    0.11424E-04   -0.77358E-05  2176   0.236E-02    0.242E-02
DAV:   5    -0.173420541859E+02    0.14781E-07   -0.35367E-06  1312   0.658E-03
  56 F= -.17342054E+02 E0= -.17341794E+02  d E =-.520361E-03
       N       E                     dE             d eps       ncg     rms          rms(c)
DAV:   1    -0.173386278625E+02    0.34263E-02   -0.27721E-01  1216   0.119E+00    0.120E-01
DAV:   2    -0.173386547173E+02   -0.26855E-04   -0.42617E-03  2080   0.222E-01    0.673E-02
DAV:   3    -0.173386357794E+02    0.18938E-04   -0.88518E-05  1376   0.303E-02    0.319E-02
DAV:   4    -0.173386334455E+02    0.23339E-05   -0.18356E-05  2208   0.116E-02    0.118E-02
DAV:   5    -0.173386333757E+02    0.69823E-07   -0.90122E-07  1248   0.330E-03
  57 F= -.17338633E+02 E0= -.17338373E+02  d E =-.520371E-03
