       N       E                     dE             d eps       ncg     rms          rms(c)
DAV:   1     0.128649187324E+03    0.12865E+03   -0.95335E+03   608   0.111E+03
DAV:   2    -0.580643689285E+01   -0.13446E+03   -0.13252E+03   664   0.272E+02
DAV:   3    -0.174824311612E+02   -0.11676E+02   -0.11533E+02   848   0.775E+01
DAV:   4    -0.176729478617E+02   -0.19052E+00   -0.19042E+00   728   0.113E+01
DAV:   5    -0.176779643116E+02   -0.50164E-02   -0.50159E-02   856   0.180E+00    0.907E+00
DAV:   6    -0.173708032037E+02    0.30716E+00   -0.76612E-01   680   0.425E+00    0.619E+00
DAV:   7    -0.173456206510E+02    0.25183E-01   -0.30017E-01   832   0.300E+00    0.141E+00
DAV:   8    -0.173429116891E+02    0.27090E-02   -0.17791E-02   664   0.825E-01    0.374E-01
DAV:   9    -0.173433491244E+02   -0.43744E-03   -0.29409E-03   776   0.327E-01    0.109E-01
DAV:  10    -0.173434359485E+02   -0.86824E-04   -0.18987E-04   784   0.916E-02    0.438E-02
DAV:  11    -0.173435055699E+02   -0.69621E-04   -0.90375E-05   688   0.649E-02    0.958E-03
DAV:  12    -0.173435093229E+02   -0.37530E-05   -0.80342E-06   864   0.200E-02    0.996E-03
DAV:  13    -0.173435105042E+02   -0.11813E-05   -0.16350E-06   584   0.719E-03    0.417E-03
DAV:  14    -0.173435104116E+02    0.92592E-07   -0.21692E-07   496   0.323E-03
   1 F= -.17343510E+02 E0= -.17343250E+02  d E =-.520361E-03
 Found     8 degrees of freedom:
 Adding 6 more for cell shape distortion
       N       E                     dE             d eps       ncg     rms          rms(c)
DAV:   1    -0.174207942149E+02   -0.77284E-01   -0.42977E+00  1408   0.201E+01    0.226E+00
DAV:   2    -0.173476598238E+02    0.73134E-01   -0.18898E-01  1664   0.410E+00    0.112E+00
DAV:   3    -0.173230642167E+02    0.24596E-01   -0.63354E-02  1584   0.201E+00    0.361E-01
DAV:   4    -0.173214449103E+02    0.16193E-02   -0.27333E-03  1624   0.365E-01    0.233E-01
DAV:   5    -0.173209486631E+02    0.49625E-03   -0.57053E-04  1672   0.182E-01    0.843E-02
DAV:   6    -0.173209346505E+02    0.14013E-04   -0.11703E-04  1592   0.957E-02    0.179E-02
DAV:   7    -0.173209328485E+02    0.18020E-05   -0.16269E-05  1600   0.345E-02    0.112E-02
DAV:   8    -0.173209328903E+02   -0.41842E-07   -0.15901E-06  1120   0.946E-03
   2 F= -.17320933E+02 E0= -.17320275E+02  d E =-.131499E-02
       N       E                     dE             d eps       ncg     rms          rms(c)
DAV:   1    -0.173596054120E+02   -0.38673E-01   -0.20887E+00  1392   0.124E+01    0.114E+00
DAV:   2    -0.173443435983E+02    0.15262E-01   -0.73110E-02  1728   0.228E+00    0.558E-01
DAV:   3    -0.173385939399E+02    0.57497E-02   -0.16576E-02  1576   0.106E+00    0.219E-01
DAV:   4    -0.173382913440E+02    0.30260E-03   -0.70006E-04  1632   0.198E-01    0.148E-01
DAV:   5    -0.173381511938E+02    0.14015E-03   -0.17438E-04  1632   0.102E-01    0.466E-02
DAV:   6    -0.173381539421E+02   -0.27483E-05   -0.25764E-05  1616   0.446E-02    0.129E-02
DAV:   7    -0.173381529363E+02    0.10058E-05   -0.46426E-06  1400   0.166E-02    0.617E-03
DAV:   8    -0.173381530944E+02   -0.15804E-06   -0.38149E-07   784   0.476E-03
   3 F= -.17338153E+02 E0= -.17337916E+02  d E =-.473937E-03
       N       E                     dE             d eps       ncg     rms          rms(c)
DAV:   1    -0.174365254508E+02   -0.98373E-01   -0.36042E+00  1488   0.184E+01    0.248E+00
DAV:   2    -0.173616965890E+02    0.74829E-01   -0.17366E-01  1656   0.382E+00    0.119E+00
DAV:   3    -0.173375519757E+02    0.24145E-01   -0.60429E-02  1648   0.197E+00    0.409E-01
DAV:   4    -0.173360756941E+02    0.14763E-02   -0.25887E-03  1568   0.364E-01    0.283E-01
DAV:   5    -0.173355210047E+02    0.55469E-03   -0.64567E-04  1720   0.193E-01    0.822E-02
DAV:   6    -0.173355245815E+02   -0.35768E-05   -0.79096E-05  1528   0.787E-02    0.198E-02
DAV:   7    -0.173355213433E+02    0.32383E-05   -0.17284E-05  1640   0.342E-02    0.976E-03
DAV:   8    -0.173355216329E+02   -0.28964E-06   -0.12311E-06   984   0.892E-03
   4 F= -.17335522E+02 E0= -.17335338E+02  d E =-.366993E-03
       N       E                     dE             d eps       ncg     rms          rms(c)
DAV:   1    -0.173344756264E+02    0.10457E-02   -0.24042E+00  1432   0.131E+01    0.129E+00
DAV:   2    -0.173194270098E+02    0.15049E-01   -0.81510E-02  1656   0.244E+00    0.621E-01
DAV:   3    -0.173129886580E+02    0.64384E-02   -0.15007E-02  1656   0.102E+00    0.209E-01
DAV:   4    -0.173124822994E+02    0.50636E-03   -0.68482E-04  1632   0.186E-01    0.142E-01
DAV:   5    -0.173123378278E+02    0.14447E-03   -0.17416E-04  1696   0.988E-02    0.404E-02
DAV:   6    -0.173123394790E+02   -0.16513E-05   -0.18420E-05  1592   0.382E-02    0.111E-02
DAV:   7    -0.173123392616E+02    0.21738E-06   -0.14991E-06  1088   0.103E-02
   5 F= -.17312339E+02 E0= -.17312127E+02  d E =-.425129E-03
       N       E                     dE             d eps       ncg     rms          rms(c)
DAV:   1    -0.176296690389E+02   -0.31733E+00   -0.12662E+01  1584   0.377E+01    0.405E+00
DAV:   2    -0.173929466248E+02    0.23672E+00   -0.62173E-01  1584   0.757E+00    0.187E+00
DAV:   3    -0.173284076150E+02    0.64539E-01   -0.19258E-01  1656   0.362E+00    0.591E-01
DAV:   4    -0.173234644103E+02    0.49432E-02   -0.58542E-03  1496   0.518E-01    0.374E-01
DAV:   5    -0.173216699591E+02    0.17945E-02   -0.14702E-03  1648   0.260E-01    0.141E-01
DAV:   6    -0.173215952705E+02    0.74689E-04   -0.24600E-04  1552   0.146E-01    0.427E-02
DAV:   7    -0.173215881621E+02    0.71084E-05   -0.42118E-05  1672   0.522E-02    0.133E-02
DAV:   8    -0.173215885699E+02   -0.40780E-06   -0.29279E-06  1496   0.132E-02
   6 F= -.17321589E+02 E0= -.17321065E+02  d E =-.104730E-02
       N       E                     dE             d eps       ncg     rms          rms(c)
DAV:   1    -0.173599280866E+02   -0.38340E-01   -0.20694E+00  1448   0.123E+01    0.113E+00
DAV:   2    -0.173444726129E+02    0.15455E-01   -0.72401E-02  1712   0.228E+00    0.561E-01
DAV:   3    -0.173386514037E+02    0.58212E-02   -0.16848E-02  1624   0.107E+00    0.219E-01
DAV:   4    -0.173383694292E+02    0.28197E-03   -0.72407E-04  1616   0.204E-01    0.148E-01
DAV:   5    -0.173382297239E+02    0.13971E-03   -0.17498E-04  1656   0.104E-01    0.498E-02
DAV:   6    -0.173382318771E+02   -0.21532E-05   -0.28155E-05  1632   0.462E-02    0.149E-02
DAV:   7    -0.173382311313E+02    0.74584E-06   -0.38216E-06  1392   0.149E-02
   7 F= -.17338231E+02 E0= -.17338036E+02  d E =-.390483E-03
       N       E                     dE             d eps       ncg     rms          rms(c)
DAV:   1    -0.174360622480E+02   -0.97830E-01   -0.35949E+00  1472   0.184E+01    0.248E+00
DAV:   2    -0.173615572435E+02    0.74505E-01   -0.17251E-01  1656   0.381E+00    0.120E+00
DAV:   3    -0.173374311373E+02    0.24126E-01   -0.60926E-02  1616   0.199E+00    0.417E-01
DAV:   4    -0.173360141222E+02    0.14170E-02   -0.26238E-03  1592   0.369E-01    0.287E-01
DAV:   5    -0.173354381362E+02    0.57599E-03   -0.66626E-04  1752   0.205E-01    0.854E-02
DAV:   6    -0.173354437825E+02   -0.56463E-05   -0.94198E-05  1552   0.869E-02    0.202E-02
DAV:   7    -0.173354397903E+02    0.39921E-05   -0.18495E-05  1624   0.357E-02    0.113E-02
DAV:   8    -0.173354401695E+02   -0.37913E-06   -0.13217E-06  1056   0.911E-03
   8 F= -.17335440E+02 E0= -.17335207E+02  d E =-.466557E-03
       N       E                     dE             d eps       ncg     rms          rms(c)
DAV:   1    -0.173340591990E+02    0.13806E-02   -0.24075E+00  1432   0.131E+01    0.130E+00
DAV:   2    -0.173193625063E+02    0.14697E-01   -0.82401E-02  1712   0.244E+00    0.614E-01
DAV:   3    -0.173129939438E+02    0.63686E-02   -0.14493E-02  1640   0.101E+00    0.213E-01
DAV:   4    -0.173124649633E+02    0.52898E-03   -0.67648E-04  1664   0.189E-01    0.142E-01
DAV:   5    -0.173123190196E+02    0.14594E-03   -0.17486E-04  1736   0.104E-01    0.386E-02
DAV:   6    -0.173123205476E+02   -0.15280E-05   -0.18100E-05  1576   0.366E-02    0.117E-02
DAV:   7    -0.173123205135E+02    0.34125E-07   -0.12721E-06  1120   0.895E-03
   9 F= -.17312321E+02 E0= -.17312068E+02  d E =-.505638E-03
       N       E                     dE             d eps       ncg     rms          rms(c)
DAV:   1    -0.176715682152E+02   -0.35925E+00   -0.10636E+01   784   0.361E+01    0.396E+00
DAV:   2    -0.174119130023E+02    0.25966E+00   -0.55603E-01   760   0.683E+00    0.189E+00
DAV:   3    -0.173366760072E+02    0.75237E-01   -0.21940E-01   776   0.365E+00    0.601E-01
DAV:   4    -0.173321251941E+02    0.45508E-02   -0.87219E-03   680   0.701E-01    0.329E-01
DAV:   5    -0.173302252979E+02    0.18999E-02   -0.14272E-03   840   0.269E-01    0.151E-01
DAV:   6    -0.173300119515E+02    0.21335E-03   -0.28786E-04   768   0.136E-01    0.446E-02
DAV:   7    -0.173299888747E+02    0.23077E-04   -0.20899E-05   808   0.415E-02    0.276E-02
DAV:   8    -0.173299695778E+02    0.19297E-04   -0.81140E-06   736   0.201E-02    0.587E-03
DAV:   9    -0.173299683372E+02    0.12405E-05   -0.51998E-07   368   0.593E-03    0.328E-03
DAV:  10    -0.173299672821E+02    0.10551E-05   -0.22345E-07   344   0.324E-03    0.145E-03
DAV:  11    -0.173299663684E+02    0.91368E-06   -0.41423E-08   344   0.174E-03
  10 F= -.17329966E+02 E0= -.17329706E+02  d E =-.520369E-03
       N       E                     dE             d eps       ncg     rms          rms(c)
DAV:   1    -0.173710166891E+02   -0.41049E-01   -0.10106E+00   736   0.933E+00    0.112E+00
DAV:   2    -0.173502075489E+02    0.20809E-01   -0.48323E-02   752   0.180E+00    0.579E-01
DAV:   3    -0.173439676854E+02    0.62399E-02   -0.19228E-02   768   0.990E-01    0.204E-01
DAV:   4    -0.173437191192E+02    0.24857E-03   -0.79090E-04   664   0.215E-01    0.122E-01
DAV:   5    -0.173436253212E+02    0.93798E-04   -0.17132E-04   816   0.864E-02    0.458E-02
DAV:   6    -0.173436244677E+02    0.85342E-06   -0.15053E-05   752   0.326E-02    0.227E-02
DAV:   7    -0.173436247812E+02   -0.31348E-06   -0.20037E-06   616   0.108E-02
  11 F= -.17343625E+02 E0= -.17343365E+02  d E =-.520363E-03
       N       E                     dE             d eps       ncg     rms          rms(c)
DAV:   1    -0.174409375458E+02   -0.97313E-01   -0.42013E+00   736   0.189E+01    0.233E+00
DAV:   2    -0.173561689922E+02    0.84769E-01   -0.20249E-01   712   0.365E+00    0.120E+00
DAV:   3    -0.173304552003E+02    0.25714E-01   -0.78302E-02   752   0.201E+00    0.434E-01
DAV:   4    -0.173293904440E+02    0.10648E-02   -0.32077E-03   672   0.434E-01    0.272E-01
DAV:   5    -0.173289323522E+02    0.45809E-03   -0.78049E-04   808   0.182E-01    0.945E-02
DAV:   6    -0.173289265614E+02    0.57909E-05   -0.70919E-05   752   0.704E-02    0.448E-02
DAV:   7    -0.173289260877E+02    0.47368E-06   -0.63155E-06   776   0.183E-02
  12 F= -.17328926E+02 E0= -.17328666E+02  d E =-.520380E-03
       N       E                     dE             d eps       ncg     rms          rms(c)
DAV:   1    -0.173283895978E+02    0.53696E-03   -0.11084E+00   728   0.986E+00    0.117E+00
DAV:   2    -0.173062921307E+02    0.22097E-01   -0.52162E-02   712   0.189E+00    0.614E-01
DAV:   3    -0.172994692934E+02    0.68228E-02   -0.21188E-02   752   0.105E+00    0.214E-01
DAV:   4    -0.172992057777E+02    0.26352E-03   -0.85729E-04   688   0.224E-01    0.137E-01
DAV:   5    -0.172990963260E+02    0.10945E-03   -0.20054E-04   824   0.922E-02    0.519E-02
DAV:   6    -0.172990948103E+02    0.15157E-05   -0.20584E-05   744   0.378E-02    0.244E-02
DAV:   7    -0.172990950673E+02   -0.25700E-06   -0.20105E-06   608   0.107E-02
  13 F= -.17299095E+02 E0= -.17298814E+02  d E =-.561584E-03
       N       E                     dE             d eps       ncg     rms          rms(c)
DAV:   1    -0.174753253347E+02   -0.17623E+00   -0.63215E+00  2392   0.233E+01    0.248E+00
DAV:   2    -0.173728738317E+02    0.10245E+00   -0.25433E-01  2552   0.433E+00    0.136E+00
DAV:   3    -0.173353331782E+02    0.37541E-01   -0.11034E-01  2584   0.237E+00    0.429E-01
DAV:   4    -0.173339662941E+02    0.13669E-02   -0.52567E-03  2256   0.552E-01    0.253E-01
DAV:   5    -0.173334880639E+02    0.47823E-03   -0.83642E-04  2952   0.211E-01    0.112E-01
DAV:   6    -0.173334509534E+02    0.37111E-04   -0.15751E-04  2528   0.101E-01    0.418E-02
DAV:   7    -0.173334484451E+02    0.25082E-05   -0.79473E-06  2712   0.231E-02    0.221E-02
DAV:   8    -0.173334473555E+02    0.10896E-05   -0.49779E-06  2560   0.168E-02    0.588E-03
DAV:   9    -0.173334474971E+02   -0.14162E-06   -0.37575E-07  1264   0.546E-03
  14 F= -.17333447E+02 E0= -.17333164E+02  d E =-.567308E-03
       N       E                     dE             d eps       ncg     rms          rms(c)
DAV:   1    -0.173439677346E+02   -0.10520E-01   -0.16145E+00  2256   0.966E+00    0.551E-01
DAV:   2    -0.173430698224E+02    0.89791E-03   -0.44135E-02  2776   0.155E+00    0.310E-01
DAV:   3    -0.173410657153E+02    0.20041E-02   -0.43103E-03  2624   0.467E-01    0.635E-02
DAV:   4    -0.173410753441E+02   -0.96288E-05   -0.44855E-04  2744   0.160E-01    0.447E-02
DAV:   5    -0.173410736572E+02    0.16869E-05   -0.12201E-05  2816   0.265E-02    0.305E-02
DAV:   6    -0.173410713469E+02    0.23103E-05   -0.11898E-05  2592   0.252E-02    0.288E-03
DAV:   7    -0.173410714873E+02   -0.14048E-06   -0.17313E-06  1808   0.961E-03
  15 F= -.17341071E+02 E0= -.17340873E+02  d E =-.396621E-03
       N       E                     dE             d eps       ncg     rms          rms(c)
DAV:   1    -0.173656688799E+02   -0.24598E-01   -0.10836E+00  2136   0.752E+00    0.115E+00
DAV:   2    -0.173500205330E+02    0.15648E-01   -0.37055E-02  2864   0.144E+00    0.625E-01
DAV:   3    -0.173413145938E+02    0.87059E-02   -0.12275E-02  2616   0.682E-01    0.185E-01
DAV:   4    -0.173410897161E+02    0.22488E-03   -0.18793E-03  2816   0.303E-01    0.687E-02
DAV:   5    -0.173410724184E+02    0.17298E-04   -0.99548E-05  2552   0.787E-02    0.225E-02
DAV:   6    -0.173410713192E+02    0.10991E-05   -0.21001E-05  2704   0.290E-02    0.108E-02
DAV:   7    -0.173410714841E+02   -0.16491E-06   -0.16130E-06  1480   0.948E-03
  16 F= -.17341071E+02 E0= -.17340873E+02  d E =-.396666E-03
       N       E                     dE             d eps       ncg     rms          rms(c)
DAV:   1    -0.173353288525E+02    0.57425E-02   -0.18073E+00  2200   0.100E+01    0.643E-01
DAV:   2    -0.173357950164E+02   -0.46616E-03   -0.48405E-02  2856   0.161E+00    0.322E-01
DAV:   3    -0.173338635122E+02    0.19315E-02   -0.18959E-03  2576   0.337E-01    0.158E-01
DAV:   4    -0.173334464280E+02    0.41708E-03   -0.95866E-04  2872   0.225E-01    0.263E-02
DAV:   5    -0.173334470186E+02   -0.59066E-06   -0.11538E-04  2304   0.798E-02    0.214E-02
DAV:   6    -0.173334475818E+02   -0.56316E-06   -0.36887E-06  2776   0.156E-02
  17 F= -.17333448E+02 E0= -.17333164E+02  d E =-.566886E-03
       N       E                     dE             d eps       ncg     rms          rms(c)
DAV:   1    -0.173841109551E+02   -0.50664E-01   -0.37255E+00  1312   0.150E+01    0.157E+00
DAV:   2    -0.173566420101E+02    0.27469E-01   -0.12063E-01  1800   0.276E+00    0.896E-01
DAV:   3    -0.173342444759E+02    0.22398E-01   -0.23408E-02  1640   0.110E+00    0.228E-01
DAV:   4    -0.173328834009E+02    0.13611E-02   -0.50109E-03  1728   0.523E-01    0.757E-02
DAV:   5    -0.173326932135E+02    0.19019E-03   -0.31328E-04  1624   0.142E-01    0.343E-02
DAV:   6    -0.173326007986E+02    0.92415E-04   -0.57956E-05  1728   0.521E-02    0.687E-03
DAV:   7    -0.173325790342E+02    0.21764E-04   -0.69440E-06  1544   0.200E-02    0.573E-03
DAV:   8    -0.173325720323E+02    0.70019E-05   -0.36897E-07   840   0.465E-03    0.163E-03
DAV:   9    -0.173325691711E+02    0.28612E-05   -0.14295E-07   784   0.292E-03    0.424E-04
DAV:  10    -0.173325680430E+02    0.11281E-05   -0.35094E-08   736   0.187E-03    0.211E-04
DAV:  11    -0.173325677543E+02    0.28870E-06   -0.11048E-08   704   0.101E-03
  18 F= -.17332568E+02 E0= -.17332327E+02  d E =-.481277E-03
       N       E                     dE             d eps       ncg     rms          rms(c)
DAV:   1    -0.173443415630E+02   -0.11774E-01   -0.16688E+00  1424   0.981E+00    0.575E-01
DAV:   2    -0.173432234924E+02    0.11181E-02   -0.51974E-02  1696   0.169E+00    0.325E-01
DAV:   3    -0.173407629100E+02    0.24606E-02   -0.45779E-03  1736   0.540E-01    0.644E-02
DAV:   4    -0.173407716468E+02   -0.87368E-05   -0.53170E-04  1576   0.175E-01    0.413E-02
DAV:   5    -0.173407702752E+02    0.13717E-05   -0.12730E-05  1728   0.293E-02    0.286E-02
DAV:   6    -0.173407690025E+02    0.12727E-05   -0.85027E-06  1560   0.281E-02    0.431E-03
DAV:   7    -0.173407691466E+02   -0.14406E-06   -0.12876E-06   944   0.970E-03
  19 F= -.17340769E+02 E0= -.17340514E+02  d E =-.509842E-03
       N       E                     dE             d eps       ncg     rms          rms(c)
DAV:   1    -0.173695208286E+02   -0.28752E-01   -0.12451E+00  1368   0.804E+00    0.119E+00
DAV:   2    -0.173515708242E+02    0.17950E-01   -0.45663E-02  1768   0.174E+00    0.652E-01
DAV:   3    -0.173409101837E+02    0.10661E-01   -0.13724E-02  1672   0.851E-01    0.163E-01
DAV:   4    -0.173407409743E+02    0.16921E-03   -0.20497E-03  1696   0.344E-01    0.666E-02
DAV:   5    -0.173407282513E+02    0.12723E-04   -0.10718E-04  1808   0.868E-02    0.176E-02
DAV:   6    -0.173407284360E+02   -0.18476E-06   -0.14633E-05  1600   0.277E-02    0.908E-03
DAV:   7    -0.173407286768E+02   -0.24073E-06   -0.13147E-06   976   0.872E-03
  20 F= -.17340729E+02 E0= -.17340473E+02  d E =-.511434E-03
       N       E                     dE             d eps       ncg     rms          rms(c)
DAV:   1    -0.173344222333E+02    0.63062E-02   -0.18945E+00  1400   0.996E+00    0.663E-01
DAV:   2    -0.173350741626E+02   -0.65193E-03   -0.57032E-02  1760   0.173E+00    0.334E-01
DAV:   3    -0.173327134024E+02    0.23608E-02   -0.20941E-03  1544   0.397E-01    0.154E-01
DAV:   4    -0.173322458963E+02    0.46751E-03   -0.10159E-03  1792   0.265E-01    0.271E-02
DAV:   5    -0.173322519268E+02   -0.60305E-05   -0.15872E-04  1400   0.990E-02    0.187E-02
DAV:   6    -0.173322518934E+02    0.33432E-07   -0.41643E-06  1736   0.169E-02
  21 F= -.17332252E+02 E0= -.17332005E+02  d E =-.492858E-03
       N       E                     dE             d eps       ncg     rms          rms(c)
DAV:   1    -0.173862189734E+02   -0.53967E-01   -0.37372E+00  2424   0.139E+01    0.167E+00
DAV:   2    -0.173540287851E+02    0.32190E-01   -0.13012E-01  2696   0.277E+00    0.925E-01
DAV:   3    -0.173331457659E+02    0.20883E-01   -0.27134E-02  2680   0.116E+00    0.248E-01
DAV:   4    -0.173326243316E+02    0.52143E-03   -0.41110E-03  2672   0.493E-01    0.999E-02
DAV:   5    -0.173326013947E+02    0.22937E-04   -0.19319E-04  2808   0.117E-01    0.417E-02
DAV:   6    -0.173325988726E+02    0.25221E-05   -0.35130E-05  2648   0.466E-02    0.787E-03
DAV:   7    -0.173325997409E+02   -0.86833E-06   -0.44604E-06  2400   0.173E-02
  22 F= -.17332600E+02 E0= -.17332356E+02  d E =-.488341E-03
       N       E                     dE             d eps       ncg     rms          rms(c)
DAV:   1    -0.173442081442E+02   -0.11609E-01   -0.17486E+00  2472   0.102E+01    0.574E-01
DAV:   2    -0.173431984806E+02    0.10097E-02   -0.52672E-02  2728   0.173E+00    0.325E-01
DAV:   3    -0.173408094515E+02    0.23890E-02   -0.43531E-03  2904   0.530E-01    0.732E-02
DAV:   4    -0.173407916412E+02    0.17810E-04   -0.51792E-04  2536   0.175E-01    0.419E-02
DAV:   5    -0.173407899887E+02    0.16524E-05   -0.15209E-05  2768   0.320E-02    0.289E-02
DAV:   6    -0.173407887590E+02    0.12298E-05   -0.77210E-06  2528   0.281E-02    0.417E-03
DAV:   7    -0.173407889191E+02   -0.16012E-06   -0.12715E-06  1592   0.970E-03
  23 F= -.17340789E+02 E0= -.17340534E+02  d E =-.510717E-03
       N       E                     dE             d eps       ncg     rms          rms(c)
DAV:   1    -0.173698302474E+02   -0.29041E-01   -0.11956E+00  2272   0.783E+00    0.116E+00
DAV:   2    -0.173516488429E+02    0.18181E-01   -0.45019E-02  2808   0.170E+00    0.652E-01
DAV:   3    -0.173409385419E+02    0.10710E-01   -0.14231E-02  2640   0.857E-01    0.162E-01
DAV:   4    -0.173408018030E+02    0.13674E-03   -0.20220E-03  2752   0.342E-01    0.657E-02
DAV:   5    -0.173407891281E+02    0.12675E-04   -0.91223E-05  2952   0.801E-02    0.225E-02
DAV:   6    -0.173407886259E+02    0.50222E-06   -0.16368E-05  2648   0.299E-02    0.735E-03
DAV:   7    -0.173407889388E+02   -0.31292E-06   -0.19077E-06  1912   0.108E-02
  24 F= -.17340789E+02 E0= -.17340534E+02  d E =-.510719E-03
       N       E                     dE             d eps       ncg     rms          rms(c)
DAV:   1    -0.173347293228E+02    0.60593E-02   -0.19925E+00  2288   0.104E+01    0.638E-01
DAV:   2    -0.173354580297E+02   -0.72871E-03   -0.58347E-02  2848   0.177E+00    0.338E-01
DAV:   3    -0.173330644963E+02    0.23935E-02   -0.21343E-03  2528   0.400E-01    0.156E-01
DAV:   4    -0.173325936614E+02    0.47083E-03   -0.10254E-03  2864   0.264E-01    0.272E-02
DAV:   5    -0.173325994423E+02   -0.57809E-05   -0.15584E-04  2352   0.985E-02    0.183E-02
DAV:   6    -0.173325996471E+02   -0.20476E-06   -0.33975E-06  2760   0.162E-02
  25 F= -.17332600E+02 E0= -.17332355E+02  d E =-.488315E-03
       N       E                     dE             d eps       ncg     rms          rms(c)
DAV:   1    -0.173635503708E+02   -0.30951E-01   -0.51823E+00  2520   0.155E+01    0.114E+00
DAV:   2    -0.173531938314E+02    0.10357E-01   -0.13132E-01  2632   0.288E+00    0.648E-01
DAV:   3    -0.173429833291E+02    0.10211E-01   -0.18674E-02  2816   0.106E+00    0.136E-01
DAV:   4    -0.173430018408E+02   -0.18512E-04   -0.20334E-03  2504   0.348E-01    0.798E-02
DAV:   5    -0.173429940103E+02    0.78305E-05   -0.57373E-05  2976   0.663E-02    0.337E-02
DAV:   6    -0.173429904449E+02    0.35655E-05   -0.27003E-05  2464   0.411E-02    0.807E-03
DAV:   7    -0.173429908098E+02   -0.36494E-06   -0.33861E-06  2360   0.149E-02
  26 F= -.17342991E+02 E0= -.17342731E+02  d E =-.520361E-03
       N       E                     dE             d eps       ncg     rms          rms(c)
DAV:   1    -0.173383405948E+02    0.46499E-02   -0.40186E+00  2024   0.998E+00    0.220E-02
DAV:   2    -0.173432740792E+02   -0.49335E-02   -0.49193E-02  2560   0.121E+00    0.975E-03
DAV:   3    -0.173433778050E+02   -0.10373E-03   -0.10447E-03  2616   0.166E-01    0.926E-03
DAV:   4    -0.173433796032E+02   -0.17982E-05   -0.34183E-05  2536   0.383E-02    0.566E-03
DAV:   5    -0.173433794436E+02    0.15958E-06   -0.51452E-06  2344   0.276E-02
  27 F= -.17343379E+02 E0= -.17343119E+02  d E =-.520361E-03
       N       E                     dE             d eps       ncg     rms          rms(c)
DAV:   1    -0.173409266621E+02    0.24529E-02   -0.19237E+00  2056   0.676E+00    0.423E-02
DAV:   2    -0.173433204349E+02   -0.23938E-02   -0.23441E-02  2496   0.816E-01    0.124E-02
DAV:   3    -0.173433768446E+02   -0.56410E-04   -0.53546E-04  2720   0.116E-01    0.962E-03
DAV:   4    -0.173433788490E+02   -0.20043E-05   -0.19403E-05  2400   0.311E-02    0.430E-03
DAV:   5    -0.173433792022E+02   -0.35326E-06   -0.99985E-07  1608   0.886E-03
  28 F= -.17343379E+02 E0= -.17343119E+02  d E =-.520361E-03
       N       E                     dE             d eps       ncg     rms          rms(c)
DAV:   1    -0.173380499225E+02    0.53289E-02   -0.40201E+00  2048   0.998E+00    0.497E-02
DAV:   2    -0.173428860015E+02   -0.48361E-02   -0.48449E-02  2552   0.119E+00    0.115E-02
DAV:   3    -0.173429894282E+02   -0.10343E-03   -0.10271E-03  2608   0.165E-01    0.141E-02
DAV:   4    -0.173429915563E+02   -0.21281E-05   -0.32978E-05  2560   0.332E-02    0.110E-02
DAV:   5    -0.173429908926E+02    0.66376E-06   -0.47113E-06  1920   0.274E-02
  29 F= -.17342991E+02 E0= -.17342731E+02  d E =-.520361E-03
       N       E                     dE             d eps       ncg     rms          rms(c)
DAV:   1    -0.173327484095E+02    0.10243E-01   -0.70452E+00   648   0.147E+01    0.112E-01
DAV:   2    -0.173422812984E+02   -0.95329E-02   -0.94057E-02   776   0.191E+00    0.285E-02
DAV:   3    -0.173425105033E+02   -0.22920E-03   -0.23859E-03   768   0.336E-01    0.186E-02
DAV:   4    -0.173425097349E+02    0.76837E-06   -0.98062E-05   784   0.849E-02    0.202E-02
DAV:   5    -0.173425071156E+02    0.26193E-05   -0.48500E-06   688   0.185E-02    0.148E-02
DAV:   6    -0.173425013680E+02    0.57476E-05   -0.30316E-06   704   0.207E-02    0.326E-03
DAV:   7    -0.173424993964E+02    0.19716E-05   -0.34677E-07   336   0.471E-03    0.810E-04
DAV:   8    -0.173424982233E+02    0.11731E-05   -0.11215E-07   304   0.295E-03    0.678E-04
DAV:   9    -0.173424980031E+02    0.22024E-06   -0.32007E-08   304   0.220E-03
  30 F= -.17342498E+02 E0= -.17342238E+02  d E =-.520361E-03
       N       E                     dE             d eps       ncg     rms          rms(c)
DAV:   1    -0.173422914058E+02    0.20682E-03   -0.87360E-01   608   0.505E+00    0.492E-02
DAV:   2    -0.173433236707E+02   -0.10323E-02   -0.99737E-03   784   0.616E-01    0.129E-02
DAV:   3    -0.173433490759E+02   -0.25405E-04   -0.25692E-04   784   0.112E-01    0.751E-03
DAV:   4    -0.173433499172E+02   -0.84125E-06   -0.10821E-05   736   0.267E-02    0.103E-02
DAV:   5    -0.173433499122E+02    0.49872E-08   -0.38722E-07   360   0.519E-03
  31 F= -.17343350E+02 E0= -.17343090E+02  d E =-.520361E-03
       N       E                     dE             d eps       ncg     rms          rms(c)
DAV:   1    -0.173384215809E+02    0.49283E-02   -0.35113E+00   608   0.103E+01    0.104E-01
DAV:   2    -0.173428451701E+02   -0.44236E-02   -0.43071E-02   792   0.127E+00    0.278E-02
DAV:   3    -0.173429583897E+02   -0.11322E-03   -0.11457E-03   776   0.240E-01    0.177E-02
DAV:   4    -0.173429610134E+02   -0.26237E-05   -0.48533E-05   832   0.590E-02    0.218E-02
DAV:   5    -0.173429609930E+02    0.20364E-07   -0.20649E-06   608   0.110E-02
  32 F= -.17342961E+02 E0= -.17342701E+02  d E =-.520361E-03
       N       E                     dE             d eps       ncg     rms          rms(c)
DAV:   1    -0.173406592573E+02    0.23018E-02   -0.87355E-01   608   0.505E+00    0.545E-02
DAV:   2    -0.173416915738E+02   -0.10323E-02   -0.99453E-03   800   0.616E-01    0.159E-02
DAV:   3    -0.173417168846E+02   -0.25311E-04   -0.25445E-04   768   0.112E-01    0.902E-03
DAV:   4    -0.173417179072E+02   -0.10225E-05   -0.11084E-05   768   0.274E-02    0.114E-02
DAV:   5    -0.173417179472E+02   -0.40036E-07   -0.43296E-07   368   0.555E-03
  33 F= -.17341718E+02 E0= -.17341458E+02  d E =-.520361E-03
       N       E                     dE             d eps       ncg     rms          rms(c)
DAV:   1    -0.173360687984E+02    0.56491E-02   -0.36922E+00  2088   0.114E+01    0.314E-01
DAV:   2    -0.173419021597E+02   -0.58334E-02   -0.58024E-02  2880   0.169E+00    0.861E-02
DAV:   3    -0.173420454095E+02   -0.14325E-03   -0.16463E-03  2416   0.307E-01    0.449E-02
DAV:   4    -0.173420511079E+02   -0.56984E-05   -0.84487E-05  2840   0.870E-02    0.289E-02
DAV:   5    -0.173420538334E+02   -0.27255E-05   -0.10683E-05  2584   0.301E-02    0.107E-02
DAV:   6    -0.173420542808E+02   -0.44736E-06   -0.58778E-07  1552   0.692E-03
  34 F= -.17342054E+02 E0= -.17341794E+02  d E =-.520309E-03
       N       E                     dE             d eps       ncg     rms          rms(c)
DAV:   1    -0.173424366259E+02   -0.38279E-03   -0.21863E-01  2080   0.246E+00    0.602E-02
DAV:   2    -0.173431374366E+02   -0.70081E-03   -0.70936E-03  2832   0.501E-01    0.626E-02
DAV:   3    -0.173431436822E+02   -0.62456E-05   -0.66725E-05  2456   0.497E-02    0.494E-02
DAV:   4    -0.173431449922E+02   -0.13100E-05   -0.11517E-05  2880   0.229E-02    0.466E-03
DAV:   5    -0.173431451762E+02   -0.18399E-06   -0.91440E-07  2048   0.671E-03
  35 F= -.17343145E+02 E0= -.17342885E+02  d E =-.520355E-03
       N       E                     dE             d eps       ncg     rms          rms(c)
DAV:   1    -0.173428249330E+02    0.32006E-03   -0.10513E-01  2072   0.169E+00    0.224E-01
DAV:   2    -0.173431325064E+02   -0.30757E-03   -0.32505E-03  2784   0.345E-01    0.755E-02
DAV:   3    -0.173431389246E+02   -0.64181E-05   -0.73684E-05  2528   0.570E-02    0.340E-02
DAV:   4    -0.173431451068E+02   -0.61823E-05   -0.16397E-05  2848   0.270E-02    0.822E-03
DAV:   5    -0.173431451209E+02   -0.14062E-07   -0.13004E-06  1776   0.804E-03
  36 F= -.17343145E+02 E0= -.17342885E+02  d E =-.520355E-03
       N       E                     dE             d eps       ncg     rms          rms(c)
DAV:   1    -0.173413573683E+02    0.17877E-02   -0.21796E-01  2048   0.245E+00    0.193E-01
DAV:   2    -0.173420503554E+02   -0.69299E-03   -0.70952E-03  2856   0.500E-01    0.366E-02
DAV:   3    -0.173420530122E+02   -0.26568E-05   -0.70131E-05  2464   0.529E-02    0.238E-02
DAV:   4    -0.173420541646E+02   -0.11524E-05   -0.15272E-05  2872   0.244E-02    0.403E-03
DAV:   5    -0.173420542290E+02   -0.64432E-07   -0.21733E-06  2336   0.965E-03
  37 F= -.17342054E+02 E0= -.17341794E+02  d E =-.520309E-03
       N       E                     dE             d eps       ncg     rms          rms(c)
DAV:   1    -0.173373946422E+02    0.46595E-02   -0.36848E-01   704   0.346E+00    0.560E-01
DAV:   2    -0.173368807293E+02    0.51391E-03   -0.26151E-02   856   0.973E-01    0.324E-01
DAV:   3    -0.173371145431E+02   -0.23381E-03   -0.31634E-03   744   0.336E-01    0.993E-02
DAV:   4    -0.173370580894E+02    0.56454E-04   -0.12343E-04   888   0.690E-02    0.606E-02
DAV:   5    -0.173370299316E+02    0.28158E-04   -0.14295E-04   792   0.665E-02    0.360E-02
DAV:   6    -0.173370301887E+02   -0.25714E-06   -0.63622E-06   776   0.172E-02
  38 F= -.17337030E+02 E0= -.17336770E+02  d E =-.520361E-03
       N       E                     dE             d eps       ncg     rms          rms(c)
DAV:   1    -0.173421377979E+02   -0.51079E-02   -0.44323E-02   680   0.125E+00    0.253E-01
DAV:   2    -0.173418740024E+02    0.26380E-03   -0.51751E-03   856   0.424E-01    0.160E-01
DAV:   3    -0.173419380224E+02   -0.64020E-04   -0.75774E-04   696   0.162E-01    0.404E-02
DAV:   4    -0.173419237689E+02    0.14254E-04   -0.29744E-05   912   0.334E-02    0.232E-02
DAV:   5    -0.173419181875E+02    0.55814E-05   -0.27158E-05   800   0.287E-02    0.168E-02
DAV:   6    -0.173419185228E+02   -0.33526E-06   -0.19164E-06   680   0.883E-03
  39 F= -.17341919E+02 E0= -.17341658E+02  d E =-.520361E-03
       N       E                     dE             d eps       ncg     rms          rms(c)
DAV:   1    -0.173426974270E+02   -0.77924E-03   -0.17586E-01   680   0.249E+00    0.515E-01
DAV:   2    -0.173416595334E+02    0.10379E-02   -0.21076E-02   856   0.858E-01    0.320E-01
DAV:   3    -0.173419185781E+02   -0.25904E-03   -0.30694E-03   696   0.328E-01    0.847E-02
DAV:   4    -0.173418620474E+02    0.56531E-04   -0.11715E-04   888   0.665E-02    0.500E-02
DAV:   5    -0.173418380210E+02    0.24026E-04   -0.11670E-04   808   0.591E-02    0.338E-02
DAV:   6    -0.173418394493E+02   -0.14283E-05   -0.78343E-06   840   0.178E-02    0.259E-02
DAV:   7    -0.173418390344E+02    0.41494E-06   -0.46528E-06   648   0.106E-02
  40 F= -.17341839E+02 E0= -.17341579E+02  d E =-.520361E-03
       N       E                     dE             d eps       ncg     rms          rms(c)
DAV:   1    -0.173370714923E+02    0.47680E-02   -0.44103E-02   680   0.125E+00    0.254E-01
DAV:   2    -0.173368123274E+02    0.25916E-03   -0.52377E-03   856   0.424E-01    0.150E-01
DAV:   3    -0.173368740348E+02   -0.61707E-04   -0.73991E-04   704   0.161E-01    0.406E-02
DAV:   4    -0.173368602173E+02    0.13817E-04   -0.29072E-05   912   0.329E-02    0.228E-02
DAV:   5    -0.173368546066E+02    0.56106E-05   -0.28099E-05   800   0.291E-02    0.156E-02
DAV:   6    -0.173368549355E+02   -0.32882E-06   -0.16798E-06   648   0.850E-03
  41 F= -.17336855E+02 E0= -.17336595E+02  d E =-.520361E-03
       N       E                     dE             d eps       ncg     rms          rms(c)
DAV:   1    -0.173384215118E+02   -0.15669E-02   -0.11624E+00  2104   0.539E+00    0.623E-01
DAV:   2    -0.173417892418E+02   -0.33677E-02   -0.68832E-02  2896   0.162E+00    0.399E-01
DAV:   3    -0.173418828079E+02   -0.93566E-04   -0.40781E-03  2432   0.408E-01    0.162E-01
DAV:   4    -0.173417552590E+02    0.12755E-03   -0.33150E-04  2984   0.105E-01    0.825E-02
DAV:   5    -0.173417208501E+02    0.34409E-04   -0.25046E-04  2728   0.889E-02    0.680E-02
DAV:   6    -0.173417249639E+02   -0.41138E-05   -0.23944E-05  2744   0.301E-02    0.526E-02
DAV:   7    -0.173417229531E+02    0.20108E-05   -0.69316E-06  2264   0.139E-02    0.182E-02
DAV:   8    -0.173417228741E+02    0.78962E-07   -0.16238E-06  1432   0.746E-03
  42 F= -.17341723E+02 E0= -.17341465E+02  d E =-.516409E-03
       N       E                     dE             d eps       ncg     rms          rms(c)
DAV:   1    -0.173394505494E+02    0.22724E-02   -0.10814E+00  2016   0.467E+00    0.171E-01
DAV:   2    -0.173430482419E+02   -0.35977E-02   -0.37608E-02  2808   0.118E+00    0.910E-02
DAV:   3    -0.173430812495E+02   -0.33008E-04   -0.43005E-04  2600   0.135E-01    0.799E-02
DAV:   4    -0.173430740183E+02    0.72313E-05   -0.35120E-05  2904   0.380E-02    0.874E-03
DAV:   5    -0.173430742118E+02   -0.19350E-06   -0.30055E-06  2400   0.119E-02
  43 F= -.17343074E+02 E0= -.17342815E+02  d E =-.519345E-03
       N       E                     dE             d eps       ncg     rms          rms(c)
DAV:   1    -0.173414574349E+02    0.16166E-02   -0.56257E-01  2032   0.329E+00    0.323E-01
DAV:   2    -0.173431764415E+02   -0.17190E-02   -0.18669E-02  2784   0.836E-01    0.853E-02
DAV:   3    -0.173430976233E+02    0.78818E-04   -0.30471E-04  2520   0.115E-01    0.547E-02
DAV:   4    -0.173430730423E+02    0.24581E-04   -0.16766E-04  2720   0.723E-02    0.180E-02
DAV:   5    -0.173430741013E+02   -0.10590E-05   -0.27432E-05  2392   0.342E-02    0.148E-02
DAV:   6    -0.173430739996E+02    0.10169E-06   -0.13185E-06  1872   0.845E-03
  44 F= -.17343074E+02 E0= -.17342814E+02  d E =-.519351E-03
       N       E                     dE             d eps       ncg     rms          rms(c)
DAV:   1    -0.173380438383E+02    0.50303E-02   -0.11085E+00  2016   0.471E+00    0.371E-01
DAV:   2    -0.173418079463E+02   -0.37641E-02   -0.39016E-02  2840   0.120E+00    0.107E-01
DAV:   3    -0.173417569338E+02    0.51013E-04   -0.44207E-04  2504   0.147E-01    0.824E-02
DAV:   4    -0.173417203992E+02    0.36535E-04   -0.15823E-04  2760   0.689E-02    0.329E-02
DAV:   5    -0.173417229074E+02   -0.25083E-05   -0.20523E-05  2416   0.278E-02    0.681E-03
DAV:   6    -0.173417231671E+02   -0.25970E-06   -0.35590E-06  2624   0.109E-02
  45 F= -.17341723E+02 E0= -.17341465E+02  d E =-.516384E-03
       N       E                     dE             d eps       ncg     rms          rms(c)
DAV:   1    -0.173318220457E+02    0.99009E-02   -0.20185E+00   608   0.678E+00    0.676E-01
DAV:   2    -0.173379231490E+02   -0.61011E-02   -0.72436E-02   832   0.182E+00    0.154E-01
DAV:   3    -0.173379661947E+02   -0.43046E-04   -0.20423E-03   744   0.291E-01    0.110E-01
DAV:   4    -0.173380165212E+02   -0.50326E-04   -0.17430E-04   832   0.852E-02    0.608E-02
DAV:   5    -0.173381001990E+02   -0.83678E-04   -0.79405E-05   816   0.503E-02    0.184E-02
DAV:   6    -0.173381353297E+02   -0.35131E-04   -0.14248E-05   872   0.223E-02    0.199E-02
DAV:   7    -0.173381454500E+02   -0.10120E-04   -0.42639E-06   624   0.112E-02    0.438E-03
DAV:   8    -0.173381515626E+02   -0.61125E-05   -0.53127E-07   376   0.455E-03    0.262E-03
DAV:   9    -0.173381554827E+02   -0.39201E-05   -0.23649E-07   344   0.333E-03    0.180E-03
DAV:  10    -0.173381557964E+02   -0.31376E-06   -0.77772E-08   328   0.235E-03
  46 F= -.17338156E+02 E0= -.17337896E+02  d E =-.520369E-03
       N       E                     dE             d eps       ncg     rms          rms(c)
DAV:   1    -0.173411341374E+02   -0.29787E-02   -0.25045E-01   608   0.238E+00    0.265E-01
DAV:   2    -0.173418347199E+02   -0.70058E-03   -0.10140E-02   832   0.691E-01    0.868E-02
DAV:   3    -0.173418101022E+02    0.24618E-04   -0.39822E-04   776   0.124E-01    0.484E-02
DAV:   4    -0.173418045777E+02    0.55246E-05   -0.41821E-05   792   0.411E-02    0.209E-02
DAV:   5    -0.173418032812E+02    0.12965E-05   -0.66686E-06   808   0.148E-02    0.103E-02
DAV:   6    -0.173418030828E+02    0.19838E-06   -0.31415E-06   688   0.101E-02
  47 F= -.17341803E+02 E0= -.17341543E+02  d E =-.520361E-03
       N       E                     dE             d eps       ncg     rms          rms(c)
DAV:   1    -0.173406634848E+02    0.11398E-02   -0.10031E+00   608   0.477E+00    0.507E-01
DAV:   2    -0.173433994679E+02   -0.27360E-02   -0.40367E-02   816   0.139E+00    0.184E-01
DAV:   3    -0.173433085866E+02    0.90881E-04   -0.16428E-03   776   0.253E-01    0.993E-02
DAV:   4    -0.173432840312E+02    0.24555E-04   -0.16532E-04   792   0.823E-02    0.399E-02
DAV:   5    -0.173432783291E+02    0.57020E-05   -0.30063E-05   816   0.315E-02    0.222E-02
DAV:   6    -0.173432778808E+02    0.44835E-06   -0.11358E-05   872   0.193E-02    0.135E-02
DAV:   7    -0.173432778149E+02    0.65867E-07   -0.22418E-06   544   0.908E-03
  48 F= -.17343278E+02 E0= -.17343018E+02  d E =-.520362E-03
       N       E                     dE             d eps       ncg     rms          rms(c)
DAV:   1    -0.173404404239E+02    0.28375E-02   -0.25145E-01   608   0.238E+00    0.265E-01
DAV:   2    -0.173411047900E+02   -0.66437E-03   -0.10037E-02   824   0.689E-01    0.854E-02
DAV:   3    -0.173410827727E+02    0.22017E-04   -0.41759E-04   744   0.127E-01    0.459E-02
DAV:   4    -0.173410763779E+02    0.63949E-05   -0.39369E-05   816   0.402E-02    0.205E-02
DAV:   5    -0.173410746755E+02    0.17024E-05   -0.80820E-06   808   0.163E-02    0.101E-02
DAV:   6    -0.173410745806E+02    0.94850E-07   -0.26455E-06   656   0.949E-03
  49 F= -.17341075E+02 E0= -.17340814E+02  d E =-.520365E-03
       N       E                     dE             d eps       ncg     rms          rms(c)
DAV:   1    -0.173338331917E+02    0.72415E-02   -0.19891E+00  2016   0.683E+00    0.864E-01
DAV:   2    -0.173420442948E+02   -0.82111E-02   -0.99300E-02  2864   0.203E+00    0.230E-01
DAV:   3    -0.173417188526E+02    0.32544E-03   -0.25900E-03  2440   0.331E-01    0.163E-01
DAV:   4    -0.173416196273E+02    0.99225E-04   -0.42244E-04  2808   0.121E-01    0.817E-02
DAV:   5    -0.173416086202E+02    0.11007E-04   -0.66573E-05  2680   0.465E-02    0.315E-02
DAV:   6    -0.173416066609E+02    0.19593E-05   -0.32117E-05  2872   0.318E-02    0.185E-02
DAV:   7    -0.173416066672E+02   -0.62503E-08   -0.52743E-06  2152   0.142E-02
  50 F= -.17341607E+02 E0= -.17341348E+02  d E =-.516837E-03
       N       E                     dE             d eps       ncg     rms          rms(c)
DAV:   1    -0.173394897848E+02    0.21169E-02   -0.10871E+00  2016   0.467E+00    0.110E-01
DAV:   2    -0.173430118767E+02   -0.35221E-02   -0.36696E-02  2840   0.117E+00    0.776E-02
DAV:   3    -0.173430460709E+02   -0.34194E-04   -0.42683E-04  2576   0.130E-01    0.680E-02
DAV:   4    -0.173430391718E+02    0.68992E-05   -0.31507E-05  2888   0.361E-02    0.840E-03
DAV:   5    -0.173430394455E+02   -0.27378E-06   -0.31054E-06  2352   0.117E-02
  51 F= -.17343039E+02 E0= -.17342780E+02  d E =-.519455E-03
       N       E                     dE             d eps       ncg     rms          rms(c)
DAV:   1    -0.173414208382E+02    0.16183E-02   -0.56441E-01  2024   0.328E+00    0.315E-01
DAV:   2    -0.173431308687E+02   -0.17100E-02   -0.18431E-02  2808   0.825E-01    0.817E-02
DAV:   3    -0.173430609593E+02    0.69909E-04   -0.32247E-04  2464   0.113E-01    0.519E-02
DAV:   4    -0.173430384719E+02    0.22487E-04   -0.16420E-04  2776   0.702E-02    0.176E-02
DAV:   5    -0.173430392052E+02   -0.73329E-06   -0.25899E-05  2352   0.326E-02    0.135E-02
DAV:   6    -0.173430391998E+02    0.53526E-08   -0.12669E-06  1736   0.827E-03
  52 F= -.17343039E+02 E0= -.17342779E+02  d E =-.519466E-03
       N       E                     dE             d eps       ncg     rms          rms(c)
DAV:   1    -0.173379238192E+02    0.51154E-02   -0.11112E+00  2016   0.471E+00    0.383E-01
DAV:   2    -0.173416888880E+02   -0.37651E-02   -0.39066E-02  2864   0.120E+00    0.113E-01
DAV:   3    -0.173416399269E+02    0.48961E-04   -0.43997E-04  2424   0.143E-01    0.876E-02
DAV:   4    -0.173416040619E+02    0.35865E-04   -0.15465E-04  2784   0.675E-02    0.351E-02
DAV:   5    -0.173416065378E+02   -0.24759E-05   -0.19792E-05  2360   0.269E-02    0.817E-03
DAV:   6    -0.173416067326E+02   -0.19481E-06   -0.35327E-06  2440   0.106E-02
  53 F= -.17341607E+02 E0= -.17341348E+02  d E =-.516831E-03
       N       E                     dE             d eps       ncg     rms          rms(c)
DAV:   1    -0.173356473350E+02    0.59592E-02   -0.20132E+00   608   0.678E+00    0.454E-01
DAV:   2    -0.173413396252E+02   -0.56923E-02   -0.73334E-02   848   0.184E+00    0.223E-01
DAV:   3    -0.173410807941E+02    0.25883E-03   -0.20023E-03   696   0.289E-01    0.124E-01
DAV:   4    -0.173408803744E+02    0.20042E-03   -0.20679E-04   832   0.930E-02    0.445E-02
DAV:   5    -0.173407339444E+02    0.14643E-03   -0.81669E-05   808   0.521E-02    0.199E-02
DAV:   6    -0.173407064519E+02    0.27493E-04   -0.11283E-05   776   0.199E-02    0.163E-02
DAV:   7    -0.173406902862E+02    0.16166E-04   -0.22304E-06   464   0.879E-03    0.477E-03
DAV:   8    -0.173406838354E+02    0.64508E-05   -0.11924E-06   400   0.655E-03    0.243E-03
DAV:   9    -0.173406828444E+02    0.99099E-06   -0.19315E-07   368   0.403E-03
  54 F= -.17340683E+02 E0= -.17340423E+02  d E =-.520365E-03
       N       E                     dE             d eps       ncg     rms          rms(c)
DAV:   1    -0.173424245346E+02   -0.17407E-02   -0.25204E-01   608   0.237E+00    0.289E-01
DAV:   2    -0.173430688851E+02   -0.64435E-03   -0.99374E-03   848   0.675E-01    0.757E-02
DAV:   3    -0.173430500155E+02    0.18870E-04   -0.42309E-04   696   0.128E-01    0.456E-02
DAV:   4    -0.173430439544E+02    0.60611E-05   -0.37373E-05   800   0.394E-02    0.229E-02
DAV:   5    -0.173430421787E+02    0.17756E-05   -0.90510E-06   816   0.172E-02    0.920E-03
DAV:   6    -0.173430420757E+02    0.10305E-06   -0.24183E-06   568   0.918E-03
  55 F= -.17343042E+02 E0= -.17342782E+02  d E =-.520362E-03
       N       E                     dE             d eps       ncg     rms          rms(c)
DAV:   1    -0.173395199516E+02    0.35222E-02   -0.10073E+00   608   0.474E+00    0.614E-01
DAV:   2    -0.173421626298E+02   -0.26427E-02   -0.39939E-02   856   0.135E+00    0.148E-01
DAV:   3    -0.173420849970E+02    0.77633E-04   -0.16717E-03   704   0.254E-01    0.932E-02
DAV:   4    -0.173420612293E+02    0.23768E-04   -0.14776E-04   784   0.781E-02    0.519E-02
DAV:   5    -0.173420543898E+02    0.68395E-05   -0.35199E-05   792   0.337E-02    0.189E-02
DAV:   6    -0.173420539627E+02    0.42715E-06   -0.12904E-05   840   0.203E-02    0.152E-02
DAV:   7    -0.173420538128E+02    0.14981E-06   -0.23220E-06   560   0.913E-03
  56 F= -.17342054E+02 E0= -.17341794E+02  d E =-.520361E-03
       N       E                     dE             d eps       ncg     rms          rms(c)
DAV:   1    -0.173379766284E+02    0.40773E-02   -0.25113E-01   608   0.238E+00    0.295E-01
DAV:   2    -0.173386613264E+02   -0.68470E-03   -0.10047E-02   864   0.678E-01    0.778E-02
DAV:   3    -0.173386400334E+02    0.21293E-04   -0.40656E-04   720   0.125E-01    0.457E-02
DAV:   4    -0.173386347232E+02    0.53102E-05   -0.39061E-05   760   0.398E-02    0.239E-02
DAV:   5    -0.173386334098E+02    0.13134E-05   -0.73422E-06   816   0.156E-02    0.939E-03
DAV:   6    -0.173386332860E+02    0.12375E-06   -0.32817E-06   672   0.103E-02
  57 F= -.17338633E+02 E0= -.17338373E+02  d E =-.520371E-03
