  36  36   0   0
  0.2340187E+02  0.8995370E-09  0.8995370E-09  0.1041154E-08  0.5000000E-15
   1.0000000000000000E-004
  CAR 
 unknown system                          
      8.68323461    -22.74038648  301      1.67838574      1.00000000
    -22.740  0.0000E+00  0.0000E+00
    -22.636  0.0000E+00  0.0000E+00
    -22.531  0.0000E+00  0.0000E+00
    -22.426  0.0000E+00  0.0000E+00
    -22.321  0.0000E+00  0.0000E+00
    -22.217  0.0000E+00  0.0000E+00
    -22.112  0.0000E+00  0.0000E+00
    -22.007  0.0000E+00  0.0000E+00
    -21.902  0.0000E+00  0.0000E+00
    -21.798  0.0000E+00  0.0000E+00
    -21.693  0.0000E+00  0.0000E+00
    -21.588  0.1997E-14  0.2091E-15
    -21.483  0.5156E-06  0.5400E-07
    -21.379  0.3224E-01  0.3377E-02
    -21.274  0.1491E+01  0.1596E+00
    -21.169  0.7645E+00  0.2396E+00
    -21.064  0.3452E-02  0.2400E+00
    -20.960  0.1582E-01  0.2417E+00
    -20.855  0.1426E+01  0.3910E+00
    -20.750  0.8473E+00  0.4797E+00
    -20.645  0.2418E-02  0.4800E+00
    -20.541  0.3828E-08  0.4800E+00
    -20.436  0.0000E+00  0.4800E+00
    -20.331  0.0000E+00  0.4800E+00
    -20.226  0.0000E+00  0.4800E+00
    -20.122  0.0000E+00  0.4800E+00
    -20.017  0.0000E+00  0.4800E+00
    -19.912  0.0000E+00  0.4800E+00
    -19.808  0.0000E+00  0.4800E+00
    -19.703  0.0000E+00  0.4800E+00
    -19.598  0.0000E+00  0.4800E+00
    -19.493  0.0000E+00  0.4800E+00
    -19.389  0.0000E+00  0.4800E+00
    -19.284  0.0000E+00  0.4800E+00
    -19.179  0.0000E+00  0.4800E+00
    -19.074  0.0000E+00  0.4800E+00
    -18.970  0.0000E+00  0.4800E+00
    -18.865  0.0000E+00  0.4800E+00
    -18.760  0.0000E+00  0.4800E+00
    -18.655  0.0000E+00  0.4800E+00
    -18.551  0.0000E+00  0.4800E+00
    -18.446  0.0000E+00  0.4800E+00
    -18.341  0.0000E+00  0.4800E+00
    -18.236  0.0000E+00  0.4800E+00
    -18.132  0.0000E+00  0.4800E+00
    -18.027  0.0000E+00  0.4800E+00
    -17.922  0.0000E+00  0.4800E+00
    -17.817  0.0000E+00  0.4800E+00
    -17.713  0.0000E+00  0.4800E+00
    -17.608  0.0000E+00  0.4800E+00
    -17.503  0.0000E+00  0.4800E+00
    -17.398  0.0000E+00  0.4800E+00
    -17.294  0.0000E+00  0.4800E+00
    -17.189  0.0000E+00  0.4800E+00
    -17.084  0.0000E+00  0.4800E+00
    -16.979  0.0000E+00  0.4800E+00
    -16.875  0.0000E+00  0.4800E+00
    -16.770  0.0000E+00  0.4800E+00
    -16.665  0.0000E+00  0.4800E+00
    -16.560  0.0000E+00  0.4800E+00
    -16.456  0.0000E+00  0.4800E+00
    -16.351  0.0000E+00  0.4800E+00
    -16.246  0.0000E+00  0.4800E+00
    -16.141  0.0000E+00  0.4800E+00
    -16.037  0.0000E+00  0.4800E+00
    -15.932  0.0000E+00  0.4800E+00
    -15.827  0.0000E+00  0.4800E+00
    -15.722  0.0000E+00  0.4800E+00
    -15.618  0.0000E+00  0.4800E+00
    -15.513  0.0000E+00  0.4800E+00
    -15.408  0.0000E+00  0.4800E+00
    -15.303  0.0000E+00  0.4800E+00
    -15.199  0.0000E+00  0.4800E+00
    -15.094  0.0000E+00  0.4800E+00
    -14.989  0.0000E+00  0.4800E+00
    -14.884  0.0000E+00  0.4800E+00
    -14.780  0.0000E+00  0.4800E+00
    -14.675  0.0000E+00  0.4800E+00
    -14.570  0.0000E+00  0.4800E+00
    -14.465  0.0000E+00  0.4800E+00
    -14.361  0.0000E+00  0.4800E+00
    -14.256  0.0000E+00  0.4800E+00
    -14.151  0.0000E+00  0.4800E+00
    -14.047  0.0000E+00  0.4800E+00
    -13.942  0.0000E+00  0.4800E+00
    -13.837  0.0000E+00  0.4800E+00
    -13.732  0.0000E+00  0.4800E+00
    -13.628  0.0000E+00  0.4800E+00
    -13.523  0.0000E+00  0.4800E+00
    -13.418  0.0000E+00  0.4800E+00
    -13.313  0.0000E+00  0.4800E+00
    -13.209  0.0000E+00  0.4800E+00
    -13.104  0.0000E+00  0.4800E+00
    -12.999  0.0000E+00  0.4800E+00
    -12.894  0.0000E+00  0.4800E+00
    -12.790  0.0000E+00  0.4800E+00
    -12.685  0.0000E+00  0.4800E+00
    -12.580  0.1044E-12  0.4800E+00
    -12.475  0.1470E-05  0.4800E+00
    -12.371  0.9163E-02  0.4810E+00
    -12.266  0.2442E+00  0.5065E+00
    -12.161  0.1280E+00  0.5200E+00
    -12.056  0.4708E-03  0.5200E+00
    -11.952  0.1102E-08  0.5200E+00
    -11.847  0.0000E+00  0.5200E+00
    -11.742  0.0000E+00  0.5200E+00
    -11.637  0.0000E+00  0.5200E+00
    -11.533  0.1085E-09  0.5200E+00
    -11.428  0.1614E-03  0.5200E+00
    -11.323  0.1144E+00  0.5320E+00
    -11.218  0.7439E+00  0.6099E+00
    -11.114  0.2861E+00  0.6399E+00
    -11.009  0.1104E-02  0.6400E+00
    -10.904  0.3072E-08  0.6400E+00
    -10.799  0.0000E+00  0.6400E+00
    -10.695  0.0000E+00  0.6400E+00
    -10.590  0.7798E-09  0.6400E+00
    -10.485  0.4563E-03  0.6400E+00
    -10.380  0.2166E+00  0.6627E+00
    -10.276  0.5328E+00  0.7185E+00
    -10.171  0.1388E-01  0.7200E+00
    -10.066  0.6541E-06  0.7200E+00
     -9.961  0.6018E-06  0.7200E+00
     -9.857  0.1378E-01  0.7214E+00
     -9.752  0.3394E+00  0.7570E+00
     -9.647  0.5723E+00  0.8169E+00
     -9.542  0.3758E+00  0.8563E+00
     -9.438  0.2239E+00  0.8797E+00
     -9.333  0.2394E-02  0.8800E+00
     -9.228  0.1805E-07  0.8800E+00
     -9.123  0.3180E-16  0.8800E+00
     -9.019  0.0000E+00  0.8800E+00
     -8.914  0.0000E+00  0.8800E+00
     -8.809  0.0000E+00  0.8800E+00
     -8.705  0.0000E+00  0.8800E+00
     -8.600  0.0000E+00  0.8800E+00
     -8.495  0.0000E+00  0.8800E+00
     -8.390  0.0000E+00  0.8800E+00
     -8.286  0.0000E+00  0.8800E+00
     -8.181  0.0000E+00  0.8800E+00
     -8.076  0.0000E+00  0.8800E+00
     -7.971  0.0000E+00  0.8800E+00
     -7.867  0.0000E+00  0.8800E+00
     -7.762  0.0000E+00  0.8800E+00
     -7.657  0.0000E+00  0.8800E+00
     -7.552  0.0000E+00  0.8800E+00
     -7.448  0.0000E+00  0.8800E+00
     -7.343  0.0000E+00  0.8800E+00
     -7.238  0.0000E+00  0.8800E+00
     -7.133  0.0000E+00  0.8800E+00
     -7.029  0.0000E+00  0.8800E+00
     -6.924  0.0000E+00  0.8800E+00
     -6.819  0.0000E+00  0.8800E+00
     -6.714  0.0000E+00  0.8800E+00
     -6.610  0.0000E+00  0.8800E+00
     -6.505  0.0000E+00  0.8800E+00
     -6.400  0.0000E+00  0.8800E+00
     -6.295  0.0000E+00  0.8800E+00
     -6.191  0.0000E+00  0.8800E+00
     -6.086  0.0000E+00  0.8800E+00
     -5.981  0.0000E+00  0.8800E+00
     -5.876  0.0000E+00  0.8800E+00
     -5.772  0.0000E+00  0.8800E+00
     -5.667  0.0000E+00  0.8800E+00
     -5.562  0.2266E-15  0.8800E+00
     -5.457  0.4899E-07  0.8800E+00
     -5.353  0.3265E-02  0.8803E+00
     -5.248  0.2314E+00  0.9046E+00
     -5.143  0.5548E+00  0.9627E+00
     -5.038  0.3436E+00  0.9987E+00
     -4.934  0.1251E-01  0.1000E+01
     -4.829  0.5028E-06  0.1000E+01
     -4.724  0.5029E-14  0.1000E+01
     -4.619  0.0000E+00  0.1000E+01
     -4.515  0.0000E+00  0.1000E+01
     -4.410  0.0000E+00  0.1000E+01
     -4.305  0.0000E+00  0.1000E+01
     -4.200  0.0000E+00  0.1000E+01
     -4.096  0.0000E+00  0.1000E+01
     -3.991  0.1718E-10  0.1000E+01
     -3.886  0.2402E-04  0.1000E+01
     -3.781  0.1073E-01  0.1001E+01
     -3.677  0.3592E-01  0.1005E+01
     -3.572  0.1878E+00  0.1025E+01
     -3.467  0.1424E+00  0.1039E+01
     -3.362  0.4998E-02  0.1040E+01
     -3.258  0.5535E-06  0.1040E+01
     -3.153  0.2237E-13  0.1040E+01
     -3.048  0.5048E-07  0.1040E+01
     -2.944  0.1492E-02  0.1040E+01
     -2.839  0.8896E-01  0.1049E+01
     -2.734  0.3974E+00  0.1091E+01
     -2.629  0.5727E+00  0.1151E+01
     -2.525  0.8485E-01  0.1160E+01
     -2.420  0.2736E-03  0.1160E+01
     -2.315  0.3574E-02  0.1160E+01
     -2.210  0.6984E-01  0.1168E+01
     -2.106  0.8964E-01  0.1177E+01
     -2.001  0.1226E+00  0.1190E+01
     -1.896  0.1085E+00  0.1201E+01
     -1.791  0.2030E+00  0.1223E+01
     -1.687  0.4546E+00  0.1270E+01
     -1.582  0.2765E+00  0.1299E+01
     -1.477  0.1945E+00  0.1320E+01
     -1.372  0.3362E-01  0.1323E+01
     -1.268  0.1532E+00  0.1339E+01
     -1.163  0.2282E+00  0.1363E+01
     -1.058  0.1254E+00  0.1376E+01
     -0.953  0.1035E+00  0.1387E+01
     -0.849  0.1723E+00  0.1405E+01
     -0.744  0.2181E+00  0.1428E+01
     -0.639  0.1269E+00  0.1441E+01
     -0.534  0.5643E-01  0.1447E+01
     -0.430  0.1974E+00  0.1468E+01
     -0.325  0.2652E+00  0.1495E+01
     -0.220  0.1839E+00  0.1515E+01
     -0.115  0.1495E+00  0.1530E+01
     -0.011  0.1514E+00  0.1546E+01
      0.094  0.1317E+00  0.1560E+01
      0.199  0.2946E+00  0.1591E+01
      0.304  0.2679E+00  0.1619E+01
      0.408  0.4122E+00  0.1662E+01
      0.513  0.2569E+00  0.1689E+01
      0.618  0.4082E+00  0.1732E+01
      0.723  0.4978E+00  0.1784E+01
      0.827  0.4425E+00  0.1830E+01
      0.932  0.5054E+00  0.1883E+01
      1.037  0.6390E+00  0.1950E+01
      1.142  0.3992E+00  0.1992E+01
      1.246  0.4373E+00  0.2038E+01
      1.351  0.2467E+00  0.2064E+01
      1.456  0.1543E+00  0.2080E+01
      1.561  0.1820E-02  0.2080E+01
      1.665  0.1534E-07  0.2080E+01
      1.770  0.3180E-16  0.2080E+01
      1.875  0.0000E+00  0.2080E+01
      1.980  0.0000E+00  0.2080E+01
      2.084  0.0000E+00  0.2080E+01
      2.189  0.0000E+00  0.2080E+01
      2.294  0.0000E+00  0.2080E+01
      2.399  0.0000E+00  0.2080E+01
      2.503  0.0000E+00  0.2080E+01
      2.608  0.0000E+00  0.2080E+01
      2.713  0.0000E+00  0.2080E+01
      2.817  0.0000E+00  0.2080E+01
      2.922  0.0000E+00  0.2080E+01
      3.027  0.0000E+00  0.2080E+01
      3.132  0.0000E+00  0.2080E+01
      3.236  0.0000E+00  0.2080E+01
      3.341  0.0000E+00  0.2080E+01
      3.446  0.0000E+00  0.2080E+01
      3.551  0.0000E+00  0.2080E+01
      3.655  0.0000E+00  0.2080E+01
      3.760  0.0000E+00  0.2080E+01
      3.865  0.0000E+00  0.2080E+01
      3.970  0.0000E+00  0.2080E+01
      4.074  0.0000E+00  0.2080E+01
      4.179  0.0000E+00  0.2080E+01
      4.284  0.0000E+00  0.2080E+01
      4.389  0.0000E+00  0.2080E+01
      4.493  0.0000E+00  0.2080E+01
      4.598  0.0000E+00  0.2080E+01
      4.703  0.2452E-10  0.2080E+01
      4.808  0.2987E-04  0.2080E+01
      4.912  0.1504E-01  0.2082E+01
      5.017  0.5032E-01  0.2087E+01
      5.122  0.1239E+00  0.2100E+01
      5.227  0.1903E+00  0.2120E+01
      5.331  0.1734E+00  0.2138E+01
      5.436  0.1501E+00  0.2154E+01
      5.541  0.3702E+00  0.2192E+01
      5.646  0.2273E+00  0.2216E+01
      5.750  0.2950E+00  0.2247E+01
      5.855  0.2137E+00  0.2270E+01
      5.960  0.2220E+00  0.2293E+01
      6.065  0.2208E+00  0.2316E+01
      6.169  0.2176E+00  0.2339E+01
      6.274  0.1485E+00  0.2354E+01
      6.379  0.1740E+00  0.2372E+01
      6.484  0.3232E+00  0.2406E+01
      6.588  0.1454E+00  0.2422E+01
      6.693  0.1814E+00  0.2441E+01
      6.798  0.1630E+00  0.2458E+01
      6.903  0.2710E+00  0.2486E+01
      7.007  0.1599E+00  0.2503E+01
      7.112  0.2640E+00  0.2530E+01
      7.217  0.2445E+00  0.2556E+01
      7.322  0.3726E-01  0.2560E+01
      7.426  0.7250E-03  0.2560E+01
      7.531  0.1489E-07  0.2560E+01
      7.636  0.6890E-16  0.2560E+01
      7.741  0.0000E+00  0.2560E+01
      7.845  0.0000E+00  0.2560E+01
      7.950  0.0000E+00  0.2560E+01
      8.055  0.0000E+00  0.2560E+01
      8.160  0.0000E+00  0.2560E+01
      8.264  0.0000E+00  0.2560E+01
      8.369  0.0000E+00  0.2560E+01
      8.474  0.0000E+00  0.2560E+01
      8.578  0.0000E+00  0.2560E+01
      8.683  0.0000E+00  0.2560E+01
