 vasp.6.3.2 27Jun22 (build Jun 14 2024 17:29:11) complex                         
 executed on             LinuxGNU date 2026.03.29  20:34:11
 running on   32 total cores
 distrk:  each k-point on   32 cores,    1 groups
 distr:  one band on NCORE=   1 cores,   32 groups


--------------------------------------------------------------------------------------------------------


 INCAR:
   EDIFF = 1e-05
   EDIFFG = -0.05
   ENCUT = 400.0
   IBRION = 2
   ISIF = 3
   ISMEAR = 0
   LCHARG = False
   LREAL = Auto
   LWAVE = False
   NSW = 100
   SIGMA = 0.05

 POTCAR:    PAW_PBE Na_pv 19Sep2006               
 POTCAR:    PAW_PBE Si 05Jan2001                  
 POTCAR:    PAW_PBE S 06Sep2000                   
 -----------------------------------------------------------------------------
|                                                                             |
|           W    W    AA    RRRRR   N    N  II  N    N   GGGG   !!!           |
|           W    W   A  A   R    R  NN   N  II  NN   N  G    G  !!!           |
|           W    W  A    A  R    R  N N  N  II  N N  N  G       !!!           |
|           W WW W  AAAAAA  RRRRR   N  N N  II  N  N N  G  GGG   !            |
|           WW  WW  A    A  R   R   N   NN  II  N   NN  G    G                |
|           W    W  A    A  R    R  N    N  II  N    N   GGGG   !!!           |
|                                                                             |
|     For optimal performance we recommend to set                             |
|       NCORE = 2 up to number-of-cores-per-socket                            |
|     NCORE specifies how many cores store one orbital (NPAR=cpu/NCORE).      |
|     This setting can greatly improve the performance of VASP for DFT.       |
|     The default, NCORE=1 might be grossly inefficient on modern             |
|     multi-core architectures or massively parallel machines. Do your        |
|     own testing! More info at https://www.vasp.at/wiki/index.php/NCORE      |
|     Unfortunately you need to use the default for GW and RPA                |
|     calculations (for HF NCORE is supported but not extensively tested      |
|     yet).                                                                   |
|                                                                             |
 -----------------------------------------------------------------------------

 POTCAR:    PAW_PBE Na_pv 19Sep2006               
   SHA256 =  6a2f546d9e11350984debacf3dc457d8cffc0868e817d445faca461816a32b94 Na_pv/POTCAR          
   COPYR  = (c) Copyright 19Sep2006 Georg Kresse                                                    
   COPYR  = This file is part of the software VASP. Any use, copying, and all other rights are regul
   COPYR  = If you do not have a valid VASP license, you may not use, copy or distribute this file. 
   VRHFIN =Na: p6s1                                                                                 
   LEXCH  = PE                                                                                      
   EATOM  =   766.0439 eV,   56.3026 Ry                                                             
                                                                                                    
   TITEL  = PAW_PBE Na_pv 19Sep2006                                                                 
   LULTRA =        F    use ultrasoft PP ?                                                          
   IUNSCR =        1    unscreen: 0-lin 1-nonlin 2-no                                               
   RPACOR =    1.800    partial core radius                                                         
   POMASS =   22.990; ZVAL   =    7.000    mass and valenz                                          
   RCORE  =    2.200    outmost cutoff radius                                                       
   RWIGS  =    2.200; RWIGS  =    1.164    wigner-seitz radius (au A)                               
   ENMAX  =  259.561; ENMIN  =  194.671 eV                                                          
   ICORE  =        2    local potential                                                             
   LCOR   =        T    correct aug charges                                                         
   LPAW   =        T    paw PP                                                                      
   EAUG   =  368.056                                                                                
   DEXC   =    0.000                                                                                
   RMAX   =    2.245    core radius for proj-oper                                                   
   RAUG   =    1.300    factor for augmentation sphere                                              
   RDEP   =    2.259    radius for radial grids                                                     
   RDEPT  =    1.738    core radius for aug-charge                                                  
                                                                                                    
   Atomic configuration                                                                             
    5 entries                                                                                       
     n  l   j            E        occ.                                                              
     1  0  0.50     -1033.6933   2.0000                                                             
     2  0  0.50       -56.7526   2.0000                                                             
     2  1  1.50       -28.6721   6.0000                                                             
     3  0  0.50        -2.7440   1.0000                                                             
     3  2  1.50        -1.3606   0.0000                                                             
   Description                                                                                      
     l       E           TYP  RCUT    TYP  RCUT                                                     
     1    -28.6720912     23  2.000                                                                 
     1      6.8029130     23  2.000                                                                 
     0     -2.7439560     23  2.200                                                                 
     0     34.0145650     23  2.200                                                                 
     2     -1.3605826     23  2.200                                                                 
  local pseudopotential read in
  partial core-charges read in
  partial kinetic energy density read in
  atomic valenz-charges read in
  non local Contribution for L=           1  read in
    real space projection operators read in
  non local Contribution for L=           1  read in
    real space projection operators read in
  non local Contribution for L=           0  read in
    real space projection operators read in
  non local Contribution for L=           0  read in
    real space projection operators read in
    PAW grid and wavefunctions read in

   number of l-projection  operators is LMAX  =           4
   number of lm-projection operators is LMMAX =           8

 POTCAR:    PAW_PBE Si 05Jan2001                  
   SHA256 =  79d9987ad8750f624c4d6acb2a16d13abf6a777132adc04dc6c8399be72b42bb Si/POTCAR             
   COPYR  = (c) Copyright 05Jan2001 Georg Kresse                                                    
   COPYR  = This file is part of the software VASP. Any use, copying, and all other rights are regul
   COPYR  = If you do not have a valid VASP license, you may not use, copy or distribute this file. 
   VRHFIN =Si: s2p2                                                                                 
   LEXCH  = PE                                                                                      
   EATOM  =   103.0669 eV,    7.5752 Ry                                                             
                                                                                                    
   TITEL  = PAW_PBE Si 05Jan2001                                                                    
   LULTRA =        F    use ultrasoft PP ?                                                          
   IUNSCR =        1    unscreen: 0-lin 1-nonlin 2-no                                               
   RPACOR =    1.500    partial core radius                                                         
   POMASS =   28.085; ZVAL   =    4.000    mass and valenz                                          
   RCORE  =    1.900    outmost cutoff radius                                                       
   RWIGS  =    2.480; RWIGS  =    1.312    wigner-seitz radius (au A)                               
   ENMAX  =  245.345; ENMIN  =  184.009 eV                                                          
   ICORE  =        2    local potential                                                             
   LCOR   =        T    correct aug charges                                                         
   LPAW   =        T    paw PP                                                                      
   EAUG   =  322.069                                                                                
   DEXC   =    0.000                                                                                
   RMAX   =    1.950    core radius for proj-oper                                                   
   RAUG   =    1.300    factor for augmentation sphere                                              
   RDEP   =    1.993    radius for radial grids                                                     
   RDEPT  =    1.837    core radius for aug-charge                                                  
                                                                                                    
   Atomic configuration                                                                             
    6 entries                                                                                       
     n  l   j            E        occ.                                                              
     1  0  0.50     -1785.8828   2.0000                                                             
     2  0  0.50      -139.4969   2.0000                                                             
     2  1  1.50       -95.5546   6.0000                                                             
     3  0  0.50       -10.8127   2.0000                                                             
     3  1  0.50        -4.0811   2.0000                                                             
     3  2  1.50        -4.0817   0.0000                                                             
   Description                                                                                      
     l       E           TYP  RCUT    TYP  RCUT                                                     
     0    -10.8127223     23  1.900                                                                 
     0     -7.6451159     23  1.900                                                                 
     1     -4.0811372     23  1.900                                                                 
     1      2.4879257     23  1.900                                                                 
     2     -4.0817478      7  1.900                                                                 
  local pseudopotential read in
  partial core-charges read in
  partial kinetic energy density read in
  atomic valenz-charges read in
  non local Contribution for L=           0  read in
    real space projection operators read in
  non local Contribution for L=           0  read in
    real space projection operators read in
  non local Contribution for L=           1  read in
    real space projection operators read in
  non local Contribution for L=           1  read in
    real space projection operators read in
    PAW grid and wavefunctions read in

   number of l-projection  operators is LMAX  =           4
   number of lm-projection operators is LMMAX =           8

 POTCAR:    PAW_PBE S 06Sep2000                   
   SHA256 =  0fc7481fb0695f01bdc6462160264c5c84044ae9ec85a907d398b887a2bc3132 S/POTCAR              
   COPYR  = (c) Copyright 06Sep2000 Georg Kresse                                                    
   COPYR  = This file is part of the software VASP. Any use, copying, and all other rights are regul
   COPYR  = If you do not have a valid VASP license, you may not use, copy or distribute this file. 
   VRHFIN =S : s2p4                                                                                 
   LEXCH  = PE                                                                                      
   EATOM  =   276.8230 eV,   20.3459 Ry                                                             
                                                                                                    
   TITEL  = PAW_PBE S 06Sep2000                                                                     
   LULTRA =        F    use ultrasoft PP ?                                                          
   IUNSCR =        1    unscreen: 0-lin 1-nonlin 2-no                                               
   RPACOR =    1.500    partial core radius                                                         
   POMASS =   32.066; ZVAL   =    6.000    mass and valenz                                          
   RCORE  =    1.900    outmost cutoff radius                                                       
   RWIGS  =    2.200; RWIGS  =    1.164    wigner-seitz radius (au A)                               
   ENMAX  =  258.689; ENMIN  =  194.016 eV                                                          
   ICORE  =        2    local potential                                                             
   LCOR   =        T    correct aug charges                                                         
   LPAW   =        T    paw PP                                                                      
   EAUG   =  335.092                                                                                
   DEXC   =    0.000                                                                                
   RMAX   =    1.942    core radius for proj-oper                                                   
   RAUG   =    1.300    factor for augmentation sphere                                              
   RDEP   =    1.954    radius for radial grids                                                     
   RDEPT  =    1.744    core radius for aug-charge                                                  
                                                                                                    
   Atomic configuration                                                                             
    6 entries                                                                                       
     n  l   j            E        occ.                                                              
     1  0  0.50     -2405.8406   2.0000                                                             
     2  0  0.50      -211.7007   2.0000                                                             
     2  1  1.50      -156.4958   6.0000                                                             
     3  0  0.50       -17.2562   2.0000                                                             
     3  1  0.50        -7.0085   4.0000                                                             
     3  2  1.50        -6.8029   0.0000                                                             
   Description                                                                                      
     l       E           TYP  RCUT    TYP  RCUT                                                     
     0    -17.2561641     23  1.900                                                                 
     0    -15.8743224     23  1.900                                                                 
     1     -7.0085400     23  1.900                                                                 
     1     -2.7779785     23  1.900                                                                 
     2     -6.8029130     23  1.900                                                                 
  local pseudopotential read in
  partial core-charges read in
  partial kinetic energy density read in
  atomic valenz-charges read in
  non local Contribution for L=           0  read in
    real space projection operators read in
  non local Contribution for L=           0  read in
    real space projection operators read in
  non local Contribution for L=           1  read in
    real space projection operators read in
  non local Contribution for L=           1  read in
    real space projection operators read in
    PAW grid and wavefunctions read in

   number of l-projection  operators is LMAX  =           4
   number of lm-projection operators is LMMAX =           8

 Optimization of the real space projectors (new method)

 maximal supplied QI-value         = 17.01
 optimisation between [QCUT,QGAM] = [ 10.20, 20.41] = [ 29.16,116.64] Ry 
 Optimized for a Real-space Cutoff    1.30 Angstroem

   l    n(q)    QCUT    max X(q) W(low)/X(q) W(high)/X(q)  e(spline) 
   1      7    10.205     4.940    0.23E-03    0.84E-03    0.11E-06
   1      7    10.205     6.253    0.40E-03    0.13E-02    0.18E-06
   0      8    10.205    37.438    0.23E-03    0.37E-03    0.42E-07
   0      8    10.205     9.606    0.16E-03    0.26E-03    0.31E-07
 Optimization of the real space projectors (new method)

 maximal supplied QI-value         = 19.84
 optimisation between [QCUT,QGAM] = [ 10.12, 20.44] = [ 28.68,116.96] Ry 
 Optimized for a Real-space Cutoff    1.23 Angstroem

   l    n(q)    QCUT    max X(q) W(low)/X(q) W(high)/X(q)  e(spline) 
   0      7    10.119   159.560    0.56E-04    0.22E-03    0.45E-07
   0      7    10.119   115.863    0.56E-04    0.21E-03    0.45E-07
   1      7    10.119    88.339    0.34E-03    0.49E-03    0.11E-06
   1      7    10.119    48.592    0.33E-03    0.48E-03    0.11E-06
 Optimization of the real space projectors (new method)

 maximal supplied QI-value         = 19.84
 optimisation between [QCUT,QGAM] = [ 10.12, 20.44] = [ 28.68,116.96] Ry 
 Optimized for a Real-space Cutoff    1.23 Angstroem

   l    n(q)    QCUT    max X(q) W(low)/X(q) W(high)/X(q)  e(spline) 
   0      7    10.119   187.594    0.62E-04    0.28E-03    0.52E-07
   0      7    10.119   164.243    0.61E-04    0.28E-03    0.52E-07
   1      7    10.119    67.533    0.45E-03    0.63E-03    0.13E-06
   1      7    10.119    50.729    0.44E-03    0.62E-03    0.12E-06
  PAW_PBE Na_pv 19Sep2006               :
 energy of atom  1       EATOM= -766.0439
 kinetic energy error for atom=    0.0103 (will be added to EATOM!!)
  PAW_PBE Si 05Jan2001                  :
 energy of atom  2       EATOM= -103.0669
 kinetic energy error for atom=    0.0012 (will be added to EATOM!!)
  PAW_PBE S 06Sep2000                   :
 energy of atom  3       EATOM= -276.8230
 kinetic energy error for atom=    0.0046 (will be added to EATOM!!)


 POSCAR: Na8 Si8 S20
  positions in direct lattice
  No initial velocities read in
 exchange correlation table for  LEXCH =        8
   RHO(1)=    0.500       N(1)  =     2000
   RHO(2)=  100.500       N(2)  =     4000



--------------------------------------------------------------------------------------------------------


 ion  position               nearest neighbor table
   1  0.904  0.420  0.250-
   2  0.848  0.848  0.000-
   3  0.848  0.848  0.500-
   4  0.152  0.152  0.000-
   5  0.580  0.096  0.250-
   6  0.420  0.904  0.750-
   7  0.096  0.580  0.750-
   8  0.152  0.152  0.500-
   9  0.689  0.582  0.750-  27 2.05  34 2.13  31 2.15  18 2.15
  10  0.418  0.311  0.750-  26 2.05  34 2.13  32 2.15  29 2.15
  11  0.582  0.689  0.250-  25 2.05  35 2.13  33 2.15  17 2.15
  12  0.253  0.747  0.084-  24 2.06  36 2.13  30 2.16  17 2.16
  13  0.747  0.253  0.584-  23 2.06  20 2.13  29 2.16  31 2.16
  14  0.747  0.253  0.916-  22 2.06  20 2.13  18 2.16  32 2.16
  15  0.311  0.418  0.250-  28 2.05  35 2.13  30 2.15  19 2.15
  16  0.253  0.747  0.416-  21 2.06  36 2.13  33 2.16  19 2.16
  17  0.488  0.791  0.082-  11 2.15  12 2.16
  18  0.791  0.488  0.918-   9 2.15  14 2.16
  19  0.209  0.512  0.418-  15 2.15  16 2.16
  20  0.846  0.154  0.750-  13 2.13  14 2.13
  21  0.159  0.841  0.577-  16 2.06
  22  0.841  0.159  0.077-  14 2.06
  23  0.841  0.159  0.423-  13 2.06
  24  0.159  0.841  0.923-  12 2.06
  25  0.806  0.728  0.250-  11 2.05
  26  0.194  0.272  0.750-  10 2.05
  27  0.728  0.806  0.750-   9 2.05
  28  0.272  0.194  0.250-  15 2.05
  29  0.512  0.209  0.582-  10 2.15  13 2.16
  30  0.209  0.512  0.082-  15 2.15  12 2.16
  31  0.791  0.488  0.582-   9 2.15  13 2.16
  32  0.512  0.209  0.918-  10 2.15  14 2.16
  33  0.488  0.791  0.418-  11 2.15  16 2.16
  34  0.454  0.546  0.750-   9 2.13  10 2.13
  35  0.546  0.454  0.250-  11 2.13  15 2.13
  36  0.154  0.846  0.250-  12 2.13  16 2.13

  LATTYP: Found a base centered orthorhombic cell.
 ALAT       =    12.7175655256
 B/A-ratio  =     1.0005988614
 C/A-ratio  =     0.8186743264
  
  Lattice vectors:
  
 A1 = (  -0.0053853670,  -8.9953682979,   0.0000000000)
 A2 = (   8.9953699100,   0.0000000000,   0.0000000000)
 A3 = (   0.0000000000,   0.0000000000,  10.4115443900)


Analysis of symmetry for initial positions (statically):
=====================================================================
 Subroutine PRICEL returns:
 Original cell was already a primitive cell.
 

 Routine SETGRP: Setting up the symmetry group for a 
 base centered orthorhombic supercell.


 Subroutine GETGRP returns: Found  8 space group operations
 (whereof  4 operations were pure point group operations)
 out of a pool of  8 trial point group operations.


The static configuration has the point symmetry C_2h.
 The point group associated with its full space group is D_2h.


Analysis of symmetry for dynamics (positions and initial velocities):
=====================================================================
 Subroutine PRICEL returns:
 Original cell was already a primitive cell.
 

 Routine SETGRP: Setting up the symmetry group for a 
 base centered orthorhombic supercell.


 Subroutine GETGRP returns: Found  8 space group operations
 (whereof  4 operations were pure point group operations)
 out of a pool of  8 trial point group operations.


The dynamic configuration has the point symmetry C_2h.
 The point group associated with its full space group is D_2h.


 Subroutine INISYM returns: Found  8 space group operations
 (whereof  4 operations are pure point group operations),
 and found     1 'primitive' translations


----------------------------------------------------------------------------------------

                                     Primitive cell                                     

  volume of cell :     842.4675

  direct lattice vectors                    reciprocal lattice vectors
     8.995369910  0.000000000  0.000000000     0.111168302 -0.000066554  0.000000000
     0.005385367  8.995368298  0.000000000     0.000000000  0.111168322  0.000000000
     0.000000000  0.000000000 10.411544390    -0.000000000 -0.000000000  0.096047230

  length of vectors
     8.995369910  8.995369910 10.411544390     0.111168322  0.111168322  0.096047230

  position of ions in fractional coordinates (direct lattice)
     0.903712240  0.419579350  0.250000000
     0.848374800  0.848374800  0.000000000
     0.848374800  0.848374800  0.500000000
     0.151625200  0.151625200  0.000000000
     0.580420650  0.096287760  0.250000000
     0.419579350  0.903712240  0.750000000
     0.096287760  0.580420650  0.750000000
     0.151625200  0.151625200  0.500000000
     0.688714680  0.582441650  0.750000000
     0.417558350  0.311285320  0.750000000
     0.582441650  0.688714680  0.250000000
     0.252611750  0.747388250  0.084018130
     0.747388250  0.252611750  0.584018130
     0.747388250  0.252611750  0.915981870
     0.311285320  0.417558350  0.250000000
     0.252611750  0.747388250  0.415981870
     0.488128010  0.791490600  0.081772380
     0.791490600  0.488128010  0.918227620
     0.208509400  0.511871990  0.418227620
     0.845631680  0.154368320  0.750000000
     0.159083660  0.840916340  0.577322310
     0.840916340  0.159083660  0.077322310
     0.840916340  0.159083660  0.422677690
     0.159083660  0.840916340  0.922677690
     0.806271180  0.728419360  0.250000000
     0.193728820  0.271580640  0.750000000
     0.728419360  0.806271180  0.750000000
     0.271580640  0.193728820  0.250000000
     0.511871990  0.208509400  0.581772380
     0.208509400  0.511871990  0.081772380
     0.791490600  0.488128010  0.581772380
     0.511871990  0.208509400  0.918227620
     0.488128010  0.791490600  0.418227620
     0.454385080  0.545614920  0.750000000
     0.545614920  0.454385080  0.250000000
     0.154368320  0.845631680  0.250000000

  ion indices of the primitive-cell ions
   primitive index   ion index
                 1           1
                 2           2
                 3           3
                 4           4
                 5           5
                 6           6
                 7           7
                 8           8
                 9           9
                10          10
                11          11
                12          12
                13          13
                14          14
                15          15
                16          16
                17          17
                18          18
                19          19
                20          20
                21          21
                22          22
                23          23
                24          24
                25          25
                26          26
                27          27
                28          28
                29          29
                30          30
                31          31
                32          32
                33          33
                34          34
                35          35
                36          36

----------------------------------------------------------------------------------------



 KPOINTS: pymatgen with grid density = 500 / numbe

Automatic generation of k-mesh.
 Grid dimensions read from file:
 generate k-points for:    2    2    2

 Generating k-lattice:

  Cartesian coordinates                     Fractional coordinates (reciprocal lattice)
     0.055584151 -0.000033277  0.000000000     0.500000000 -0.000000000  0.000000000
     0.000000000  0.055584161  0.000000000     0.000000000  0.500000000  0.000000000
    -0.000000000 -0.000000000  0.048023615     0.000000000 -0.000000000  0.500000000

  Length of vectors
     0.055584161  0.055584161  0.048023615

  Shift w.r.t. Gamma in fractional coordinates (k-lattice)
     0.000000000  0.000000000  0.000000000

 
 Subroutine IBZKPT returns following result:
 ===========================================
 
 Found      6 irreducible k-points:
 
 Following reciprocal coordinates:
            Coordinates               Weight
  0.000000  0.000000  0.000000      1.000000
  0.500000  0.000000  0.000000      2.000000
  0.500000  0.500000  0.000000      1.000000
  0.000000  0.000000  0.500000      1.000000
  0.500000  0.000000  0.500000      2.000000
  0.500000  0.500000  0.500000      1.000000
 
 Following cartesian coordinates:
            Coordinates               Weight
  0.000000  0.000000  0.000000      1.000000
  0.055584 -0.000033  0.000000      2.000000
  0.055584  0.055551  0.000000      1.000000
  0.000000  0.000000  0.048024      1.000000
  0.055584 -0.000033  0.048024      2.000000
  0.055584  0.055551  0.048024      1.000000
 


--------------------------------------------------------------------------------------------------------




 Dimension of arrays:
   k-points           NKPTS =      6   k-points in BZ     NKDIM =      6   number of bands    NBANDS=    128
   number of dos      NEDOS =    301   number of ions     NIONS =     36
   non local maximal  LDIM  =      4   non local SUM 2l+1 LMDIM =      8
   total plane-waves  NPLWV = 124416
   max r-space proj   IRMAX =   1413   max aug-charges    IRDMAX=   5137
   dimension x,y,z NGX =    48 NGY =   48 NGZ =   54
   dimension x,y,z NGXF=    96 NGYF=   96 NGZF=  108
   support grid    NGXF=    96 NGYF=   96 NGZF=  108
   ions per type =               8   8  20
   NGX,Y,Z   is equivalent  to a cutoff of   8.87,  8.87,  8.62 a.u.
   NGXF,Y,Z  is equivalent  to a cutoff of  17.74, 17.74, 17.24 a.u.

 SYSTEM =  unknown system                          
 POSCAR =  Na8 Si8 S20                             

 Startparameter for this run:
   NWRITE =      2    write-flag & timer
   PREC   = normal    normal or accurate (medium, high low for compatibility)
   ISTART =      0    job   : 0-new  1-cont  2-samecut
   ICHARG =      2    charge: 1-file 2-atom 10-const
   ISPIN  =      1    spin polarized calculation?
   LNONCOLLINEAR =      F non collinear calculations
   LSORBIT =      F    spin-orbit coupling
   INIWAV =      1    electr: 0-lowe 1-rand  2-diag
   LASPH  =      F    aspherical Exc in radial PAW
 Electronic Relaxation 1
   ENCUT  =  400.0 eV  29.40 Ry    5.42 a.u.  14.67 14.67 16.98*2*pi/ulx,y,z
   ENINI  =  400.0     initial cutoff
   ENAUG  =  368.1 eV  augmentation charge cutoff
   NELM   =     60;   NELMIN=  2; NELMDL= -5     # of ELM steps 
   EDIFF  = 0.1E-04   stopping-criterion for ELM
   LREAL  =      T    real-space projection
   NLSPLINE    = F    spline interpolate recip. space projectors
   LCOMPAT=      F    compatible to vasp.4.4
   GGA_COMPAT  = T    GGA compatible to vasp.4.4-vasp.4.6
   LMAXPAW     = -100 max onsite density
   LMAXMIX     =    2 max onsite mixed and CHGCAR
   VOSKOWN=      0    Vosko Wilk Nusair interpolation
   ROPT   =   -0.00050  -0.00050  -0.00050
 Ionic relaxation
   EDIFFG = -.5E-01   stopping-criterion for IOM
   NSW    =    100    number of steps for IOM
   NBLOCK =      1;   KBLOCK =    100    inner block; outer block 
   IBRION =      2    ionic relax: 0-MD 1-quasi-New 2-CG
   NFREE  =      1    steps in history (QN), initial steepest desc. (CG)
   ISIF   =      3    stress and relaxation
   IWAVPR =     11    prediction:  0-non 1-charg 2-wave 3-comb
   ISYM   =      2    0-nonsym 1-usesym 2-fastsym
   LCORR  =      T    Harris-Foulkes like correction to forces

   POTIM  = 0.5000    time-step for ionic-motion
   TEIN   =    0.0    initial temperature
   TEBEG  =    0.0;   TEEND  =   0.0 temperature during run
   SMASS  =  -3.00    Nose mass-parameter (am)
   estimated Nose-frequenzy (Omega)   =  0.10E-29 period in steps = 0.13E+47 mass=  -0.185E-26a.u.
   SCALEE = 1.0000    scale energy and forces
   NPACO  =    256;   APACO  = 10.0  distance and # of slots for P.C.
   PSTRESS=    0.0 pullay stress

  Mass of Ions in am
   POMASS =  22.99 28.09 32.07
  Ionic Valenz
   ZVAL   =   7.00  4.00  6.00
  Atomic Wigner-Seitz radii
   RWIGS  =  -1.00 -1.00 -1.00
  virtual crystal weights 
   VCA    =   1.00  1.00  1.00
   NELECT =     208.0000    total number of electrons
   NUPDOWN=      -1.0000    fix difference up-down

 DOS related values:
   EMIN   =  10.00;   EMAX   =-10.00  energy-range for DOS
   EFERMI =   0.00
   ISMEAR =     0;   SIGMA  =   0.05  broadening in eV -4-tet -1-fermi 0-gaus

 Electronic relaxation 2 (details)
   IALGO  =     38    algorithm
   LDIAG  =      T    sub-space diagonalisation (order eigenvalues)
   LSUBROT=      F    optimize rotation matrix (better conditioning)
   TURBO    =      0    0=normal 1=particle mesh
   IRESTART =      0    0=no restart 2=restart with 2 vectors
   NREBOOT  =      0    no. of reboots
   NMIN     =      0    reboot dimension
   EREF     =   0.00    reference energy to select bands
   IMIX   =      4    mixing-type and parameters
     AMIX     =   0.40;   BMIX     =  1.00
     AMIX_MAG =   1.60;   BMIX_MAG =  1.00
     AMIN     =   0.10
     WC   =   100.;   INIMIX=   1;  MIXPRE=   1;  MAXMIX= -45

 Intra band minimization:
   WEIMIN = 0.0010     energy-eigenvalue tresh-hold
   EBREAK =  0.20E-07  absolut break condition
   DEPER  =   0.30     relativ break condition  

   TIME   =   0.40     timestep for ELM

  volume/ion in A,a.u.               =      23.40       157.92
  Fermi-wavevector in a.u.,A,eV,Ry     =   1.027018  1.940783 14.350974  1.054767
  Thomas-Fermi vector in A             =   2.160942

 Write flags
   LWAVE        =      F    write WAVECAR
   LDOWNSAMPLE  =      F    k-point downsampling of WAVECAR
   LCHARG       =      F    write CHGCAR
   LVTOT        =      F    write LOCPOT, total local potential
   LVHAR        =      F    write LOCPOT, Hartree potential only
   LELF         =      F    write electronic localiz. function (ELF)
   LORBIT       =      0    0 simple, 1 ext, 2 COOP (PROOUT), +10 PAW based schemes


 Dipole corrections
   LMONO  =      F    monopole corrections only (constant potential shift)
   LDIPOL =      F    correct potential (dipole corrections)
   IDIPOL =      0    1-x, 2-y, 3-z, 4-all directions 
   EPSILON=  1.0000000 bulk dielectric constant

 Exchange correlation treatment:
   GGA     =    --    GGA type
   LEXCH   =     8    internal setting for exchange type
   LIBXC   =     F    Libxc                    
   VOSKOWN =     0    Vosko Wilk Nusair interpolation
   LHFCALC =     F    Hartree Fock is set to
   LHFONE  =     F    Hartree Fock one center treatment
   AEXX    =    0.0000 exact exchange contribution

 Linear response parameters
   LEPSILON=     F    determine dielectric tensor
   LRPA    =     F    only Hartree local field effects (RPA)
   LNABLA  =     F    use nabla operator in PAW spheres
   LVEL    =     F    velocity operator in full k-point grid
   CSHIFT  =0.1000    complex shift for real part using Kramers Kronig
   OMEGAMAX=  -1.0    maximum frequency
   DEG_THRESHOLD= 0.2000000E-02 threshold for treating states as degnerate
   RTIME   =   -0.100 relaxation time in fs
  (WPLASMAI=    0.000 imaginary part of plasma frequency in eV, 0.658/RTIME)
   DFIELD  = 0.0000000 0.0000000 0.0000000 field for delta impulse in time

  Optional k-point grid parameters
   LKPOINTS_OPT  =     F    use optional k-point grid
   KPOINTS_OPT_MODE=     1    mode for optional k-point grid

 Orbital magnetization related:
   ORBITALMAG=     F  switch on orbital magnetization
   LCHIMAG   =     F  perturbation theory with respect to B field
   DQ        =  0.001000  dq finite difference perturbation B field
   LLRAUG    =     F  two centre corrections for induced B field



--------------------------------------------------------------------------------------------------------


 conjugate gradient relaxation of ions
 charge density and potential will be updated during run
 non-spin polarized calculation
 Variant of blocked Davidson
 Davidson routine will perform the subspace rotation
 perform sub-space diagonalisation
    after iterative eigenvector-optimisation
 modified Broyden-mixing scheme, WC =      100.0
 initial mixing is a Kerker type mixing with AMIX =  0.4000 and BMIX =      1.0000
 Hartree-type preconditioning will be used
 using additional bands           24
 real space projection scheme for non local part
 use partial core corrections
 calculate Harris-corrections to forces   (improved forces if not selfconsistent)
 use gradient corrections 
 use of overlap-Matrix (Vanderbilt PP)
 Gauss-broadening in eV      SIGMA  =   0.05


--------------------------------------------------------------------------------------------------------


  energy-cutoff  :      400.00
  volume of cell :      842.47
      direct lattice vectors                 reciprocal lattice vectors
     8.995369910  0.000000000  0.000000000     0.111168302 -0.000066554  0.000000000
     0.005385367  8.995368298  0.000000000     0.000000000  0.111168322  0.000000000
     0.000000000  0.000000000 10.411544390    -0.000000000 -0.000000000  0.096047230

  length of vectors
     8.995369910  8.995369910 10.411544390     0.111168322  0.111168322  0.096047230



 k-points in units of 2pi/SCALE and weight: pymatgen with grid density = 500 / numbe
   0.00000000  0.00000000  0.00000000       0.125
   0.05558415 -0.00003328  0.00000000       0.250
   0.05558415  0.05555088  0.00000000       0.125
   0.00000000  0.00000000  0.04802362       0.125
   0.05558415 -0.00003328  0.04802362       0.250
   0.05558415  0.05555088  0.04802362       0.125

 k-points in reciprocal lattice and weights: pymatgen with grid density = 500 / numbe
   0.00000000  0.00000000  0.00000000       0.125
   0.50000000  0.00000000  0.00000000       0.250
   0.50000000  0.50000000  0.00000000       0.125
   0.00000000  0.00000000  0.50000000       0.125
   0.50000000  0.00000000  0.50000000       0.250
   0.50000000  0.50000000  0.50000000       0.125

 position of ions in fractional coordinates (direct lattice) 
   0.90371224  0.41957935  0.25000000
   0.84837480  0.84837480  0.00000000
   0.84837480  0.84837480  0.50000000
   0.15162520  0.15162520  0.00000000
   0.58042065  0.09628776  0.25000000
   0.41957935  0.90371224  0.75000000
   0.09628776  0.58042065  0.75000000
   0.15162520  0.15162520  0.50000000
   0.68871468  0.58244165  0.75000000
   0.41755835  0.31128532  0.75000000
   0.58244165  0.68871468  0.25000000
   0.25261175  0.74738825  0.08401813
   0.74738825  0.25261175  0.58401813
   0.74738825  0.25261175  0.91598187
   0.31128532  0.41755835  0.25000000
   0.25261175  0.74738825  0.41598187
   0.48812801  0.79149060  0.08177238
   0.79149060  0.48812801  0.91822762
   0.20850940  0.51187199  0.41822762
   0.84563168  0.15436832  0.75000000
   0.15908366  0.84091634  0.57732231
   0.84091634  0.15908366  0.07732231
   0.84091634  0.15908366  0.42267769
   0.15908366  0.84091634  0.92267769
   0.80627118  0.72841936  0.25000000
   0.19372882  0.27158064  0.75000000
   0.72841936  0.80627118  0.75000000
   0.27158064  0.19372882  0.25000000
   0.51187199  0.20850940  0.58177238
   0.20850940  0.51187199  0.08177238
   0.79149060  0.48812801  0.58177238
   0.51187199  0.20850940  0.91822762
   0.48812801  0.79149060  0.41822762
   0.45438508  0.54561492  0.75000000
   0.54561492  0.45438508  0.25000000
   0.15436832  0.84563168  0.25000000

 position of ions in cartesian coordinates  (Angst):
   8.13148548  3.77427078  2.60288610
   7.63601396  7.63144378  0.00000000
   7.63601396  7.63144378  5.20577220
   1.36474132  1.36392452  0.00000000
   5.22161700  0.86614386  2.60288610
   3.77913828  8.12922443  7.80865829
   0.86926980  5.22109751  7.80865829
   1.36474132  1.36392452  5.20577219
   6.19837997  5.23927715  7.80865829
   3.75776820  2.80012610  7.80865829
   5.24298707  6.19524220  2.60288610
   2.27636109  6.72303257  0.87475849
   6.72439418  2.27233573  6.08053069
   6.72439418  2.27233573  9.53678590
   2.80237531  3.75609114  2.60288610
   2.27636109  6.72303257  4.33101370
   4.39515448  7.11974945  0.85137676
   7.12237948  4.39089123  9.56016763
   1.87837580  4.60447707  4.35439543
   7.60760110  1.38859989  7.80865829
   1.43554501  7.56435219  6.01081686
   7.56521027  1.43101611  0.80504466
   7.56521027  1.43101611  4.40072753
   1.43554501  7.56435219  9.60649973
   7.25663032  6.55240042  2.60288610
   1.74412496  2.44296788  7.80865829
   6.55674366  7.25270621  7.80865829
   2.44401162  1.74266209  2.60288610
   4.60560080  1.87561885  6.05714896
   1.87837580  4.60447707  0.85137676
   7.12237948  4.39089123  6.05714896
   4.60560080  1.87561885  9.56016763
   4.39515448  7.11974945  4.35439543
   4.09030021  4.90800715  7.80865829
   4.91045506  4.08736114  2.60288610
   1.39315418  7.60676841  2.60288610



--------------------------------------------------------------------------------------------------------


 k-point   1 :   0.0000 0.0000 0.0000  plane waves:   15281
 k-point   2 :   0.5000 0.0000 0.0000  plane waves:   15294
 k-point   3 :   0.5000 0.5000 0.0000  plane waves:   15256
 k-point   4 :   0.0000 0.0000 0.5000  plane waves:   15310
 k-point   5 :   0.5000 0.0000 0.5000  plane waves:   15316
 k-point   6 :   0.5000 0.5000 0.5000  plane waves:   15328

 maximum and minimum number of plane-waves per node :     15328    15256

 maximum number of plane-waves:     15328
 maximum index in each direction: 
   IXMAX=   14   IYMAX=   14   IZMAX=   16
   IXMIN=  -15   IYMIN=  -15   IZMIN=  -17


 serial   3D FFT for wavefunctions
 parallel 3D FFT for charge:
    minimum data exchange during FFTs selected (reduces bandwidth)


 total amount of memory used by VASP MPI-rank0    48491. kBytes
=======================================================================

   base      :      30000. kBytes
   nonlr-proj:       3767. kBytes
   fftplans  :       1587. kBytes
   grid      :       7031. kBytes
   one-center:        110. kBytes
   wavefun   :       5996. kBytes

     INWAV:  cpu time      0.0000: real time      0.0002
 Broyden mixing: mesh for mixing (old mesh)
   NGX = 29   NGY = 29   NGZ = 33
  (NGX  = 96   NGY  = 96   NGZ  =108)
  gives a total of  27753 points

 initial charge density was supplied:
 charge density of overlapping atoms calculated
 number of electron     208.0000000 magnetization 
 keeping initial charge density in first step


--------------------------------------------------------------------------------------------------------


 Maximum index for non-local projection operator         1328
 Maximum index for augmentation-charges          329 (set IRDMAX)


--------------------------------------------------------------------------------------------------------


 First call to EWALD:  gamma=   0.188
 Maximum number of real-space cells 3x 3x 3
 Maximum number of reciprocal cells 3x 3x 3

    FEWALD:  cpu time      0.0014: real time      0.0014


--------------------------------------- Iteration      1(   1)  ---------------------------------------


    POTLOK:  cpu time      0.0285: real time      0.0287
    SETDIJ:  cpu time      0.0034: real time      0.0035
     EDDAV:  cpu time      1.2300: real time      1.2310
       DOS:  cpu time      0.0006: real time      0.0007
    --------------------------------------------
      LOOP:  cpu time      1.2625: real time      1.2640

 eigenvalue-minimisations  :  1536
 total energy-change (2. order) : 0.1458201E+04  (-0.8145922E+04)
 number of electron     208.0000000 magnetization 
 augmentation part      208.0000000 magnetization 

 Free energy of the ion-electron system (eV)
  ---------------------------------------------------
  alpha Z        PSCENC =       226.87976844
  Ewald energy   TEWEN  =     -8261.33657090
  -Hartree energ DENC   =     -2898.65350325
  -exchange      EXHF   =         0.00000000
  -V(xc)+E(xc)   XCENC  =       368.84236831
  PAW double counting   =      9073.45590583    -9577.48590507
  entropy T*S    EENTRO =        -0.01111037
  eigenvalues    EBANDS =        37.34738147
  atomic energy  EATOM  =     12489.16264677
  Solvation  Ediel_sol  =         0.00000000
  ---------------------------------------------------
  free energy    TOTEN  =      1458.20098124 eV

  energy without entropy =     1458.21209161  energy(sigma->0) =     1458.20653642


--------------------------------------------------------------------------------------------------------




--------------------------------------- Iteration      1(   2)  ---------------------------------------


     EDDAV:  cpu time      1.6493: real time      1.6517
       DOS:  cpu time      0.0002: real time      0.0003
    --------------------------------------------
      LOOP:  cpu time      1.6495: real time      1.6521

 eigenvalue-minimisations  :  1984
 total energy-change (2. order) :-0.1494217E+04  (-0.1461057E+04)
 number of electron     208.0000000 magnetization 
 augmentation part      208.0000000 magnetization 

 Free energy of the ion-electron system (eV)
  ---------------------------------------------------
  alpha Z        PSCENC =       226.87976844
  Ewald energy   TEWEN  =     -8261.33657090
  -Hartree energ DENC   =     -2898.65350325
  -exchange      EXHF   =         0.00000000
  -V(xc)+E(xc)   XCENC  =       368.84236831
  PAW double counting   =      9073.45590583    -9577.48590507
  entropy T*S    EENTRO =        -0.00000000
  eigenvalues    EBANDS =     -1456.88054923
  atomic energy  EATOM  =     12489.16264677
  Solvation  Ediel_sol  =         0.00000000
  ---------------------------------------------------
  free energy    TOTEN  =       -36.01583909 eV

  energy without entropy =      -36.01583909  energy(sigma->0) =      -36.01583909


--------------------------------------------------------------------------------------------------------




--------------------------------------- Iteration      1(   3)  ---------------------------------------


     EDDAV:  cpu time      1.6174: real time      1.6210
       DOS:  cpu time      0.0002: real time      0.0003
    --------------------------------------------
      LOOP:  cpu time      1.6176: real time      1.6214

 eigenvalue-minimisations  :  1920
 total energy-change (2. order) :-0.1356412E+03  (-0.1351013E+03)
 number of electron     208.0000000 magnetization 
 augmentation part      208.0000000 magnetization 

 Free energy of the ion-electron system (eV)
  ---------------------------------------------------
  alpha Z        PSCENC =       226.87976844
  Ewald energy   TEWEN  =     -8261.33657090
  -Hartree energ DENC   =     -2898.65350325
  -exchange      EXHF   =         0.00000000
  -V(xc)+E(xc)   XCENC  =       368.84236831
  PAW double counting   =      9073.45590583    -9577.48590507
  entropy T*S    EENTRO =        -0.00000000
  eigenvalues    EBANDS =     -1592.52172664
  atomic energy  EATOM  =     12489.16264677
  Solvation  Ediel_sol  =         0.00000000
  ---------------------------------------------------
  free energy    TOTEN  =      -171.65701650 eV

  energy without entropy =     -171.65701650  energy(sigma->0) =     -171.65701650


--------------------------------------------------------------------------------------------------------




--------------------------------------- Iteration      1(   4)  ---------------------------------------


     EDDAV:  cpu time      1.6700: real time      1.6727
       DOS:  cpu time      0.0002: real time      0.0003
    --------------------------------------------
      LOOP:  cpu time      1.6703: real time      1.6730

 eigenvalue-minimisations  :  1984
 total energy-change (2. order) :-0.3849459E+01  (-0.3838832E+01)
 number of electron     208.0000000 magnetization 
 augmentation part      208.0000000 magnetization 

 Free energy of the ion-electron system (eV)
  ---------------------------------------------------
  alpha Z        PSCENC =       226.87976844
  Ewald energy   TEWEN  =     -8261.33657090
  -Hartree energ DENC   =     -2898.65350325
  -exchange      EXHF   =         0.00000000
  -V(xc)+E(xc)   XCENC  =       368.84236831
  PAW double counting   =      9073.45590583    -9577.48590507
  entropy T*S    EENTRO =        -0.00000000
  eigenvalues    EBANDS =     -1596.37118588
  atomic energy  EATOM  =     12489.16264677
  Solvation  Ediel_sol  =         0.00000000
  ---------------------------------------------------
  free energy    TOTEN  =      -175.50647574 eV

  energy without entropy =     -175.50647574  energy(sigma->0) =     -175.50647574


--------------------------------------------------------------------------------------------------------




--------------------------------------- Iteration      1(   5)  ---------------------------------------


     EDDAV:  cpu time      1.7126: real time      1.7146
       DOS:  cpu time      0.0002: real time      0.0004
    CHARGE:  cpu time      0.0725: real time      0.0727
    MIXING:  cpu time      0.0014: real time      0.0016
    --------------------------------------------
      LOOP:  cpu time      1.7867: real time      1.7893

 eigenvalue-minimisations  :  2048
 total energy-change (2. order) :-0.1604403E+00  (-0.1604072E+00)
 number of electron     208.0000009 magnetization 
 augmentation part       16.8992004 magnetization 

 Broyden mixing:
  rms(total) = 0.34856E+01    rms(broyden)= 0.34855E+01
  rms(prec ) = 0.36997E+01
  weight for this iteration     100.00

 Free energy of the ion-electron system (eV)
  ---------------------------------------------------
  alpha Z        PSCENC =       226.87976844
  Ewald energy   TEWEN  =     -8261.33657090
  -Hartree energ DENC   =     -2898.65350325
  -exchange      EXHF   =         0.00000000
  -V(xc)+E(xc)   XCENC  =       368.84236831
  PAW double counting   =      9073.45590583    -9577.48590507
  entropy T*S    EENTRO =        -0.00000000
  eigenvalues    EBANDS =     -1596.53162619
  atomic energy  EATOM  =     12489.16264677
  Solvation  Ediel_sol  =         0.00000000
  ---------------------------------------------------
  free energy    TOTEN  =      -175.66691606 eV

  energy without entropy =     -175.66691606  energy(sigma->0) =     -175.66691606


--------------------------------------------------------------------------------------------------------




--------------------------------------- Iteration      1(   6)  ---------------------------------------


    POTLOK:  cpu time      0.0210: real time      0.0212
    SETDIJ:  cpu time      0.0024: real time      0.0024
     EDDAV:  cpu time      1.5979: real time      1.5993
       DOS:  cpu time      0.0002: real time      0.0004
    CHARGE:  cpu time      0.0707: real time      0.0707
    MIXING:  cpu time      0.0011: real time      0.0011
    --------------------------------------------
      LOOP:  cpu time      1.6934: real time      1.6952

 eigenvalue-minimisations  :  1920
 total energy-change (2. order) : 0.5569275E+01  (-0.1026748E+01)
 number of electron     208.0000010 magnetization 
 augmentation part       17.3043449 magnetization 

 Broyden mixing:
  rms(total) = 0.23135E+01    rms(broyden)= 0.23135E+01
  rms(prec ) = 0.23778E+01
  weight for this iteration     100.00

 eigenvalues of (default mixing * dielectric matrix)
  average eigenvalue GAMMA=   2.5285
  2.5285

 Free energy of the ion-electron system (eV)
  ---------------------------------------------------
  alpha Z        PSCENC =       226.87976844
  Ewald energy   TEWEN  =     -8261.33657090
  -Hartree energ DENC   =     -2955.21311851
  -exchange      EXHF   =         0.00000000
  -V(xc)+E(xc)   XCENC  =       375.01197521
  PAW double counting   =     12719.20747152   -13223.93810451
  entropy T*S    EENTRO =        -0.00000000
  eigenvalues    EBANDS =     -1539.87170944
  atomic energy  EATOM  =     12489.16264677
  Solvation  Ediel_sol  =         0.00000000
  ---------------------------------------------------
  free energy    TOTEN  =      -170.09764142 eV

  energy without entropy =     -170.09764142  energy(sigma->0) =     -170.09764142


--------------------------------------------------------------------------------------------------------




--------------------------------------- Iteration      1(   7)  ---------------------------------------


    POTLOK:  cpu time      0.0209: real time      0.0211
    SETDIJ:  cpu time      0.0025: real time      0.0025
     EDDAV:  cpu time      1.7241: real time      1.7252
       DOS:  cpu time      0.0002: real time      0.0004
    CHARGE:  cpu time      0.0702: real time      0.0705
    MIXING:  cpu time      0.0009: real time      0.0009
    --------------------------------------------
      LOOP:  cpu time      1.8189: real time      1.8207

 eigenvalue-minimisations  :  2080
 total energy-change (2. order) : 0.4912722E+00  (-0.8595610E+00)
 number of electron     208.0000012 magnetization 
 augmentation part       17.7034596 magnetization 

 Broyden mixing:
  rms(total) = 0.55175E+00    rms(broyden)= 0.55175E+00
  rms(prec ) = 0.59473E+00
  weight for this iteration     100.00

 eigenvalues of (default mixing * dielectric matrix)
  average eigenvalue GAMMA=   1.8250
  1.1838  2.4661

 Free energy of the ion-electron system (eV)
  ---------------------------------------------------
  alpha Z        PSCENC =       226.87976844
  Ewald energy   TEWEN  =     -8261.33657090
  -Hartree energ DENC   =     -3008.01831048
  -exchange      EXHF   =         0.00000000
  -V(xc)+E(xc)   XCENC  =       381.87246264
  PAW double counting   =     20781.38835470   -21288.38570674
  entropy T*S    EENTRO =        -0.00000000
  eigenvalues    EBANDS =     -1491.16901370
  atomic energy  EATOM  =     12489.16264677
  Solvation  Ediel_sol  =         0.00000000
  ---------------------------------------------------
  free energy    TOTEN  =      -169.60636926 eV

  energy without entropy =     -169.60636926  energy(sigma->0) =     -169.60636926


--------------------------------------------------------------------------------------------------------




--------------------------------------- Iteration      1(   8)  ---------------------------------------


    POTLOK:  cpu time      0.0208: real time      0.0210
    SETDIJ:  cpu time      0.0024: real time      0.0024
     EDDAV:  cpu time      1.5509: real time      1.5521
       DOS:  cpu time      0.0003: real time      0.0004
    CHARGE:  cpu time      0.0700: real time      0.0700
    MIXING:  cpu time      0.0009: real time      0.0009
    --------------------------------------------
      LOOP:  cpu time      1.6453: real time      1.6469

 eigenvalue-minimisations  :  1888
 total energy-change (2. order) : 0.1516144E+00  (-0.1075097E+00)
 number of electron     208.0000011 magnetization 
 augmentation part       17.5925046 magnetization 

 Broyden mixing:
  rms(total) = 0.31823E+00    rms(broyden)= 0.31823E+00
  rms(prec ) = 0.32347E+00
  weight for this iteration     100.00

 eigenvalues of (default mixing * dielectric matrix)
  average eigenvalue GAMMA=   1.7726
  2.8249  1.2464  1.2464

 Free energy of the ion-electron system (eV)
  ---------------------------------------------------
  alpha Z        PSCENC =       226.87976844
  Ewald energy   TEWEN  =     -8261.33657090
  -Hartree energ DENC   =     -2996.28749548
  -exchange      EXHF   =         0.00000000
  -V(xc)+E(xc)   XCENC  =       381.40983084
  PAW double counting   =     21682.20960184   -22190.05181907
  entropy T*S    EENTRO =        -0.00000000
  eigenvalues    EBANDS =     -1501.44071727
  atomic energy  EATOM  =     12489.16264677
  Solvation  Ediel_sol  =         0.00000000
  ---------------------------------------------------
  free energy    TOTEN  =      -169.45475484 eV

  energy without entropy =     -169.45475484  energy(sigma->0) =     -169.45475484


--------------------------------------------------------------------------------------------------------




--------------------------------------- Iteration      1(   9)  ---------------------------------------


    POTLOK:  cpu time      0.0207: real time      0.0209
    SETDIJ:  cpu time      0.0024: real time      0.0024
     EDDAV:  cpu time      1.5913: real time      1.5922
       DOS:  cpu time      0.0003: real time      0.0004
    CHARGE:  cpu time      0.0703: real time      0.0704
    MIXING:  cpu time      0.0011: real time      0.0011
    --------------------------------------------
      LOOP:  cpu time      1.6861: real time      1.6875

 eigenvalue-minimisations  :  1920
 total energy-change (2. order) :-0.1036230E-01  (-0.8622499E-02)
 number of electron     208.0000011 magnetization 
 augmentation part       17.5778529 magnetization 

 Broyden mixing:
  rms(total) = 0.10691E+00    rms(broyden)= 0.10690E+00
  rms(prec ) = 0.11073E+00
  weight for this iteration     100.00

 eigenvalues of (default mixing * dielectric matrix)
  average eigenvalue GAMMA=   1.6061
  1.9165  1.9165  1.2956  1.2956

 Free energy of the ion-electron system (eV)
  ---------------------------------------------------
  alpha Z        PSCENC =       226.87976844
  Ewald energy   TEWEN  =     -8261.33657090
  -Hartree energ DENC   =     -2997.60295161
  -exchange      EXHF   =         0.00000000
  -V(xc)+E(xc)   XCENC  =       381.85497314
  PAW double counting   =     22232.64761184   -22740.65764514
  entropy T*S    EENTRO =        -0.00000000
  eigenvalues    EBANDS =     -1500.41294968
  atomic energy  EATOM  =     12489.16264677
  Solvation  Ediel_sol  =         0.00000000
  ---------------------------------------------------
  free energy    TOTEN  =      -169.46511714 eV

  energy without entropy =     -169.46511714  energy(sigma->0) =     -169.46511714


--------------------------------------------------------------------------------------------------------




--------------------------------------- Iteration      1(  10)  ---------------------------------------


    POTLOK:  cpu time      0.0208: real time      0.0211
    SETDIJ:  cpu time      0.0025: real time      0.0025
     EDDAV:  cpu time      1.6151: real time      1.6163
       DOS:  cpu time      0.0002: real time      0.0004
    CHARGE:  cpu time      0.0706: real time      0.0706
    MIXING:  cpu time      0.0011: real time      0.0011
    --------------------------------------------
      LOOP:  cpu time      1.7105: real time      1.7121

 eigenvalue-minimisations  :  1952
 total energy-change (2. order) : 0.1812246E-02  (-0.2084996E-02)
 number of electron     208.0000011 magnetization 
 augmentation part       17.5623007 magnetization 

 Broyden mixing:
  rms(total) = 0.57399E-01    rms(broyden)= 0.57399E-01
  rms(prec ) = 0.59210E-01
  weight for this iteration     100.00

 eigenvalues of (default mixing * dielectric matrix)
  average eigenvalue GAMMA=   1.6222
  2.3076  2.3076  1.3167  1.3167  0.8621

 Free energy of the ion-electron system (eV)
  ---------------------------------------------------
  alpha Z        PSCENC =       226.87976844
  Ewald energy   TEWEN  =     -8261.33657090
  -Hartree energ DENC   =     -2995.06650279
  -exchange      EXHF   =         0.00000000
  -V(xc)+E(xc)   XCENC  =       381.56466037
  PAW double counting   =     21708.77679398   -22216.73818439
  entropy T*S    EENTRO =        -0.00000000
  eigenvalues    EBANDS =     -1502.70591638
  atomic energy  EATOM  =     12489.16264677
  Solvation  Ediel_sol  =         0.00000000
  ---------------------------------------------------
  free energy    TOTEN  =      -169.46330489 eV

  energy without entropy =     -169.46330489  energy(sigma->0) =     -169.46330489


--------------------------------------------------------------------------------------------------------




--------------------------------------- Iteration      1(  11)  ---------------------------------------


    POTLOK:  cpu time      0.0211: real time      0.0213
    SETDIJ:  cpu time      0.0024: real time      0.0024
     EDDAV:  cpu time      1.5926: real time      1.5935
       DOS:  cpu time      0.0003: real time      0.0005
    CHARGE:  cpu time      0.0703: real time      0.0703
    MIXING:  cpu time      0.0012: real time      0.0012
    --------------------------------------------
      LOOP:  cpu time      1.6878: real time      1.6891

 eigenvalue-minimisations  :  1920
 total energy-change (2. order) :-0.1319446E-02  (-0.2536245E-03)
 number of electron     208.0000011 magnetization 
 augmentation part       17.5636970 magnetization 

 Broyden mixing:
  rms(total) = 0.11548E-01    rms(broyden)= 0.11548E-01
  rms(prec ) = 0.13745E-01
  weight for this iteration     100.00

 eigenvalues of (default mixing * dielectric matrix)
  average eigenvalue GAMMA=   1.6232
  2.3619  2.3619  1.3541  1.3541  1.4453  0.8619

 Free energy of the ion-electron system (eV)
  ---------------------------------------------------
  alpha Z        PSCENC =       226.87976844
  Ewald energy   TEWEN  =     -8261.33657090
  -Hartree energ DENC   =     -2995.23174640
  -exchange      EXHF   =         0.00000000
  -V(xc)+E(xc)   XCENC  =       381.62870534
  PAW double counting   =     21673.58821734   -22181.61387206
  entropy T*S    EENTRO =        -0.00000000
  eigenvalues    EBANDS =     -1502.54177287
  atomic energy  EATOM  =     12489.16264677
  Solvation  Ediel_sol  =         0.00000000
  ---------------------------------------------------
  free energy    TOTEN  =      -169.46462434 eV

  energy without entropy =     -169.46462434  energy(sigma->0) =     -169.46462434


--------------------------------------------------------------------------------------------------------




--------------------------------------- Iteration      1(  12)  ---------------------------------------


    POTLOK:  cpu time      0.0212: real time      0.0214
    SETDIJ:  cpu time      0.0024: real time      0.0024
     EDDAV:  cpu time      1.5819: real time      1.5831
       DOS:  cpu time      0.0003: real time      0.0004
    CHARGE:  cpu time      0.0702: real time      0.0702
    MIXING:  cpu time      0.0010: real time      0.0010
    --------------------------------------------
      LOOP:  cpu time      1.6769: real time      1.6785

 eigenvalue-minimisations  :  1920
 total energy-change (2. order) :-0.3316117E-03  (-0.4666067E-04)
 number of electron     208.0000011 magnetization 
 augmentation part       17.5641652 magnetization 

 Broyden mixing:
  rms(total) = 0.10663E-01    rms(broyden)= 0.10663E-01
  rms(prec ) = 0.10925E-01
  weight for this iteration     100.00

 eigenvalues of (default mixing * dielectric matrix)
  average eigenvalue GAMMA=   1.6990
  2.5143  2.5143  2.2558  1.3592  1.3592  0.9452  0.9452

 Free energy of the ion-electron system (eV)
  ---------------------------------------------------
  alpha Z        PSCENC =       226.87976844
  Ewald energy   TEWEN  =     -8261.33657090
  -Hartree energ DENC   =     -2995.39400033
  -exchange      EXHF   =         0.00000000
  -V(xc)+E(xc)   XCENC  =       381.68210245
  PAW double counting   =     21699.39894625   -22207.47308834
  entropy T*S    EENTRO =        -0.00000000
  eigenvalues    EBANDS =     -1502.38476029
  atomic energy  EATOM  =     12489.16264677
  Solvation  Ediel_sol  =         0.00000000
  ---------------------------------------------------
  free energy    TOTEN  =      -169.46495595 eV

  energy without entropy =     -169.46495595  energy(sigma->0) =     -169.46495595


--------------------------------------------------------------------------------------------------------




--------------------------------------- Iteration      1(  13)  ---------------------------------------


    POTLOK:  cpu time      0.0207: real time      0.0209
    SETDIJ:  cpu time      0.0024: real time      0.0024
     EDDAV:  cpu time      1.5816: real time      1.5827
       DOS:  cpu time      0.0002: real time      0.0004
    CHARGE:  cpu time      0.0701: real time      0.0702
    MIXING:  cpu time      0.0010: real time      0.0010
    --------------------------------------------
      LOOP:  cpu time      1.6762: real time      1.6777

 eigenvalue-minimisations  :  1920
 total energy-change (2. order) :-0.7626886E-04  (-0.1814546E-04)
 number of electron     208.0000011 magnetization 
 augmentation part       17.5643253 magnetization 

 Broyden mixing:
  rms(total) = 0.49989E-02    rms(broyden)= 0.49989E-02
  rms(prec ) = 0.51559E-02
  weight for this iteration     100.00

 eigenvalues of (default mixing * dielectric matrix)
  average eigenvalue GAMMA=   1.6208
  2.6702  2.6702  1.7854  1.5585  1.1840  1.1840  1.0691  0.8453

 Free energy of the ion-electron system (eV)
  ---------------------------------------------------
  alpha Z        PSCENC =       226.87976844
  Ewald energy   TEWEN  =     -8261.33657090
  -Hartree energ DENC   =     -2995.46934597
  -exchange      EXHF   =         0.00000000
  -V(xc)+E(xc)   XCENC  =       381.69907945
  PAW double counting   =     21680.35546725   -22188.45009395
  entropy T*S    EENTRO =        -0.00000000
  eigenvalues    EBANDS =     -1502.30598333
  atomic energy  EATOM  =     12489.16264677
  Solvation  Ediel_sol  =         0.00000000
  ---------------------------------------------------
  free energy    TOTEN  =      -169.46503222 eV

  energy without entropy =     -169.46503222  energy(sigma->0) =     -169.46503222


--------------------------------------------------------------------------------------------------------




--------------------------------------- Iteration      1(  14)  ---------------------------------------


    POTLOK:  cpu time      0.0208: real time      0.0210
    SETDIJ:  cpu time      0.0023: real time      0.0023
     EDDAV:  cpu time      1.2574: real time      1.2583
       DOS:  cpu time      0.0002: real time      0.0003
    --------------------------------------------
      LOOP:  cpu time      1.2807: real time      1.2819

 eigenvalue-minimisations  :  1408
 total energy-change (2. order) : 0.2096494E-05  (-0.1696809E-05)
 number of electron     208.0000011 magnetization 
 augmentation part       17.5643253 magnetization 

 Free energy of the ion-electron system (eV)
  ---------------------------------------------------
  alpha Z        PSCENC =       226.87976844
  Ewald energy   TEWEN  =     -8261.33657090
  -Hartree energ DENC   =     -2995.44594219
  -exchange      EXHF   =         0.00000000
  -V(xc)+E(xc)   XCENC  =       381.69864679
  PAW double counting   =     21675.36186450   -22183.46022766
  entropy T*S    EENTRO =        -0.00000000
  eigenvalues    EBANDS =     -1502.32521588
  atomic energy  EATOM  =     12489.16264677
  Solvation  Ediel_sol  =         0.00000000
  ---------------------------------------------------
  free energy    TOTEN  =      -169.46503012 eV

  energy without entropy =     -169.46503012  energy(sigma->0) =     -169.46503012


--------------------------------------------------------------------------------------------------------




 average (electrostatic) potential at core
  the test charge radii are     0.9254  0.9892  0.9698
  (the norm of the test charge is              1.0000)
       1 -46.8071       2 -46.3664       3 -46.3664       4 -46.3664       5 -46.8071
       6 -46.8071       7 -46.8071       8 -46.3664       9 -87.3602      10 -87.3602
      11 -87.3602      12 -87.4488      13 -87.4488      14 -87.4488      15 -87.3602
      16 -87.4488      17 -88.7538      18 -88.7538      19 -88.7538      20 -88.6264
      21 -87.9522      22 -87.9522      23 -87.9522      24 -87.9522      25 -87.7937
      26 -87.7937      27 -87.7937      28 -87.7937      29 -88.7538      30 -88.7538
      31 -88.7538      32 -88.7538      33 -88.7538      34 -88.7058      35 -88.7058
      36 -88.6264



 E-fermi :   1.9030     XC(G=0):  -8.2872     alpha+bet : -8.7929

 Fermi energy:         1.9030111665

 k-point     1 :       0.0000    0.0000    0.0000
  band No.  band energies     occupation 
      1     -21.0137      2.00000
      2     -21.0136      2.00000
      3     -21.0120      2.00000
      4     -21.0120      2.00000
      5     -21.0016      2.00000
      6     -21.0015      2.00000
      7     -21.0011      2.00000
      8     -21.0009      2.00000
      9     -20.9629      2.00000
     10     -20.9628      2.00000
     11     -20.9603      2.00000
     12     -20.9603      2.00000
     13     -20.5716      2.00000
     14     -20.5715      2.00000
     15     -20.5702      2.00000
     16     -20.5701      2.00000
     17     -20.5684      2.00000
     18     -20.5682      2.00000
     19     -20.5606      2.00000
     20     -20.5605      2.00000
     21     -20.5395      2.00000
     22     -20.5387      2.00000
     23     -20.5380      2.00000
     24     -20.5372      2.00000
     25     -12.2232      2.00000
     26     -12.1310      2.00000
     27     -11.1306      2.00000
     28     -11.1141      2.00000
     29     -11.0981      2.00000
     30     -11.0810      2.00000
     31     -11.0789      2.00000
     32     -11.0436      2.00000
     33     -10.1939      2.00000
     34     -10.1695      2.00000
     35     -10.1679      2.00000
     36     -10.1523      2.00000
     37      -9.6256      2.00000
     38      -9.6087      2.00000
     39      -9.5448      2.00000
     40      -9.5406      2.00000
     41      -9.5165      2.00000
     42      -9.4841      2.00000
     43      -9.4022      2.00000
     44      -9.3452      2.00000
     45      -5.0092      2.00000
     46      -4.9674      2.00000
     47      -4.9661      2.00000
     48      -4.9378      2.00000
     49      -4.8938      2.00000
     50      -4.8926      2.00000
     51      -3.5770      2.00000
     52      -3.2813      2.00000
     53      -2.7359      2.00000
     54      -2.6318      2.00000
     55      -2.5596      2.00000
     56      -2.5441      2.00000
     57      -2.5419      2.00000
     58      -2.4809      2.00000
     59      -1.9847      2.00000
     60      -1.8895      2.00000
     61      -1.7080      2.00000
     62      -1.6629      2.00000
     63      -1.6187      2.00000
     64      -1.5039      2.00000
     65      -1.3569      2.00000
     66      -1.3538      2.00000
     67      -1.2489      2.00000
     68      -1.0885      2.00000
     69      -1.0279      2.00000
     70      -0.9783      2.00000
     71      -0.7880      2.00000
     72      -0.5350      2.00000
     73      -0.3454      2.00000
     74      -0.2509      2.00000
     75      -0.0671      2.00000
     76       0.0205      2.00000
     77       0.1830      2.00000
     78       0.3195      2.00000
     79       0.3225      2.00000
     80       0.4742      2.00000
     81       0.4883      2.00000
     82       0.5381      2.00000
     83       0.6246      2.00000
     84       0.6255      2.00000
     85       0.6982      2.00000
     86       0.7842      2.00000
     87       0.8342      2.00000
     88       0.8532      2.00000
     89       0.9251      2.00000
     90       0.9946      2.00000
     91       1.0101      2.00000
     92       1.0111      2.00000
     93       1.1471      2.00000
     94       1.1536      2.00000
     95       1.1820      2.00000
     96       1.2202      2.00000
     97       1.2232      2.00000
     98       1.2767      2.00000
     99       1.3822      2.00000
    100       1.4636      2.00000
    101       1.4881      2.00000
    102       1.5182      2.00000
    103       1.5642      2.00000
    104       1.5929      2.00000
    105       5.3228      0.00000
    106       5.3600      0.00000
    107       5.4404      0.00000
    108       5.5207      0.00000
    109       5.5214      0.00000
    110       5.5765      0.00000
    111       5.9881      0.00000
    112       6.0071      0.00000
    113       6.0172      0.00000
    114       6.0387      0.00000
    115       6.0389      0.00000
    116       6.2291      0.00000
    117       6.2947      0.00000
    118       6.6914      0.00000
    119       6.7728      0.00000
    120       6.9050      0.00000
    121       6.9073      0.00000
    122       6.9468      0.00000
    123       6.9821      0.00000
    124       6.9842      0.00000
    125       7.1053      0.00000
    126       7.4927      0.00000
    127       7.5059      0.00000
    128       7.5920      0.00000

 k-point     2 :       0.5000    0.0000    0.0000
  band No.  band energies     occupation 
      1     -21.0137      2.00000
      2     -21.0137      2.00000
      3     -21.0120      2.00000
      4     -21.0120      2.00000
      5     -21.0016      2.00000
      6     -21.0016      2.00000
      7     -21.0010      2.00000
      8     -21.0010      2.00000
      9     -20.9629      2.00000
     10     -20.9629      2.00000
     11     -20.9603      2.00000
     12     -20.9603      2.00000
     13     -20.5716      2.00000
     14     -20.5715      2.00000
     15     -20.5701      2.00000
     16     -20.5701      2.00000
     17     -20.5684      2.00000
     18     -20.5682      2.00000
     19     -20.5606      2.00000
     20     -20.5604      2.00000
     21     -20.5395      2.00000
     22     -20.5387      2.00000
     23     -20.5380      2.00000
     24     -20.5373      2.00000
     25     -12.1956      2.00000
     26     -12.1307      2.00000
     27     -11.1803      2.00000
     28     -11.1186      2.00000
     29     -11.1082      2.00000
     30     -11.0909      2.00000
     31     -11.0665      2.00000
     32     -11.0657      2.00000
     33     -10.2055      2.00000
     34     -10.1911      2.00000
     35     -10.1497      2.00000
     36     -10.1459      2.00000
     37      -9.6330      2.00000
     38      -9.5793      2.00000
     39      -9.5412      2.00000
     40      -9.5241      2.00000
     41      -9.4703      2.00000
     42      -9.4571      2.00000
     43      -9.3775      2.00000
     44      -9.3768      2.00000
     45      -5.0573      2.00000
     46      -5.0390      2.00000
     47      -5.0088      2.00000
     48      -4.9430      2.00000
     49      -4.9405      2.00000
     50      -4.8916      2.00000
     51      -3.4537      2.00000
     52      -3.3155      2.00000
     53      -2.7018      2.00000
     54      -2.5964      2.00000
     55      -2.5780      2.00000
     56      -2.5480      2.00000
     57      -2.5284      2.00000
     58      -2.4511      2.00000
     59      -2.0695      2.00000
     60      -2.0345      2.00000
     61      -1.6380      2.00000
     62      -1.5594      2.00000
     63      -1.5452      2.00000
     64      -1.5277      2.00000
     65      -1.4915      2.00000
     66      -1.3569      2.00000
     67      -1.1645      2.00000
     68      -1.0313      2.00000
     69      -0.7967      2.00000
     70      -0.7367      2.00000
     71      -0.6598      2.00000
     72      -0.6220      2.00000
     73      -0.2076      2.00000
     74      -0.1993      2.00000
     75      -0.1961      2.00000
     76      -0.1916      2.00000
     77       0.2190      2.00000
     78       0.2839      2.00000
     79       0.2897      2.00000
     80       0.3892      2.00000
     81       0.3905      2.00000
     82       0.5247      2.00000
     83       0.5495      2.00000
     84       0.5844      2.00000
     85       0.6809      2.00000
     86       0.7883      2.00000
     87       0.8189      2.00000
     88       0.8381      2.00000
     89       0.8982      2.00000
     90       1.0122      2.00000
     91       1.0392      2.00000
     92       1.0833      2.00000
     93       1.0836      2.00000
     94       1.1917      2.00000
     95       1.1950      2.00000
     96       1.2073      2.00000
     97       1.2532      2.00000
     98       1.2866      2.00000
     99       1.3731      2.00000
    100       1.3828      2.00000
    101       1.3854      2.00000
    102       1.4489      2.00000
    103       1.4699      2.00000
    104       1.6194      2.00000
    105       5.3605      0.00000
    106       5.3721      0.00000
    107       5.6375      0.00000
    108       5.7217      0.00000
    109       5.7866      0.00000
    110       5.7906      0.00000
    111       5.8732      0.00000
    112       6.0205      0.00000
    113       6.0915      0.00000
    114       6.1276      0.00000
    115       6.1760      0.00000
    116       6.3461      0.00000
    117       6.4263      0.00000
    118       6.4293      0.00000
    119       6.5803      0.00000
    120       6.6768      0.00000
    121       6.8091      0.00000
    122       6.8571      0.00000
    123       6.9614      0.00000
    124       7.0903      0.00000
    125       7.1095      0.00000
    126       7.3739      0.00000
    127       7.3790      0.00000
    128       7.4179      0.00000

 k-point     3 :       0.5000    0.5000    0.0000
  band No.  band energies     occupation 
      1     -21.0137      2.00000
      2     -21.0137      2.00000
      3     -21.0119      2.00000
      4     -21.0119      2.00000
      5     -21.0016      2.00000
      6     -21.0015      2.00000
      7     -21.0011      2.00000
      8     -21.0009      2.00000
      9     -20.9629      2.00000
     10     -20.9629      2.00000
     11     -20.9602      2.00000
     12     -20.9602      2.00000
     13     -20.5716      2.00000
     14     -20.5715      2.00000
     15     -20.5701      2.00000
     16     -20.5700      2.00000
     17     -20.5684      2.00000
     18     -20.5682      2.00000
     19     -20.5606      2.00000
     20     -20.5604      2.00000
     21     -20.5394      2.00000
     22     -20.5387      2.00000
     23     -20.5381      2.00000
     24     -20.5372      2.00000
     25     -12.1736      2.00000
     26     -12.1232      2.00000
     27     -11.1739      2.00000
     28     -11.1565      2.00000
     29     -11.1564      2.00000
     30     -11.0777      2.00000
     31     -11.0754      2.00000
     32     -11.0739      2.00000
     33     -10.2137      2.00000
     34     -10.2112      2.00000
     35     -10.1554      2.00000
     36     -10.1247      2.00000
     37      -9.5971      2.00000
     38      -9.5666      2.00000
     39      -9.5480      2.00000
     40      -9.5031      2.00000
     41      -9.4917      2.00000
     42      -9.4510      2.00000
     43      -9.3561      2.00000
     44      -9.3313      2.00000
     45      -5.1047      2.00000
     46      -5.0354      2.00000
     47      -5.0120      2.00000
     48      -5.0044      2.00000
     49      -4.9842      2.00000
     50      -4.9685      2.00000
     51      -3.3640      2.00000
     52      -3.3319      2.00000
     53      -2.6541      2.00000
     54      -2.6061      2.00000
     55      -2.5366      2.00000
     56      -2.5040      2.00000
     57      -2.4979      2.00000
     58      -2.4798      2.00000
     59      -2.1160      2.00000
     60      -1.9409      2.00000
     61      -1.7258      2.00000
     62      -1.6671      2.00000
     63      -1.5446      2.00000
     64      -1.5327      2.00000
     65      -1.4294      2.00000
     66      -1.3372      2.00000
     67      -0.9766      2.00000
     68      -0.9667      2.00000
     69      -0.6957      2.00000
     70      -0.5301      2.00000
     71      -0.4892      2.00000
     72      -0.4839      2.00000
     73      -0.4785      2.00000
     74      -0.3182      2.00000
     75      -0.1183      2.00000
     76      -0.0797      2.00000
     77      -0.0347      2.00000
     78       0.0751      2.00000
     79       0.2702      2.00000
     80       0.3993      2.00000
     81       0.4065      2.00000
     82       0.4366      2.00000
     83       0.5447      2.00000
     84       0.6142      2.00000
     85       0.7469      2.00000
     86       0.7481      2.00000
     87       0.7964      2.00000
     88       0.8560      2.00000
     89       0.8626      2.00000
     90       0.9122      2.00000
     91       0.9281      2.00000
     92       0.9469      2.00000
     93       1.0084      2.00000
     94       1.0572      2.00000
     95       1.0718      2.00000
     96       1.1990      2.00000
     97       1.2311      2.00000
     98       1.2934      2.00000
     99       1.4888      2.00000
    100       1.4954      2.00000
    101       1.5004      2.00000
    102       1.5710      2.00000
    103       1.5827      2.00000
    104       1.5887      2.00000
    105       5.1700      0.00000
    106       5.2669      0.00000
    107       5.5174      0.00000
    108       5.7650      0.00000
    109       5.8599      0.00000
    110       5.8825      0.00000
    111       5.9858      0.00000
    112       6.0205      0.00000
    113       6.0468      0.00000
    114       6.1567      0.00000
    115       6.2240      0.00000
    116       6.4280      0.00000
    117       6.4777      0.00000
[...]
     98       1.0207      2.00000
     99       1.0538      2.00000
    100       1.0538      2.00000
    101       1.1727      2.00000
    102       1.1727      2.00000
    103       1.2016      2.00000
    104       1.2016      2.00000
    105       5.1783      0.00000
    106       5.1783      0.00000
    107       5.4702      0.00000
    108       5.4702      0.00000
    109       5.5507      0.00000
    110       5.5507      0.00000
    111       5.6615      0.00000
    112       5.6615      0.00000
    113       5.9044      0.00000
    114       5.9044      0.00000
    115       6.0130      0.00000
    116       6.0130      0.00000
    117       6.1736      0.00000
    118       6.1736      0.00000
    119       6.4098      0.00000
    120       6.4098      0.00000
    121       6.4487      0.00000
    122       6.4487      0.00000
    123       6.8680      0.00000
    124       6.8680      0.00000
    125       7.0600      0.00000
    126       7.0600      0.00000
    127       7.1083      0.00000
    128       7.1083      0.00000

 k-point     6 :       0.5000    0.5000    0.5000
  band No.  band energies     occupation 
      1     -21.3120      2.00000
      2     -21.3120      2.00000
      3     -21.3105      2.00000
      4     -21.3105      2.00000
      5     -21.3007      2.00000
      6     -21.3007      2.00000
      7     -21.3003      2.00000
      8     -21.3003      2.00000
      9     -21.2630      2.00000
     10     -21.2630      2.00000
     11     -21.2608      2.00000
     12     -21.2608      2.00000
     13     -20.8805      2.00000
     14     -20.8805      2.00000
     15     -20.8792      2.00000
     16     -20.8792      2.00000
     17     -20.8776      2.00000
     18     -20.8776      2.00000
     19     -20.8705      2.00000
     20     -20.8705      2.00000
     21     -20.8486      2.00000
     22     -20.8486      2.00000
     23     -20.8479      2.00000
     24     -20.8479      2.00000
     25     -12.2704      2.00000
     26     -12.2704      2.00000
     27     -11.3059      2.00000
     28     -11.3059      2.00000
     29     -11.2781      2.00000
     30     -11.2781      2.00000
     31     -11.2226      2.00000
     32     -11.2226      2.00000
     33     -10.3631      2.00000
     34     -10.3631      2.00000
     35     -10.3548      2.00000
     36     -10.3548      2.00000
     37      -9.8032      2.00000
     38      -9.8032      2.00000
     39      -9.6495      2.00000
     40      -9.6495      2.00000
     41      -9.6483      2.00000
     42      -9.6483      2.00000
     43      -9.5178      2.00000
     44      -9.5178      2.00000
     45      -5.2655      2.00000
     46      -5.2655      2.00000
     47      -5.2110      2.00000
     48      -5.2110      2.00000
     49      -5.2051      2.00000
     50      -5.2051      2.00000
     51      -3.5573      2.00000
     52      -3.5573      2.00000
     53      -2.7814      2.00000
     54      -2.7814      2.00000
     55      -2.6800      2.00000
     56      -2.6800      2.00000
     57      -2.6743      2.00000
     58      -2.6743      2.00000
     59      -1.9674      2.00000
     60      -1.9674      2.00000
     61      -1.8188      2.00000
     62      -1.8188      2.00000
     63      -1.7045      2.00000
     64      -1.7045      2.00000
     65      -1.6103      2.00000
     66      -1.6103      2.00000
     67      -1.2802      2.00000
     68      -1.2802      2.00000
     69      -0.8307      2.00000
     70      -0.8307      2.00000
     71      -0.7202      2.00000
     72      -0.7202      2.00000
     73      -0.4574      2.00000
     74      -0.4574      2.00000
     75      -0.2945      2.00000
     76      -0.2945      2.00000
     77      -0.0795      2.00000
     78      -0.0795      2.00000
     79      -0.0732      2.00000
     80      -0.0732      2.00000
     81       0.3176      2.00000
     82       0.3176      2.00000
     83       0.3606      2.00000
     84       0.3606      2.00000
     85       0.5690      2.00000
     86       0.5690      2.00000
     87       0.6418      2.00000
     88       0.6418      2.00000
     89       0.6437      2.00000
     90       0.6437      2.00000
     91       0.8597      2.00000
     92       0.8597      2.00000
     93       0.8802      2.00000
     94       0.8802      2.00000
     95       0.9539      2.00000
     96       0.9539      2.00000
     97       0.9853      2.00000
     98       0.9853      2.00000
     99       1.0200      2.00000
    100       1.0200      2.00000
    101       1.0940      2.00000
    102       1.0940      2.00000
    103       1.3817      2.00000
    104       1.3817      2.00000
    105       5.1357      0.00000
    106       5.1357      0.00000
    107       5.2967      0.00000
    108       5.2967      0.00000
    109       5.5185      0.00000
    110       5.5185      0.00000
    111       5.7413      0.00000
    112       5.7413      0.00000
    113       5.9702      0.00000
    114       5.9702      0.00000
    115       6.1853      0.00000
    116       6.1853      0.00000
    117       6.2819      0.00000
    118       6.2819      0.00000
    119       6.3362      0.00000
    120       6.3362      0.00000
    121       6.4355      0.00000
    122       6.4355      0.00000
    123       6.9545      0.00000
    124       6.9545      0.00000
    125       7.0078      0.00000
    126       7.0078      0.00000
    127       7.1420      0.00000
    128       7.1420      0.00000


--------------------------------------------------------------------------------------------------------


 soft charge-density along one line, spin component           1
         0         1         2         3         4         5         6         7         8         9
 total charge-density along one line

 pseudopotential strength for first ion, spin component:           1
-25.384   0.000   0.001   2.581  -0.000  -0.000  -0.000  -0.000
  0.000 -25.407   0.000  -0.000   2.591  -0.000   0.000   0.000
  0.001   0.000 -25.413  -0.000  -0.000   2.593   0.004   0.013
  2.581  -0.000  -0.000   6.560   0.000  -0.000   0.000   0.000
 -0.000   2.591  -0.000   0.000   6.559   0.000  -0.000   0.000
 -0.000  -0.000   2.593  -0.000   0.000   6.558  -0.000  -0.000
 -0.000   0.000   0.004   0.000  -0.000  -0.000   1.431   7.005
 -0.000   0.000   0.013   0.000   0.000  -0.000   7.005  34.047
 total augmentation occupancy for first ion, spin component:           1
  2.000   0.000  -0.000  -0.006  -0.000  -0.000   0.000  -0.000
  0.000   2.001   0.000  -0.000  -0.003  -0.000  -0.000   0.000
 -0.000   0.000   2.001  -0.000  -0.000  -0.002  -0.014   0.005
 -0.006  -0.000  -0.000   0.015   0.000  -0.000   0.001   0.000
 -0.000  -0.003  -0.000   0.000   0.008   0.000  -0.000   0.000
 -0.000  -0.000  -0.002  -0.000   0.000   0.007  -0.009   0.000
  0.000  -0.000  -0.014   0.001  -0.000  -0.009   0.306  -0.001
 -0.000   0.000   0.005   0.000   0.000   0.000  -0.001   0.000


------------------------ aborting loop because EDIFF is reached ----------------------------------------


    CHARGE:  cpu time      0.0710: real time      0.0710
    FORLOC:  cpu time      0.0049: real time      0.0049
    FORNL :  cpu time      0.3357: real time      0.3357
    STRESS:  cpu time      1.0113: real time      1.0119
    FORCOR:  cpu time      0.0223: real time      0.0223
    FORHAR:  cpu time      0.0084: real time      0.0084
    MIXING:  cpu time      0.0006: real time      0.0006
    OFIELD:  cpu time      0.0000: real time      0.0000

  FORCE on cell =-STRESS in cart. coord.  units (eV):
  Direction    XX          YY          ZZ          XY          YZ          ZX
  --------------------------------------------------------------------------------------
  Alpha Z   219.40601   219.40601   219.40601
  Ewald   -2673.64756 -2673.72899 -2801.08959    68.01356     0.00000    -0.00000
  Hartree  1044.72622  1044.67533   966.02158    42.49707    -0.00000    -0.00000
  E(xc)    -832.01743  -832.01761  -832.05325     0.14829     0.00000    -0.00000
  Local   -1527.99655 -1527.86579 -1331.00541  -109.20248     0.00000     0.00000
  n-local  1577.19359  1578.18393  1577.70198     0.55908     0.00000    -0.00000
  augment   -54.72517   -54.72549   -54.85451     0.27279    -0.00000    -0.00000
  Kinetic  2246.25721  2246.76611  2255.88750    -2.27905    -0.00000     0.00000
  Fock        0.00000     0.00000     0.00000     0.00000     0.00000     0.00000
  -------------------------------------------------------------------------------------
  Total      -0.05509    -0.05510     0.01432     0.00917    -0.00000    -0.00000
  in kB      -0.10132    -0.10134     0.02633     0.01686    -0.00000    -0.00000
  external pressure =       -0.06 kB  Pullay stress =        0.00 kB


 VOLUME and BASIS-vectors are now :
 -----------------------------------------------------------------------------
  energy-cutoff  :      400.00
  volume of cell :      871.16
      direct lattice vectors                 reciprocal lattice vectors
     9.094514081 -0.013381431  0.000000000     0.109956538  0.000095958 -0.000000000
    -0.007936706  9.094520462  0.000000000     0.000161787  0.109956461 -0.000000000
     0.000000000  0.000000000 10.532746731    -0.000000000 -0.000000000  0.094941996

  length of vectors
     9.094523925  9.094523925 10.532746731     0.109956580  0.109956580  0.094941996


 FORCES acting on ions
    electron-ion (+dipol)            ewald-force                    non-local-force                 convergence-correction
 -----------------------------------------------------------------------------------------------
   -.790E+01 -.272E+01 -.614E-07   0.689E+01 0.274E+01 -.275E-13   0.100E+01 -.183E-01 0.665E-16   -.123E-02 -.928E-03 0.147E-11
   0.332E+01 0.332E+01 -.494E-06   -.288E+01 -.288E+01 -.213E-13   -.437E+00 -.437E+00 -.589E-16   0.129E-03 0.129E-03 0.140E-11
   0.332E+01 0.332E+01 -.494E-06   -.288E+01 -.288E+01 -.178E-13   -.437E+00 -.437E+00 -.590E-16   0.129E-03 0.129E-03 0.176E-11
   -.332E+01 -.332E+01 0.494E-06   0.288E+01 0.288E+01 0.107E-13   0.437E+00 0.437E+00 0.591E-16   -.129E-03 -.129E-03 -.155E-12
   0.273E+01 0.790E+01 0.614E-07   -.275E+01 -.689E+01 0.136E-13   0.177E-01 -.100E+01 -.665E-16   0.929E-03 0.123E-02 0.101E-11
   -.273E+01 -.790E+01 -.614E-07   0.275E+01 0.689E+01 -.267E-13   -.177E-01 0.100E+01 0.665E-16   -.929E-03 -.123E-02 -.366E-11
   0.790E+01 0.272E+01 0.614E-07   -.689E+01 -.274E+01 0.256E-13   -.100E+01 0.183E-01 -.665E-16   0.123E-02 0.928E-03 -.152E-12
   -.332E+01 -.332E+01 0.494E-06   0.288E+01 0.288E+01 0.213E-13   0.437E+00 0.437E+00 0.590E-16   -.129E-03 -.129E-03 0.117E-11
   0.492E+01 -.241E+01 -.491E-05   -.443E+01 0.646E+01 0.202E-13   -.518E+00 -.408E+01 -.310E-15   -.837E-03 0.496E-04 0.397E-13
   0.241E+01 -.492E+01 0.491E-05   -.646E+01 0.443E+01 -.114E-13   0.408E+01 0.516E+00 0.310E-15   -.491E-04 0.837E-03 -.492E-12
   -.241E+01 0.492E+01 -.491E-05   0.646E+01 -.443E+01 0.344E-13   -.408E+01 -.516E+00 -.310E-15   0.491E-04 -.837E-03 -.179E-12
   -.154E+01 0.155E+01 0.982E+01   -.498E-01 0.499E-01 -.118E+02   0.160E+01 -.160E+01 0.204E+01   0.143E-04 -.143E-04 -.483E-03
   0.154E+01 -.155E+01 0.982E+01   0.498E-01 -.499E-01 -.118E+02   -.160E+01 0.160E+01 0.204E+01   -.143E-04 0.143E-04 -.483E-03
   0.154E+01 -.155E+01 -.982E+01   0.498E-01 -.499E-01 0.118E+02   -.160E+01 0.160E+01 -.204E+01   -.143E-04 0.143E-04 0.483E-03
   -.492E+01 0.241E+01 0.491E-05   0.443E+01 -.646E+01 -.193E-13   0.518E+00 0.408E+01 0.310E-15   0.837E-03 -.496E-04 0.427E-12
   -.154E+01 0.155E+01 -.982E+01   -.498E-01 0.499E-01 0.118E+02   0.160E+01 -.160E+01 -.204E+01   0.143E-04 -.143E-04 0.483E-03
   -.331E+02 -.352E+02 0.643E+02   0.352E+02 0.368E+02 -.670E+02   -.209E+01 -.162E+01 0.263E+01   -.704E-04 -.325E-03 -.224E-03
   -.352E+02 -.331E+02 -.643E+02   0.368E+02 0.352E+02 0.670E+02   -.162E+01 -.209E+01 -.263E+01   -.325E-03 -.702E-04 0.224E-03
   0.352E+02 0.331E+02 -.643E+02   -.368E+02 -.352E+02 0.670E+02   0.162E+01 0.209E+01 -.263E+01   0.325E-03 0.702E-04 0.224E-03
   -.569E+02 0.570E+02 0.417E-11   0.598E+02 -.598E+02 -.408E-14   -.280E+01 0.281E+01 0.796E-23   0.164E-03 -.164E-03 -.117E-12
   0.199E+02 -.200E+02 -.520E+02   -.206E+02 0.206E+02 0.538E+02   0.702E+00 -.702E+00 -.175E+01   0.122E-03 -.122E-03 0.488E-03
   -.199E+02 0.200E+02 -.520E+02   0.206E+02 -.206E+02 0.538E+02   -.702E+00 0.702E+00 -.175E+01   -.122E-03 0.122E-03 0.488E-03
   -.199E+02 0.200E+02 0.520E+02   0.206E+02 -.206E+02 -.538E+02   -.702E+00 0.702E+00 0.175E+01   -.122E-03 0.122E-03 -.488E-03
   0.199E+02 -.200E+02 0.520E+02   -.206E+02 0.206E+02 -.538E+02   0.702E+00 -.702E+00 0.175E+01   0.122E-03 -.122E-03 -.488E-03
   -.582E+02 -.964E+01 0.231E-06   0.602E+02 0.102E+02 -.334E-14   -.193E+01 -.522E+00 -.165E-15   0.653E-04 -.184E-04 -.134E-11
   0.582E+02 0.964E+01 -.231E-06   -.602E+02 -.102E+02 -.899E-14   0.193E+01 0.522E+00 0.165E-15   -.653E-04 0.184E-04 -.642E-12
   -.968E+01 -.582E+02 0.231E-06   0.102E+02 0.602E+02 0.216E-13   -.523E+00 -.193E+01 -.165E-15   -.184E-04 0.653E-04 -.247E-12
   0.968E+01 0.582E+02 -.231E-06   -.102E+02 -.602E+02 -.164E-13   0.523E+00 0.193E+01 0.165E-15   0.184E-04 -.653E-04 0.666E-12
   0.331E+02 0.352E+02 0.643E+02   -.352E+02 -.368E+02 -.670E+02   0.209E+01 0.162E+01 0.263E+01   0.704E-04 0.325E-03 -.224E-03
   0.352E+02 0.331E+02 0.643E+02   -.368E+02 -.352E+02 -.670E+02   0.162E+01 0.209E+01 0.263E+01   0.325E-03 0.702E-04 -.224E-03
   -.352E+02 -.331E+02 0.643E+02   0.368E+02 0.352E+02 -.670E+02   -.162E+01 -.209E+01 0.263E+01   -.325E-03 -.702E-04 -.224E-03
   0.331E+02 0.352E+02 -.643E+02   -.352E+02 -.368E+02 0.670E+02   0.209E+01 0.162E+01 -.263E+01   0.704E-04 0.325E-03 0.224E-03
   -.331E+02 -.352E+02 -.643E+02   0.352E+02 0.368E+02 0.670E+02   -.209E+01 -.162E+01 -.263E+01   -.704E-04 -.325E-03 0.224E-03
   0.479E+02 -.479E+02 0.184E-11   -.502E+02 0.502E+02 0.216E-13   0.234E+01 -.234E+01 -.805E-23   -.160E-03 0.160E-03 -.430E-12
   -.479E+02 0.479E+02 -.292E-11   0.502E+02 -.502E+02 -.112E-13   -.234E+01 0.234E+01 -.410E-23   0.160E-03 -.160E-03 0.529E-12
   0.569E+02 -.570E+02 -.663E-13   -.598E+02 0.598E+02 -.321E-14   0.280E+01 -.281E+01 -.700E-24   -.164E-03 0.164E-03 0.134E-12
 -----------------------------------------------------------------------------------------------
   -.233E-11 0.652E-11 -.384E-10   0.355E-13 0.711E-14 -.705E-14   0.444E-15 -.888E-15 0.888E-15   0.255E-12 -.180E-11 0.283E-11


 POSITION                                       TOTAL-FORCE (eV/Angst)
 -----------------------------------------------------------------------------------
      8.21742      3.80207      2.63319        -0.007528      0.000073     -0.000000
      7.71396      7.70934      0.00000         0.005689      0.005686      0.000000
      7.71396      7.70934      5.26637         0.005689      0.005686      0.000000
      1.37262      1.37180      0.00000        -0.005689     -0.005686     -0.000000
      5.27959      0.86599      2.63319        -0.000069      0.007528      0.000000
      3.80699      8.21515      7.89956         0.000069     -0.007528     -0.000000
      0.86915      5.27907      7.89956         0.007528     -0.000073      0.000000
      1.37262      1.37180      5.26637        -0.005689     -0.005686     -0.000000
      6.25793      5.27679      7.89956        -0.031076     -0.037409     -0.000000
      3.80604      2.82637      7.89956         0.037427      0.031053      0.000000
      5.28054      6.25477      2.63319        -0.037427     -0.031053     -0.000000
      2.29765      6.78756      0.89693         0.004595     -0.004598      0.008676
      6.78893      2.29358      6.16330        -0.004595      0.004598      0.008676
      6.78893      2.29358      9.63582        -0.004595      0.004598     -0.008676
      2.82865      3.80435      2.63319         0.031076      0.037409      0.000000
      2.29765      6.78756      4.36945         0.004595     -0.004598     -0.008676
      4.42878      7.18910      0.87308         0.008728      0.017823     -0.019686
      7.19175      4.42448      9.65967         0.017828      0.008717      0.019686
      1.89483      4.65666      4.39329        -0.017828     -0.008717      0.019686
      7.68490      1.39707      7.89956         0.011970     -0.011978     -0.000000
      1.45192      7.63379      6.06597         0.014362     -0.014371     -0.023385
      7.63466      1.44735      0.79960        -0.014362      0.014371     -0.023385
      7.63466      1.44735      4.46677        -0.014362      0.014371      0.023385
      1.45192      7.63379      9.73315         0.014362     -0.014371      0.023385
      7.30960      6.60738      2.63319         0.016164      0.017377      0.000000
      1.77698      2.47376      7.89956        -0.016164     -0.017377     -0.000000
      6.61175      7.30564      7.89956         0.017387      0.016153      0.000000
      2.47483      1.77550      2.63319        -0.017387     -0.016153     -0.000000
      4.65779      1.89204      6.13945        -0.008728     -0.017823     -0.019686
      1.89483      4.65666      0.87308        -0.017828     -0.008717     -0.019686
      7.19175      4.42448      6.13945         0.017828      0.008717     -0.019686
      4.65779      1.89204      9.65967        -0.008728     -0.017823      0.019686
      4.42878      7.18910      4.39329         0.008728      0.017823      0.019686
      4.13600      4.94810      7.89956         0.002330     -0.002331     -0.000000
      4.95058      4.13304      2.63319        -0.002330      0.002331     -0.000000
      1.40168      7.68406      2.63319        -0.011970      0.011978     -0.000000
 -----------------------------------------------------------------------------------
    total drift:                               -0.000000      0.000000     -0.000000


--------------------------------------------------------------------------------------------------------



  FREE ENERGIE OF THE ION-ELECTRON SYSTEM (eV)
  ---------------------------------------------------
  free  energy   TOTEN  =      -169.55840386 eV

  energy  without entropy=     -169.55840386  energy(sigma->0) =     -169.55840386

 d Force = 0.1684104E-03[-0.101E-04, 0.347E-03]  d Energy = 0.1490913E-03 0.193E-04
 d Force = 0.1270263E+01[ 0.127E+01, 0.127E+01]  d Ewald  = 0.2783558E+01-0.151E+01


--------------------------------------------------------------------------------------------------------


    POTLOK:  cpu time      0.0242: real time      0.0242


--------------------------------------------------------------------------------------------------------




--------------------------------------------------------------------------------------------------------


  
 reached required accuracy - stopping structural energy minimisation
     LOOP+:  cpu time      9.0999: real time      9.1127
    4ORBIT:  cpu time      0.0000: real time      0.0000

 total amount of memory used by VASP MPI-rank0    48491. kBytes
=======================================================================

   base      :      30000. kBytes
   nonlr-proj:       3767. kBytes
   fftplans  :       1587. kBytes
   grid      :       7031. kBytes
   one-center:        110. kBytes
   wavefun   :       5996. kBytes

  
  
 General timing and accounting informations for this job:
 ========================================================
  
                  Total CPU time used (sec):      172.245
                            User time (sec):      163.450
                          System time (sec):        8.795
                         Elapsed time (sec):      173.082
  
                   Maximum memory used (kb):      148792.
                   Average memory used (kb):          N/A
  
                          Minor page faults:      2474826
                          Major page faults:          137
                 Voluntary context switches:         1133
