  18  18   0   0
  0.2437425E+02  0.7912713E-09  0.7912713E-09  0.7007336E-09  0.1500000E-16
   1.0000000000000000E-004
  CAR 
 unknown system                          
      9.45921513    -22.55046377  301      1.68353063      1.00000000
    -22.550  0.0000E+00  0.0000E+00
    -22.444  0.0000E+00  0.0000E+00
    -22.337  0.0000E+00  0.0000E+00
    -22.230  0.0000E+00  0.0000E+00
    -22.124  0.0000E+00  0.0000E+00
    -22.017  0.0000E+00  0.0000E+00
    -21.910  0.0000E+00  0.0000E+00
    -21.804  0.0000E+00  0.0000E+00
    -21.697  0.0000E+00  0.0000E+00
    -21.590  0.0000E+00  0.0000E+00
    -21.483  0.0000E+00  0.0000E+00
    -21.377  0.5941E-16  0.6339E-17
    -21.270  0.3866E-07  0.4125E-08
    -21.163  0.5369E-02  0.5729E-03
    -21.057  0.7133E+00  0.7668E-01
    -20.950  0.1039E+01  0.1875E+00
    -20.843  0.2043E-01  0.1897E+00
    -20.737  0.3933E-06  0.1897E+00
    -20.630  0.1571E-14  0.1897E+00
    -20.523  0.0000E+00  0.1897E+00
    -20.416  0.0000E+00  0.1897E+00
    -20.310  0.0000E+00  0.1897E+00
    -20.203  0.0000E+00  0.1897E+00
    -20.096  0.0000E+00  0.1897E+00
    -19.990  0.0000E+00  0.1897E+00
    -19.883  0.0000E+00  0.1897E+00
    -19.776  0.0000E+00  0.1897E+00
    -19.670  0.0000E+00  0.1897E+00
    -19.563  0.1595E-14  0.1897E+00
    -19.456  0.3981E-06  0.1897E+00
    -19.349  0.1698E-01  0.1915E+00
    -19.243  0.4240E+00  0.2368E+00
    -19.136  0.2903E+00  0.2677E+00
    -19.029  0.9610E-02  0.2688E+00
    -18.923  0.2901E-06  0.2688E+00
    -18.816  0.1793E-14  0.2688E+00
    -18.709  0.0000E+00  0.2688E+00
    -18.603  0.0000E+00  0.2688E+00
    -18.496  0.0000E+00  0.2688E+00
    -18.389  0.0000E+00  0.2688E+00
    -18.283  0.0000E+00  0.2688E+00
    -18.176  0.0000E+00  0.2688E+00
    -18.069  0.0000E+00  0.2688E+00
    -17.962  0.0000E+00  0.2688E+00
    -17.856  0.0000E+00  0.2688E+00
    -17.749  0.0000E+00  0.2688E+00
    -17.642  0.0000E+00  0.2688E+00
    -17.536  0.0000E+00  0.2688E+00
    -17.429  0.0000E+00  0.2688E+00
    -17.322  0.0000E+00  0.2688E+00
    -17.216  0.0000E+00  0.2688E+00
    -17.109  0.0000E+00  0.2688E+00
    -17.002  0.0000E+00  0.2688E+00
    -16.895  0.0000E+00  0.2688E+00
    -16.789  0.0000E+00  0.2688E+00
    -16.682  0.0000E+00  0.2688E+00
    -16.575  0.0000E+00  0.2688E+00
    -16.469  0.0000E+00  0.2688E+00
    -16.362  0.0000E+00  0.2688E+00
    -16.255  0.0000E+00  0.2688E+00
    -16.149  0.0000E+00  0.2688E+00
    -16.042  0.0000E+00  0.2688E+00
    -15.935  0.0000E+00  0.2688E+00
    -15.828  0.0000E+00  0.2688E+00
    -15.722  0.0000E+00  0.2688E+00
    -15.615  0.0000E+00  0.2688E+00
    -15.508  0.0000E+00  0.2688E+00
    -15.402  0.0000E+00  0.2688E+00
    -15.295  0.0000E+00  0.2688E+00
    -15.188  0.0000E+00  0.2688E+00
    -15.082  0.0000E+00  0.2688E+00
    -14.975  0.0000E+00  0.2688E+00
    -14.868  0.0000E+00  0.2688E+00
    -14.761  0.0000E+00  0.2688E+00
    -14.655  0.0000E+00  0.2688E+00
    -14.548  0.0000E+00  0.2688E+00
    -14.441  0.0000E+00  0.2688E+00
    -14.335  0.0000E+00  0.2688E+00
    -14.228  0.0000E+00  0.2688E+00
    -14.121  0.0000E+00  0.2688E+00
    -14.015  0.0000E+00  0.2688E+00
    -13.908  0.0000E+00  0.2688E+00
    -13.801  0.0000E+00  0.2688E+00
    -13.694  0.0000E+00  0.2688E+00
    -13.588  0.0000E+00  0.2688E+00
    -13.481  0.0000E+00  0.2688E+00
    -13.374  0.0000E+00  0.2688E+00
    -13.268  0.0000E+00  0.2688E+00
    -13.161  0.0000E+00  0.2688E+00
    -13.054  0.0000E+00  0.2688E+00
    -12.948  0.0000E+00  0.2688E+00
    -12.841  0.0000E+00  0.2688E+00
    -12.734  0.0000E+00  0.2688E+00
    -12.627  0.0000E+00  0.2688E+00
    -12.521  0.0000E+00  0.2688E+00
    -12.414  0.0000E+00  0.2688E+00
    -12.307  0.0000E+00  0.2688E+00
    -12.201  0.0000E+00  0.2688E+00
    -12.094  0.0000E+00  0.2688E+00
    -11.987  0.0000E+00  0.2688E+00
    -11.881  0.0000E+00  0.2688E+00
    -11.774  0.0000E+00  0.2688E+00
    -11.667  0.0000E+00  0.2688E+00
    -11.560  0.0000E+00  0.2688E+00
    -11.454  0.0000E+00  0.2688E+00
    -11.347  0.0000E+00  0.2688E+00
    -11.240  0.0000E+00  0.2688E+00
    -11.134  0.0000E+00  0.2688E+00
    -11.027  0.0000E+00  0.2688E+00
    -10.920  0.0000E+00  0.2688E+00
    -10.814  0.0000E+00  0.2688E+00
    -10.707  0.1912E-14  0.2688E+00
    -10.600  0.6540E-07  0.2688E+00
    -10.493  0.4131E-03  0.2688E+00
    -10.387  0.1021E-01  0.2699E+00
    -10.280  0.5872E-01  0.2762E+00
    -10.173  0.7323E-01  0.2840E+00
    -10.067  0.5551E-02  0.2846E+00
     -9.960  0.5313E-04  0.2846E+00
     -9.853  0.5002E-09  0.2846E+00
     -9.747  0.4265E-17  0.2846E+00
     -9.640  0.2332E-08  0.2846E+00
     -9.533  0.2381E-03  0.2846E+00
     -9.426  0.3048E-01  0.2879E+00
     -9.320  0.1514E+00  0.3040E+00
     -9.213  0.1991E+00  0.3253E+00
     -9.106  0.6319E-01  0.3320E+00
     -9.000  0.1398E-03  0.3320E+00
     -8.893  0.1784E-09  0.3320E+00
     -8.786  0.0000E+00  0.3320E+00
     -8.680  0.0000E+00  0.3320E+00
     -8.573  0.0000E+00  0.3320E+00
     -8.466  0.0000E+00  0.3320E+00
     -8.360  0.0000E+00  0.3320E+00
     -8.253  0.0000E+00  0.3320E+00
     -8.146  0.0000E+00  0.3320E+00
     -8.039  0.0000E+00  0.3320E+00
     -7.933  0.0000E+00  0.3320E+00
     -7.826  0.0000E+00  0.3320E+00
     -7.719  0.0000E+00  0.3320E+00
     -7.613  0.0000E+00  0.3320E+00
     -7.506  0.0000E+00  0.3320E+00
     -7.399  0.0000E+00  0.3320E+00
     -7.293  0.0000E+00  0.3320E+00
     -7.186  0.0000E+00  0.3320E+00
     -7.079  0.0000E+00  0.3320E+00
     -6.972  0.0000E+00  0.3320E+00
     -6.866  0.0000E+00  0.3320E+00
     -6.759  0.0000E+00  0.3320E+00
     -6.652  0.0000E+00  0.3320E+00
     -6.546  0.0000E+00  0.3320E+00
     -6.439  0.0000E+00  0.3320E+00
     -6.332  0.0000E+00  0.3320E+00
     -6.226  0.0000E+00  0.3320E+00
     -6.119  0.0000E+00  0.3320E+00
     -6.012  0.0000E+00  0.3320E+00
     -5.905  0.0000E+00  0.3320E+00
     -5.799  0.0000E+00  0.3320E+00
     -5.692  0.0000E+00  0.3320E+00
     -5.585  0.0000E+00  0.3320E+00
     -5.479  0.0000E+00  0.3320E+00
     -5.372  0.0000E+00  0.3320E+00
     -5.265  0.0000E+00  0.3320E+00
     -5.159  0.0000E+00  0.3320E+00
     -5.052  0.0000E+00  0.3320E+00
     -4.945  0.0000E+00  0.3320E+00
     -4.838  0.0000E+00  0.3320E+00
     -4.732  0.0000E+00  0.3320E+00
     -4.625  0.0000E+00  0.3320E+00
     -4.518  0.3098E-13  0.3320E+00
     -4.412  0.5524E-06  0.3320E+00
     -4.305  0.3658E-02  0.3324E+00
     -4.198  0.9545E-01  0.3426E+00
     -4.092  0.4891E-01  0.3478E+00
     -3.985  0.1580E-03  0.3478E+00
     -3.878  0.2123E-09  0.3478E+00
     -3.771  0.0000E+00  0.3478E+00
     -3.665  0.0000E+00  0.3478E+00
     -3.558  0.0000E+00  0.3478E+00
     -3.451  0.0000E+00  0.3478E+00
     -3.345  0.0000E+00  0.3478E+00
     -3.238  0.0000E+00  0.3478E+00
     -3.131  0.0000E+00  0.3478E+00
     -3.025  0.0000E+00  0.3478E+00
     -2.918  0.0000E+00  0.3478E+00
     -2.811  0.0000E+00  0.3478E+00
     -2.704  0.0000E+00  0.3478E+00
     -2.598  0.0000E+00  0.3478E+00
     -2.491  0.0000E+00  0.3478E+00
     -2.384  0.0000E+00  0.3478E+00
     -2.278  0.0000E+00  0.3478E+00
     -2.171  0.0000E+00  0.3478E+00
     -2.064  0.0000E+00  0.3478E+00
     -1.958  0.0000E+00  0.3478E+00
     -1.851  0.0000E+00  0.3478E+00
     -1.744  0.6383E-14  0.3478E+00
     -1.637  0.3231E-06  0.3478E+00
     -1.531  0.3264E-02  0.3482E+00
     -1.424  0.5338E-01  0.3539E+00
     -1.317  0.9839E-01  0.3644E+00
     -1.211  0.4675E-01  0.3694E+00
     -1.104  0.5605E-01  0.3753E+00
     -0.997  0.1987E-01  0.3775E+00
     -0.891  0.5213E-01  0.3830E+00
     -0.784  0.8134E-01  0.3917E+00
     -0.677  0.1863E-01  0.3937E+00
     -0.570  0.2003E-01  0.3958E+00
     -0.464  0.1368E-01  0.3973E+00
     -0.357  0.2183E-01  0.3996E+00
     -0.250  0.4104E-01  0.4040E+00
     -0.144  0.5706E-01  0.4101E+00
     -0.037  0.2623E-01  0.4129E+00
      0.070  0.5539E-01  0.4188E+00
      0.176  0.5099E-01  0.4242E+00
      0.283  0.6539E-01  0.4312E+00
      0.390  0.9645E-01  0.4415E+00
      0.497  0.8799E-01  0.4509E+00
      0.603  0.5986E-01  0.4573E+00
      0.710  0.8407E-01  0.4662E+00
      0.817  0.8260E-01  0.4751E+00
      0.923  0.9911E-01  0.4856E+00
      1.030  0.9281E-01  0.4955E+00
      1.137  0.1124E+00  0.5075E+00
      1.243  0.7293E-01  0.5153E+00
      1.350  0.4697E-01  0.5203E+00
      1.457  0.1126E-01  0.5215E+00
      1.563  0.2070E-02  0.5217E+00
      1.670  0.2293E-05  0.5217E+00
      1.777  0.6117E-12  0.5217E+00
      1.884  0.0000E+00  0.5217E+00
      1.990  0.0000E+00  0.5217E+00
      2.097  0.0000E+00  0.5217E+00
      2.204  0.0000E+00  0.5217E+00
      2.310  0.0000E+00  0.5217E+00
      2.417  0.0000E+00  0.5217E+00
      2.524  0.0000E+00  0.5217E+00
      2.630  0.0000E+00  0.5217E+00
      2.737  0.0000E+00  0.5217E+00
      2.844  0.0000E+00  0.5217E+00
      2.951  0.0000E+00  0.5217E+00
      3.057  0.0000E+00  0.5217E+00
      3.164  0.0000E+00  0.5217E+00
      3.271  0.6666E-14  0.5217E+00
      3.377  0.1365E-06  0.5217E+00
      3.484  0.5242E-03  0.5218E+00
      3.591  0.2176E-02  0.5220E+00
      3.697  0.4394E-04  0.5220E+00
      3.804  0.3353E-09  0.5220E+00
      3.911  0.6631E-07  0.5220E+00
      4.018  0.1231E-02  0.5222E+00
      4.124  0.1608E-01  0.5239E+00
      4.231  0.1678E-01  0.5257E+00
      4.338  0.5339E-01  0.5314E+00
      4.444  0.5643E-01  0.5374E+00
      4.551  0.1515E-02  0.5375E+00
      4.658  0.4560E-07  0.5375E+00
      4.764  0.3193E-15  0.5375E+00
      4.871  0.0000E+00  0.5375E+00
      4.978  0.0000E+00  0.5375E+00
      5.085  0.2313E-13  0.5375E+00
      5.191  0.2810E-06  0.5375E+00
      5.298  0.6885E-03  0.5376E+00
      5.405  0.1236E-01  0.5389E+00
      5.511  0.2212E-01  0.5413E+00
      5.618  0.3179E-01  0.5447E+00
      5.725  0.2773E-01  0.5477E+00
      5.831  0.5229E-01  0.5532E+00
      5.938  0.4514E-01  0.5580E+00
      6.045  0.5102E-01  0.5635E+00
      6.152  0.2852E-01  0.5665E+00
      6.258  0.2489E-01  0.5692E+00
      6.365  0.2176E-01  0.5715E+00
      6.472  0.3217E-01  0.5749E+00
      6.578  0.5200E-01  0.5805E+00
      6.685  0.2198E-01  0.5828E+00
      6.792  0.4184E-01  0.5873E+00
      6.898  0.6457E-01  0.5942E+00
      7.005  0.4514E-01  0.5990E+00
      7.112  0.3226E-01  0.6025E+00
      7.219  0.3062E-01  0.6057E+00
      7.325  0.4231E-01  0.6102E+00
      7.432  0.6210E-01  0.6169E+00
      7.539  0.3775E-01  0.6209E+00
      7.645  0.4984E-01  0.6262E+00
      7.752  0.3844E-01  0.6303E+00
      7.859  0.8739E-02  0.6312E+00
      7.965  0.1504E-02  0.6314E+00
      8.072  0.9180E-02  0.6324E+00
      8.179  0.3007E-03  0.6324E+00
      8.286  0.4323E-08  0.6324E+00
      8.392  0.9749E-17  0.6324E+00
      8.499  0.0000E+00  0.6324E+00
      8.606  0.0000E+00  0.6324E+00
      8.712  0.0000E+00  0.6324E+00
      8.819  0.0000E+00  0.6324E+00
      8.926  0.0000E+00  0.6324E+00
      9.032  0.0000E+00  0.6324E+00
      9.139  0.0000E+00  0.6324E+00
      9.246  0.0000E+00  0.6324E+00
      9.353  0.0000E+00  0.6324E+00
      9.459  0.0000E+00  0.6324E+00
