       N       E                     dE             d eps       ncg     rms          rms(c)
DAV:   1     0.136650247542E+04    0.13665E+04   -0.53826E+04   960   0.155E+03
DAV:   2     0.152097309344E+03   -0.12144E+04   -0.11810E+04  1000   0.441E+02
DAV:   3    -0.575311522943E+02   -0.20963E+03   -0.20591E+03  1112   0.187E+02
DAV:   4    -0.723251309403E+02   -0.14794E+02   -0.14666E+02  1128   0.462E+01
DAV:   5    -0.727965404423E+02   -0.47141E+00   -0.46983E+00  1296   0.885E+00    0.136E+01
DAV:   6    -0.688726978976E+02    0.39238E+01   -0.73852E+00  1288   0.111E+01    0.105E+01
DAV:   7    -0.685907004012E+02    0.28200E+00   -0.22304E+00  1176   0.387E+00    0.481E+00
DAV:   8    -0.686129696186E+02   -0.22269E-01   -0.17531E-01  1304   0.220E+00    0.102E+00
DAV:   9    -0.686245527449E+02   -0.11583E-01   -0.36629E-02  1144   0.868E-01    0.383E-01
DAV:  10    -0.686273319589E+02   -0.27792E-02   -0.31438E-03  1144   0.215E-01    0.169E-01
DAV:  11    -0.686301787169E+02   -0.28468E-02   -0.35263E-03  1080   0.177E-01    0.121E-01
DAV:  12    -0.686302344946E+02   -0.55778E-04   -0.15570E-04  1256   0.453E-02    0.781E-02
DAV:  13    -0.686302758841E+02   -0.41390E-04   -0.61093E-05   984   0.292E-02    0.880E-03
DAV:  14    -0.686302769466E+02   -0.10625E-05   -0.79041E-06   952   0.915E-03    0.612E-03
DAV:  15    -0.686302785088E+02   -0.15622E-05   -0.18083E-06   776   0.494E-03    0.174E-03
DAV:  16    -0.686302788798E+02   -0.37102E-06   -0.58191E-07   720   0.301E-03
   1 F= -.68630279E+02 E0= -.68630279E+02  d E =-.196577E-12
 Found     8 degrees of freedom:
 Adding 6 more for cell shape distortion
       N       E                     dE             d eps       ncg     rms          rms(c)
DAV:   1    -0.694583112805E+02   -0.82803E+00   -0.33325E+01  1632   0.380E+01    0.660E+00
DAV:   2    -0.687984887541E+02    0.65982E+00   -0.19751E+00  1592   0.958E+00    0.328E+00
DAV:   3    -0.685635707769E+02    0.23492E+00   -0.55977E-01  1608   0.422E+00    0.118E+00
DAV:   4    -0.685503902227E+02    0.13181E-01   -0.46405E-02  1472   0.104E+00    0.619E-01
DAV:   5    -0.685462564230E+02    0.41338E-02   -0.68326E-03  1872   0.472E-01    0.254E-01
DAV:   6    -0.685460806280E+02    0.17580E-03   -0.19548E-03  1584   0.315E-01    0.764E-02
DAV:   7    -0.685460902064E+02   -0.95785E-05   -0.11827E-04  1648   0.592E-02    0.433E-02
DAV:   8    -0.685460954348E+02   -0.52284E-05   -0.22702E-05  1648   0.294E-02    0.121E-02
DAV:   9    -0.685460976830E+02   -0.22482E-05   -0.67542E-06  1376   0.113E-02    0.514E-03
DAV:  10    -0.685460987947E+02   -0.11117E-05   -0.73742E-07   872   0.735E-03    0.190E-03
DAV:  11    -0.685460988564E+02   -0.61766E-07   -0.40232E-07   808   0.326E-03
   2 F= -.68546099E+02 E0= -.68546099E+02  d E =-.601996E-14
       N       E                     dE             d eps       ncg     rms          rms(c)
DAV:   1    -0.688209593113E+02   -0.27486E+00   -0.11740E+01  1584   0.195E+01    0.334E+00
DAV:   2    -0.686683581496E+02    0.15260E+00   -0.55095E-01  1624   0.465E+00    0.164E+00
DAV:   3    -0.686123944779E+02    0.55964E-01   -0.14686E-01  1616   0.218E+00    0.629E-01
DAV:   4    -0.686099433610E+02    0.24511E-02   -0.13561E-02  1400   0.596E-01    0.338E-01
DAV:   5    -0.686090558798E+02    0.88748E-03   -0.17973E-03  1776   0.256E-01    0.136E-01
DAV:   6    -0.686090376522E+02    0.18228E-04   -0.49113E-04  1592   0.152E-01    0.381E-02
DAV:   7    -0.686090401257E+02   -0.24735E-05   -0.25671E-05  1656   0.302E-02    0.172E-02
DAV:   8    -0.686090407943E+02   -0.66860E-06   -0.56296E-06  1344   0.114E-02
   3 F= -.68609041E+02 E0= -.68609041E+02  d E =-.726250E-18
       N       E                     dE             d eps       ncg     rms          rms(c)
DAV:   1    -0.695327920983E+02   -0.92375E+00   -0.30094E+01  1648   0.346E+01    0.700E+00
DAV:   2    -0.688565245792E+02    0.67627E+00   -0.18303E+00  1648   0.903E+00    0.337E+00
DAV:   3    -0.686247671522E+02    0.23176E+00   -0.50728E-01  1624   0.410E+00    0.132E+00
DAV:   4    -0.686095841944E+02    0.15183E-01   -0.46878E-02  1384   0.104E+00    0.694E-01
DAV:   5    -0.686057139031E+02    0.38703E-02   -0.64262E-03  1784   0.464E-01    0.233E-01
DAV:   6    -0.686057717510E+02   -0.57848E-04   -0.17693E-03  1464   0.318E-01    0.643E-02
DAV:   7    -0.686057766360E+02   -0.48850E-05   -0.11317E-04  1816   0.691E-02    0.324E-02
DAV:   8    -0.686057757943E+02    0.84175E-06   -0.23446E-05  1512   0.253E-02    0.114E-02
DAV:   9    -0.686057760848E+02   -0.29047E-06   -0.54370E-06  1368   0.103E-02
   4 F= -.68605776E+02 E0= -.68605776E+02  d E =-.120853E-14
       N       E                     dE             d eps       ncg     rms          rms(c)
DAV:   1    -0.687582002329E+02   -0.15242E+00   -0.13256E+01  1576   0.204E+01    0.362E+00
DAV:   2    -0.685986226275E+02    0.15958E+00   -0.62575E-01  1656   0.506E+00    0.173E+00
DAV:   3    -0.685381303879E+02    0.60492E-01   -0.12874E-01  1608   0.207E+00    0.698E-01
DAV:   4    -0.685333293531E+02    0.48010E-02   -0.12722E-02  1544   0.616E-01    0.356E-01
DAV:   5    -0.685322679121E+02    0.10614E-02   -0.19809E-03  1768   0.262E-01    0.119E-01
DAV:   6    -0.685323040415E+02   -0.36129E-04   -0.60567E-04  1424   0.186E-01    0.303E-02
DAV:   7    -0.685323047361E+02   -0.69456E-06   -0.31710E-05  1792   0.375E-02    0.194E-02
DAV:   8    -0.685323034234E+02    0.13126E-05   -0.67119E-06  1408   0.135E-02    0.504E-03
DAV:   9    -0.685323032771E+02    0.14633E-06   -0.11663E-06   832   0.511E-03
   5 F= -.68532303E+02 E0= -.68532303E+02  d E =-.978367E-16
       N       E                     dE             d eps       ncg     rms          rms(c)
DAV:   1    -0.714358142971E+02   -0.29035E+01   -0.99046E+01  1664   0.749E+01    0.113E+01
DAV:   2    -0.692393602852E+02    0.21965E+01   -0.58578E+00  1536   0.171E+01    0.539E+00
DAV:   3    -0.685881099275E+02    0.65125E+00   -0.19685E+00  1648   0.845E+00    0.185E+00
DAV:   4    -0.685618180948E+02    0.26292E-01   -0.13932E-01  1528   0.189E+00    0.103E+00
DAV:   5    -0.685471101064E+02    0.14708E-01   -0.11376E-02  1680   0.737E-01    0.435E-01
DAV:   6    -0.685461133955E+02    0.99671E-03   -0.35257E-03  1584   0.414E-01    0.118E-01
DAV:   7    -0.685460876836E+02    0.25712E-04   -0.25434E-04  1584   0.790E-02    0.445E-02
DAV:   8    -0.685460969793E+02   -0.92958E-05   -0.21293E-05  1448   0.201E-02    0.115E-02
DAV:   9    -0.685460979229E+02   -0.94359E-06   -0.32030E-06  1232   0.728E-03
   6 F= -.68546098E+02 E0= -.68546098E+02  d E =-.608195E-14
       N       E                     dE             d eps       ncg     rms          rms(c)
DAV:   1    -0.688208647213E+02   -0.27477E+00   -0.11719E+01  1592   0.195E+01    0.333E+00
DAV:   2    -0.686682843557E+02    0.15258E+00   -0.55296E-01  1600   0.465E+00    0.164E+00
DAV:   3    -0.686123648847E+02    0.55919E-01   -0.14802E-01  1632   0.219E+00    0.629E-01
DAV:   4    -0.686099769023E+02    0.23880E-02   -0.13583E-02  1416   0.598E-01    0.342E-01
DAV:   5    -0.686090632977E+02    0.91360E-03   -0.17560E-03  1784   0.257E-01    0.142E-01
DAV:   6    -0.686090370974E+02    0.26200E-04   -0.50590E-04  1584   0.151E-01    0.403E-02
DAV:   7    -0.686090400357E+02   -0.29383E-05   -0.26409E-05  1632   0.313E-02    0.183E-02
DAV:   8    -0.686090408414E+02   -0.80575E-06   -0.59724E-06  1328   0.118E-02
   7 F= -.68609041E+02 E0= -.68609041E+02  d E =-.726810E-18
       N       E                     dE             d eps       ncg     rms          rms(c)
DAV:   1    -0.695325219933E+02   -0.92348E+00   -0.30070E+01  1640   0.346E+01    0.700E+00
DAV:   2    -0.688565512905E+02    0.67597E+00   -0.18327E+00  1632   0.903E+00    0.337E+00
DAV:   3    -0.686247678884E+02    0.23178E+00   -0.50727E-01  1624   0.410E+00    0.132E+00
DAV:   4    -0.686096493674E+02    0.15119E-01   -0.46733E-02  1400   0.104E+00    0.698E-01
DAV:   5    -0.686057156486E+02    0.39337E-02   -0.64175E-03  1792   0.465E-01    0.233E-01
DAV:   6    -0.686057715239E+02   -0.55875E-04   -0.17751E-03  1472   0.318E-01    0.649E-02
DAV:   7    -0.686057768671E+02   -0.53433E-05   -0.11077E-04  1840   0.684E-02    0.333E-02
DAV:   8    -0.686057758640E+02    0.10032E-05   -0.23902E-05  1488   0.251E-02    0.113E-02
DAV:   9    -0.686057760735E+02   -0.20953E-06   -0.54302E-06  1360   0.102E-02
   8 F= -.68605776E+02 E0= -.68605776E+02  d E =-.120874E-14
       N       E                     dE             d eps       ncg     rms          rms(c)
DAV:   1    -0.687580242482E+02   -0.15225E+00   -0.13267E+01  1584   0.204E+01    0.363E+00
DAV:   2    -0.685986374867E+02    0.15939E+00   -0.62585E-01  1648   0.506E+00    0.173E+00
DAV:   3    -0.685381344130E+02    0.60503E-01   -0.12884E-01  1600   0.207E+00    0.699E-01
DAV:   4    -0.685333169692E+02    0.48174E-02   -0.12734E-02  1512   0.624E-01    0.355E-01
DAV:   5    -0.685322669310E+02    0.10500E-02   -0.19686E-03  1784   0.262E-01    0.120E-01
DAV:   6    -0.685323042199E+02   -0.37289E-04   -0.60474E-04  1416   0.184E-01    0.295E-02
DAV:   7    -0.685323047340E+02   -0.51410E-06   -0.30693E-05  1816   0.374E-02    0.191E-02
DAV:   8    -0.685323034124E+02    0.13217E-05   -0.67626E-06  1408   0.134E-02    0.506E-03
DAV:   9    -0.685323032913E+02    0.12106E-06   -0.11212E-06   840   0.508E-03
   9 F= -.68532303E+02 E0= -.68532303E+02  d E =-.978774E-16
       N       E                     dE             d eps       ncg     rms          rms(c)
DAV:   1    -0.715374834030E+02   -0.30052E+01   -0.90992E+01  1248   0.738E+01    0.112E+01
DAV:   2    -0.692806400857E+02    0.22568E+01   -0.54731E+00  1176   0.167E+01    0.539E+00
DAV:   3    -0.685990472301E+02    0.68159E+00   -0.20437E+00  1232   0.873E+00    0.184E+00
DAV:   4    -0.685722765536E+02    0.26771E-01   -0.13936E-01  1168   0.188E+00    0.113E+00
DAV:   5    -0.685517016175E+02    0.20575E-01   -0.16535E-02  1280   0.735E-01    0.404E-01
DAV:   6    -0.685503098698E+02    0.13917E-02   -0.58928E-03  1200   0.489E-01    0.607E-02
DAV:   7    -0.685502589712E+02    0.50899E-04   -0.52826E-04  1200   0.137E-01    0.395E-02
DAV:   8    -0.685502093558E+02    0.49615E-04   -0.83057E-05  1328   0.693E-02    0.899E-03
DAV:   9    -0.685501883570E+02    0.20999E-04   -0.43767E-05  1312   0.391E-02    0.120E-02
DAV:  10    -0.685501698165E+02    0.18541E-04   -0.10923E-05  1232   0.210E-02    0.809E-03
DAV:  11    -0.685501576228E+02    0.12194E-04   -0.18982E-06   744   0.132E-02    0.531E-03
DAV:  12    -0.685501528900E+02    0.47327E-05   -0.26123E-06   768   0.780E-03    0.485E-04
DAV:  13    -0.685501498170E+02    0.30731E-05   -0.41369E-07   600   0.368E-03    0.972E-04
DAV:  14    -0.685501485891E+02    0.12278E-05   -0.16763E-07   576   0.232E-03    0.309E-04
DAV:  15    -0.685501482867E+02    0.30243E-06   -0.72424E-08   536   0.164E-03
  10 F= -.68550148E+02 E0= -.68550148E+02  d E =-.718986E-16
       N       E                     dE             d eps       ncg     rms          rms(c)
DAV:   1    -0.688263178114E+02   -0.27617E+00   -0.77738E+00  1216   0.174E+01    0.329E+00
DAV:   2    -0.686671984783E+02    0.15912E+00   -0.42922E-01  1224   0.436E+00    0.162E+00
DAV:   3    -0.686131078737E+02    0.54091E-01   -0.13541E-01  1240   0.219E+00    0.623E-01
DAV:   4    -0.686106403014E+02    0.24676E-02   -0.12515E-02  1088   0.595E-01    0.298E-01
DAV:   5    -0.686098860509E+02    0.75425E-03   -0.11013E-03  1304   0.199E-01    0.114E-01
DAV:   6    -0.686098982804E+02   -0.12229E-04   -0.27925E-04  1152   0.124E-01    0.205E-02
DAV:   7    -0.686098989261E+02   -0.64575E-06   -0.14171E-05  1104   0.214E-02    0.106E-02
DAV:   8    -0.686098986760E+02    0.25017E-06   -0.26499E-06   784   0.637E-03
  11 F= -.68609899E+02 E0= -.68609899E+02  d E =-.435240E-19
       N       E                     dE             d eps       ncg     rms          rms(c)
DAV:   1    -0.695076564543E+02   -0.89776E+00   -0.32091E+01  1232   0.350E+01    0.692E+00
DAV:   2    -0.688494051838E+02    0.65825E+00   -0.17959E+00  1216   0.885E+00    0.332E+00
DAV:   3    -0.686263819981E+02    0.22302E+00   -0.53684E-01  1240   0.430E+00    0.137E+00
DAV:   4    -0.686141587398E+02    0.12223E-01   -0.47375E-02  1056   0.110E+00    0.605E-01
DAV:   5    -0.686109441012E+02    0.32146E-02   -0.52124E-03  1296   0.420E-01    0.211E-01
DAV:   6    -0.686110209867E+02   -0.76885E-04   -0.97293E-04  1096   0.236E-01    0.448E-02
DAV:   7    -0.686110238767E+02   -0.28900E-05   -0.58847E-05  1128   0.460E-02    0.155E-02
DAV:   8    -0.686110249080E+02   -0.10313E-05   -0.84190E-06   896   0.131E-02    0.310E-03
DAV:   9    -0.686110254992E+02   -0.59113E-06   -0.72148E-07   712   0.574E-03
  12 F= -.68611025E+02 E0= -.68611025E+02  d E =-.395976E-15
       N       E                     dE             d eps       ncg     rms          rms(c)
DAV:   1    -0.687843258818E+02   -0.17330E+00   -0.84952E+00  1232   0.184E+01    0.350E+00
DAV:   2    -0.686120225980E+02    0.17230E+00   -0.47517E-01  1224   0.465E+00    0.170E+00
DAV:   3    -0.685529152184E+02    0.59107E-01   -0.14522E-01  1240   0.228E+00    0.681E-01
DAV:   4    -0.685501250183E+02    0.27902E-02   -0.13655E-02  1080   0.610E-01    0.314E-01
DAV:   5    -0.685492747193E+02    0.85030E-03   -0.13365E-03  1296   0.226E-01    0.115E-01
DAV:   6    -0.685492967617E+02   -0.22042E-04   -0.29304E-04  1120   0.127E-01    0.205E-02
DAV:   7    -0.685492956978E+02    0.10639E-05   -0.17583E-05  1120   0.247E-02    0.926E-03
DAV:   8    -0.685492952744E+02    0.42340E-06   -0.28924E-06   768   0.718E-03
  13 F= -.68549295E+02 E0= -.68549295E+02  d E =-.171508E-17
       N       E                     dE             d eps       ncg     rms          rms(c)
DAV:   1    -0.697272432002E+02   -0.11779E+01   -0.46901E+01  1952   0.425E+01    0.741E+00
DAV:   2    -0.689360190887E+02    0.79122E+00   -0.25195E+00  2048   0.110E+01    0.385E+00
DAV:   3    -0.686225705113E+02    0.31345E+00   -0.68796E-01  2008   0.458E+00    0.135E+00
DAV:   4    -0.686066741975E+02    0.15896E-01   -0.62280E-02  1792   0.112E+00    0.698E-01
DAV:   5    -0.686024032493E+02    0.42709E-02   -0.70766E-03  2200   0.425E-01    0.293E-01
DAV:   6    -0.686021548209E+02    0.24843E-03   -0.21183E-03  1968   0.313E-01    0.909E-02
DAV:   7    -0.686021753177E+02   -0.20497E-04   -0.15792E-04  1880   0.592E-02    0.543E-02
DAV:   8    -0.686021824994E+02   -0.71817E-05   -0.22374E-05  1816   0.226E-02    0.151E-02
DAV:   9    -0.686021873161E+02   -0.48167E-05   -0.88373E-06  1456   0.106E-02    0.547E-03
DAV:  10    -0.686021885447E+02   -0.12285E-05   -0.80282E-07  1160   0.524E-03    0.204E-03
DAV:  11    -0.686021887458E+02   -0.20107E-06   -0.52945E-07  1112   0.357E-03
  14 F= -.68602189E+02 E0= -.68602189E+02  d E =-.214542E-11
       N       E                     dE             d eps       ncg     rms          rms(c)
DAV:   1    -0.686608890815E+02   -0.58701E-01   -0.83637E+00  1752   0.121E+01    0.162E+00
DAV:   2    -0.686417761433E+02    0.19113E-01   -0.22237E-01  1904   0.232E+00    0.952E-01
DAV:   3    -0.686235263088E+02    0.18250E-01   -0.30219E-02  2152   0.826E-01    0.274E-01
DAV:   4    -0.686232851599E+02    0.24115E-03   -0.74758E-03  1824   0.413E-01    0.178E-01
DAV:   5    -0.686233066958E+02   -0.21536E-04   -0.77452E-04  1952   0.146E-01    0.725E-02
DAV:   6    -0.686232864389E+02    0.20257E-04   -0.98167E-05  1984   0.648E-02    0.225E-02
DAV:   7    -0.686232899310E+02   -0.34921E-05   -0.35637E-05  1936   0.208E-02    0.212E-02
DAV:   8    -0.686232908208E+02   -0.88978E-06   -0.15166E-06  1232   0.763E-03
  15 F= -.68623291E+02 E0= -.68623291E+02  d E =-.448035E-12
       N       E                     dE             d eps       ncg     rms          rms(c)
DAV:   1    -0.688288628157E+02   -0.20557E+00   -0.84773E+00  1888   0.116E+01    0.338E+00
DAV:   2    -0.687026282146E+02    0.12623E+00   -0.32210E-01  1968   0.289E+00    0.191E+00
DAV:   3    -0.686296412220E+02    0.72987E-01   -0.71459E-02  2208   0.114E+00    0.777E-01
DAV:   4    -0.686231959190E+02    0.64453E-02   -0.26743E-02  1968   0.732E-01    0.268E-01
DAV:   5    -0.686232838173E+02   -0.87898E-04   -0.38327E-03  1832   0.323E-01    0.134E-01
DAV:   6    -0.686232775963E+02    0.62210E-05   -0.31113E-04  1944   0.910E-02    0.589E-02
DAV:   7    -0.686232830464E+02   -0.54500E-05   -0.77712E-05  1920   0.310E-02    0.263E-02
DAV:   8    -0.686232897843E+02   -0.67379E-05   -0.12821E-05  1584   0.187E-02    0.109E-02
DAV:   9    -0.686232912140E+02   -0.14297E-05   -0.24390E-06  1400   0.761E-03    0.585E-03
DAV:  10    -0.686232911746E+02    0.39376E-07   -0.72862E-07   992   0.540E-03
  16 F= -.68623291E+02 E0= -.68623291E+02  d E =-.452924E-12
       N       E                     dE             d eps       ncg     rms          rms(c)
DAV:   1    -0.686343642528E+02   -0.11073E-01   -0.91384E+00  1680   0.118E+01    0.181E+00
DAV:   2    -0.686218680261E+02    0.12496E-01   -0.25504E-01  1920   0.247E+00    0.982E-01
DAV:   3    -0.686062042723E+02    0.15664E-01   -0.16359E-02  2192   0.633E-01    0.529E-01
DAV:   4    -0.686020554365E+02    0.41488E-02   -0.79778E-03  2104   0.443E-01    0.996E-02
DAV:   5    -0.686021730163E+02   -0.11758E-03   -0.19647E-03  1768   0.247E-01    0.927E-02
DAV:   6    -0.686021846167E+02   -0.11600E-04   -0.13169E-04  2024   0.481E-02    0.288E-02
DAV:   7    -0.686021864156E+02   -0.17988E-05   -0.10422E-05  1944   0.190E-02    0.135E-02
DAV:   8    -0.686021886989E+02   -0.22833E-05   -0.54195E-06  1504   0.102E-02    0.625E-03
DAV:   9    -0.686021886826E+02    0.16264E-07   -0.32193E-07  1000   0.433E-03
  17 F= -.68602189E+02 E0= -.68602189E+02  d E =-.213338E-11
       N       E                     dE             d eps       ncg     rms          rms(c)
DAV:   1    -0.690265109102E+02   -0.42432E+00   -0.23951E+01  1712   0.213E+01    0.497E+00
DAV:   2    -0.687905288856E+02    0.23598E+00   -0.95299E-01  1904   0.530E+00    0.272E+00
DAV:   3    -0.686323222045E+02    0.15821E+00   -0.11522E-01  2080   0.146E+00    0.134E+00
DAV:   4    -0.685946144044E+02    0.37708E-01   -0.80011E-02  2144   0.124E+00    0.305E-01
DAV:   5    -0.685940498464E+02    0.56456E-03   -0.15320E-02  1768   0.669E-01    0.296E-01
DAV:   6    -0.685939933832E+02    0.56463E-04   -0.23782E-03  1968   0.206E-01    0.762E-02
DAV:   7    -0.685938903782E+02    0.10301E-03   -0.33102E-04  1976   0.905E-02    0.348E-02
DAV:   8    -0.685938177124E+02    0.72666E-04   -0.16522E-04  2192   0.835E-02    0.888E-03
DAV:   9    -0.685938048165E+02    0.12896E-04   -0.79818E-05  2120   0.464E-02    0.176E-02
DAV:  10    -0.685938021510E+02    0.26655E-05   -0.23952E-05  1840   0.201E-02    0.940E-03
DAV:  11    -0.685937979665E+02    0.41845E-05   -0.58521E-06  1432   0.220E-02    0.451E-03
DAV:  12    -0.685937967271E+02    0.12394E-05   -0.46484E-06  1408   0.171E-02    0.318E-03
DAV:  13    -0.685937967954E+02   -0.68289E-07   -0.14368E-06  1104   0.582E-03
  18 F= -.68593797E+02 E0= -.68593797E+02  d E =-.330264E-12
       N       E                     dE             d eps       ncg     rms          rms(c)
DAV:   1    -0.686736540881E+02   -0.79857E-01   -0.65484E+00  1760   0.114E+01    0.183E+00
DAV:   2    -0.686446208194E+02    0.29033E-01   -0.20643E-01  1928   0.242E+00    0.997E-01
DAV:   3    -0.686246408189E+02    0.19980E-01   -0.25883E-02  2056   0.752E-01    0.491E-01
DAV:   4    -0.686212101249E+02    0.34307E-02   -0.11200E-02  2120   0.481E-01    0.208E-01
DAV:   5    -0.686212449257E+02   -0.34801E-04   -0.20224E-03  1856   0.240E-01    0.122E-01
DAV:   6    -0.686212466451E+02   -0.17194E-05   -0.21452E-04  1896   0.589E-02    0.289E-02
DAV:   7    -0.686212463706E+02    0.27451E-06   -0.19377E-05  1816   0.187E-02    0.156E-02
DAV:   8    -0.686212487086E+02   -0.23380E-05   -0.67972E-06  1512   0.126E-02    0.904E-03
DAV:   9    -0.686212490515E+02   -0.34292E-06   -0.16319E-06  1152   0.744E-03
  19 F= -.68621249E+02 E0= -.68621249E+02  d E =-.234689E-12
       N       E                     dE             d eps       ncg     rms          rms(c)
DAV:   1    -0.688629964247E+02   -0.24175E+00   -0.10484E+01  1656   0.139E+01    0.385E+00
DAV:   2    -0.687198327277E+02    0.14316E+00   -0.48431E-01  1928   0.384E+00    0.198E+00
DAV:   3    -0.686383493870E+02    0.81483E-01   -0.70277E-02  2096   0.112E+00    0.107E+00
DAV:   4    -0.686210741898E+02    0.17275E-01   -0.48341E-02  2232   0.995E-01    0.245E-01
DAV:   5    -0.686211454229E+02   -0.71233E-04   -0.83794E-03  1792   0.494E-01    0.221E-01
DAV:   6    -0.686212376171E+02   -0.92194E-04   -0.10556E-03  1880   0.141E-01    0.553E-02
DAV:   7    -0.686212387969E+02   -0.11797E-05   -0.59649E-05  1968   0.548E-02    0.340E-02
DAV:   8    -0.686212482418E+02   -0.94449E-05   -0.26923E-05  1928   0.266E-02    0.797E-03
DAV:   9    -0.686212487834E+02   -0.54162E-06   -0.62528E-06  1776   0.154E-02
  20 F= -.68621249E+02 E0= -.68621249E+02  d E =-.232044E-12
       N       E                     dE             d eps       ncg     rms          rms(c)
DAV:   1    -0.686417384057E+02   -0.20490E-01   -0.71956E+00  1664   0.110E+01    0.206E+00
DAV:   2    -0.686183979171E+02    0.23340E-01   -0.23356E-01  1904   0.247E+00    0.102E+00
DAV:   3    -0.685999885782E+02    0.18409E-01   -0.16938E-02  2208   0.664E-01    0.633E-01
DAV:   4    -0.685935945599E+02    0.63940E-02   -0.13184E-02  2232   0.615E-01    0.110E-01
DAV:   5    -0.685937727551E+02   -0.17820E-03   -0.34056E-03  1776   0.311E-01    0.147E-01
DAV:   6    -0.685937931852E+02   -0.20430E-04   -0.29917E-04  1944   0.677E-02    0.501E-02
DAV:   7    -0.685937937877E+02   -0.60253E-06   -0.10493E-05  1920   0.243E-02    0.284E-02
DAV:   8    -0.685937963604E+02   -0.25727E-05   -0.10338E-05  1504   0.165E-02    0.669E-03
DAV:   9    -0.685937964019E+02   -0.41518E-07   -0.17957E-06  1152   0.905E-03
  21 F= -.68593796E+02 E0= -.68593796E+02  d E =-.326545E-12
       N       E                     dE             d eps       ncg     rms          rms(c)
DAV:   1    -0.690681962302E+02   -0.47440E+00   -0.26116E+01  1768   0.215E+01    0.499E+00
DAV:   2    -0.688173502351E+02    0.25085E+00   -0.10766E+00  1928   0.535E+00    0.274E+00
DAV:   3    -0.686390025424E+02    0.17835E+00   -0.13043E-01  2192   0.150E+00    0.135E+00
DAV:   4    -0.685947052084E+02    0.44297E-01   -0.99984E-02  2224   0.138E+00    0.312E-01
DAV:   5    -0.685940115674E+02    0.69364E-03   -0.21572E-02  1776   0.725E-01    0.314E-01
DAV:   6    -0.685940132951E+02   -0.17276E-05   -0.30443E-03  1976   0.218E-01    0.838E-02
DAV:   7    -0.685938675035E+02    0.14579E-03   -0.45215E-04  1864   0.913E-02    0.414E-02
DAV:   8    -0.685937742439E+02    0.93260E-04   -0.21300E-04  2128   0.655E-02    0.114E-02
DAV:   9    -0.685937601139E+02    0.14130E-04   -0.10620E-04  2000   0.356E-02    0.249E-02
DAV:  10    -0.685937573159E+02    0.27980E-05   -0.16182E-05  1656   0.139E-02    0.692E-03
DAV:  11    -0.685937516165E+02    0.56994E-05   -0.50667E-06  1496   0.128E-02    0.733E-03
DAV:  12    -0.685937491075E+02    0.25090E-05   -0.65522E-06  1616   0.114E-02    0.583E-03
DAV:  13    -0.685937491624E+02   -0.54901E-07   -0.26628E-06  1288   0.589E-03
  22 F= -.68593749E+02 E0= -.68593749E+02  d E =-.337125E-12
       N       E                     dE             d eps       ncg     rms          rms(c)
DAV:   1    -0.686709015062E+02   -0.77152E-01   -0.78755E+00  1752   0.126E+01    0.178E+00
DAV:   2    -0.686441311163E+02    0.26770E-01   -0.23720E-01  1912   0.255E+00    0.993E-01
DAV:   3    -0.686238217394E+02    0.20309E-01   -0.30570E-02  2048   0.817E-01    0.446E-01
DAV:   4    -0.686212353294E+02    0.25864E-02   -0.10921E-02  2072   0.466E-01    0.241E-01
DAV:   5    -0.686212498574E+02   -0.14528E-04   -0.17400E-03  1848   0.218E-01    0.122E-01
DAV:   6    -0.686212351180E+02    0.14739E-04   -0.18175E-04  1928   0.622E-02    0.307E-02
DAV:   7    -0.686212344772E+02    0.64083E-06   -0.26453E-05  1976   0.188E-02    0.174E-02
DAV:   8    -0.686212362286E+02   -0.17514E-05   -0.83955E-06  1480   0.184E-02    0.634E-03
DAV:   9    -0.686212367493E+02   -0.52071E-06   -0.29411E-06  1496   0.896E-03
  23 F= -.68621237E+02 E0= -.68621237E+02  d E =-.237695E-12
       N       E                     dE             d eps       ncg     rms          rms(c)
DAV:   1    -0.688664637115E+02   -0.24523E+00   -0.95537E+00  1744   0.131E+01    0.381E+00
DAV:   2    -0.687196517335E+02    0.14681E+00   -0.45370E-01  1928   0.368E+00    0.198E+00
DAV:   3    -0.686370887263E+02    0.82563E-01   -0.73542E-02  2144   0.114E+00    0.104E+00
DAV:   4    -0.686211022070E+02    0.15987E-01   -0.47572E-02  2200   0.974E-01    0.256E-01
DAV:   5    -0.686211429567E+02   -0.40750E-04   -0.79319E-03  1816   0.482E-01    0.212E-01
DAV:   6    -0.686212258428E+02   -0.82886E-04   -0.10163E-03  1864   0.137E-01    0.536E-02
DAV:   7    -0.686212265404E+02   -0.69759E-06   -0.60117E-05  1984   0.524E-02    0.314E-02
DAV:   8    -0.686212358050E+02   -0.92646E-05   -0.26981E-05  1888   0.271E-02    0.785E-03
DAV:   9    -0.686212365645E+02   -0.75957E-06   -0.66374E-06  1776   0.155E-02
  24 F= -.68621237E+02 E0= -.68621237E+02  d E =-.234987E-12
       N       E                     dE             d eps       ncg     rms          rms(c)
DAV:   1    -0.686371031296E+02   -0.15867E-01   -0.87933E+00  1664   0.121E+01    0.210E+00
DAV:   2    -0.686183285655E+02    0.18775E-01   -0.27584E-01  1912   0.262E+00    0.103E+00
DAV:   3    -0.686003810009E+02    0.17948E-01   -0.17630E-02  2208   0.673E-01    0.657E-01
DAV:   4    -0.685935210799E+02    0.68599E-02   -0.13284E-02  2256   0.629E-01    0.108E-01
DAV:   5    -0.685937287643E+02   -0.20768E-03   -0.36053E-03  1760   0.317E-01    0.158E-01
DAV:   6    -0.685937458042E+02   -0.17040E-04   -0.30453E-04  1944   0.674E-02    0.601E-02
DAV:   7    -0.685937467052E+02   -0.90107E-06   -0.10903E-05  1976   0.241E-02    0.305E-02
DAV:   8    -0.685937488887E+02   -0.21835E-05   -0.10894E-05  1464   0.165E-02    0.591E-03
DAV:   9    -0.685937490914E+02   -0.20270E-06   -0.23347E-06  1280   0.936E-03
  25 F= -.68593749E+02 E0= -.68593749E+02  d E =-.336060E-12
       N       E                     dE             d eps       ncg     rms          rms(c)
DAV:   1    -0.688696668748E+02   -0.27592E+00   -0.14520E+01  2624   0.173E+01    0.367E+00
DAV:   2    -0.687241955652E+02    0.14547E+00   -0.53509E-01  2648   0.402E+00    0.197E+00
DAV:   3    -0.686409736448E+02    0.83222E-01   -0.10104E-01  2840   0.133E+00    0.962E-01
DAV:   4    -0.686295410852E+02    0.11433E-01   -0.42404E-02  2952   0.891E-01    0.409E-01
DAV:   5    -0.686295549404E+02   -0.13855E-04   -0.61592E-03  2648   0.401E-01    0.222E-01
DAV:   6    -0.686295130832E+02    0.41857E-04   -0.73678E-04  2736   0.133E-01    0.619E-02
DAV:   7    -0.686295119052E+02    0.11780E-05   -0.99289E-05  2760   0.433E-02    0.404E-02
DAV:   8    -0.686295192750E+02   -0.73698E-05   -0.28169E-05  2400   0.317E-02    0.750E-03
DAV:   9    -0.686295207381E+02   -0.14631E-05   -0.12943E-05  2608   0.199E-02    0.935E-03
DAV:  10    -0.686295208786E+02   -0.14057E-06   -0.91653E-07  1544   0.759E-03
  26 F= -.68629521E+02 E0= -.68629521E+02  d E =-.218506E-12
       N       E                     dE             d eps       ncg     rms          rms(c)
DAV:   1    -0.686253593119E+02    0.41614E-02   -0.29380E+00  2368   0.407E+00    0.313E-02
DAV:   2    -0.686299973807E+02   -0.46381E-02   -0.46456E-02  2472   0.637E-01    0.150E-02
DAV:   3    -0.686301298518E+02   -0.13247E-03   -0.13458E-03  2808   0.112E-01    0.123E-02
DAV:   4    -0.686301358998E+02   -0.60481E-05   -0.67805E-05  2064   0.284E-02    0.729E-03
DAV:   5    -0.686301364923E+02   -0.59246E-06   -0.61560E-06  2264   0.257E-02
  27 F= -.68630136E+02 E0= -.68630136E+02  d E =-.202533E-12
       N       E                     dE             d eps       ncg     rms          rms(c)
DAV:   1    -0.686260029446E+02    0.41330E-02   -0.24546E+00  2464   0.400E+00    0.805E-02
DAV:   2    -0.686298584030E+02   -0.38555E-02   -0.38776E-02  2472   0.650E-01    0.217E-02
DAV:   3    -0.686299761946E+02   -0.11779E-03   -0.12181E-03  2816   0.128E-01    0.157E-02
DAV:   4    -0.686299844511E+02   -0.82565E-05   -0.79223E-05  2592   0.327E-02    0.108E-02
DAV:   5    -0.686299861216E+02   -0.16705E-05   -0.34019E-06  2000   0.235E-02    0.431E-03
DAV:   6    -0.686299870350E+02   -0.91341E-06   -0.28693E-06  2136   0.158E-02
  28 F= -.68629987E+02 E0= -.68629987E+02  d E =-.178288E-12
       N       E                     dE             d eps       ncg     rms          rms(c)
DAV:   1    -0.686244677301E+02    0.55184E-02   -0.29369E+00  2336   0.428E+00    0.750E-02
DAV:   2    -0.686292064960E+02   -0.47388E-02   -0.48140E-02  2512   0.703E-01    0.278E-02
DAV:   3    -0.686293035482E+02   -0.97052E-04   -0.11543E-03  2800   0.166E-01    0.194E-02
DAV:   4    -0.686293081708E+02   -0.46226E-05   -0.83580E-05  2632   0.339E-02    0.141E-02
DAV:   5    -0.686293067930E+02    0.13778E-05   -0.36884E-06  2088   0.316E-02    0.590E-03
DAV:   6    -0.686293067999E+02   -0.68758E-08   -0.34949E-06  2024   0.285E-02
  29 F= -.68629307E+02 E0= -.68629307E+02  d E =-.170796E-12
       N       E                     dE             d eps       ncg     rms          rms(c)
DAV:   1    -0.686176556934E+02    0.11651E-01   -0.70118E+00  2400   0.692E+00    0.131E-01
DAV:   2    -0.686290425293E+02   -0.11387E-01   -0.11582E-01  2552   0.115E+00    0.441E-02
DAV:   3    -0.686293223901E+02   -0.27986E-03   -0.33128E-03  2984   0.231E-01    0.293E-02
DAV:   4    -0.686293313767E+02   -0.89866E-05   -0.18665E-04  2896   0.649E-02    0.181E-02
DAV:   5    -0.686293310470E+02    0.32976E-06   -0.14960E-05  2640   0.484E-02    0.722E-03
DAV:   6    -0.686293328269E+02   -0.17799E-05   -0.12199E-05  2616   0.244E-02    0.505E-03
DAV:   7    -0.686293332792E+02   -0.45233E-06   -0.43006E-06  1952   0.117E-02
  30 F= -.68629333E+02 E0= -.68629333E+02  d E =-.350380E-12
       N       E                     dE             d eps       ncg     rms          rms(c)
DAV:   1    -0.686253061442E+02    0.40267E-02   -0.29439E+00  2312   0.400E+00    0.338E-02
DAV:   2    -0.686298421957E+02   -0.45361E-02   -0.45511E-02  2480   0.643E-01    0.147E-02
DAV:   3    -0.686299806131E+02   -0.13842E-03   -0.14155E-03  2856   0.117E-01    0.137E-02
DAV:   4    -0.686299862887E+02   -0.56756E-05   -0.69695E-05  1984   0.294E-02    0.860E-03
DAV:   5    -0.686299863844E+02   -0.95677E-07   -0.72682E-06  2224   0.298E-02
  31 F= -.68629986E+02 E0= -.68629986E+02  d E =-.250004E-12
       N       E                     dE             d eps       ncg     rms          rms(c)
DAV:   1    -0.686263923296E+02    0.35940E-02   -0.24585E+00  2400   0.401E+00    0.827E-02
DAV:   2    -0.686301460087E+02   -0.37537E-02   -0.37988E-02  2488   0.636E-01    0.254E-02
DAV:   3    -0.686302369237E+02   -0.90915E-04   -0.10538E-03  2992   0.140E-01    0.167E-02
DAV:   4    -0.686302423214E+02   -0.53978E-05   -0.71017E-05  2832   0.415E-02    0.103E-02
DAV:   5    -0.686302429936E+02   -0.67217E-06   -0.40167E-06  2272   0.236E-02
  32 F= -.68630243E+02 E0= -.68630243E+02  d E =-.151206E-12
       N       E                     dE             d eps       ncg     rms          rms(c)
DAV:   1    -0.686251339165E+02    0.51084E-02   -0.29433E+00  2336   0.424E+00    0.787E-02
DAV:   2    -0.686297597870E+02   -0.46259E-02   -0.47029E-02  2520   0.647E-01    0.280E-02
DAV:   3    -0.686298505241E+02   -0.90737E-04   -0.11201E-03  2960   0.160E-01    0.208E-02
DAV:   4    -0.686298543127E+02   -0.37886E-05   -0.82464E-05  2776   0.392E-02    0.144E-02
DAV:   5    -0.686298523282E+02    0.19845E-05   -0.32094E-06  2024   0.327E-02    0.624E-03
DAV:   6    -0.686298521792E+02    0.14894E-06   -0.53719E-06  2232   0.309E-02
  33 F= -.68629852E+02 E0= -.68629852E+02  d E =-.123292E-12
       N       E                     dE             d eps       ncg     rms          rms(c)
DAV:   1    -0.686175143934E+02    0.12338E-01   -0.70148E+00  2432   0.659E+00    0.126E-01
DAV:   2    -0.686290676366E+02   -0.11553E-01   -0.11753E-01  2624   0.117E+00    0.459E-02
DAV:   3    -0.686292561657E+02   -0.18853E-03   -0.24691E-03  3040   0.262E-01    0.275E-02
DAV:   4    -0.686292643445E+02   -0.81787E-05   -0.16905E-04  3112   0.616E-02    0.167E-02
DAV:   5    -0.686292648915E+02   -0.54701E-06   -0.12598E-05  2664   0.430E-02    0.642E-03
DAV:   6    -0.686292662197E+02   -0.13283E-05   -0.93266E-06  2304   0.225E-02    0.361E-03
DAV:   7    -0.686292665160E+02   -0.29625E-06   -0.27120E-06  1808   0.894E-03
  34 F= -.68629267E+02 E0= -.68629267E+02  d E =-.270438E-12
       N       E                     dE             d eps       ncg     rms          rms(c)
DAV:   1    -0.686251613695E+02    0.41049E-02   -0.29430E+00  2344   0.434E+00    0.356E-02
DAV:   2    -0.686298548277E+02   -0.46935E-02   -0.47110E-02  2480   0.674E-01    0.161E-02
DAV:   3    -0.686299900443E+02   -0.13522E-03   -0.13879E-03  2824   0.119E-01    0.158E-02
DAV:   4    -0.686299960020E+02   -0.59578E-05   -0.70066E-05  1984   0.291E-02    0.111E-02
DAV:   5    -0.686299959833E+02    0.18676E-07   -0.86172E-06  2432   0.384E-02
  35 F= -.68629996E+02 E0= -.68629996E+02  d E =-.209999E-12
       N       E                     dE             d eps       ncg     rms          rms(c)
DAV:   1    -0.686261004181E+02    0.38956E-02   -0.24565E+00  2376   0.421E+00    0.831E-02
DAV:   2    -0.686300367180E+02   -0.39363E-02   -0.39892E-02  2624   0.704E-01    0.277E-02
DAV:   3    -0.686301114051E+02   -0.74687E-04   -0.93498E-04  2848   0.152E-01    0.159E-02
DAV:   4    -0.686301171341E+02   -0.57290E-05   -0.69658E-05  2920   0.381E-02    0.985E-03
DAV:   5    -0.686301182491E+02   -0.11150E-05   -0.38450E-06  2216   0.188E-02    0.509E-03
DAV:   6    -0.686301188740E+02   -0.62494E-06   -0.19960E-06  1744   0.171E-02
  36 F= -.68630119E+02 E0= -.68630119E+02  d E =-.160272E-12
       N       E                     dE             d eps       ncg     rms          rms(c)
DAV:   1    -0.686246394605E+02    0.54788E-02   -0.29417E+00  2360   0.446E+00    0.809E-02
DAV:   2    -0.686294290493E+02   -0.47896E-02   -0.48728E-02  2648   0.761E-01    0.322E-02
DAV:   3    -0.686295070159E+02   -0.77967E-04   -0.10585E-03  2896   0.178E-01    0.217E-02
DAV:   4    -0.686295099250E+02   -0.29091E-05   -0.72274E-05  2712   0.323E-02    0.149E-02
DAV:   5    -0.686295078443E+02    0.20807E-05   -0.27040E-06  1896   0.288E-02    0.715E-03
DAV:   6    -0.686295073758E+02    0.46856E-06   -0.51859E-06  2264   0.362E-02
  37 F= -.68629507E+02 E0= -.68629507E+02  d E =-.153959E-12
       N       E                     dE             d eps       ncg     rms          rms(c)
DAV:   1    -0.686034287928E+02    0.26079E-01   -0.78747E+00  2576   0.790E+00    0.742E-01
DAV:   2    -0.686231000283E+02   -0.19671E-01   -0.20398E-01  2800   0.151E+00    0.149E-01
DAV:   3    -0.686234309942E+02   -0.33097E-03   -0.48238E-03  3056   0.283E-01    0.135E-01
DAV:   4    -0.686233932495E+02    0.37745E-04   -0.21894E-04  2840   0.712E-02    0.890E-02
DAV:   5    -0.686233605262E+02    0.32723E-04   -0.14894E-04  2904   0.934E-02    0.474E-02
DAV:   6    -0.686233595486E+02    0.97758E-06   -0.37876E-05  2920   0.355E-02    0.454E-02
DAV:   7    -0.686233592955E+02    0.25315E-06   -0.22542E-05  2368   0.182E-02    0.244E-02
DAV:   8    -0.686233599280E+02   -0.63256E-06   -0.20523E-06  1840   0.123E-02
  38 F= -.68623360E+02 E0= -.68623360E+02  d E =-.509579E-12
       N       E                     dE             d eps       ncg     rms          rms(c)
DAV:   1    -0.686131772299E+02    0.10182E-01   -0.43746E+00  2848   0.366E+00    0.164E-01
DAV:   2    -0.686284015772E+02   -0.15224E-01   -0.15351E-01  2824   0.874E-01    0.153E-01
DAV:   3    -0.686285814596E+02   -0.17988E-03   -0.22754E-03  3200   0.137E-01    0.135E-01
DAV:   4    -0.686285524375E+02    0.29022E-04   -0.88269E-05  2656   0.552E-02    0.649E-02
DAV:   5    -0.686285455488E+02    0.68887E-05   -0.61606E-05  2912   0.554E-02    0.179E-02
DAV:   6    -0.686285476453E+02   -0.20966E-05   -0.33589E-05  2592   0.223E-02    0.276E-02
DAV:   7    -0.686285473019E+02    0.34342E-06   -0.26388E-06  1976   0.589E-03
  39 F= -.68628547E+02 E0= -.68628547E+02  d E =-.261902E-12
       N       E                     dE             d eps       ncg     rms          rms(c)
DAV:   1    -0.686202155981E+02    0.83320E-02   -0.27560E+00  2824   0.284E+00    0.508E-01
DAV:   2    -0.686285735156E+02   -0.83579E-02   -0.89087E-02  3016   0.693E-01    0.146E-01
DAV:   3    -0.686286105532E+02   -0.37038E-04   -0.19722E-03  3176   0.170E-01    0.815E-02
DAV:   4    -0.686285665736E+02    0.43980E-04   -0.10893E-04  3096   0.788E-02    0.449E-02
DAV:   5    -0.686285442410E+02    0.22333E-04   -0.70144E-05  2864   0.819E-02    0.278E-02
DAV:   6    -0.686285462201E+02   -0.19791E-05   -0.40086E-05  2816   0.288E-02    0.226E-02
DAV:   7    -0.686285467310E+02   -0.51087E-06   -0.70072E-06  2272   0.969E-03
  40 F= -.68628547E+02 E0= -.68628547E+02  d E =-.250156E-12
       N       E                     dE             d eps       ncg     rms          rms(c)
DAV:   1    -0.686087910514E+02    0.19755E-01   -0.43649E+00  2784   0.361E+00    0.570E-01
DAV:   2    -0.686231955244E+02   -0.14404E-01   -0.14688E-01  2920   0.819E-01    0.107E-01
DAV:   3    -0.686233852722E+02   -0.18975E-03   -0.23782E-03  3136   0.148E-01    0.121E-01
DAV:   4    -0.686233688022E+02    0.16470E-04   -0.87618E-05  3136   0.384E-02    0.788E-02
DAV:   5    -0.686233602321E+02    0.85701E-05   -0.42607E-05  2464   0.462E-02    0.252E-02
DAV:   6    -0.686233598951E+02    0.33702E-06   -0.11979E-05  2680   0.299E-02    0.312E-02
DAV:   7    -0.686233594932E+02    0.40185E-06   -0.13939E-05  2416   0.168E-02    0.910E-03
DAV:   8    -0.686233596822E+02   -0.18900E-06   -0.23356E-06  1800   0.554E-03
  41 F= -.68623360E+02 E0= -.68623360E+02  d E =-.522792E-12
       N       E                     dE             d eps       ncg     rms          rms(c)
DAV:   1    -0.685956920298E+02    0.27667E-01   -0.88193E+00  1968   0.548E+00    0.744E-01
DAV:   2    -0.686245768794E+02   -0.28885E-01   -0.29831E-01  2112   0.125E+00    0.223E-01
DAV:   3    -0.686247874831E+02   -0.21060E-03   -0.52697E-03  2240   0.232E-01    0.157E-01
DAV:   4    -0.686245953380E+02    0.19215E-03   -0.34645E-04  2184   0.100E-01    0.740E-02
DAV:   5    -0.686244679881E+02    0.12735E-03   -0.19365E-04  1920   0.102E-01    0.400E-02
DAV:   6    -0.686244529354E+02    0.15053E-04   -0.15058E-04  2040   0.480E-02    0.344E-02
DAV:   7    -0.686244450420E+02    0.78934E-05   -0.19357E-05  1776   0.191E-02    0.150E-02
DAV:   8    -0.686244244494E+02    0.20593E-04   -0.14812E-05  1824   0.454E-02    0.352E-03
DAV:   9    -0.686244169771E+02    0.74723E-05   -0.20468E-05  1816   0.348E-02    0.550E-03
DAV:  10    -0.686244137818E+02    0.31953E-05   -0.11539E-05  1736   0.288E-02    0.373E-03
DAV:  11    -0.686244141215E+02   -0.33972E-06   -0.76284E-06  1720   0.108E-02
  42 F= -.68624414E+02 E0= -.68624414E+02  d E =-.178108E-11
       N       E                     dE             d eps       ncg     rms          rms(c)
DAV:   1    -0.686133527175E+02    0.11061E-01   -0.43823E+00  1936   0.341E+00    0.169E-01
DAV:   2    -0.686288069154E+02   -0.15454E-01   -0.15585E-01  2040   0.812E-01    0.144E-01
DAV:   3    -0.686289727581E+02   -0.16584E-03   -0.22128E-03  2120   0.123E-01    0.124E-01
DAV:   4    -0.686289470811E+02    0.25677E-04   -0.18532E-04  1888   0.561E-02    0.561E-02
DAV:   5    -0.686289424062E+02    0.46749E-05   -0.72192E-05  2056   0.396E-02    0.185E-02
DAV:   6    -0.686289432399E+02   -0.83370E-06   -0.22981E-05  1816   0.204E-02    0.200E-02
DAV:   7    -0.686289432600E+02   -0.20149E-07   -0.28401E-06  1440   0.587E-03
  43 F= -.68628943E+02 E0= -.68628943E+02  d E =-.434565E-12
       N       E                     dE             d eps       ncg     rms          rms(c)
DAV:   1    -0.686206002592E+02    0.83430E-02   -0.27561E+00  1864   0.255E+00    0.493E-01
DAV:   2    -0.686290140258E+02   -0.84138E-02   -0.89783E-02  2104   0.630E-01    0.130E-01
DAV:   3    -0.686290230595E+02   -0.90337E-05   -0.18410E-03  2192   0.141E-01    0.796E-02
DAV:   4    -0.686289605590E+02    0.62501E-04   -0.14891E-04  2152   0.683E-02    0.393E-02
DAV:   5    -0.686289391191E+02    0.21440E-04   -0.68518E-05  2040   0.586E-02    0.240E-02
DAV:   6    -0.686289419494E+02   -0.28303E-05   -0.42241E-05  1928   0.270E-02    0.189E-02
DAV:   7    -0.686289423180E+02   -0.36865E-06   -0.39762E-06  1400   0.679E-03
  44 F= -.68628942E+02 E0= -.68628942E+02  d E =-.405007E-12
       N       E                     dE             d eps       ncg     rms          rms(c)
DAV:   1    -0.686095663081E+02    0.19376E-01   -0.43720E+00  1888   0.334E+00    0.547E-01
DAV:   2    -0.686242527214E+02   -0.14686E-01   -0.14971E-01  2104   0.773E-01    0.109E-01
DAV:   3    -0.686244363672E+02   -0.18365E-03   -0.23223E-03  2144   0.138E-01    0.115E-01
DAV:   4    -0.686244236127E+02    0.12754E-04   -0.16565E-04  2216   0.375E-02    0.791E-02
DAV:   5    -0.686244150754E+02    0.85373E-05   -0.32843E-05  1664   0.289E-02    0.278E-02
DAV:   6    -0.686244143797E+02    0.69570E-06   -0.16888E-05  1928   0.249E-02    0.321E-02
DAV:   7    -0.686244133276E+02    0.10521E-05   -0.15036E-05  1704   0.175E-02    0.934E-03
DAV:   8    -0.686244136492E+02   -0.32162E-06   -0.28327E-06  1352   0.653E-03
  45 F= -.68624414E+02 E0= -.68624414E+02  d E =-.177397E-11
       N       E                     dE             d eps       ncg     rms          rms(c)
DAV:   1    -0.686073416533E+02    0.17072E-01   -0.53558E+00  2488   0.462E+00    0.639E-01
DAV:   2    -0.686278072302E+02   -0.20466E-01   -0.21649E-01  3000   0.137E+00    0.240E-01
DAV:   3    -0.686275910695E+02    0.21616E-03   -0.43500E-03  2800   0.262E-01    0.157E-01
DAV:   4    -0.686273727813E+02    0.21829E-03   -0.90721E-04  2744   0.127E-01    0.709E-02
DAV:   5    -0.686273771410E+02   -0.43597E-05   -0.24856E-04  2800   0.656E-02    0.458E-02
DAV:   6    -0.686273771422E+02   -0.12278E-08   -0.29627E-05  3072   0.256E-02    0.344E-02
DAV:   7    -0.686273730501E+02    0.40921E-05   -0.28766E-05  2192   0.292E-02    0.134E-02
DAV:   8    -0.686273728529E+02    0.19727E-06   -0.72008E-06  2104   0.164E-02
  46 F= -.68627373E+02 E0= -.68627373E+02  d E =-.215803E-12
       N       E                     dE             d eps       ncg     rms          rms(c)
DAV:   1    -0.686262469307E+02    0.11261E-02   -0.74243E-01  2416   0.169E+00    0.142E-01
DAV:   2    -0.686295163244E+02   -0.32694E-02   -0.35988E-02  2664   0.553E-01    0.647E-02
DAV:   3    -0.686296156259E+02   -0.99302E-04   -0.13509E-03  3248   0.115E-01    0.584E-02
DAV:   4    -0.686296086354E+02    0.69905E-05   -0.73208E-05  2480   0.314E-02    0.275E-02
DAV:   5    -0.686296067904E+02    0.18450E-05   -0.11172E-05  2464   0.164E-02    0.825E-03
DAV:   6    -0.686296066288E+02    0.16159E-06   -0.21676E-06  1872   0.738E-03
  47 F= -.68629607E+02 E0= -.68629607E+02  d E =-.200716E-12
       N       E                     dE             d eps       ncg     rms          rms(c)
DAV:   1    -0.686270826378E+02    0.25242E-02   -0.67986E-01  2392   0.162E+00    0.372E-01
DAV:   2    -0.686296401920E+02   -0.25576E-02   -0.31454E-02  2824   0.598E-01    0.133E-01
DAV:   3    -0.686294740069E+02    0.16619E-03   -0.11011E-03  3120   0.143E-01    0.100E-01
DAV:   4    -0.686293944818E+02    0.79525E-04   -0.42075E-04  2728   0.860E-02    0.364E-02
DAV:   5    -0.686294031191E+02   -0.86373E-05   -0.10080E-04  2584   0.409E-02    0.331E-02
DAV:   6    -0.686294020061E+02    0.11130E-05   -0.42115E-06  2152   0.161E-02    0.232E-02
DAV:   7    -0.686294010628E+02    0.94326E-06   -0.21683E-06  1920   0.147E-02
  48 F= -.68629401E+02 E0= -.68629401E+02  d E =-.211764E-12
       N       E                     dE             d eps       ncg     rms          rms(c)
DAV:   1    -0.686233963458E+02    0.60057E-02   -0.77475E-01  2328   0.164E+00    0.321E-01
DAV:   2    -0.686270400563E+02   -0.36437E-02   -0.38529E-02  2848   0.559E-01    0.112E-01
DAV:   3    -0.686270335535E+02    0.65028E-05   -0.12102E-03  2792   0.118E-01    0.953E-02
DAV:   4    -0.686269663973E+02    0.67156E-04   -0.22523E-04  2192   0.533E-02    0.427E-02
DAV:   5    -0.686269718474E+02   -0.54501E-05   -0.63917E-05  2624   0.261E-02    0.236E-02
DAV:   6    -0.686269720612E+02   -0.21382E-06   -0.36374E-06  2032   0.752E-03
  49 F= -.68626972E+02 E0= -.68626972E+02  d E =-.247129E-12
       N       E                     dE             d eps       ncg     rms          rms(c)
DAV:   1    -0.686210967325E+02    0.58751E-02   -0.19265E+00  2288   0.272E+00    0.549E-01
DAV:   2    -0.686284196211E+02   -0.73229E-02   -0.84741E-02  2720   0.999E-01    0.205E-01
DAV:   3    -0.686283230580E+02    0.96563E-04   -0.28883E-03  3088   0.223E-01    0.159E-01
DAV:   4    -0.686281200869E+02    0.20297E-03   -0.78731E-04  2664   0.144E-01    0.719E-02
DAV:   5    -0.686281421278E+02   -0.22041E-04   -0.25230E-04  2656   0.617E-02    0.265E-02
DAV:   6    -0.686281378137E+02    0.43141E-05   -0.14782E-05  2624   0.199E-02    0.170E-02
DAV:   7    -0.686281367732E+02    0.10405E-05   -0.90567E-06  2144   0.233E-02    0.429E-03
DAV:   8    -0.686281369481E+02   -0.17490E-06   -0.21022E-06  1752   0.764E-03
  50 F= -.68628137E+02 E0= -.68628137E+02  d E =-.390216E-12
       N       E                     dE             d eps       ncg     rms          rms(c)
DAV:   1    -0.686263214599E+02    0.18153E-02   -0.79468E-01  2344   0.174E+00    0.152E-01
DAV:   2    -0.686296658801E+02   -0.33444E-02   -0.35456E-02  2744   0.543E-01    0.599E-02
DAV:   3    -0.686297305349E+02   -0.64655E-04   -0.92982E-04  3264   0.970E-02    0.509E-02
DAV:   4    -0.686297139841E+02    0.16551E-04   -0.63522E-05  2288   0.407E-02    0.201E-02
DAV:   5    -0.686297142115E+02   -0.22734E-06   -0.20080E-05  2776   0.223E-02    0.124E-02
DAV:   6    -0.686297140793E+02    0.13216E-06   -0.31092E-06  1840   0.840E-03
  51 F= -.68629714E+02 E0= -.68629714E+02  d E =-.250360E-12
       N       E                     dE             d eps       ncg     rms          rms(c)
DAV:   1    -0.686275027797E+02    0.22114E-02   -0.70900E-01  2328   0.163E+00    0.362E-01
DAV:   2    -0.686300665005E+02   -0.25637E-02   -0.29515E-02  2712   0.588E-01    0.139E-01
DAV:   3    -0.686299914470E+02    0.75054E-04   -0.98821E-04  3088   0.136E-01    0.105E-01
DAV:   4    -0.686298914082E+02    0.10004E-03   -0.50968E-04  2904   0.127E-01    0.423E-02
DAV:   5    -0.686299035031E+02   -0.12095E-04   -0.13692E-04  2584   0.445E-02    0.223E-02
DAV:   6    -0.686299010298E+02    0.24733E-05   -0.38463E-06  2272   0.115E-02    0.167E-02
DAV:   7    -0.686298992387E+02    0.17911E-05   -0.12852E-05  2104   0.216E-02    0.372E-03
DAV:   8    -0.686298993078E+02   -0.69113E-07   -0.31092E-06  2016   0.865E-03
  52 F= -.68629899E+02 E0= -.68629899E+02  d E =-.157590E-12
       N       E                     dE             d eps       ncg     rms          rms(c)
DAV:   1    -0.686251305374E+02    0.47687E-02   -0.82063E-01  2344   0.166E+00    0.356E-01
DAV:   2    -0.686286181301E+02   -0.34876E-02   -0.37302E-02  2928   0.546E-01    0.141E-01
DAV:   3    -0.686286101258E+02    0.80042E-05   -0.98428E-04  2864   0.105E-01    0.113E-01
DAV:   4    -0.686285428842E+02    0.67242E-04   -0.23755E-04  2264   0.628E-02    0.543E-02
DAV:   5    -0.686285488385E+02   -0.59543E-05   -0.67924E-05  2624   0.267E-02    0.144E-02
DAV:   6    -0.686285491420E+02   -0.30358E-06   -0.35538E-06  2096   0.119E-02
  53 F= -.68628549E+02 E0= -.68628549E+02  d E =-.146996E-12
       N       E                     dE             d eps       ncg     rms          rms(c)
DAV:   1    -0.686203355575E+02    0.82133E-02   -0.19553E+00  2368   0.284E+00    0.522E-01
DAV:   2    -0.686281981726E+02   -0.78626E-02   -0.88536E-02  2776   0.101E+00    0.206E-01
DAV:   3    -0.686279950693E+02    0.20310E-03   -0.27513E-03  3016   0.220E-01    0.164E-01
DAV:   4    -0.686277750810E+02    0.21999E-03   -0.98243E-04  2848   0.150E-01    0.635E-02
DAV:   5    -0.686277995410E+02   -0.24460E-04   -0.27859E-04  2624   0.638E-02    0.415E-02
DAV:   6    -0.686277974256E+02    0.21154E-05   -0.90890E-06  2192   0.221E-02    0.303E-02
DAV:   7    -0.686277945476E+02    0.28780E-05   -0.84384E-06  2104   0.234E-02    0.122E-02
DAV:   8    -0.686277949205E+02   -0.37297E-06   -0.45346E-06  2336   0.996E-03
  54 F= -.68627795E+02 E0= -.68627795E+02  d E =-.262946E-12
       N       E                     dE             d eps       ncg     rms          rms(c)
DAV:   1    -0.686263486392E+02    0.14459E-02   -0.77418E-01  2392   0.173E+00    0.165E-01
DAV:   2    -0.686296437722E+02   -0.32951E-02   -0.35435E-02  2760   0.555E-01    0.593E-02
DAV:   3    -0.686297089401E+02   -0.65168E-04   -0.94297E-04  3248   0.986E-02    0.504E-02
DAV:   4    -0.686296968833E+02    0.12057E-04   -0.56584E-05  2440   0.337E-02    0.219E-02
DAV:   5    -0.686296958260E+02    0.10573E-05   -0.14063E-05  2776   0.181E-02    0.903E-03
DAV:   6    -0.686296959197E+02   -0.93778E-07   -0.23303E-06  1856   0.722E-03
  55 F= -.68629696E+02 E0= -.68629696E+02  d E =-.217196E-12
       N       E                     dE             d eps       ncg     rms          rms(c)
DAV:   1    -0.686272862431E+02    0.24096E-02   -0.69916E-01  2400   0.163E+00    0.395E-01
DAV:   2    -0.686298057831E+02   -0.25195E-02   -0.29724E-02  2696   0.605E-01    0.126E-01
DAV:   3    -0.686296929541E+02    0.11283E-03   -0.10248E-03  3144   0.141E-01    0.943E-02
DAV:   4    -0.686296045936E+02    0.88360E-04   -0.42073E-04  2920   0.981E-02    0.413E-02
DAV:   5    -0.686296146276E+02   -0.10034E-04   -0.11135E-04  2608   0.415E-02    0.246E-02
DAV:   6    -0.686296135387E+02    0.10889E-05   -0.37295E-06  2144   0.174E-02    0.153E-02
DAV:   7    -0.686296128527E+02    0.68608E-06   -0.58858E-06  2048   0.165E-02
  56 F= -.68629613E+02 E0= -.68629613E+02  d E =-.232500E-12
       N       E                     dE             d eps       ncg     rms          rms(c)
DAV:   1    -0.686242401590E+02    0.53734E-02   -0.80242E-01  2304   0.166E+00    0.359E-01
DAV:   2    -0.686277468443E+02   -0.35067E-02   -0.37216E-02  2896   0.565E-01    0.122E-01
DAV:   3    -0.686277521277E+02   -0.52834E-05   -0.11494E-03  2824   0.114E-01    0.999E-02
DAV:   4    -0.686276862537E+02    0.65874E-04   -0.23003E-04  2304   0.574E-02    0.472E-02
DAV:   5    -0.686276923258E+02   -0.60721E-05   -0.67799E-05  2632   0.264E-02    0.141E-02
DAV:   6    -0.686276930412E+02   -0.71540E-06   -0.40051E-06  2072   0.115E-02
  57 F= -.68627693E+02 E0= -.68627693E+02  d E =-.324581E-12
