 vasp.6.3.2 27Jun22 (build Jun 14 2024 17:29:11) complex                         
 executed on             LinuxGNU date 2026.03.30  11:30:24
 running on    8 total cores
 distrk:  each k-point on    8 cores,    1 groups
 distr:  one band on NCORE=   1 cores,    8 groups


--------------------------------------------------------------------------------------------------------


 INCAR:
   EDIFF = 1e-06
   ENCUT = 400.0
   IBRION = 6
   ISIF = 3
   ISMEAR = 0
   LCHARG = False
   LREAL = Auto
   LWAVE = False
   NFREE = 4
   NSW = 1
   POTIM = 0.015
   SIGMA = 0.05

 POTCAR:    PAW_PBE Na_pv 19Sep2006               
 POTCAR:    PAW_PBE Sn_d 06Sep2000                
 POTCAR:    PAW_PBE S 06Sep2000                   
 -----------------------------------------------------------------------------
|                                                                             |
|           W    W    AA    RRRRR   N    N  II  N    N   GGGG   !!!           |
|           W    W   A  A   R    R  NN   N  II  NN   N  G    G  !!!           |
|           W    W  A    A  R    R  N N  N  II  N N  N  G       !!!           |
|           W WW W  AAAAAA  RRRRR   N  N N  II  N  N N  G  GGG   !            |
|           WW  WW  A    A  R   R   N   NN  II  N   NN  G    G                |
|           W    W  A    A  R    R  N    N  II  N    N   GGGG   !!!           |
|                                                                             |
|     For optimal performance we recommend to set                             |
|       NCORE = 2 up to number-of-cores-per-socket                            |
|     NCORE specifies how many cores store one orbital (NPAR=cpu/NCORE).      |
|     This setting can greatly improve the performance of VASP for DFT.       |
|     The default, NCORE=1 might be grossly inefficient on modern             |
|     multi-core architectures or massively parallel machines. Do your        |
|     own testing! More info at https://www.vasp.at/wiki/index.php/NCORE      |
|     Unfortunately you need to use the default for GW and RPA                |
|     calculations (for HF NCORE is supported but not extensively tested      |
|     yet).                                                                   |
|                                                                             |
 -----------------------------------------------------------------------------

 POTCAR:    PAW_PBE Na_pv 19Sep2006               
   SHA256 =  6a2f546d9e11350984debacf3dc457d8cffc0868e817d445faca461816a32b94 Na_pv/POTCAR          
   COPYR  = (c) Copyright 19Sep2006 Georg Kresse                                                    
   COPYR  = This file is part of the software VASP. Any use, copying, and all other rights are regul
   COPYR  = If you do not have a valid VASP license, you may not use, copy or distribute this file. 
   VRHFIN =Na: p6s1                                                                                 
   LEXCH  = PE                                                                                      
   EATOM  =   766.0439 eV,   56.3026 Ry                                                             
                                                                                                    
   TITEL  = PAW_PBE Na_pv 19Sep2006                                                                 
   LULTRA =        F    use ultrasoft PP ?                                                          
   IUNSCR =        1    unscreen: 0-lin 1-nonlin 2-no                                               
   RPACOR =    1.800    partial core radius                                                         
   POMASS =   22.990; ZVAL   =    7.000    mass and valenz                                          
   RCORE  =    2.200    outmost cutoff radius                                                       
   RWIGS  =    2.200; RWIGS  =    1.164    wigner-seitz radius (au A)                               
   ENMAX  =  259.561; ENMIN  =  194.671 eV                                                          
   ICORE  =        2    local potential                                                             
   LCOR   =        T    correct aug charges                                                         
   LPAW   =        T    paw PP                                                                      
   EAUG   =  368.056                                                                                
   DEXC   =    0.000                                                                                
   RMAX   =    2.245    core radius for proj-oper                                                   
   RAUG   =    1.300    factor for augmentation sphere                                              
   RDEP   =    2.259    radius for radial grids                                                     
   RDEPT  =    1.738    core radius for aug-charge                                                  
                                                                                                    
   Atomic configuration                                                                             
    5 entries                                                                                       
     n  l   j            E        occ.                                                              
     1  0  0.50     -1033.6933   2.0000                                                             
     2  0  0.50       -56.7526   2.0000                                                             
     2  1  1.50       -28.6721   6.0000                                                             
     3  0  0.50        -2.7440   1.0000                                                             
     3  2  1.50        -1.3606   0.0000                                                             
   Description                                                                                      
     l       E           TYP  RCUT    TYP  RCUT                                                     
     1    -28.6720912     23  2.000                                                                 
     1      6.8029130     23  2.000                                                                 
     0     -2.7439560     23  2.200                                                                 
     0     34.0145650     23  2.200                                                                 
     2     -1.3605826     23  2.200                                                                 
  local pseudopotential read in
  partial core-charges read in
  partial kinetic energy density read in
  atomic valenz-charges read in
  non local Contribution for L=           1  read in
    real space projection operators read in
  non local Contribution for L=           1  read in
    real space projection operators read in
  non local Contribution for L=           0  read in
    real space projection operators read in
  non local Contribution for L=           0  read in
    real space projection operators read in
    PAW grid and wavefunctions read in

   number of l-projection  operators is LMAX  =           4
   number of lm-projection operators is LMMAX =           8

 POTCAR:    PAW_PBE Sn_d 06Sep2000                
   SHA256 =  385b269c1887fa92a2bd1b595c4ea1490c7eb92f9f3d87257729a4a813cde741 Sn_d/POTCAR           
   COPYR  = (c) Copyright 06Sep2000 Georg Kresse                                                    
   COPYR  = This file is part of the software VASP. Any use, copying, and all other rights are regul
   COPYR  = If you do not have a valid VASP license, you may not use, copy or distribute this file. 
   VRHFIN =Sn: s2p2                                                                                 
   LEXCH  = PE                                                                                      
   EATOM  =  1893.1092 eV,  139.1396 Ry                                                             
                                                                                                    
   TITEL  = PAW_PBE Sn_d 06Sep2000                                                                  
   LULTRA =        F    use ultrasoft PP ?                                                          
   IUNSCR =        1    unscreen: 0-lin 1-nonlin 2-no                                               
   RPACOR =    2.300    partial core radius                                                         
   POMASS =  118.710; ZVAL   =   14.000    mass and valenz                                          
   RCORE  =    2.500    outmost cutoff radius                                                       
   RWIGS  =    2.960; RWIGS  =    1.566    wigner-seitz radius (au A)                               
   ENMAX  =  241.083; ENMIN  =  180.812 eV                                                          
   ICORE  =        3    local potential                                                             
   LCOR   =        T    correct aug charges                                                         
   LPAW   =        T    paw PP                                                                      
   EAUG   =  439.825                                                                                
   DEXC   =    0.000                                                                                
   RMAX   =    2.560    core radius for proj-oper                                                   
   RAUG   =    1.300    factor for augmentation sphere                                              
   RDEP   =    2.659    radius for radial grids                                                     
   RDEPT  =    2.046    core radius for aug-charge                                                  
                                                                                                    
   Atomic configuration                                                                             
   12 entries                                                                                       
     n  l   j            E        occ.                                                              
     1  0  0.50    -29007.2859   2.0000                                                             
     2  0  0.50     -4378.8056   2.0000                                                             
     2  1  1.50     -3930.4293   6.0000                                                             
     3  0  0.50      -845.0264   2.0000                                                             
     3  1  1.50      -698.5725   6.0000                                                             
     3  2  2.50      -473.2839  10.0000                                                             
     4  0  0.50      -133.9036   2.0000                                                             
     4  1  1.50       -89.6752   6.0000                                                             
     4  2  2.50       -25.8375  10.0000                                                             
     5  0  0.50       -10.5484   2.0000                                                             
     5  1  0.50        -3.6940   2.0000                                                             
     4  3  2.50        -2.7416   0.0000                                                             
   Description                                                                                      
     l       E           TYP  RCUT    TYP  RCUT                                                     
     2    -25.8374624     23  2.500                                                                 
     2     -5.4423304     23  2.500                                                                 
     0    -10.5483727     23  2.500                                                                 
     0     13.6058260     23  2.500                                                                 
     1     -3.6939829     23  2.500                                                                 
     1      1.9821976     23  2.500                                                                 
     3     -1.3605826      7  2.500                                                                 
  local pseudopotential read in
  partial core-charges read in
  partial kinetic energy density read in
  atomic valenz-charges read in
  non local Contribution for L=           2  read in
    real space projection operators read in
  non local Contribution for L=           2  read in
    real space projection operators read in
  non local Contribution for L=           0  read in
    real space projection operators read in
  non local Contribution for L=           0  read in
    real space projection operators read in
  non local Contribution for L=           1  read in
    real space projection operators read in
  non local Contribution for L=           1  read in
    real space projection operators read in
    PAW grid and wavefunctions read in

   number of l-projection  operators is LMAX  =           6
   number of lm-projection operators is LMMAX =          18

 POTCAR:    PAW_PBE S 06Sep2000                   
   SHA256 =  0fc7481fb0695f01bdc6462160264c5c84044ae9ec85a907d398b887a2bc3132 S/POTCAR              
   COPYR  = (c) Copyright 06Sep2000 Georg Kresse                                                    
   COPYR  = This file is part of the software VASP. Any use, copying, and all other rights are regul
   COPYR  = If you do not have a valid VASP license, you may not use, copy or distribute this file. 
   VRHFIN =S : s2p4                                                                                 
   LEXCH  = PE                                                                                      
   EATOM  =   276.8230 eV,   20.3459 Ry                                                             
                                                                                                    
   TITEL  = PAW_PBE S 06Sep2000                                                                     
   LULTRA =        F    use ultrasoft PP ?                                                          
   IUNSCR =        1    unscreen: 0-lin 1-nonlin 2-no                                               
   RPACOR =    1.500    partial core radius                                                         
   POMASS =   32.066; ZVAL   =    6.000    mass and valenz                                          
   RCORE  =    1.900    outmost cutoff radius                                                       
   RWIGS  =    2.200; RWIGS  =    1.164    wigner-seitz radius (au A)                               
   ENMAX  =  258.689; ENMIN  =  194.016 eV                                                          
   ICORE  =        2    local potential                                                             
   LCOR   =        T    correct aug charges                                                         
   LPAW   =        T    paw PP                                                                      
   EAUG   =  335.092                                                                                
   DEXC   =    0.000                                                                                
   RMAX   =    1.942    core radius for proj-oper                                                   
   RAUG   =    1.300    factor for augmentation sphere                                              
   RDEP   =    1.954    radius for radial grids                                                     
   RDEPT  =    1.744    core radius for aug-charge                                                  
                                                                                                    
   Atomic configuration                                                                             
    6 entries                                                                                       
     n  l   j            E        occ.                                                              
     1  0  0.50     -2405.8406   2.0000                                                             
     2  0  0.50      -211.7007   2.0000                                                             
     2  1  1.50      -156.4958   6.0000                                                             
     3  0  0.50       -17.2562   2.0000                                                             
     3  1  0.50        -7.0085   4.0000                                                             
     3  2  1.50        -6.8029   0.0000                                                             
   Description                                                                                      
     l       E           TYP  RCUT    TYP  RCUT                                                     
     0    -17.2561641     23  1.900                                                                 
     0    -15.8743224     23  1.900                                                                 
     1     -7.0085400     23  1.900                                                                 
     1     -2.7779785     23  1.900                                                                 
     2     -6.8029130     23  1.900                                                                 
  local pseudopotential read in
  partial core-charges read in
  partial kinetic energy density read in
  atomic valenz-charges read in
  non local Contribution for L=           0  read in
    real space projection operators read in
  non local Contribution for L=           0  read in
    real space projection operators read in
  non local Contribution for L=           1  read in
    real space projection operators read in
  non local Contribution for L=           1  read in
    real space projection operators read in
    PAW grid and wavefunctions read in

   number of l-projection  operators is LMAX  =           4
   number of lm-projection operators is LMMAX =           8

 Optimization of the real space projectors (new method)

 maximal supplied QI-value         = 17.01
 optimisation between [QCUT,QGAM] = [ 10.20, 20.41] = [ 29.16,116.64] Ry 
 Optimized for a Real-space Cutoff    1.30 Angstroem

   l    n(q)    QCUT    max X(q) W(low)/X(q) W(high)/X(q)  e(spline) 
   1      7    10.205     4.940    0.23E-03    0.84E-03    0.11E-06
   1      7    10.205     6.253    0.40E-03    0.13E-02    0.18E-06
   0      8    10.205    37.438    0.23E-03    0.37E-03    0.42E-07
   0      8    10.205     9.606    0.16E-03    0.26E-03    0.31E-07
 Optimization of the real space projectors (new method)

 maximal supplied QI-value         = 15.12
 optimisation between [QCUT,QGAM] = [ 10.13, 20.41] = [ 28.73,116.64] Ry 
 Optimized for a Real-space Cutoff    1.38 Angstroem

   l    n(q)    QCUT    max X(q) W(low)/X(q) W(high)/X(q)  e(spline) 
   2      7    10.129     5.880    0.15E-03    0.14E-04    0.57E-07
   2      7    10.129     7.804    0.33E-03    0.17E-03    0.10E-06
   0      8    10.129    20.557    0.11E-03    0.15E-03    0.82E-07
   0      8    10.129     9.400    0.14E-03    0.19E-03    0.10E-06
   1      8    10.129    94.178    0.28E-03    0.18E-03    0.13E-06
   1      8    10.129    56.401    0.27E-03    0.17E-03    0.13E-06
 Optimization of the real space projectors (new method)

 maximal supplied QI-value         = 19.84
 optimisation between [QCUT,QGAM] = [ 10.12, 20.44] = [ 28.68,116.96] Ry 
 Optimized for a Real-space Cutoff    1.23 Angstroem

   l    n(q)    QCUT    max X(q) W(low)/X(q) W(high)/X(q)  e(spline) 
   0      7    10.119   187.594    0.62E-04    0.28E-03    0.52E-07
   0      7    10.119   164.243    0.61E-04    0.28E-03    0.52E-07
   1      7    10.119    67.533    0.45E-03    0.63E-03    0.13E-06
   1      7    10.119    50.729    0.44E-03    0.62E-03    0.12E-06
  PAW_PBE Na_pv 19Sep2006               :
 energy of atom  1       EATOM= -766.0439
 kinetic energy error for atom=    0.0103 (will be added to EATOM!!)
  PAW_PBE Sn_d 06Sep2000                :
 energy of atom  2       EATOM=-1893.1092
 kinetic energy error for atom=    0.0047 (will be added to EATOM!!)
  PAW_PBE S 06Sep2000                   :
 energy of atom  3       EATOM= -276.8230
 kinetic energy error for atom=    0.0046 (will be added to EATOM!!)


 POSCAR: Na8 Sn2 S8
  positions in direct lattice
  velocities in cartesian coordinates
 exchange correlation table for  LEXCH =        8
   RHO(1)=    0.500       N(1)  =     2000
   RHO(2)=  100.500       N(2)  =     4000



--------------------------------------------------------------------------------------------------------


 ion  position               nearest neighbor table
   1  0.198  0.406  0.030-
   2  0.594  0.198  0.970-
   3  0.406  0.802  0.970-
   4  0.802  0.594  0.030-
   5  0.698  0.094  0.470-
   6  0.302  0.906  0.470-
   7  0.906  0.698  0.530-
   8  0.094  0.302  0.530-
   9  0.000  0.000  0.000-  13 2.43  14 2.43  15 2.43  16 2.43
  10  0.500  0.500  0.500-  11 2.43  12 2.43  17 2.43  18 2.43
  11  0.260  0.593  0.689-  10 2.43
  12  0.740  0.407  0.689-  10 2.43
  13  0.093  0.760  0.189-   9 2.43
  14  0.240  0.093  0.811-   9 2.43
  15  0.760  0.907  0.811-   9 2.43
  16  0.907  0.240  0.189-   9 2.43
  17  0.593  0.740  0.311-  10 2.43
  18  0.407  0.260  0.311-  10 2.43

  LATTYP: Found a simple tetragonal cell.
 ALAT       =     7.9127130122
 C/A-ratio  =     0.8855794935
  
  Lattice vectors:
  
 A1 = (   7.9127130122,  -0.0000000000,   0.0000000000)
 A2 = (  -0.0000000000,   7.9127130122,   0.0000000000)
 A3 = (   0.0000000000,   0.0000000000,   7.0073363813)


Analysis of symmetry for initial positions (statically):
=====================================================================
 Subroutine PRICEL returns:
 Original cell was already a primitive cell.
 

 Routine SETGRP: Setting up the symmetry group for a 
 simple tetragonal supercell.


 Subroutine GETGRP returns: Found  8 space group operations
 (whereof  4 operations were pure point group operations)
 out of a pool of 16 trial point group operations.


The static configuration has the point symmetry S_4 .
 The point group associated with its full space group is D_2d.


Analysis of symmetry for dynamics (positions and initial velocities):
=====================================================================
 Subroutine PRICEL returns:
 Original cell was already a primitive cell.
 

 Routine SETGRP: Setting up the symmetry group for a 
 simple tetragonal supercell.


 Subroutine GETGRP returns: Found  8 space group operations
 (whereof  4 operations were pure point group operations)
 out of a pool of 16 trial point group operations.


The dynamic configuration has the point symmetry S_4 .
 The point group associated with its full space group is D_2d.


 Subroutine INISYM returns: Found  8 space group operations
 (whereof  4 operations are pure point group operations),
 and found     1 'primitive' translations


----------------------------------------------------------------------------------------

                                     Primitive cell                                     

  volume of cell :     438.7365

  direct lattice vectors                    reciprocal lattice vectors
     7.912713012 -0.000000000  0.000000000     0.126378904  0.000000000 -0.000000000
    -0.000000000  7.912713012  0.000000000     0.000000000  0.126378904 -0.000000000
     0.000000000  0.000000000  7.007336381    -0.000000000 -0.000000000  0.142707578

  length of vectors
     7.912713012  7.912713012  7.007336381     0.126378904  0.126378904  0.142707578

  position of ions in fractional coordinates (direct lattice)
     0.197865530  0.406322951  0.030489000
     0.593677049  0.197865530  0.969511000
     0.406322951  0.802134470  0.969511000
     0.802134470  0.593677049  0.030489000
     0.697865530  0.093677049  0.469511000
     0.302134470  0.906322951  0.469511000
     0.906322951  0.697865530  0.530489000
     0.093677049  0.302134470  0.530489000
     0.000000000  0.000000000  0.000000000
     0.500000000  0.500000000  0.500000000
     0.260310963  0.592896562  0.689229179
     0.739689037  0.407103438  0.689229179
     0.092896562  0.760310963  0.189229179
     0.239689037  0.092896562  0.810770821
     0.760310963  0.907103438  0.810770821
     0.907103438  0.239689037  0.189229179
     0.592896562  0.739689037  0.310770821
     0.407103438  0.260310963  0.310770821

  ion indices of the primitive-cell ions
   primitive index   ion index
                 1           1
                 2           2
                 3           3
                 4           4
                 5           5
                 6           6
                 7           7
                 8           8
                 9           9
                10          10
                11          11
                12          12
                13          13
                14          14
                15          15
                16          16
                17          17
                18          18

----------------------------------------------------------------------------------------



 KPOINTS: pymatgen with grid density = 600 / numbe

Automatic generation of k-mesh.
 Grid dimensions read from file:
 generate k-points for:    3    3    3

 Generating k-lattice:

  Cartesian coordinates                     Fractional coordinates (reciprocal lattice)
     0.042126301  0.000000000 -0.000000000     0.333333333  0.000000000  0.000000000
     0.000000000  0.042126301 -0.000000000     0.000000000  0.333333333  0.000000000
    -0.000000000 -0.000000000  0.047569193    -0.000000000 -0.000000000  0.333333333

  Length of vectors
     0.042126301  0.042126301  0.047569193

  Shift w.r.t. Gamma in fractional coordinates (k-lattice)
     0.000000000  0.000000000  0.000000000

 
 Subroutine IBZKPT returns following result:
 ===========================================
 
 Found      6 irreducible k-points:
 
 Following reciprocal coordinates:
            Coordinates               Weight
  0.000000  0.000000  0.000000      1.000000
  0.333333  0.000000  0.000000      4.000000
  0.333333  0.333333  0.000000      4.000000
  0.000000  0.000000  0.333333      2.000000
  0.333333  0.000000  0.333333      8.000000
  0.333333  0.333333  0.333333      8.000000
 
 Following cartesian coordinates:
            Coordinates               Weight
  0.000000  0.000000  0.000000      1.000000
  0.042126  0.000000  0.000000      4.000000
  0.042126  0.042126  0.000000      4.000000
  0.000000  0.000000  0.047569      2.000000
  0.042126  0.000000  0.047569      8.000000
  0.042126  0.042126  0.047569      8.000000
 
 
 Subroutine IBZKPT_HF returns following result:
 ==============================================
 
 Found     27 k-points in 1st BZ
 the following     27 k-points will be used (e.g. in the exchange kernel)
 Following reciprocal coordinates:   # in IRBZ
  0.000000  0.000000  0.000000    0.03703704   1 t-inv F
  0.333333  0.000000  0.000000    0.03703704   2 t-inv F
  0.333333  0.333333  0.000000    0.03703704   3 t-inv F
  0.000000  0.000000  0.333333    0.03703704   4 t-inv F
  0.333333  0.000000  0.333333    0.03703704   5 t-inv F
  0.333333  0.333333  0.333333    0.03703704   6 t-inv F
  0.000000 -0.333333 -0.000000    0.03703704   2 t-inv F
 -0.333333 -0.000000  0.000000    0.03703704   2 t-inv F
 -0.000000  0.333333 -0.000000    0.03703704   2 t-inv F
  0.333333 -0.333333 -0.000000    0.03703704   3 t-inv F
 -0.333333 -0.333333  0.000000    0.03703704   3 t-inv F
 -0.333333  0.333333 -0.000000    0.03703704   3 t-inv F
  0.000000 -0.000000 -0.333333    0.03703704   4 t-inv F
  0.000000 -0.333333 -0.333333    0.03703704   5 t-inv F
 -0.333333 -0.000000  0.333333    0.03703704   5 t-inv F
 -0.000000  0.333333 -0.333333    0.03703704   5 t-inv F
 -0.333333  0.000000 -0.333333    0.03703704   5 t-inv F
 -0.000000 -0.333333  0.333333    0.03703704   5 t-inv F
  0.333333 -0.000000 -0.333333    0.03703704   5 t-inv F
  0.000000  0.333333  0.333333    0.03703704   5 t-inv F
  0.333333 -0.333333 -0.333333    0.03703704   6 t-inv F
 -0.333333 -0.333333  0.333333    0.03703704   6 t-inv F
 -0.333333  0.333333 -0.333333    0.03703704   6 t-inv F
 -0.333333 -0.333333 -0.333333    0.03703704   6 t-inv T
 -0.333333  0.333333  0.333333    0.03703704   6 t-inv T
  0.333333  0.333333 -0.333333    0.03703704   6 t-inv T
  0.333333 -0.333333  0.333333    0.03703704   6 t-inv T


--------------------------------------------------------------------------------------------------------




 Dimension of arrays:
   k-points           NKPTS =      6   k-points in BZ     NKDIM =      6   number of bands    NBANDS=     80
   number of dos      NEDOS =    301   number of ions     NIONS =     18
   non local maximal  LDIM  =      6   non local SUM 2l+1 LMDIM =     18
   total plane-waves  NPLWV =  57600
   max r-space proj   IRMAX =   1496   max aug-charges    IRDMAX=   6062
   dimension x,y,z NGX =    40 NGY =   40 NGZ =   36
   dimension x,y,z NGXF=    80 NGYF=   80 NGZF=   72
   support grid    NGXF=    80 NGYF=   80 NGZF=   72
   ions per type =               8   2   8
   NGX,Y,Z   is equivalent  to a cutoff of   8.40,  8.40,  8.54 a.u.
   NGXF,Y,Z  is equivalent  to a cutoff of  16.81, 16.81, 17.08 a.u.

 SYSTEM =  unknown system                          
 POSCAR =  Na8 Sn2 S8                              

 Startparameter for this run:
   NWRITE =      2    write-flag & timer
   PREC   = normal    normal or accurate (medium, high low for compatibility)
   ISTART =      0    job   : 0-new  1-cont  2-samecut
   ICHARG =      2    charge: 1-file 2-atom 10-const
   ISPIN  =      1    spin polarized calculation?
   LNONCOLLINEAR =      F non collinear calculations
   LSORBIT =      F    spin-orbit coupling
   INIWAV =      1    electr: 0-lowe 1-rand  2-diag
   LASPH  =      F    aspherical Exc in radial PAW
 Electronic Relaxation 1
   ENCUT  =  400.0 eV  29.40 Ry    5.42 a.u.  12.90 12.90 11.43*2*pi/ulx,y,z
   ENINI  =  400.0     initial cutoff
   ENAUG  =  439.8 eV  augmentation charge cutoff
   NELM   =     60;   NELMIN=  2; NELMDL= -5     # of ELM steps 
   EDIFF  = 0.1E-05   stopping-criterion for ELM
   LREAL  =      T    real-space projection
   NLSPLINE    = F    spline interpolate recip. space projectors
   LCOMPAT=      F    compatible to vasp.4.4
   GGA_COMPAT  = T    GGA compatible to vasp.4.4-vasp.4.6
   LMAXPAW     = -100 max onsite density
   LMAXMIX     =    2 max onsite mixed and CHGCAR
   VOSKOWN=      0    Vosko Wilk Nusair interpolation
   ROPT   =   -0.00050  -0.00050  -0.00050
 Ionic relaxation
   EDIFFG = 0.1E-04   stopping-criterion for IOM
   NSW    =    253    number of steps for IOM
   NBLOCK =      1;   KBLOCK =    253    inner block; outer block 
   IBRION =      6    ionic relax: 0-MD 1-quasi-New 2-CG
   NFREE  =      4    steps in history (QN), initial steepest desc. (CG)
   ISIF   =      3    stress and relaxation
   IWAVPR =     11    prediction:  0-non 1-charg 2-wave 3-comb
   ISYM   =      2    0-nonsym 1-usesym 2-fastsym
   LCORR  =      T    Harris-Foulkes like correction to forces

   POTIM  = 0.0150    time-step for ionic-motion
   TEIN   =    0.0    initial temperature
   TEBEG  =    0.0;   TEEND  =   0.0 temperature during run
   SMASS  =  -3.00    Nose mass-parameter (am)
   estimated Nose-frequenzy (Omega)   =  0.10E-29 period in steps = 0.42E+48 mass=  -0.143E-26a.u.
   SCALEE = 1.0000    scale energy and forces
   NPACO  =    256;   APACO  = 10.0  distance and # of slots for P.C.
   PSTRESS=    0.0 pullay stress

  Mass of Ions in am
   POMASS =  22.99118.71 32.07
  Ionic Valenz
   ZVAL   =   7.00 14.00  6.00
  Atomic Wigner-Seitz radii
   RWIGS  =  -1.00 -1.00 -1.00
  virtual crystal weights 
   VCA    =   1.00  1.00  1.00
   NELECT =     132.0000    total number of electrons
   NUPDOWN=      -1.0000    fix difference up-down

 DOS related values:
   EMIN   =  10.00;   EMAX   =-10.00  energy-range for DOS
   EFERMI =   0.00
   ISMEAR =     0;   SIGMA  =   0.05  broadening in eV -4-tet -1-fermi 0-gaus

 Electronic relaxation 2 (details)
   IALGO  =     38    algorithm
   LDIAG  =      T    sub-space diagonalisation (order eigenvalues)
   LSUBROT=      F    optimize rotation matrix (better conditioning)
   TURBO    =      0    0=normal 1=particle mesh
   IRESTART =      0    0=no restart 2=restart with 2 vectors
   NREBOOT  =      0    no. of reboots
   NMIN     =      0    reboot dimension
   EREF     =   0.00    reference energy to select bands
   IMIX   =      4    mixing-type and parameters
     AMIX     =   0.40;   BMIX     =  1.00
     AMIX_MAG =   1.60;   BMIX_MAG =  1.00
     AMIN     =   0.10
     WC   =   100.;   INIMIX=   1;  MIXPRE=   1;  MAXMIX= -45

 Intra band minimization:
   WEIMIN = 0.0010     energy-eigenvalue tresh-hold
   EBREAK =  0.31E-08  absolut break condition
   DEPER  =   0.30     relativ break condition  

   TIME   =   0.40     timestep for ELM

  volume/ion in A,a.u.               =      24.37       164.49
  Fermi-wavevector in a.u.,A,eV,Ry     =   1.096979  2.072989 16.372739  1.203362
  Thomas-Fermi vector in A             =   2.233331

 Write flags
   LWAVE        =      F    write WAVECAR
   LDOWNSAMPLE  =      F    k-point downsampling of WAVECAR
   LCHARG       =      F    write CHGCAR
   LVTOT        =      F    write LOCPOT, total local potential
   LVHAR        =      F    write LOCPOT, Hartree potential only
   LELF         =      F    write electronic localiz. function (ELF)
   LORBIT       =      0    0 simple, 1 ext, 2 COOP (PROOUT), +10 PAW based schemes


 Dipole corrections
   LMONO  =      F    monopole corrections only (constant potential shift)
   LDIPOL =      F    correct potential (dipole corrections)
   IDIPOL =      0    1-x, 2-y, 3-z, 4-all directions 
   EPSILON=  1.0000000 bulk dielectric constant

 Exchange correlation treatment:
   GGA     =    --    GGA type
   LEXCH   =     8    internal setting for exchange type
   LIBXC   =     F    Libxc                    
   VOSKOWN =     0    Vosko Wilk Nusair interpolation
   LHFCALC =     F    Hartree Fock is set to
   LHFONE  =     F    Hartree Fock one center treatment
   AEXX    =    0.0000 exact exchange contribution

 Linear response parameters
   LEPSILON=     F    determine dielectric tensor
   LRPA    =     F    only Hartree local field effects (RPA)
   LNABLA  =     F    use nabla operator in PAW spheres
   LVEL    =     F    velocity operator in full k-point grid
   CSHIFT  =0.1000    complex shift for real part using Kramers Kronig
   OMEGAMAX=  -1.0    maximum frequency
   DEG_THRESHOLD= 0.2000000E-02 threshold for treating states as degnerate
   RTIME   =   -0.100 relaxation time in fs
  (WPLASMAI=    0.000 imaginary part of plasma frequency in eV, 0.658/RTIME)
   DFIELD  = 0.0000000 0.0000000 0.0000000 field for delta impulse in time

  Optional k-point grid parameters
   LKPOINTS_OPT  =     F    use optional k-point grid
   KPOINTS_OPT_MODE=     1    mode for optional k-point grid

 Orbital magnetization related:
   ORBITALMAG=     F  switch on orbital magnetization
   LCHIMAG   =     F  perturbation theory with respect to B field
   DQ        =  0.001000  dq finite difference perturbation B field
   LLRAUG    =     F  two centre corrections for induced B field



--------------------------------------------------------------------------------------------------------


 finite differences with symmetry
 charge density and potential will be updated during run
 non-spin polarized calculation
 Variant of blocked Davidson
 Davidson routine will perform the subspace rotation
 perform sub-space diagonalisation
    after iterative eigenvector-optimisation
 modified Broyden-mixing scheme, WC =      100.0
 initial mixing is a Kerker type mixing with AMIX =  0.4000 and BMIX =      1.0000
 Hartree-type preconditioning will be used
 using additional bands           14
 real space projection scheme for non local part
 use partial core corrections
 calculate Harris-corrections to forces   (improved forces if not selfconsistent)
 use gradient corrections 
 use of overlap-Matrix (Vanderbilt PP)
 Gauss-broadening in eV      SIGMA  =   0.05


--------------------------------------------------------------------------------------------------------


  energy-cutoff  :      400.00
  volume of cell :      438.74
      direct lattice vectors                 reciprocal lattice vectors
     7.912713012 -0.000000000  0.000000000     0.126378904  0.000000000 -0.000000000
    -0.000000000  7.912713012  0.000000000     0.000000000  0.126378904 -0.000000000
     0.000000000  0.000000000  7.007336381    -0.000000000 -0.000000000  0.142707578

  length of vectors
     7.912713012  7.912713012  7.007336381     0.126378904  0.126378904  0.142707578



 k-points in units of 2pi/SCALE and weight: pymatgen with grid density = 600 / numbe
   0.00000000  0.00000000  0.00000000       0.037
   0.04212630  0.00000000  0.00000000       0.148
   0.04212630  0.04212630  0.00000000       0.148
   0.00000000  0.00000000  0.04756919       0.074
   0.04212630  0.00000000  0.04756919       0.296
   0.04212630  0.04212630  0.04756919       0.296

 k-points in reciprocal lattice and weights: pymatgen with grid density = 600 / numbe
   0.00000000  0.00000000  0.00000000       0.037
   0.33333333  0.00000000  0.00000000       0.148
   0.33333333  0.33333333  0.00000000       0.148
   0.00000000  0.00000000  0.33333333       0.074
   0.33333333  0.00000000  0.33333333       0.296
   0.33333333  0.33333333  0.33333333       0.296

 position of ions in fractional coordinates (direct lattice) 
   0.19786553  0.40632295  0.03048900
   0.59367705  0.19786553  0.96951100
   0.40632295  0.80213447  0.96951100
   0.80213447  0.59367705  0.03048900
   0.69786553  0.09367705  0.46951100
   0.30213447  0.90632295  0.46951100
   0.90632295  0.69786553  0.53048900
   0.09367705  0.30213447  0.53048900
   0.00000000  0.00000000  0.00000000
   0.50000000  0.50000000  0.50000000
   0.26031096  0.59289656  0.68922918
   0.73968904  0.40710344  0.68922918
   0.09289656  0.76031096  0.18922918
   0.23968904  0.09289656  0.81077082
   0.76031096  0.90710344  0.81077082
   0.90710344  0.23968904  0.18922918
   0.59289656  0.73968904  0.31077082
   0.40710344  0.26031096  0.31077082

 position of ions in cartesian coordinates  (Angst):
   1.56565316  3.21511690  0.21364668
   4.69759611  1.56565316  6.79368970
   3.21511690  6.34705985  6.79368970
   6.34705985  4.69759611  0.21364668
   5.52200966  0.74123961  3.29002151
   2.39070335  7.17147341  3.29002151
   7.17147341  5.52200966  3.71731487
   0.74123961  2.39070335  3.71731487
   0.00000000  0.00000000  0.00000000
   3.95635651  3.95635651  3.50366819
   2.05976594  4.69142034  4.82966070
   5.85294707  3.22129267  4.82966070
   0.73506383  6.01612245  1.32599251
   1.89659057  0.73506383  5.68134387
   6.01612245  7.17764918  5.68134387
   7.17764918  1.89659057  1.32599251
   4.69142034  5.85294707  2.17767568
   3.22129267  2.05976594  2.17767568



--------------------------------------------------------------------------------------------------------


 k-point   1 :   0.0000 0.0000 0.0000  plane waves:    7947
 k-point   2 :   0.3333 0.0000 0.0000  plane waves:    7988
 k-point   3 :   0.3333 0.3333 0.0000  plane waves:    7976
 k-point   4 :   0.0000 0.0000 0.3333  plane waves:    7971
 k-point   5 :   0.3333 0.0000 0.3333  plane waves:    7961
 k-point   6 :   0.3333 0.3333 0.3333  plane waves:    7986

 maximum and minimum number of plane-waves per node :      7988     7947

 maximum number of plane-waves:      7988
 maximum index in each direction: 
   IXMAX=   12   IYMAX=   12   IZMAX=   11
   IXMIN=  -13   IYMIN=  -13   IZMIN=  -11


 serial   3D FFT for wavefunctions
 parallel 3D FFT for charge:
    minimum data exchange during FFTs selected (reduces bandwidth)


 total amount of memory used by VASP MPI-rank0    48517. kBytes
=======================================================================

   base      :      30000. kBytes
   nonlr-proj:       2084. kBytes
   fftplans  :       2229. kBytes
   grid      :       6092. kBytes
   one-center:        279. kBytes
   wavefun   :       7833. kBytes

     INWAV:  cpu time      0.0000: real time      0.0002
 Broyden mixing: mesh for mixing (old mesh)
   NGX = 25   NGY = 25   NGZ = 23
  (NGX  = 80   NGY  = 80   NGZ  = 72)
  gives a total of  14375 points

 initial charge density was supplied:
 charge density of overlapping atoms calculated
 number of electron     132.0000000 magnetization 
 keeping initial charge density in first step


--------------------------------------------------------------------------------------------------------


 Maximum index for non-local projection operator         1367
 Maximum index for augmentation-charges          747 (set IRDMAX)


--------------------------------------------------------------------------------------------------------


 First call to EWALD:  gamma=   0.233
 Maximum number of real-space cells 3x 3x 3
 Maximum number of reciprocal cells 3x 3x 3

    FEWALD:  cpu time      0.0009: real time      0.0009


--------------------------------------- Iteration      1(   1)  ---------------------------------------


    POTLOK:  cpu time      0.0297: real time      0.0297
    SETDIJ:  cpu time      0.0037: real time      0.0037
     EDDAV:  cpu time      0.8460: real time      0.8462
       DOS:  cpu time      0.0003: real time      0.0004
    --------------------------------------------
      LOOP:  cpu time      0.8797: real time      0.8800

 eigenvalue-minimisations  :   960
 total energy-change (2. order) : 0.1366502E+04  (-0.5382626E+04)
 number of electron     132.0000000 magnetization 
 augmentation part      132.0000000 magnetization 

 Free energy of the ion-electron system (eV)
  ---------------------------------------------------
  alpha Z        PSCENC =       213.52298124
  Ewald energy   TEWEN  =     -6897.57948518
  -Hartree energ DENC   =     -3596.40172821
  -exchange      EXHF   =         0.00000000
  -V(xc)+E(xc)   XCENC  =       408.38461506
  PAW double counting   =      8896.42000416    -9653.94228545
  entropy T*S    EENTRO =        -0.00334150
  eigenvalues    EBANDS =      -132.92306201
  atomic energy  EATOM  =     12129.02477731
  Solvation  Ediel_sol  =         0.00000000
  ---------------------------------------------------
  free energy    TOTEN  =      1366.50247542 eV

  energy without entropy =     1366.50581692  energy(sigma->0) =     1366.50414617


--------------------------------------------------------------------------------------------------------




--------------------------------------- Iteration      1(   2)  ---------------------------------------


     EDDAV:  cpu time      0.9519: real time      0.9524
       DOS:  cpu time      0.0002: real time      0.0003
    --------------------------------------------
      LOOP:  cpu time      0.9521: real time      0.9527

 eigenvalue-minimisations  :  1000
 total energy-change (2. order) :-0.1214405E+04  (-0.1180967E+04)
 number of electron     132.0000000 magnetization 
 augmentation part      132.0000000 magnetization 

 Free energy of the ion-electron system (eV)
  ---------------------------------------------------
  alpha Z        PSCENC =       213.52298124
  Ewald energy   TEWEN  =     -6897.57948518
  -Hartree energ DENC   =     -3596.40172821
  -exchange      EXHF   =         0.00000000
  -V(xc)+E(xc)   XCENC  =       408.38461506
  PAW double counting   =      8896.42000416    -9653.94228545
  entropy T*S    EENTRO =        -0.00001091
  eigenvalues    EBANDS =     -1347.33155868
  atomic energy  EATOM  =     12129.02477731
  Solvation  Ediel_sol  =         0.00000000
  ---------------------------------------------------
  free energy    TOTEN  =       152.09730934 eV

  energy without entropy =      152.09732025  energy(sigma->0) =      152.09731480


--------------------------------------------------------------------------------------------------------




--------------------------------------- Iteration      1(   3)  ---------------------------------------


     EDDAV:  cpu time      1.0246: real time      1.0251
       DOS:  cpu time      0.0001: real time      0.0002
    --------------------------------------------
      LOOP:  cpu time      1.0247: real time      1.0254

 eigenvalue-minimisations  :  1112
 total energy-change (2. order) :-0.2096285E+03  (-0.2059138E+03)
 number of electron     132.0000000 magnetization 
 augmentation part      132.0000000 magnetization 

 Free energy of the ion-electron system (eV)
  ---------------------------------------------------
  alpha Z        PSCENC =       213.52298124
  Ewald energy   TEWEN  =     -6897.57948518
  -Hartree energ DENC   =     -3596.40172821
  -exchange      EXHF   =         0.00000000
  -V(xc)+E(xc)   XCENC  =       408.38461506
  PAW double counting   =      8896.42000416    -9653.94228545
  entropy T*S    EENTRO =        -0.00000000
  eigenvalues    EBANDS =     -1556.96003123
  atomic energy  EATOM  =     12129.02477731
  Solvation  Ediel_sol  =         0.00000000
  ---------------------------------------------------
  free energy    TOTEN  =       -57.53115229 eV

  energy without entropy =      -57.53115229  energy(sigma->0) =      -57.53115229


--------------------------------------------------------------------------------------------------------




--------------------------------------- Iteration      1(   4)  ---------------------------------------


     EDDAV:  cpu time      1.0582: real time      1.0587
       DOS:  cpu time      0.0002: real time      0.0003
    --------------------------------------------
      LOOP:  cpu time      1.0584: real time      1.0589

 eigenvalue-minimisations  :  1128
 total energy-change (2. order) :-0.1479398E+02  (-0.1466583E+02)
 number of electron     132.0000000 magnetization 
 augmentation part      132.0000000 magnetization 

 Free energy of the ion-electron system (eV)
  ---------------------------------------------------
  alpha Z        PSCENC =       213.52298124
  Ewald energy   TEWEN  =     -6897.57948518
  -Hartree energ DENC   =     -3596.40172821
  -exchange      EXHF   =         0.00000000
  -V(xc)+E(xc)   XCENC  =       408.38461506
  PAW double counting   =      8896.42000416    -9653.94228545
  entropy T*S    EENTRO =        -0.00000000
  eigenvalues    EBANDS =     -1571.75400987
  atomic energy  EATOM  =     12129.02477731
  Solvation  Ediel_sol  =         0.00000000
  ---------------------------------------------------
  free energy    TOTEN  =       -72.32513094 eV

  energy without entropy =      -72.32513094  energy(sigma->0) =      -72.32513094


--------------------------------------------------------------------------------------------------------




--------------------------------------- Iteration      1(   5)  ---------------------------------------


     EDDAV:  cpu time      1.1655: real time      1.1660
       DOS:  cpu time      0.0002: real time      0.0003
    CHARGE:  cpu time      0.0599: real time      0.0599
    MIXING:  cpu time      0.0012: real time      0.0013
    --------------------------------------------
      LOOP:  cpu time      1.2268: real time      1.2274

 eigenvalue-minimisations  :  1296
 total energy-change (2. order) :-0.4714095E+00  (-0.4698304E+00)
 number of electron     131.9999708 magnetization 
 augmentation part       43.7836797 magnetization 

 Broyden mixing:
  rms(total) = 0.13649E+01    rms(broyden)= 0.13649E+01
  rms(prec ) = 0.19002E+01
  weight for this iteration     100.00

 Free energy of the ion-electron system (eV)
  ---------------------------------------------------
  alpha Z        PSCENC =       213.52298124
  Ewald energy   TEWEN  =     -6897.57948518
  -Hartree energ DENC   =     -3596.40172821
  -exchange      EXHF   =         0.00000000
  -V(xc)+E(xc)   XCENC  =       408.38461506
  PAW double counting   =      8896.42000416    -9653.94228545
  entropy T*S    EENTRO =        -0.00000000
  eigenvalues    EBANDS =     -1572.22541937
  atomic energy  EATOM  =     12129.02477731
  Solvation  Ediel_sol  =         0.00000000
  ---------------------------------------------------
  free energy    TOTEN  =       -72.79654044 eV

  energy without entropy =      -72.79654044  energy(sigma->0) =      -72.79654044


--------------------------------------------------------------------------------------------------------




--------------------------------------- Iteration      1(   6)  ---------------------------------------


    POTLOK:  cpu time      0.0303: real time      0.0304
    SETDIJ:  cpu time      0.0045: real time      0.0045
     EDDAV:  cpu time      1.1537: real time      1.1544
       DOS:  cpu time      0.0002: real time      0.0003
    CHARGE:  cpu time      0.0580: real time      0.0581
    MIXING:  cpu time      0.0011: real time      0.0012
    --------------------------------------------
      LOOP:  cpu time      1.2479: real time      1.2489

 eigenvalue-minimisations  :  1288
 total energy-change (2. order) : 0.3923843E+01  (-0.7385229E+00)
 number of electron     131.9999708 magnetization 
 augmentation part       44.0358342 magnetization 

 Broyden mixing:
  rms(total) = 0.10530E+01    rms(broyden)= 0.10530E+01
  rms(prec ) = 0.11650E+01
  weight for this iteration     100.00

 eigenvalues of (default mixing * dielectric matrix)
  average eigenvalue GAMMA=   1.6960
  1.6960

 Free energy of the ion-electron system (eV)
  ---------------------------------------------------
  alpha Z        PSCENC =       213.52298124
  Ewald energy   TEWEN  =     -6897.57948518
  -Hartree energ DENC   =     -3600.08375248
  -exchange      EXHF   =         0.00000000
  -V(xc)+E(xc)   XCENC  =       410.96694825
  PAW double counting   =      9850.92697945   -10605.01567401
  entropy T*S    EENTRO =        -0.00000000
  eigenvalues    EBANDS =     -1570.63547248
  atomic energy  EATOM  =     12129.02477731
  Solvation  Ediel_sol  =         0.00000000
  ---------------------------------------------------
  free energy    TOTEN  =       -68.87269790 eV

  energy without entropy =      -68.87269790  energy(sigma->0) =      -68.87269790


--------------------------------------------------------------------------------------------------------




--------------------------------------- Iteration      1(   7)  ---------------------------------------


    POTLOK:  cpu time      0.0288: real time      0.0289
    SETDIJ:  cpu time      0.0043: real time      0.0043
     EDDAV:  cpu time      1.0746: real time      1.0752
       DOS:  cpu time      0.0002: real time      0.0004
    CHARGE:  cpu time      0.0581: real time      0.0581
    MIXING:  cpu time      0.0011: real time      0.0011
    --------------------------------------------
      LOOP:  cpu time      1.1672: real time      1.1680

 eigenvalue-minimisations  :  1176
 total energy-change (2. order) : 0.2819975E+00  (-0.2230437E+00)
 number of electron     131.9999709 magnetization 
 augmentation part       44.1521593 magnetization 

 Broyden mixing:
  rms(total) = 0.48144E+00    rms(broyden)= 0.48144E+00
  rms(prec ) = 0.51727E+00
  weight for this iteration     100.00

 eigenvalues of (default mixing * dielectric matrix)
  average eigenvalue GAMMA=   1.6101
  1.6101  1.6101

 Free energy of the ion-electron system (eV)
  ---------------------------------------------------
  alpha Z        PSCENC =       213.52298124
  Ewald energy   TEWEN  =     -6897.57948518
  -Hartree energ DENC   =     -3605.09782460
  -exchange      EXHF   =         0.00000000
  -V(xc)+E(xc)   XCENC  =       412.54855413
  PAW double counting   =     11265.22647186   -12022.14232680
  entropy T*S    EENTRO =        -0.00000000
  eigenvalues    EBANDS =     -1564.09384837
  atomic energy  EATOM  =     12129.02477731
  Solvation  Ediel_sol  =         0.00000000
  ---------------------------------------------------
  free energy    TOTEN  =       -68.59070040 eV

  energy without entropy =      -68.59070040  energy(sigma->0) =      -68.59070040


--------------------------------------------------------------------------------------------------------




--------------------------------------- Iteration      1(   8)  ---------------------------------------


    POTLOK:  cpu time      0.0290: real time      0.0292
    SETDIJ:  cpu time      0.0044: real time      0.0044
     EDDAV:  cpu time      1.1708: real time      1.1711
       DOS:  cpu time      0.0002: real time      0.0004
    CHARGE:  cpu time      0.0603: real time      0.0603
    MIXING:  cpu time      0.0014: real time      0.0014
    --------------------------------------------
      LOOP:  cpu time      1.2661: real time      1.2669

 eigenvalue-minimisations  :  1304
 total energy-change (2. order) :-0.2226922E-01  (-0.1753108E-01)
 number of electron     131.9999709 magnetization 
 augmentation part       44.1193368 magnetization 

 Broyden mixing:
  rms(total) = 0.10210E+00    rms(broyden)= 0.10210E+00
  rms(prec ) = 0.12948E+00
  weight for this iteration     100.00

 eigenvalues of (default mixing * dielectric matrix)
  average eigenvalue GAMMA=   1.6034
  2.4064  1.2018  1.2018

 Free energy of the ion-electron system (eV)
  ---------------------------------------------------
  alpha Z        PSCENC =       213.52298124
  Ewald energy   TEWEN  =     -6897.57948518
  -Hartree energ DENC   =     -3605.25986229
  -exchange      EXHF   =         0.00000000
  -V(xc)+E(xc)   XCENC  =       412.88587989
  PAW double counting   =     12077.22321594   -12837.77800692
  entropy T*S    EENTRO =        -0.00000000
  eigenvalues    EBANDS =     -1560.65246961
  atomic energy  EATOM  =     12129.02477731
  Solvation  Ediel_sol  =         0.00000000
  ---------------------------------------------------
  free energy    TOTEN  =       -68.61296962 eV

  energy without entropy =      -68.61296962  energy(sigma->0) =      -68.61296962


--------------------------------------------------------------------------------------------------------




--------------------------------------- Iteration      1(   9)  ---------------------------------------


    POTLOK:  cpu time      0.0297: real time      0.0299
    SETDIJ:  cpu time      0.0044: real time      0.0044
     EDDAV:  cpu time      1.0400: real time      1.0405
       DOS:  cpu time      0.0002: real time      0.0003
    CHARGE:  cpu time      0.0582: real time      0.0582
    MIXING:  cpu time      0.0012: real time      0.0012
    --------------------------------------------
      LOOP:  cpu time      1.1335: real time      1.1344

 eigenvalue-minimisations  :  1144
 total energy-change (2. order) :-0.1158313E-01  (-0.3662933E-02)
 number of electron     131.9999709 magnetization 
 augmentation part       44.1244431 magnetization 

 Broyden mixing:
  rms(total) = 0.38300E-01    rms(broyden)= 0.38300E-01
  rms(prec ) = 0.44336E-01
  weight for this iteration     100.00

 eigenvalues of (default mixing * dielectric matrix)
  average eigenvalue GAMMA=   1.5072
  1.1629  1.1629  1.8514  1.8514

 Free energy of the ion-electron system (eV)
  ---------------------------------------------------
  alpha Z        PSCENC =       213.52298124
  Ewald energy   TEWEN  =     -6897.57948518
  -Hartree energ DENC   =     -3604.66280430
  -exchange      EXHF   =         0.00000000
  -V(xc)+E(xc)   XCENC  =       413.16368533
  PAW double counting   =     12334.51396469   -13095.64354710
  entropy T*S    EENTRO =        -0.00000000
  eigenvalues    EBANDS =     -1560.96412473
  atomic energy  EATOM  =     12129.02477731
  Solvation  Ediel_sol  =         0.00000000
  ---------------------------------------------------
  free energy    TOTEN  =       -68.62455274 eV

  energy without entropy =      -68.62455274  energy(sigma->0) =      -68.62455274


--------------------------------------------------------------------------------------------------------




--------------------------------------- Iteration      1(  10)  ---------------------------------------


    POTLOK:  cpu time      0.0289: real time      0.0291
    SETDIJ:  cpu time      0.0046: real time      0.0046
     EDDAV:  cpu time      1.0477: real time      1.0484
       DOS:  cpu time      0.0002: real time      0.0003
    CHARGE:  cpu time      0.0578: real time      0.0578
    MIXING:  cpu time      0.0013: real time      0.0013
    --------------------------------------------
      LOOP:  cpu time      1.1405: real time      1.1415

 eigenvalue-minimisations  :  1144
 total energy-change (2. order) :-0.2779214E-02  (-0.3143781E-03)
 number of electron     131.9999709 magnetization 
 augmentation part       44.1238077 magnetization 

 Broyden mixing:
  rms(total) = 0.16854E-01    rms(broyden)= 0.16854E-01
  rms(prec ) = 0.24548E-01
  weight for this iteration     100.00

 eigenvalues of (default mixing * dielectric matrix)
  average eigenvalue GAMMA=   1.7559
  2.8044  2.5088  1.0707  1.1978  1.1978

 Free energy of the ion-electron system (eV)
  ---------------------------------------------------
  alpha Z        PSCENC =       213.52298124
  Ewald energy   TEWEN  =     -6897.57948518
  -Hartree energ DENC   =     -3604.54349264
  -exchange      EXHF   =         0.00000000
  -V(xc)+E(xc)   XCENC  =       413.13465279
  PAW double counting   =     12241.28792180   -13002.32255864
  entropy T*S    EENTRO =        -0.00000000
  eigenvalues    EBANDS =     -1561.15212863
  atomic energy  EATOM  =     12129.02477731
  Solvation  Ediel_sol  =         0.00000000
  ---------------------------------------------------
  free energy    TOTEN  =       -68.62733196 eV

  energy without entropy =      -68.62733196  energy(sigma->0) =      -68.62733196


--------------------------------------------------------------------------------------------------------




--------------------------------------- Iteration      1(  11)  ---------------------------------------


    POTLOK:  cpu time      0.0290: real time      0.0291
    SETDIJ:  cpu time      0.0045: real time      0.0045
     EDDAV:  cpu time      0.9927: real time      0.9943
       DOS:  cpu time      0.0003: real time      0.0004
    CHARGE:  cpu time      0.0582: real time      0.0582
    MIXING:  cpu time      0.0012: real time      0.0012
    --------------------------------------------
      LOOP:  cpu time      1.0859: real time      1.0877

 eigenvalue-minimisations  :  1080
 total energy-change (2. order) :-0.2846758E-02  (-0.3526299E-03)
 number of electron     131.9999709 magnetization 
 augmentation part       44.1236225 magnetization 

 Broyden mixing:
  rms(total) = 0.12109E-01    rms(broyden)= 0.12109E-01
  rms(prec ) = 0.12641E-01
  weight for this iteration     100.00

 eigenvalues of (default mixing * dielectric matrix)
  average eigenvalue GAMMA=   1.6504
  2.8784  2.2581  1.6130  1.1870  1.1870  0.7791

 Free energy of the ion-electron system (eV)
  ---------------------------------------------------
  alpha Z        PSCENC =       213.52298124
  Ewald energy   TEWEN  =     -6897.57948518
  -Hartree energ DENC   =     -3604.72399377
  -exchange      EXHF   =         0.00000000
  -V(xc)+E(xc)   XCENC  =       413.19030670
  PAW double counting   =     12236.49456545   -12997.73980555
  entropy T*S    EENTRO =        -0.00000000
  eigenvalues    EBANDS =     -1560.81952491
  atomic energy  EATOM  =     12129.02477731
  Solvation  Ediel_sol  =         0.00000000
  ---------------------------------------------------
  free energy    TOTEN  =       -68.63017872 eV

  energy without entropy =      -68.63017872  energy(sigma->0) =      -68.63017872


--------------------------------------------------------------------------------------------------------




--------------------------------------- Iteration      1(  12)  ---------------------------------------


    POTLOK:  cpu time      0.0289: real time      0.0290
    SETDIJ:  cpu time      0.0048: real time      0.0048
     EDDAV:  cpu time      1.1141: real time      1.1147
       DOS:  cpu time      0.0002: real time      0.0003
    CHARGE:  cpu time      0.0570: real time      0.0570
    MIXING:  cpu time      0.0013: real time      0.0013
    --------------------------------------------
      LOOP:  cpu time      1.2062: real time      1.2071

 eigenvalue-minimisations  :  1256
 total energy-change (2. order) :-0.5577762E-04  (-0.1556959E-04)
 number of electron     131.9999709 magnetization 
 augmentation part       44.1243269 magnetization 

 Broyden mixing:
  rms(total) = 0.78135E-02    rms(broyden)= 0.78135E-02
  rms(prec ) = 0.80509E-02
  weight for this iteration     100.00

 eigenvalues of (default mixing * dielectric matrix)
  average eigenvalue GAMMA=   1.7445
  3.0907  2.4689  2.1009  1.0264  1.0264  1.2492  1.2492

 Free energy of the ion-electron system (eV)
  ---------------------------------------------------
  alpha Z        PSCENC =       213.52298124
  Ewald energy   TEWEN  =     -6897.57948518
  -Hartree energ DENC   =     -3604.88778830
  -exchange      EXHF   =         0.00000000
  -V(xc)+E(xc)   XCENC  =       413.20128691
  PAW double counting   =     12227.82897736   -12989.04830871
  entropy T*S    EENTRO =        -0.00000000
  eigenvalues    EBANDS =     -1560.69267513
  atomic energy  EATOM  =     12129.02477731
  Solvation  Ediel_sol  =         0.00000000
  ---------------------------------------------------
  free energy    TOTEN  =       -68.63023449 eV

  energy without entropy =      -68.63023449  energy(sigma->0) =      -68.63023449


--------------------------------------------------------------------------------------------------------




--------------------------------------- Iteration      1(  13)  ---------------------------------------


    POTLOK:  cpu time      0.0287: real time      0.0290
    SETDIJ:  cpu time      0.0046: real time      0.0046
     EDDAV:  cpu time      0.9324: real time      0.9331
       DOS:  cpu time      0.0002: real time      0.0003
    CHARGE:  cpu time      0.0580: real time      0.0580
    MIXING:  cpu time      0.0013: real time      0.0013
    --------------------------------------------
      LOOP:  cpu time      1.0253: real time      1.0263

 eigenvalue-minimisations  :   984
 total energy-change (2. order) :-0.4138957E-04  (-0.6109297E-05)
 number of electron     131.9999709 magnetization 
 augmentation part       44.1241212 magnetization 

 Broyden mixing:
  rms(total) = 0.87989E-03    rms(broyden)= 0.87987E-03
  rms(prec ) = 0.10606E-02
  weight for this iteration     100.00

 eigenvalues of (default mixing * dielectric matrix)
  average eigenvalue GAMMA=   1.6743
  3.2485  2.3534  1.7920  1.7920  1.1752  1.1752  0.9388  0.9194

 Free energy of the ion-electron system (eV)
  ---------------------------------------------------
  alpha Z        PSCENC =       213.52298124
  Ewald energy   TEWEN  =     -6897.57948518
  -Hartree energ DENC   =     -3605.01487540
  -exchange      EXHF   =         0.00000000
  -V(xc)+E(xc)   XCENC  =       413.20216464
  PAW double counting   =     12214.04845698   -12975.25940850
  entropy T*S    EENTRO =        -0.00000000
  eigenvalues    EBANDS =     -1560.57488697
  atomic energy  EATOM  =     12129.02477731
  Solvation  Ediel_sol  =         0.00000000
  ---------------------------------------------------
  free energy    TOTEN  =       -68.63027588 eV

  energy without entropy =      -68.63027588  energy(sigma->0) =      -68.63027588


--------------------------------------------------------------------------------------------------------




--------------------------------------- Iteration      1(  14)  ---------------------------------------


    POTLOK:  cpu time      0.0288: real time      0.0289
    SETDIJ:  cpu time      0.0045: real time      0.0045
     EDDAV:  cpu time      0.8977: real time      0.8980
       DOS:  cpu time      0.0002: real time      0.0003
    CHARGE:  cpu time      0.0578: real time      0.0578
    MIXING:  cpu time      0.0014: real time      0.0014
    --------------------------------------------
      LOOP:  cpu time      0.9904: real time      0.9910

 eigenvalue-minimisations  :   952
 total energy-change (2. order) :-0.1062474E-05  (-0.7904050E-06)
 number of electron     131.9999709 magnetization 
 augmentation part       44.1239673 magnetization 

 Broyden mixing:
  rms(total) = 0.61156E-03    rms(broyden)= 0.61155E-03
  rms(prec ) = 0.73719E-03
  weight for this iteration     100.00

 eigenvalues of (default mixing * dielectric matrix)
  average eigenvalue GAMMA=   1.6399
  3.3559  2.2284  2.2284  1.3613  1.3613  1.1605  1.1605  0.9512  0.9512

 Free energy of the ion-electron system (eV)
  ---------------------------------------------------
  alpha Z        PSCENC =       213.52298124
  Ewald energy   TEWEN  =     -6897.57948518
  -Hartree energ DENC   =     -3605.00986415
  -exchange      EXHF   =         0.00000000
  -V(xc)+E(xc)   XCENC  =       413.20134745
  PAW double counting   =     12215.45593833   -12976.66910697
  entropy T*S    EENTRO =        -0.00000000
  eigenvalues    EBANDS =     -1560.57686497
  atomic energy  EATOM  =     12129.02477731
  Solvation  Ediel_sol  =         0.00000000
  ---------------------------------------------------
  free energy    TOTEN  =       -68.63027695 eV

  energy without entropy =      -68.63027695  energy(sigma->0) =      -68.63027695


--------------------------------------------------------------------------------------------------------




--------------------------------------- Iteration      1(  15)  ---------------------------------------


    POTLOK:  cpu time      0.0289: real time      0.0291
    SETDIJ:  cpu time      0.0048: real time      0.0048
     EDDAV:  cpu time      0.7853: real time      0.7857
       DOS:  cpu time      0.0002: real time      0.0003
    CHARGE:  cpu time      0.0578: real time      0.0579
    MIXING:  cpu time      0.0014: real time      0.0014
    --------------------------------------------
      LOOP:  cpu time      0.8785: real time      0.8792

 eigenvalue-minimisations  :   776
 total energy-change (2. order) :-0.1562197E-05  (-0.1808252E-06)
 number of electron     131.9999709 magnetization 
 augmentation part       44.1240138 magnetization 

 Broyden mixing:
  rms(total) = 0.17381E-03    rms(broyden)= 0.17381E-03
  rms(prec ) = 0.22541E-03
  weight for this iteration     100.00

 eigenvalues of (default mixing * dielectric matrix)
  average eigenvalue GAMMA=   1.7250
  3.4832  2.6746  2.5025  1.7011  1.7011  1.1449  1.1449  1.0364  0.9306  0.9306

 Free energy of the ion-electron system (eV)
  ---------------------------------------------------
  alpha Z        PSCENC =       213.52298124
  Ewald energy   TEWEN  =     -6897.57948518
  -Hartree energ DENC   =     -3605.03374134
  -exchange      EXHF   =         0.00000000
  -V(xc)+E(xc)   XCENC  =       413.20235658
  PAW double counting   =     12215.75280144   -12976.96283164
  entropy T*S    EENTRO =        -0.00000000
  eigenvalues    EBANDS =     -1560.55713692
  atomic energy  EATOM  =     12129.02477731
  Solvation  Ediel_sol  =         0.00000000
  ---------------------------------------------------
  free energy    TOTEN  =       -68.63027851 eV

  energy without entropy =      -68.63027851  energy(sigma->0) =      -68.63027851


--------------------------------------------------------------------------------------------------------




--------------------------------------- Iteration      1(  16)  ---------------------------------------


    POTLOK:  cpu time      0.0290: real time      0.0292
    SETDIJ:  cpu time      0.0046: real time      0.0046
     EDDAV:  cpu time      0.7292: real time      0.7300
       DOS:  cpu time      0.0005: real time      0.0006
    --------------------------------------------
      LOOP:  cpu time      0.7632: real time      0.7643

 eigenvalue-minimisations  :   720
 total energy-change (2. order) :-0.3710211E-06  (-0.5819067E-07)
 number of electron     131.9999709 magnetization 
 augmentation part       44.1240138 magnetization 

 Free energy of the ion-electron system (eV)
  ---------------------------------------------------
  alpha Z        PSCENC =       213.52298124
  Ewald energy   TEWEN  =     -6897.57948518
  -Hartree energ DENC   =     -3605.04211339
  -exchange      EXHF   =         0.00000000
  -V(xc)+E(xc)   XCENC  =       413.20240535
  PAW double counting   =     12216.14623103   -12977.35304599
  entropy T*S    EENTRO =        -0.00000000
  eigenvalues    EBANDS =     -1560.55202925
  atomic energy  EATOM  =     12129.02477731
  Solvation  Ediel_sol  =         0.00000000
  ---------------------------------------------------
  free energy    TOTEN  =       -68.63027888 eV

  energy without entropy =      -68.63027888  energy(sigma->0) =      -68.63027888


--------------------------------------------------------------------------------------------------------




 average (electrostatic) potential at core
  the test charge radii are     0.9254  1.0894  0.9698
  (the norm of the test charge is              1.0000)
       1 -46.8488       2 -46.8488       3 -46.8488       4 -46.8488       5 -46.8488
       6 -46.8488       7 -46.8488       8 -46.8488       9-104.8460      10-104.8460
      11 -88.2812      12 -88.2812      13 -88.2812      14 -88.2812      15 -88.2812
      16 -88.2812      17 -88.2812      18 -88.2812



 E-fermi :   1.6844     XC(G=0):  -8.1942     alpha+bet : -8.5604

 Fermi energy:         1.6844488428

 k-point     1 :       0.0000    0.0000    0.0000
  band No.  band energies     occupation 
      1     -21.0836      2.00000
      2     -21.0835      2.00000
      3     -21.0744      2.00000
      4     -21.0717      2.00000
      5     -21.0671      2.00000
      6     -21.0671      2.00000
      7     -21.0646      2.00000
      8     -21.0646      2.00000
      9     -21.0562      2.00000
     10     -21.0505      2.00000
     11     -21.0459      2.00000
     12     -21.0434      2.00000
     13     -21.0434      2.00000
     14     -21.0384      2.00000
     15     -21.0384      2.00000
     16     -21.0379      2.00000
     17     -21.0286      2.00000
     18     -21.0236      2.00000
     19     -21.0236      2.00000
     20     -21.0210      2.00000
     21     -21.0130      2.00000
     22     -21.0104      2.00000
     23     -21.0104      2.00000
     24     -21.0096      2.00000
     25     -19.2911      2.00000
     26     -19.2911      2.00000
     27     -19.2909      2.00000
     28     -19.2909      2.00000
     29     -19.2871      2.00000
     30     -19.2869      2.00000
     31     -19.2190      2.00000
     32     -19.2189      2.00000
     33     -19.1985      2.00000
     34     -19.1984      2.00000
     35     -10.4510      2.00000
     36     -10.1332      2.00000
     37      -9.4145      2.00000
     38      -9.4145      2.00000
     39      -9.2660      2.00000
     40      -9.2504      2.00000
     41      -9.1971      2.00000
     42      -9.1971      2.00000
     43      -4.2833      2.00000
     44      -4.2433      2.00000
     45      -1.4490      2.00000
     46      -1.3888      2.00000
     47      -1.3888      2.00000
     48      -0.7612      2.00000
     49      -0.7612      2.00000
     50      -0.6478      2.00000
     51      -0.6366      2.00000
     52      -0.6005      2.00000
     53      -0.0099      2.00000
     54      -0.0099      2.00000
     55       0.0899      2.00000
     56       0.3226      2.00000
     57       0.5523      2.00000
     58       0.6021      2.00000
     59       0.6021      2.00000
     60       0.8635      2.00000
     61       0.9809      2.00000
     62       0.9809      2.00000
     63       1.2111      2.00000
     64       1.2784      2.00000
     65       1.4442      2.00000
     66       1.4442      2.00000
     67       3.5084      0.00000
     68       4.0973      0.00000
     69       5.3201      0.00000
     70       5.8317      0.00000
     71       5.9991      0.00000
     72       5.9991      0.00000
     73       6.4514      0.00000
     74       6.8679      0.00000
     75       6.8965      0.00000
     76       7.3780      0.00000
     77       7.3780      0.00000
     78       7.3983      0.00000
     79       7.6383      0.00000
     80       7.6383      0.00000

 k-point     2 :       0.3333    0.0000    0.0000
  band No.  band energies     occupation 
      1     -21.0821      2.00000
      2     -21.0816      2.00000
      3     -21.0777      2.00000
      4     -21.0757      2.00000
      5     -21.0664      2.00000
      6     -21.0653      2.00000
      7     -21.0637      2.00000
      8     -21.0627      2.00000
      9     -21.0546      2.00000
     10     -21.0514      2.00000
     11     -21.0475      2.00000
     12     -21.0442      2.00000
     13     -21.0429      2.00000
     14     -21.0421      2.00000
     15     -21.0377      2.00000
     16     -21.0360      2.00000
     17     -21.0273      2.00000
     18     -21.0256      2.00000
     19     -21.0229      2.00000
     20     -21.0211      2.00000
     21     -21.0123      2.00000
     22     -21.0113      2.00000
     23     -21.0103      2.00000
     24     -21.0097      2.00000
     25     -19.2911      2.00000
     26     -19.2911      2.00000
     27     -19.2910      2.00000
     28     -19.2910      2.00000
     29     -19.2871      2.00000
     30     -19.2870      2.00000
     31     -19.2190      2.00000
     32     -19.2189      2.00000
     33     -19.1985      2.00000
     34     -19.1984      2.00000
     35     -10.3749      2.00000
     36     -10.2151      2.00000
     37      -9.3769      2.00000
     38      -9.3750      2.00000
     39      -9.2910      2.00000
     40      -9.2751      2.00000
     41      -9.2297      2.00000
     42      -9.2050      2.00000
     43      -4.2478      2.00000
     44      -4.2281      2.00000
     45      -1.3930      2.00000
     46      -1.2461      2.00000
     47      -1.1612      2.00000
     48      -1.0701      2.00000
     49      -0.9315      2.00000
     50      -0.8157      2.00000
     51      -0.5119      2.00000
     52      -0.3605      2.00000
     53      -0.1744      2.00000
     54       0.1912      2.00000
     55       0.1947      2.00000
     56       0.3596      2.00000
     57       0.4187      2.00000
     58       0.6230      2.00000
     59       0.7063      2.00000
     60       0.7318      2.00000
     61       0.8591      2.00000
     62       0.9639      2.00000
     63       1.1273      2.00000
     64       1.1283      2.00000
     65       1.2291      2.00000
     66       1.3694      2.00000
     67       4.0584      0.00000
     68       4.2420      0.00000
     69       5.6677      0.00000
     70       5.7377      0.00000
     71       5.7431      0.00000
     72       5.9608      0.00000
     73       6.0484      0.00000
     74       6.8137      0.00000
     75       6.8321      0.00000
     76       7.0487      0.00000
     77       7.0647      0.00000
     78       7.4891      0.00000
     79       7.6708      0.00000
     80       8.0021      0.00000

 k-point     3 :       0.3333    0.3333    0.0000
  band No.  band energies     occupation 
      1     -21.0806      2.00000
      2     -21.0797      2.00000
      3     -21.0780      2.00000
      4     -21.0765      2.00000
      5     -21.0698      2.00000
      6     -21.0691      2.00000
      7     -21.0608      2.00000
      8     -21.0604      2.00000
      9     -21.0528      2.00000
     10     -21.0499      2.00000
     11     -21.0494      2.00000
     12     -21.0451      2.00000
     13     -21.0436      2.00000
     14     -21.0427      2.00000
     15     -21.0381      2.00000
     16     -21.0359      2.00000
     17     -21.0262      2.00000
     18     -21.0246      2.00000
     19     -21.0240      2.00000
     20     -21.0216      2.00000
     21     -21.0119      2.00000
     22     -21.0112      2.00000
     23     -21.0102      2.00000
     24     -21.0097      2.00000
     25     -19.2911      2.00000
     26     -19.2910      2.00000
     27     -19.2910      2.00000
     28     -19.2909      2.00000
     29     -19.2871      2.00000
     30     -19.2870      2.00000
     31     -19.2190      2.00000
     32     -19.2189      2.00000
     33     -19.1984      2.00000
     34     -19.1984      2.00000
     35     -10.3211      2.00000
     36     -10.2370      2.00000
     37      -9.4555      2.00000
     38      -9.3987      2.00000
     39      -9.2811      2.00000
     40      -9.2423      2.00000
     41      -9.2188      2.00000
     42      -9.2064      2.00000
     43      -4.2113      2.00000
     44      -4.2013      2.00000
     45      -1.4680      2.00000
     46      -1.3488      2.00000
     47      -1.1490      2.00000
     48      -0.8973      2.00000
     49      -0.8481      2.00000
     50      -0.8328      2.00000
     51      -0.3613      2.00000
     52      -0.2647      2.00000
     53      -0.0078      2.00000
     54       0.0973      2.00000
     55       0.1831      2.00000
     56       0.3181      2.00000
     57       0.4179      2.00000
     58       0.4270      2.00000
     59       0.5750      2.00000
     60       0.8403      2.00000
     61       0.8588      2.00000
     62       0.9110      2.00000
     63       1.0135      2.00000
     64       1.0413      2.00000
     65       1.1105      2.00000
     66       1.2086      2.00000
     67       4.3545      0.00000
     68       4.3726      0.00000
     69       5.5797      0.00000
     70       5.7389      0.00000
     71       5.7527      0.00000
     72       5.9075      0.00000
     73       6.3199      0.00000
     74       6.8570      0.00000
     75       6.9332      0.00000
     76       6.9850      0.00000
     77       7.0922      0.00000
     78       7.2626      0.00000
     79       7.6142      0.00000
     80       7.7452      0.00000

 k-point     4 :       0.0000    0.0000    0.3333
  band No.  band energies     occupation 
      1     -21.0837      2.00000
      2     -21.0836      2.00000
      3     -21.0736      2.00000
      4     -21.0723      2.00000
      5     -21.0668      2.00000
      6     -21.0668      2.00000
      7     -21.0652      2.00000
      8     -21.0652      2.00000
      9     -21.0543      2.00000
     10     -21.0516      2.00000
     11     -21.0433      2.00000
     12     -21.0417      2.00000
     13     -21.0417      2.00000
     14     -21.0394      2.00000
     15     -21.0391      2.00000
     16     -21.0391      2.00000
     17     -21.0251      2.00000
     18     -21.0208      2.00000
     19     -21.0208      2.00000
     20     -21.0189      2.00000
     21     -21.0173      2.00000
     22     -21.0141      2.00000
     23     -21.0141      2.00000
     24     -21.0132      2.00000
     25     -19.2911      2.00000
     26     -19.2911      2.00000
     27     -19.2910      2.00000
     28     -19.2910      2.00000
     29     -19.2871      2.00000
     30     -19.2870      2.00000
     31     -19.2190      2.00000
     32     -19.2189      2.00000
     33     -19.1985      2.00000
     34     -19.1984      2.00000
     35     -10.3671      2.00000
     36     -10.2058      2.00000
     37      -9.3820      2.00000
     38      -9.3820      2.00000
     39      -9.2772      2.00000
     40      -9.2662      2.00000
     41      -9.2303      2.00000
     42      -9.2303      2.00000
     43      -4.2749      2.00000
     44      -4.2596      2.00000
     45      -1.4324      2.00000
     46      -1.4324      2.00000
     47      -1.2806      2.00000
[...]
      2.059766  4.691420  4.829661    -0.054704   -0.058909    0.001414  
      5.852947  3.221293  4.829661    -0.054704   -0.058909   -0.001414  
      0.735064  6.016122  1.325993     0.059470    0.056015    0.004715  
      1.896591  0.735064  5.681344    -0.052526    0.022012   -0.248673  
      6.016122  7.177649  5.681344    -0.052526    0.022012    0.248673  
      7.177649  1.896591  1.325993     0.059470    0.056015   -0.004715  
      4.691420  5.852947  2.177676    -0.023470    0.053890    0.248714  
      3.221293  2.059766  2.177676    -0.023470    0.053890   -0.248714  

  46 f  =    2.525463 THz    15.867955 2PiTHz   84.240394 cm-1    10.444473 meV
             X         Y         Z           dx          dy          dz
      1.565653  3.215117  0.213647     0.023252    0.026487    0.164103  
      4.697596  1.565653  6.793690     0.176229    0.218354    0.137542  
      3.215117  6.347060  6.793690     0.176229    0.218354   -0.137542  
      6.347060  4.697596  0.213647     0.023252    0.026487   -0.164103  
      5.522010  0.741240  3.290022    -0.110742   -0.048104    0.093274  
      2.390703  7.171473  3.290022    -0.110742   -0.048104   -0.093274  
      7.171473  5.522010  3.717315    -0.171593    0.189619   -0.192737  
      0.741240  2.390703  3.717315    -0.171593    0.189619    0.192737  
      0.000000  0.000000  0.000000    -0.056922   -0.119932   -0.000000  
      3.956357  3.956357  3.503668     0.101094   -0.086045    0.000000  
      2.059766  4.691420  4.829661     0.212796    0.065568    0.130157  
      5.852947  3.221293  4.829661     0.212796    0.065568   -0.130157  
      0.735064  6.016122  1.325993     0.018030   -0.202303   -0.212668  
      1.896591  0.735064  5.681344    -0.142361    0.079996   -0.047095  
      6.016122  7.177649  5.681344    -0.142361    0.079996    0.047095  
      7.177649  1.896591  1.325993     0.018030   -0.202303    0.212668  
      4.691420  5.852947  2.177676    -0.049246   -0.126139   -0.174656  
      3.221293  2.059766  2.177676    -0.049246   -0.126139    0.174656  

  47 f  =    2.525463 THz    15.867955 2PiTHz   84.240394 cm-1    10.444473 meV
             X         Y         Z           dx          dy          dz
      1.565653  3.215117  0.213647     0.218354   -0.176229   -0.137542  
      4.697596  1.565653  6.793690     0.026487   -0.023252    0.164103  
      3.215117  6.347060  6.793690     0.026487   -0.023252   -0.164103  
      6.347060  4.697596  0.213647     0.218354   -0.176229    0.137542  
      5.522010  0.741240  3.290022     0.189619    0.171593    0.192737  
      2.390703  7.171473  3.290022     0.189619    0.171593   -0.192737  
      7.171473  5.522010  3.717315    -0.048104    0.110742    0.093274  
      0.741240  2.390703  3.717315    -0.048104    0.110742   -0.093274  
      0.000000  0.000000  0.000000    -0.119932    0.056922   -0.000000  
      3.956357  3.956357  3.503668    -0.086045   -0.101094    0.000000  
      2.059766  4.691420  4.829661    -0.126139    0.049246   -0.174656  
      5.852947  3.221293  4.829661    -0.126139    0.049246    0.174656  
      0.735064  6.016122  1.325993     0.079996    0.142361    0.047095  
      1.896591  0.735064  5.681344    -0.202303   -0.018030   -0.212668  
      6.016122  7.177649  5.681344    -0.202303   -0.018030    0.212668  
      7.177649  1.896591  1.325993     0.079996    0.142361   -0.047095  
      4.691420  5.852947  2.177676     0.065568   -0.212796   -0.130157  
      3.221293  2.059766  2.177676     0.065568   -0.212796    0.130157  

  48 f  =    2.391648 THz    15.027164 2PiTHz   79.776773 cm-1     9.891055 meV
             X         Y         Z           dx          dy          dz
      1.565653  3.215117  0.213647    -0.021532    0.017646   -0.073826  
      4.697596  1.565653  6.793690     0.017646    0.021532   -0.073826  
      3.215117  6.347060  6.793690    -0.017646   -0.021532   -0.073826  
      6.347060  4.697596  0.213647     0.021532   -0.017646   -0.073826  
      5.522010  0.741240  3.290022    -0.021532   -0.017646    0.073826  
      2.390703  7.171473  3.290022     0.021532    0.017646    0.073826  
      7.171473  5.522010  3.717315    -0.017646    0.021532    0.073826  
      0.741240  2.390703  3.717315     0.017646   -0.021532    0.073826  
      0.000000  0.000000  0.000000    -0.000000   -0.000000    0.591963  
      3.956357  3.956357  3.503668     0.000000    0.000000   -0.591963  
      2.059766  4.691420  4.829661     0.049099   -0.023701   -0.167921  
      5.852947  3.221293  4.829661    -0.049099    0.023701   -0.167921  
      0.735064  6.016122  1.325993     0.023701   -0.049099    0.167921  
      1.896591  0.735064  5.681344    -0.049099   -0.023701    0.167921  
      6.016122  7.177649  5.681344     0.049099    0.023701    0.167921  
      7.177649  1.896591  1.325993    -0.023701    0.049099    0.167921  
      4.691420  5.852947  2.177676     0.023701    0.049099   -0.167921  
      3.221293  2.059766  2.177676    -0.023701   -0.049099   -0.167921  

  49 f  =    2.302536 THz    14.467261 2PiTHz   76.804339 cm-1     9.522520 meV
             X         Y         Z           dx          dy          dz
      1.565653  3.215117  0.213647     0.078845   -0.252967   -0.058895  
      4.697596  1.565653  6.793690     0.252967    0.078845    0.058895  
      3.215117  6.347060  6.793690    -0.252967   -0.078845    0.058895  
      6.347060  4.697596  0.213647    -0.078845    0.252967   -0.058895  
      5.522010  0.741240  3.290022     0.078845    0.252967    0.058895  
      2.390703  7.171473  3.290022    -0.078845   -0.252967    0.058895  
      7.171473  5.522010  3.717315    -0.252967    0.078845   -0.058895  
      0.741240  2.390703  3.717315     0.252967   -0.078845   -0.058895  
      0.000000  0.000000  0.000000     0.000000    0.000000   -0.000000  
      3.956357  3.956357  3.503668    -0.000000   -0.000000    0.000000  
      2.059766  4.691420  4.829661    -0.059238   -0.217172    0.025488  
      5.852947  3.221293  4.829661     0.059238    0.217172    0.025488  
      0.735064  6.016122  1.325993    -0.217172   -0.059238    0.025488  
      1.896591  0.735064  5.681344     0.059238   -0.217172   -0.025488  
      6.016122  7.177649  5.681344    -0.059238    0.217172   -0.025488  
      7.177649  1.896591  1.325993     0.217172    0.059238    0.025488  
      4.691420  5.852947  2.177676    -0.217172    0.059238   -0.025488  
      3.221293  2.059766  2.177676     0.217172   -0.059238   -0.025488  

  50 f  =    2.085244 THz    13.101975 2PiTHz   69.556254 cm-1     8.623873 meV
             X         Y         Z           dx          dy          dz
      1.565653  3.215117  0.213647     0.105556    0.141360    0.166977  
      4.697596  1.565653  6.793690    -0.026135   -0.001713    0.049817  
      3.215117  6.347060  6.793690    -0.026135   -0.001713   -0.049817  
      6.347060  4.697596  0.213647     0.105556    0.141360   -0.166977  
      5.522010  0.741240  3.290022     0.032043   -0.015688   -0.095799  
      2.390703  7.171473  3.290022     0.032043   -0.015688    0.095799  
      7.171473  5.522010  3.717315    -0.142897   -0.100590   -0.145553  
      0.741240  2.390703  3.717315    -0.142897   -0.100590    0.145553  
      0.000000  0.000000  0.000000     0.222852    0.302347    0.000000  
      3.956357  3.956357  3.503668    -0.225347   -0.300492   -0.000000  
      2.059766  4.691420  4.829661    -0.091427   -0.025030   -0.024253  
      5.852947  3.221293  4.829661    -0.091427   -0.025030    0.024253  
      0.735064  6.016122  1.325993    -0.009185    0.162069    0.071017  
      1.896591  0.735064  5.681344     0.221415    0.117439    0.151912  
      6.016122  7.177649  5.681344     0.221415    0.117439   -0.151912  
      7.177649  1.896591  1.325993    -0.009185    0.162069   -0.071017  
      4.691420  5.852947  2.177676    -0.115108   -0.258712   -0.165929  
      3.221293  2.059766  2.177676    -0.115108   -0.258712    0.165929  

  51 f  =    2.085244 THz    13.101975 2PiTHz   69.556254 cm-1     8.623873 meV
             X         Y         Z           dx          dy          dz
      1.565653  3.215117  0.213647     0.001713   -0.026135    0.049817  
      4.697596  1.565653  6.793690    -0.141360    0.105556   -0.166977  
      3.215117  6.347060  6.793690    -0.141360    0.105556    0.166977  
      6.347060  4.697596  0.213647     0.001713   -0.026135   -0.049817  
      5.522010  0.741240  3.290022     0.100590   -0.142897   -0.145553  
      2.390703  7.171473  3.290022     0.100590   -0.142897    0.145553  
      7.171473  5.522010  3.717315     0.015688    0.032043    0.095799  
      0.741240  2.390703  3.717315     0.015688    0.032043   -0.095799  
      0.000000  0.000000  0.000000    -0.302347    0.222852   -0.000000  
      3.956357  3.956357  3.503668     0.300492   -0.225347    0.000000  
      2.059766  4.691420  4.829661     0.258712   -0.115108    0.165929  
      5.852947  3.221293  4.829661     0.258712   -0.115108   -0.165929  
      0.735064  6.016122  1.325993    -0.117439    0.221415    0.151912  
      1.896591  0.735064  5.681344    -0.162069   -0.009185   -0.071017  
      6.016122  7.177649  5.681344    -0.162069   -0.009185    0.071017  
      7.177649  1.896591  1.325993    -0.117439    0.221415   -0.151912  
      4.691420  5.852947  2.177676     0.025030   -0.091427   -0.024253  
      3.221293  2.059766  2.177676     0.025030   -0.091427    0.024253  

  52 f/i=    0.139448 THz     0.876177 2PiTHz    4.651480 cm-1     0.576710 meV
             X         Y         Z           dx          dy          dz
      1.565653  3.215117  0.213647    -0.000400   -0.003729    0.177729  
      4.697596  1.565653  6.793690    -0.003729    0.000400    0.177729  
      3.215117  6.347060  6.793690     0.003729   -0.000400    0.177729  
      6.347060  4.697596  0.213647     0.000400    0.003729    0.177729  
      5.522010  0.741240  3.290022     0.000400   -0.003729    0.177729  
      2.390703  7.171473  3.290022    -0.000400    0.003729    0.177729  
      7.171473  5.522010  3.717315    -0.003729   -0.000400    0.177729  
      0.741240  2.390703  3.717315     0.003729    0.000400    0.177729  
      0.000000  0.000000  0.000000    -0.000000    0.000000    0.419751  
      3.956357  3.956357  3.503668    -0.000000    0.000000    0.419751  
      2.059766  4.691420  4.829661     0.003654   -0.002360    0.222108  
      5.852947  3.221293  4.829661    -0.003654    0.002360    0.222108  
      0.735064  6.016122  1.325993    -0.002360    0.003654    0.222108  
      1.896591  0.735064  5.681344     0.003654    0.002360    0.222108  
      6.016122  7.177649  5.681344    -0.003654   -0.002360    0.222108  
      7.177649  1.896591  1.325993     0.002360   -0.003654    0.222108  
      4.691420  5.852947  2.177676     0.002360    0.003654    0.222108  
      3.221293  2.059766  2.177676    -0.002360   -0.003654    0.222108  

  53 f/i=    0.362835 THz     2.279762 2PiTHz   12.102886 cm-1     1.500566 meV
             X         Y         Z           dx          dy          dz
      1.565653  3.215117  0.213647    -0.153851    0.145448   -0.005854  
      4.697596  1.565653  6.793690    -0.151752    0.121399    0.001902  
      3.215117  6.347060  6.793690    -0.151752    0.121399   -0.001902  
      6.347060  4.697596  0.213647    -0.153851    0.145448    0.005854  
      5.522010  0.741240  3.290022    -0.140523    0.131373   -0.001118  
      2.390703  7.171473  3.290022    -0.140523    0.131373    0.001118  
      7.171473  5.522010  3.717315    -0.164089    0.136607    0.006052  
      0.741240  2.390703  3.717315    -0.164089    0.136607   -0.006052  
      0.000000  0.000000  0.000000    -0.285358    0.247920   -0.000000  
      3.956357  3.956357  3.503668    -0.283193    0.250390   -0.000000  
      2.059766  4.691420  4.829661    -0.149328    0.143955   -0.008378  
      5.852947  3.221293  4.829661    -0.149328    0.143955    0.008378  
      0.735064  6.016122  1.325993    -0.165430    0.128307    0.006648  
      1.896591  0.735064  5.681344    -0.168779    0.152897   -0.013633  
      6.016122  7.177649  5.681344    -0.168779    0.152897    0.013633  
      7.177649  1.896591  1.325993    -0.165430    0.128307   -0.006648  
      4.691420  5.852947  2.177676    -0.173267    0.150500    0.012644  
      3.221293  2.059766  2.177676    -0.173267    0.150500   -0.012644  

  54 f/i=    0.362835 THz     2.279762 2PiTHz   12.102886 cm-1     1.500566 meV
             X         Y         Z           dx          dy          dz
      1.565653  3.215117  0.213647     0.121399    0.151752   -0.001902  
      4.697596  1.565653  6.793690     0.145448    0.153851   -0.005854  
      3.215117  6.347060  6.793690     0.145448    0.153851    0.005854  
      6.347060  4.697596  0.213647     0.121399    0.151752    0.001902  
      5.522010  0.741240  3.290022     0.136607    0.164089   -0.006052  
      2.390703  7.171473  3.290022     0.136607    0.164089    0.006052  
      7.171473  5.522010  3.717315     0.131373    0.140523   -0.001118  
      0.741240  2.390703  3.717315     0.131373    0.140523    0.001118  
      0.000000  0.000000  0.000000     0.247920    0.285358   -0.000000  
      3.956357  3.956357  3.503668     0.250390    0.283193   -0.000000  
      2.059766  4.691420  4.829661     0.150500    0.173267    0.012644  
      5.852947  3.221293  4.829661     0.150500    0.173267   -0.012644  
      0.735064  6.016122  1.325993     0.152897    0.168779    0.013633  
      1.896591  0.735064  5.681344     0.128307    0.165430    0.006648  
      6.016122  7.177649  5.681344     0.128307    0.165430   -0.006648  
      7.177649  1.896591  1.325993     0.152897    0.168779   -0.013633  
      4.691420  5.852947  2.177676     0.143955    0.149328    0.008378  
      3.221293  2.059766  2.177676     0.143955    0.149328   -0.008378  



--------------------------------------------------------------------------------------------------------



 ELASTIC MODULI CONTR FROM IONIC RELAXATION (kBar)
 Direction    XX          YY          ZZ          XY          YZ          ZX
 --------------------------------------------------------------------------------
 XX        -679.8615   -384.8068   -325.6535     -0.0000     -0.0000     -0.0000
 YY        -384.8068   -679.8615   -325.6535     -0.0000     -0.0000      0.0000
 ZZ        -325.6535   -325.6535   -251.5252     -0.0000     -0.0000      0.0000
 XY          -0.0000     -0.0000     -0.0000    -91.4007     -0.0000     -0.0000
 YZ           0.0000      0.0000     -0.0000     -0.0000   -188.9810      0.0000
 ZX           0.0000      0.0000      0.0000     -0.0000      0.0000   -188.9813
 --------------------------------------------------------------------------------


 TOTAL ELASTIC MODULI (kBar)
 Direction    XX          YY          ZZ          XY          YZ          ZX
 --------------------------------------------------------------------------------
 XX          62.6626   -197.0337    -46.6659     -0.0000     -0.0000     -0.0000
 YY        -197.0337     62.6626    -46.6659     -0.0000     -0.0000      0.0000
 ZZ         -46.6659    -46.6659    391.8085     -0.0000     -0.0000      0.0000
 XY          -0.0000     -0.0000     -0.0000    132.8687     -0.0000     -0.0000
 YZ           0.0000      0.0000     -0.0000     -0.0000    103.5888      0.0000
 ZX           0.0000      0.0000      0.0000     -0.0000      0.0000    103.5884
 --------------------------------------------------------------------------------



--------------------------------------------------------------------------------------------------------


  LATTYP: Found a simple tetragonal cell.
 ALAT       =     7.9127130122
 C/A-ratio  =     0.8855794935
  
  Lattice vectors:
  
 A1 = (   7.9127130122,  -0.0000000000,   0.0000000000)
 A2 = (  -0.0000000000,   7.9127130122,   0.0000000000)
 A3 = (   0.0000000000,   0.0000000000,   7.0073363813)


Analysis of symmetry for initial positions (statically):
=====================================================================
 Subroutine PRICEL returns:
 Original cell was already a primitive cell.
 

 Routine SETGRP: Setting up the symmetry group for a 
 simple tetragonal supercell.


 Subroutine GETGRP returns: Found  8 space group operations
 (whereof  4 operations were pure point group operations)
 out of a pool of 16 trial point group operations.


The static configuration has the point symmetry S_4 .
 The point group associated with its full space group is D_2d.


Analysis of symmetry for dynamics (positions and initial velocities):
=====================================================================
 Subroutine PRICEL returns:
 Original cell was already a primitive cell.
 

 Routine SETGRP: Setting up the symmetry group for a 
 simple tetragonal supercell.


 Subroutine GETGRP returns: Found  8 space group operations
 (whereof  4 operations were pure point group operations)
 out of a pool of 16 trial point group operations.


The dynamic configuration has the point symmetry S_4 .
 The point group associated with its full space group is D_2d.


 Subroutine INISYM returns: Found  8 space group operations
 (whereof  4 operations are pure point group operations),
 and found     1 'primitive' translations


 KPOINTS: pymatgen with grid density = 600 / numbe

Automatic generation of k-mesh.
 Grid dimensions read from file:
 generate k-points for:    3    3    3

 Generating k-lattice:

  Cartesian coordinates                     Fractional coordinates (reciprocal lattice)
     0.042126301  0.000000000 -0.000000000     0.333333333  0.000000000  0.000000000
     0.000000000  0.042126301 -0.000000000     0.000000000  0.333333333  0.000000000
    -0.000000000 -0.000000000  0.047569193    -0.000000000 -0.000000000  0.333333333

  Length of vectors
     0.042126301  0.042126301  0.047569193

  Shift w.r.t. Gamma in fractional coordinates (k-lattice)
     0.000000000  0.000000000  0.000000000

 
 Subroutine IBZKPT returns following result:
 ===========================================
 
 Found      6 irreducible k-points:
 
 Following reciprocal coordinates:
            Coordinates               Weight
  0.000000  0.000000  0.000000      1.000000
  0.333333  0.000000  0.000000      4.000000
  0.333333  0.333333  0.000000      4.000000
  0.000000  0.000000  0.333333      2.000000
  0.333333  0.000000  0.333333      8.000000
  0.333333  0.333333  0.333333      8.000000
 
 Following cartesian coordinates:
            Coordinates               Weight
  0.000000  0.000000  0.000000      1.000000
  0.042126  0.000000  0.000000      4.000000
  0.042126  0.042126  0.000000      4.000000
  0.000000  0.000000  0.047569      2.000000
  0.042126  0.000000  0.047569      8.000000
  0.042126  0.042126  0.047569      8.000000
 
     LOOP+:  cpu time     16.8079: real time     16.8898
    4ORBIT:  cpu time      0.0000: real time      0.0000

 total amount of memory used by VASP MPI-rank0    48517. kBytes
=======================================================================

   base      :      30000. kBytes
   nonlr-proj:       2084. kBytes
   fftplans  :       2229. kBytes
   grid      :       6092. kBytes
   one-center:        279. kBytes
   wavefun   :       7833. kBytes

  
  
 General timing and accounting informations for this job:
 ========================================================
  
                  Total CPU time used (sec):     1014.620
                            User time (sec):      983.348
                          System time (sec):       31.272
                         Elapsed time (sec):     1031.202
  
                   Maximum memory used (kb):      160284.
                   Average memory used (kb):          N/A
  
                          Minor page faults:        83790
                          Major page faults:          265
                 Voluntary context switches:         2049
