phonopy:
  version: "2.22.0"
  frequency_unit_conversion_factor: 15.633302
  symmetry_tolerance: 1.00000e-05
  configuration:
    create_displacements: ".true."
    dim: "3 3 2"

physical_unit:
  atomic_mass: "AMU"
  length: "angstrom"
  force_constants: "eV/angstrom^2"

space_group:
  type: "C2/m"
  number: 12
  Hall_symbol: "-C 2y"

supercell_matrix:
- [   3,   0,   0 ]
- [   0,   3,   0 ]
- [   0,   0,   2 ]

primitive_cell:
  lattice:
  - [     0.000000000000000,     6.083514152362835,    -0.193723503881834 ] # a
  - [     4.086035720125111,     0.000000000000000,     0.000000000000000 ] # b
  - [     0.000000000000000,    -1.787511830004568,    -8.835904264646924 ] # c
  points:
  - symbol: Na # 1
    coordinates: [  0.000000000000000,  0.000000000000000,  0.000000000000000 ]
    mass: 22.989769
  - symbol: Na # 2
    coordinates: [  0.666705104867723,  0.000000000000000,  0.333355520113745 ]
    mass: 22.989769
  - symbol: Na # 3
    coordinates: [  0.833294895132277,  0.500000000000000,  0.666644479886255 ]
    mass: 22.989769
  - symbol: Na # 4
    coordinates: [  0.500000000000000,  0.500000000000000,  0.000000000000000 ]
    mass: 22.989769
  - symbol: Na # 5
    coordinates: [  0.166705104867723,  0.500000000000000,  0.333355520113745 ]
    mass: 22.989769
  - symbol: Na # 6
    coordinates: [  0.333294895132277,  0.000000000000000,  0.666644479886255 ]
    mass: 22.989769
  reciprocal_lattice: # without 2pi
  - [     0.000000000000000,     0.163326514198792,    -0.033041109040968 ] # a*
  - [     0.244735990699900,     0.000000000000000,    -0.000000000000000 ] # b*
  - [     0.000000000000000,    -0.003580865484701,    -0.112450195342191 ] # c*

unit_cell:
  lattice:
  - [     0.000000000000000,     6.083514152362836,    -0.193723503881834 ] # a
  - [     4.086035720125111,     0.000000000000000,     0.000000000000000 ] # b
  - [     0.000000000000000,    -1.787511830004568,    -8.835904264646924 ] # c
  points:
  - symbol: Na # 1
    coordinates: [ -0.000000000000000,  0.000000000000000, -0.000000000000000 ]
    mass: 22.989769
    reduced_to: 1
  - symbol: Na # 2
    coordinates: [  0.666705104867723, -0.000000000000000,  0.333355520113745 ]
    mass: 22.989769
    reduced_to: 2
  - symbol: Na # 3
    coordinates: [  0.833294895132277,  0.500000000000000,  0.666644479886255 ]
    mass: 22.989769
    reduced_to: 3
  - symbol: Na # 4
    coordinates: [  0.500000000000000,  0.500000000000000, -0.000000000000000 ]
    mass: 22.989769
    reduced_to: 4
  - symbol: Na # 5
    coordinates: [  0.166705104867723,  0.500000000000000,  0.333355520113745 ]
    mass: 22.989769
    reduced_to: 5
  - symbol: Na # 6
    coordinates: [  0.333294895132277,  0.000000000000000,  0.666644479886255 ]
    mass: 22.989769
    reduced_to: 6

supercell:
  lattice:
  - [     0.000000000000000,    18.250542457088507,    -0.581170511645502 ] # a
  - [    12.258107160375332,     0.000000000000000,     0.000000000000000 ] # b
  - [     0.000000000000000,    -3.575023660009135,   -17.671808529293848 ] # c
  points:
  - symbol: Na # 1
    coordinates: [  0.000000000000000,  0.000000000000000,  0.000000000000000 ]
    mass: 22.989769
    reduced_to: 1
  - symbol: Na # 2
    coordinates: [  0.333333333333333,  0.000000000000000,  0.000000000000000 ]
    mass: 22.989769
    reduced_to: 1
  - symbol: Na # 3
    coordinates: [  0.666666666666667,  0.000000000000000,  0.000000000000000 ]
    mass: 22.989769
    reduced_to: 1
  - symbol: Na # 4
    coordinates: [  0.000000000000000,  0.333333333333333,  0.000000000000000 ]
    mass: 22.989769
    reduced_to: 1
  - symbol: Na # 5
    coordinates: [  0.333333333333333,  0.333333333333333,  0.000000000000000 ]
    mass: 22.989769
    reduced_to: 1
  - symbol: Na # 6
    coordinates: [  0.666666666666667,  0.333333333333333,  0.000000000000000 ]
    mass: 22.989769
    reduced_to: 1
  - symbol: Na # 7
    coordinates: [  0.000000000000000,  0.666666666666667,  0.000000000000000 ]
    mass: 22.989769
    reduced_to: 1
  - symbol: Na # 8
    coordinates: [  0.333333333333333,  0.666666666666667,  0.000000000000000 ]
    mass: 22.989769
    reduced_to: 1
  - symbol: Na # 9
    coordinates: [  0.666666666666667,  0.666666666666667,  0.000000000000000 ]
    mass: 22.989769
    reduced_to: 1
  - symbol: Na # 10
    coordinates: [  0.000000000000000,  0.000000000000000,  0.500000000000000 ]
    mass: 22.989769
    reduced_to: 1
  - symbol: Na # 11
    coordinates: [  0.333333333333333,  0.000000000000000,  0.500000000000000 ]
    mass: 22.989769
    reduced_to: 1
  - symbol: Na # 12
    coordinates: [  0.666666666666667,  0.000000000000000,  0.500000000000000 ]
    mass: 22.989769
    reduced_to: 1
  - symbol: Na # 13
    coordinates: [  0.000000000000000,  0.333333333333333,  0.500000000000000 ]
    mass: 22.989769
    reduced_to: 1
  - symbol: Na # 14
    coordinates: [  0.333333333333333,  0.333333333333333,  0.500000000000000 ]
    mass: 22.989769
    reduced_to: 1
  - symbol: Na # 15
    coordinates: [  0.666666666666667,  0.333333333333333,  0.500000000000000 ]
    mass: 22.989769
    reduced_to: 1
  - symbol: Na # 16
    coordinates: [  0.000000000000000,  0.666666666666667,  0.500000000000000 ]
    mass: 22.989769
    reduced_to: 1
  - symbol: Na # 17
    coordinates: [  0.333333333333333,  0.666666666666667,  0.500000000000000 ]
    mass: 22.989769
    reduced_to: 1
  - symbol: Na # 18
    coordinates: [  0.666666666666667,  0.666666666666667,  0.500000000000000 ]
    mass: 22.989769
    reduced_to: 1
  - symbol: Na # 19
    coordinates: [  0.222235034955908,  0.000000000000000,  0.166677760056872 ]
    mass: 22.989769
    reduced_to: 19
  - symbol: Na # 20
    coordinates: [  0.555568368289241,  0.000000000000000,  0.166677760056872 ]
    mass: 22.989769
    reduced_to: 19
  - symbol: Na # 21
    coordinates: [  0.888901701622574,  0.000000000000000,  0.166677760056872 ]
    mass: 22.989769
    reduced_to: 19
  - symbol: Na # 22
    coordinates: [  0.222235034955908,  0.333333333333333,  0.166677760056872 ]
    mass: 22.989769
    reduced_to: 19
  - symbol: Na # 23
    coordinates: [  0.555568368289241,  0.333333333333333,  0.166677760056872 ]
    mass: 22.989769
    reduced_to: 19
  - symbol: Na # 24
    coordinates: [  0.888901701622574,  0.333333333333333,  0.166677760056872 ]
    mass: 22.989769
    reduced_to: 19
  - symbol: Na # 25
    coordinates: [  0.222235034955908,  0.666666666666667,  0.166677760056872 ]
    mass: 22.989769
    reduced_to: 19
  - symbol: Na # 26
    coordinates: [  0.555568368289241,  0.666666666666667,  0.166677760056872 ]
    mass: 22.989769
    reduced_to: 19
  - symbol: Na # 27
    coordinates: [  0.888901701622574,  0.666666666666667,  0.166677760056872 ]
    mass: 22.989769
    reduced_to: 19
  - symbol: Na # 28
    coordinates: [  0.222235034955908,  0.000000000000000,  0.666677760056873 ]
    mass: 22.989769
    reduced_to: 19
  - symbol: Na # 29
    coordinates: [  0.555568368289241,  0.000000000000000,  0.666677760056873 ]
    mass: 22.989769
    reduced_to: 19
  - symbol: Na # 30
    coordinates: [  0.888901701622574,  0.000000000000000,  0.666677760056873 ]
    mass: 22.989769
    reduced_to: 19
  - symbol: Na # 31
    coordinates: [  0.222235034955908,  0.333333333333333,  0.666677760056873 ]
    mass: 22.989769
    reduced_to: 19
  - symbol: Na # 32
    coordinates: [  0.555568368289241,  0.333333333333333,  0.666677760056873 ]
    mass: 22.989769
    reduced_to: 19
  - symbol: Na # 33
    coordinates: [  0.888901701622574,  0.333333333333333,  0.666677760056873 ]
    mass: 22.989769
    reduced_to: 19
  - symbol: Na # 34
    coordinates: [  0.222235034955908,  0.666666666666667,  0.666677760056873 ]
    mass: 22.989769
    reduced_to: 19
  - symbol: Na # 35
    coordinates: [  0.555568368289241,  0.666666666666667,  0.666677760056873 ]
    mass: 22.989769
    reduced_to: 19
  - symbol: Na # 36
    coordinates: [  0.888901701622574,  0.666666666666667,  0.666677760056873 ]
    mass: 22.989769
    reduced_to: 19
  - symbol: Na # 37
    coordinates: [  0.277764965044092,  0.166666666666667,  0.333322239943128 ]
    mass: 22.989769
    reduced_to: 37
  - symbol: Na # 38
    coordinates: [  0.611098298377426,  0.166666666666667,  0.333322239943128 ]
    mass: 22.989769
    reduced_to: 37
  - symbol: Na # 39
    coordinates: [  0.944431631710759,  0.166666666666667,  0.333322239943128 ]
    mass: 22.989769
    reduced_to: 37
  - symbol: Na # 40
    coordinates: [  0.277764965044092,  0.500000000000000,  0.333322239943128 ]
    mass: 22.989769
    reduced_to: 37
  - symbol: Na # 41
    coordinates: [  0.611098298377426,  0.500000000000000,  0.333322239943128 ]
    mass: 22.989769
    reduced_to: 37
  - symbol: Na # 42
    coordinates: [  0.944431631710759,  0.500000000000000,  0.333322239943128 ]
    mass: 22.989769
    reduced_to: 37
  - symbol: Na # 43
    coordinates: [  0.277764965044092,  0.833333333333333,  0.333322239943128 ]
    mass: 22.989769
    reduced_to: 37
  - symbol: Na # 44
    coordinates: [  0.611098298377426,  0.833333333333333,  0.333322239943128 ]
    mass: 22.989769
    reduced_to: 37
  - symbol: Na # 45
    coordinates: [  0.944431631710759,  0.833333333333333,  0.333322239943128 ]
    mass: 22.989769
    reduced_to: 37
  - symbol: Na # 46
    coordinates: [  0.277764965044092,  0.166666666666667,  0.833322239943128 ]
    mass: 22.989769
    reduced_to: 37
  - symbol: Na # 47
    coordinates: [  0.611098298377426,  0.166666666666667,  0.833322239943128 ]
    mass: 22.989769
    reduced_to: 37
  - symbol: Na # 48
    coordinates: [  0.944431631710759,  0.166666666666667,  0.833322239943128 ]
    mass: 22.989769
    reduced_to: 37
  - symbol: Na # 49
    coordinates: [  0.277764965044092,  0.500000000000000,  0.833322239943128 ]
    mass: 22.989769
    reduced_to: 37
  - symbol: Na # 50
    coordinates: [  0.611098298377426,  0.500000000000000,  0.833322239943128 ]
    mass: 22.989769
    reduced_to: 37
  - symbol: Na # 51
    coordinates: [  0.944431631710759,  0.500000000000000,  0.833322239943128 ]
    mass: 22.989769
    reduced_to: 37
  - symbol: Na # 52
    coordinates: [  0.277764965044092,  0.833333333333333,  0.833322239943128 ]
    mass: 22.989769
    reduced_to: 37
  - symbol: Na # 53
    coordinates: [  0.611098298377426,  0.833333333333333,  0.833322239943128 ]
    mass: 22.989769
    reduced_to: 37
  - symbol: Na # 54
    coordinates: [  0.944431631710759,  0.833333333333333,  0.833322239943128 ]
    mass: 22.989769
    reduced_to: 37
  - symbol: Na # 55
    coordinates: [  0.166666666666667,  0.166666666666667,  0.000000000000000 ]
    mass: 22.989769
    reduced_to: 55
  - symbol: Na # 56
    coordinates: [  0.500000000000000,  0.166666666666667,  0.000000000000000 ]
    mass: 22.989769
    reduced_to: 55
  - symbol: Na # 57
    coordinates: [  0.833333333333333,  0.166666666666667,  0.000000000000000 ]
    mass: 22.989769
    reduced_to: 55
  - symbol: Na # 58
    coordinates: [  0.166666666666667,  0.500000000000000,  0.000000000000000 ]
    mass: 22.989769
    reduced_to: 55
  - symbol: Na # 59
    coordinates: [  0.500000000000000,  0.500000000000000,  0.000000000000000 ]
    mass: 22.989769
    reduced_to: 55
  - symbol: Na # 60
    coordinates: [  0.833333333333333,  0.500000000000000,  0.000000000000000 ]
    mass: 22.989769
    reduced_to: 55
  - symbol: Na # 61
    coordinates: [  0.166666666666667,  0.833333333333333,  0.000000000000000 ]
    mass: 22.989769
    reduced_to: 55
  - symbol: Na # 62
    coordinates: [  0.500000000000000,  0.833333333333333,  0.000000000000000 ]
    mass: 22.989769
    reduced_to: 55
  - symbol: Na # 63
    coordinates: [  0.833333333333333,  0.833333333333333,  0.000000000000000 ]
    mass: 22.989769
    reduced_to: 55
  - symbol: Na # 64
    coordinates: [  0.166666666666667,  0.166666666666667,  0.500000000000000 ]
    mass: 22.989769
    reduced_to: 55
  - symbol: Na # 65
    coordinates: [  0.500000000000000,  0.166666666666667,  0.500000000000000 ]
    mass: 22.989769
    reduced_to: 55
  - symbol: Na # 66
    coordinates: [  0.833333333333333,  0.166666666666667,  0.500000000000000 ]
    mass: 22.989769
    reduced_to: 55
  - symbol: Na # 67
    coordinates: [  0.166666666666667,  0.500000000000000,  0.500000000000000 ]
    mass: 22.989769
    reduced_to: 55
  - symbol: Na # 68
    coordinates: [  0.500000000000000,  0.500000000000000,  0.500000000000000 ]
    mass: 22.989769
    reduced_to: 55
  - symbol: Na # 69
    coordinates: [  0.833333333333333,  0.500000000000000,  0.500000000000000 ]
    mass: 22.989769
    reduced_to: 55
  - symbol: Na # 70
    coordinates: [  0.166666666666667,  0.833333333333333,  0.500000000000000 ]
    mass: 22.989769
    reduced_to: 55
  - symbol: Na # 71
    coordinates: [  0.500000000000000,  0.833333333333333,  0.500000000000000 ]
    mass: 22.989769
    reduced_to: 55
  - symbol: Na # 72
    coordinates: [  0.833333333333333,  0.833333333333333,  0.500000000000000 ]
    mass: 22.989769
    reduced_to: 55
  - symbol: Na # 73
    coordinates: [  0.055568368289241,  0.166666666666667,  0.166677760056872 ]
    mass: 22.989769
    reduced_to: 73
  - symbol: Na # 74
    coordinates: [  0.388901701622574,  0.166666666666667,  0.166677760056872 ]
    mass: 22.989769
    reduced_to: 73
  - symbol: Na # 75
    coordinates: [  0.722235034955908,  0.166666666666667,  0.166677760056872 ]
    mass: 22.989769
    reduced_to: 73
  - symbol: Na # 76
    coordinates: [  0.055568368289241,  0.500000000000000,  0.166677760056872 ]
    mass: 22.989769
    reduced_to: 73
  - symbol: Na # 77
    coordinates: [  0.388901701622574,  0.500000000000000,  0.166677760056872 ]
    mass: 22.989769
    reduced_to: 73
  - symbol: Na # 78
    coordinates: [  0.722235034955908,  0.500000000000000,  0.166677760056872 ]
    mass: 22.989769
    reduced_to: 73
  - symbol: Na # 79
    coordinates: [  0.055568368289241,  0.833333333333333,  0.166677760056872 ]
    mass: 22.989769
    reduced_to: 73
  - symbol: Na # 80
    coordinates: [  0.388901701622574,  0.833333333333333,  0.166677760056872 ]
    mass: 22.989769
    reduced_to: 73
  - symbol: Na # 81
    coordinates: [  0.722235034955908,  0.833333333333333,  0.166677760056872 ]
    mass: 22.989769
    reduced_to: 73
  - symbol: Na # 82
    coordinates: [  0.055568368289241,  0.166666666666667,  0.666677760056873 ]
    mass: 22.989769
    reduced_to: 73
  - symbol: Na # 83
    coordinates: [  0.388901701622574,  0.166666666666667,  0.666677760056873 ]
    mass: 22.989769
    reduced_to: 73
  - symbol: Na # 84
    coordinates: [  0.722235034955908,  0.166666666666667,  0.666677760056873 ]
    mass: 22.989769
    reduced_to: 73
  - symbol: Na # 85
    coordinates: [  0.055568368289241,  0.500000000000000,  0.666677760056873 ]
    mass: 22.989769
    reduced_to: 73
  - symbol: Na # 86
    coordinates: [  0.388901701622574,  0.500000000000000,  0.666677760056873 ]
    mass: 22.989769
    reduced_to: 73
  - symbol: Na # 87
    coordinates: [  0.722235034955908,  0.500000000000000,  0.666677760056873 ]
    mass: 22.989769
    reduced_to: 73
  - symbol: Na # 88
    coordinates: [  0.055568368289241,  0.833333333333333,  0.666677760056873 ]
    mass: 22.989769
    reduced_to: 73
  - symbol: Na # 89
    coordinates: [  0.388901701622574,  0.833333333333333,  0.666677760056873 ]
    mass: 22.989769
    reduced_to: 73
  - symbol: Na # 90
    coordinates: [  0.722235034955908,  0.833333333333333,  0.666677760056873 ]
    mass: 22.989769
    reduced_to: 73
  - symbol: Na # 91
    coordinates: [  0.111098298377426,  0.000000000000000,  0.333322239943128 ]
    mass: 22.989769
    reduced_to: 91
  - symbol: Na # 92
    coordinates: [  0.444431631710759,  0.000000000000000,  0.333322239943128 ]
    mass: 22.989769
    reduced_to: 91
  - symbol: Na # 93
    coordinates: [  0.777764965044092,  0.000000000000000,  0.333322239943128 ]
    mass: 22.989769
    reduced_to: 91
  - symbol: Na # 94
    coordinates: [  0.111098298377426,  0.333333333333333,  0.333322239943128 ]
    mass: 22.989769
    reduced_to: 91
  - symbol: Na # 95
    coordinates: [  0.444431631710759,  0.333333333333333,  0.333322239943128 ]
    mass: 22.989769
    reduced_to: 91
  - symbol: Na # 96
    coordinates: [  0.777764965044092,  0.333333333333333,  0.333322239943128 ]
    mass: 22.989769
    reduced_to: 91
  - symbol: Na # 97
    coordinates: [  0.111098298377426,  0.666666666666667,  0.333322239943128 ]
    mass: 22.989769
    reduced_to: 91
  - symbol: Na # 98
    coordinates: [  0.444431631710759,  0.666666666666667,  0.333322239943128 ]
    mass: 22.989769
    reduced_to: 91
  - symbol: Na # 99
    coordinates: [  0.777764965044092,  0.666666666666667,  0.333322239943128 ]
    mass: 22.989769
    reduced_to: 91
  - symbol: Na # 100
    coordinates: [  0.111098298377426,  0.000000000000000,  0.833322239943128 ]
    mass: 22.989769
    reduced_to: 91
  - symbol: Na # 101
    coordinates: [  0.444431631710759,  0.000000000000000,  0.833322239943128 ]
    mass: 22.989769
    reduced_to: 91
  - symbol: Na # 102
    coordinates: [  0.777764965044092,  0.000000000000000,  0.833322239943128 ]
    mass: 22.989769
    reduced_to: 91
  - symbol: Na # 103
    coordinates: [  0.111098298377426,  0.333333333333333,  0.833322239943128 ]
    mass: 22.989769
    reduced_to: 91
  - symbol: Na # 104
    coordinates: [  0.444431631710759,  0.333333333333333,  0.833322239943128 ]
    mass: 22.989769
    reduced_to: 91
  - symbol: Na # 105
    coordinates: [  0.777764965044092,  0.333333333333333,  0.833322239943128 ]
    mass: 22.989769
    reduced_to: 91
  - symbol: Na # 106
    coordinates: [  0.111098298377426,  0.666666666666667,  0.833322239943128 ]
    mass: 22.989769
    reduced_to: 91
  - symbol: Na # 107
    coordinates: [  0.444431631710759,  0.666666666666667,  0.833322239943128 ]
    mass: 22.989769
    reduced_to: 91
  - symbol: Na # 108
    coordinates: [  0.777764965044092,  0.666666666666667,  0.833322239943128 ]
    mass: 22.989769
    reduced_to: 91

displacements:
- atom:    1
  displacement:
    [   0.0055737025404958,  0.0082984341324184, -0.0002642554445674 ]
- atom:    1
  displacement:
    [   0.0000000000000000, -0.0019828417865837, -0.0098014457326140 ]
- atom:   19
  displacement:
    [   0.0055737025404958,  0.0082984341324184, -0.0002642554445674 ]
- atom:   19
  displacement:
    [  -0.0055737025404958, -0.0082984341324184,  0.0002642554445674 ]
- atom:   19
  displacement:
    [   0.0000000000000000, -0.0019828417865837, -0.0098014457326140 ]
- atom:   19
  displacement:
    [   0.0000000000000000,  0.0019828417865837,  0.0098014457326140 ]
