  16  16   1   0
  0.2002645E+02  0.7786711E-09  0.6617013E-09  0.6218819E-09  0.1000000E-14
   1000.00000000000     
  CAR 
 unknown system                          
      9.91775785    -14.51812251  301      2.26627281      1.00000000
    -14.518  0.0000E+00  0.0000E+00
    -14.437  0.0000E+00  0.0000E+00
    -14.355  0.0000E+00  0.0000E+00
    -14.274  0.0000E+00  0.0000E+00
    -14.192  0.0000E+00  0.0000E+00
    -14.111  0.0000E+00  0.0000E+00
    -14.029  0.0000E+00  0.0000E+00
    -13.948  0.0000E+00  0.0000E+00
    -13.866  0.0000E+00  0.0000E+00
    -13.785  0.0000E+00  0.0000E+00
    -13.704  0.3147E-15  0.2554E-16
    -13.622  0.1158E-07  0.9475E-09
    -13.541  0.1744E-02  0.1431E-03
    -13.459  0.1687E+01  0.1389E+00
    -13.378  0.1780E+02  0.1603E+01
    -13.296  0.5958E+01  0.2093E+01
    -13.215  0.5440E+01  0.2543E+01
    -13.133  0.4514E+01  0.2918E+01
    -13.052  0.2013E+01  0.3084E+01
    -12.971  0.3151E+01  0.3342E+01
    -12.889  0.3551E+01  0.3631E+01
    -12.808  0.3048E+01  0.3879E+01
    -12.726  0.1439E+01  0.3997E+01
    -12.645  0.3611E-01  0.4000E+01
    -12.563  0.1324E-04  0.4000E+01
    -12.482  0.4189E-10  0.4000E+01
    -12.400  0.0000E+00  0.4000E+01
    -12.319  0.0000E+00  0.4000E+01
    -12.237  0.0000E+00  0.4000E+01
    -12.156  0.0000E+00  0.4000E+01
    -12.075  0.0000E+00  0.4000E+01
    -11.993  0.0000E+00  0.4000E+01
    -11.912  0.0000E+00  0.4000E+01
    -11.830  0.0000E+00  0.4000E+01
    -11.749  0.0000E+00  0.4000E+01
    -11.667  0.0000E+00  0.4000E+01
    -11.586  0.0000E+00  0.4000E+01
    -11.504  0.0000E+00  0.4000E+01
    -11.423  0.0000E+00  0.4000E+01
    -11.341  0.0000E+00  0.4000E+01
    -11.260  0.0000E+00  0.4000E+01
    -11.179  0.0000E+00  0.4000E+01
    -11.097  0.4637E-13  0.4000E+01
    -11.016  0.1778E-06  0.4000E+01
    -10.934  0.4186E-02  0.4000E+01
    -10.853  0.8550E+00  0.4070E+01
    -10.771  0.4735E+01  0.4457E+01
    -10.690  0.4712E+01  0.4842E+01
    -10.608  0.5043E+01  0.5258E+01
    -10.527  0.8658E+01  0.5974E+01
    -10.445  0.1210E+02  0.6974E+01
    -10.364  0.1278E+02  0.8023E+01
    -10.283  0.1158E+02  0.8977E+01
    -10.201  0.1059E+02  0.9846E+01
    -10.120  0.1027E+02  0.1069E+02
    -10.038  0.1327E+02  0.1178E+02
     -9.957  0.9784E+01  0.1258E+02
     -9.875  0.7243E+01  0.1318E+02
     -9.794  0.9452E+01  0.1396E+02
     -9.712  0.8054E+01  0.1462E+02
     -9.631  0.6601E+01  0.1516E+02
     -9.549  0.2798E+01  0.1539E+02
     -9.468  0.2077E+01  0.1556E+02
     -9.387  0.2160E+01  0.1574E+02
     -9.305  0.1376E+01  0.1585E+02
     -9.224  0.1493E+01  0.1598E+02
     -9.142  0.2919E+00  0.1600E+02
     -9.061  0.1355E-02  0.1600E+02
     -8.979  0.5228E-07  0.1600E+02
     -8.898  0.1173E-13  0.1600E+02
     -8.816  0.0000E+00  0.1600E+02
     -8.735  0.0000E+00  0.1600E+02
     -8.654  0.0000E+00  0.1600E+02
     -8.572  0.0000E+00  0.1600E+02
     -8.491  0.0000E+00  0.1600E+02
     -8.409  0.0000E+00  0.1600E+02
     -8.328  0.0000E+00  0.1600E+02
     -8.246  0.0000E+00  0.1600E+02
     -8.165  0.0000E+00  0.1600E+02
     -8.083  0.0000E+00  0.1600E+02
     -8.002  0.0000E+00  0.1600E+02
     -7.920  0.0000E+00  0.1600E+02
     -7.839  0.0000E+00  0.1600E+02
     -7.758  0.0000E+00  0.1600E+02
     -7.676  0.0000E+00  0.1600E+02
     -7.595  0.0000E+00  0.1600E+02
     -7.513  0.0000E+00  0.1600E+02
     -7.432  0.0000E+00  0.1600E+02
     -7.350  0.0000E+00  0.1600E+02
     -7.269  0.0000E+00  0.1600E+02
     -7.187  0.0000E+00  0.1600E+02
     -7.106  0.1041E-12  0.1600E+02
     -7.024  0.2182E-06  0.1600E+02
     -6.943  0.3199E-02  0.1600E+02
     -6.862  0.4761E+00  0.1604E+02
     -6.780  0.2064E+01  0.1621E+02
     -6.699  0.1597E+01  0.1634E+02
     -6.617  0.1978E+01  0.1650E+02
     -6.536  0.3761E+01  0.1681E+02
     -6.454  0.2393E+01  0.1701E+02
     -6.373  0.2767E+01  0.1724E+02
     -6.291  0.4659E+01  0.1762E+02
     -6.210  0.3299E+01  0.1789E+02
     -6.128  0.2528E+01  0.1810E+02
     -6.047  0.4190E+01  0.1844E+02
     -5.966  0.5562E+01  0.1890E+02
     -5.884  0.4006E+01  0.1923E+02
     -5.803  0.2435E+01  0.1943E+02
     -5.721  0.2958E+01  0.1968E+02
     -5.640  0.2890E+01  0.1991E+02
     -5.558  0.1019E+01  0.2000E+02
     -5.477  0.5701E-01  0.2000E+02
     -5.395  0.5719E-04  0.2000E+02
     -5.314  0.4549E-09  0.2000E+02
     -5.232  0.0000E+00  0.2000E+02
     -5.151  0.0000E+00  0.2000E+02
     -5.070  0.0000E+00  0.2000E+02
     -4.988  0.0000E+00  0.2000E+02
     -4.907  0.0000E+00  0.2000E+02
     -4.825  0.0000E+00  0.2000E+02
     -4.744  0.0000E+00  0.2000E+02
     -4.662  0.0000E+00  0.2000E+02
     -4.581  0.0000E+00  0.2000E+02
     -4.499  0.0000E+00  0.2000E+02
     -4.418  0.0000E+00  0.2000E+02
     -4.337  0.0000E+00  0.2000E+02
     -4.255  0.0000E+00  0.2000E+02
     -4.174  0.0000E+00  0.2000E+02
     -4.092  0.0000E+00  0.2000E+02
     -4.011  0.0000E+00  0.2000E+02
     -3.929  0.0000E+00  0.2000E+02
     -3.848  0.0000E+00  0.2000E+02
     -3.766  0.2714E-09  0.2000E+02
     -3.685  0.6270E-04  0.2000E+02
     -3.603  0.1453E+00  0.2001E+02
     -3.522  0.5549E+01  0.2047E+02
     -3.441  0.1079E+02  0.2136E+02
     -3.359  0.7829E+01  0.2201E+02
     -3.278  0.1323E+02  0.2310E+02
     -3.196  0.1363E+02  0.2422E+02
     -3.115  0.1303E+02  0.2529E+02
     -3.033  0.2150E+02  0.2706E+02
     -2.952  0.1456E+02  0.2826E+02
     -2.870  0.7041E+01  0.2884E+02
     -2.789  0.7496E+01  0.2946E+02
     -2.707  0.5070E+01  0.2987E+02
     -2.626  0.4854E+01  0.3027E+02
     -2.545  0.7674E+01  0.3089E+02
     -2.463  0.7993E+01  0.3155E+02
     -2.382  0.3877E+01  0.3186E+02
     -2.300  0.1000E+01  0.3195E+02
     -2.219  0.6185E+00  0.3200E+02
     -2.137  0.4528E-01  0.3200E+02
     -2.056  0.6515E-04  0.3200E+02
     -1.974  0.7730E-09  0.3200E+02
     -1.893  0.5452E-16  0.3200E+02
     -1.811  0.0000E+00  0.3200E+02
     -1.730  0.0000E+00  0.3200E+02
     -1.649  0.0000E+00  0.3200E+02
     -1.567  0.0000E+00  0.3200E+02
     -1.486  0.0000E+00  0.3200E+02
     -1.404  0.0000E+00  0.3200E+02
     -1.323  0.0000E+00  0.3200E+02
     -1.241  0.1271E-09  0.3200E+02
     -1.160  0.3909E-04  0.3200E+02
     -1.078  0.9532E-01  0.3201E+02
     -0.997  0.3448E+01  0.3229E+02
     -0.915  0.8335E+01  0.3297E+02
     -0.834  0.1315E+02  0.3406E+02
     -0.753  0.1515E+02  0.3531E+02
     -0.671  0.1517E+02  0.3656E+02
     -0.590  0.1415E+02  0.3772E+02
     -0.508  0.1815E+02  0.3922E+02
     -0.427  0.7851E+01  0.3987E+02
     -0.345  0.7342E+01  0.4047E+02
     -0.264  0.1401E+02  0.4163E+02
     -0.182  0.1461E+02  0.4283E+02
     -0.101  0.8399E+01  0.4352E+02
     -0.020  0.5944E+01  0.4400E+02
      0.062  0.8502E+01  0.4470E+02
      0.143  0.9882E+01  0.4551E+02
      0.225  0.1617E+02  0.4683E+02
      0.306  0.8113E+01  0.4750E+02
      0.388  0.1217E+02  0.4851E+02
      0.469  0.8490E+01  0.4921E+02
      0.551  0.8606E+01  0.4992E+02
      0.632  0.1357E+02  0.5103E+02
      0.714  0.1886E+02  0.5259E+02
      0.795  0.1310E+02  0.5367E+02
      0.876  0.1069E+02  0.5455E+02
      0.958  0.1602E+02  0.5587E+02
      1.039  0.1353E+02  0.5698E+02
      1.121  0.1315E+02  0.5807E+02
      1.202  0.1108E+02  0.5898E+02
      1.284  0.8666E+01  0.5968E+02
      1.365  0.8810E+01  0.6041E+02
      1.447  0.7439E+01  0.6101E+02
      1.528  0.6981E+01  0.6159E+02
      1.610  0.5160E+01  0.6201E+02
      1.691  0.6770E+01  0.6256E+02
      1.772  0.4298E+01  0.6291E+02
      1.854  0.2903E+01  0.6315E+02
      1.935  0.3359E+01  0.6343E+02
      2.017  0.3724E+01  0.6373E+02
      2.098  0.2395E+01  0.6393E+02
      2.180  0.8860E+00  0.6400E+02
      2.261  0.1533E-01  0.6400E+02
      2.343  0.2801E-05  0.6400E+02
      2.424  0.3209E-11  0.6400E+02
      2.506  0.0000E+00  0.6400E+02
      2.587  0.0000E+00  0.6400E+02
      2.668  0.0000E+00  0.6400E+02
      2.750  0.0000E+00  0.6400E+02
      2.831  0.0000E+00  0.6400E+02
      2.913  0.0000E+00  0.6400E+02
      2.994  0.0000E+00  0.6400E+02
      3.076  0.0000E+00  0.6400E+02
      3.157  0.0000E+00  0.6400E+02
      3.239  0.0000E+00  0.6400E+02
      3.320  0.0000E+00  0.6400E+02
      3.402  0.2056E-15  0.6400E+02
      3.483  0.2855E-08  0.6400E+02
      3.564  0.2445E-03  0.6400E+02
      3.646  0.1744E+00  0.6401E+02
      3.727  0.2259E+01  0.6420E+02
      3.809  0.2622E+01  0.6441E+02
      3.890  0.1864E+01  0.6456E+02
      3.972  0.1364E+01  0.6468E+02
      4.053  0.1094E+01  0.6477E+02
      4.135  0.1054E+01  0.6485E+02
      4.216  0.1455E+01  0.6497E+02
      4.298  0.4980E+01  0.6538E+02
      4.379  0.6102E+01  0.6589E+02
      4.460  0.6239E+01  0.6640E+02
      4.542  0.8016E+01  0.6706E+02
      4.623  0.3528E+01  0.6736E+02
      4.705  0.3332E+01  0.6763E+02
      4.786  0.3235E+01  0.6790E+02
      4.868  0.2232E+01  0.6808E+02
      4.949  0.4863E+01  0.6848E+02
      5.031  0.8266E+01  0.6916E+02
      5.112  0.3660E+01  0.6946E+02
      5.193  0.2276E+01  0.6965E+02
      5.275  0.7783E+01  0.7029E+02
      5.356  0.5055E+01  0.7071E+02
      5.438  0.4382E+01  0.7106E+02
      5.519  0.4560E+01  0.7144E+02
      5.601  0.7325E+01  0.7205E+02
      5.682  0.7011E+01  0.7262E+02
      5.764  0.4608E+01  0.7300E+02
      5.845  0.3337E+01  0.7327E+02
      5.927  0.9549E+01  0.7406E+02
      6.008  0.1173E+02  0.7503E+02
      6.089  0.1082E+02  0.7591E+02
      6.171  0.1040E+02  0.7677E+02
      6.252  0.6977E+01  0.7734E+02
      6.334  0.8054E+01  0.7800E+02
      6.415  0.9824E+01  0.7881E+02
      6.497  0.5092E+01  0.7923E+02
      6.578  0.6187E+01  0.7973E+02
      6.660  0.4762E+01  0.8012E+02
      6.741  0.5716E+01  0.8059E+02
      6.823  0.6886E+01  0.8116E+02
      6.904  0.2729E+01  0.8139E+02
      6.985  0.2349E+01  0.8158E+02
      7.067  0.2762E+01  0.8181E+02
      7.148  0.2534E+01  0.8201E+02
      7.230  0.5731E+01  0.8249E+02
      7.311  0.5080E+01  0.8291E+02
      7.393  0.5987E+01  0.8340E+02
      7.474  0.8238E+01  0.8408E+02
      7.556  0.1036E+02  0.8493E+02
      7.637  0.1324E+02  0.8601E+02
      7.719  0.5741E+01  0.8648E+02
      7.800  0.5906E+01  0.8697E+02
      7.881  0.7416E+01  0.8758E+02
      7.963  0.4740E+01  0.8797E+02
      8.044  0.5174E+01  0.8840E+02
      8.126  0.7324E+01  0.8900E+02
      8.207  0.7511E+01  0.8962E+02
      8.289  0.6681E+01  0.9017E+02
      8.370  0.7859E+01  0.9082E+02
      8.452  0.3896E+01  0.9114E+02
      8.533  0.4673E+01  0.9152E+02
      8.615  0.1195E+02  0.9250E+02
      8.696  0.1253E+02  0.9353E+02
      8.777  0.9867E+01  0.9434E+02
      8.859  0.1850E+02  0.9586E+02
      8.940  0.1698E+01  0.9600E+02
      9.022  0.1746E-02  0.9600E+02
      9.103  0.1158E-07  0.9600E+02
      9.185  0.0000E+00  0.9600E+02
      9.266  0.0000E+00  0.9600E+02
      9.348  0.0000E+00  0.9600E+02
      9.429  0.0000E+00  0.9600E+02
      9.510  0.0000E+00  0.9600E+02
      9.592  0.0000E+00  0.9600E+02
      9.673  0.0000E+00  0.9600E+02
      9.755  0.0000E+00  0.9600E+02
      9.836  0.0000E+00  0.9600E+02
      9.918  0.0000E+00  0.9600E+02
     10.21407373    -14.28557772  301      2.22106244      1.00000000
    -14.286  0.0000E+00  0.0000E+00
    -14.204  0.0000E+00  0.0000E+00
    -14.122  0.0000E+00  0.0000E+00
    -14.041  0.0000E+00  0.0000E+00
    -13.959  0.0000E+00  0.0000E+00
    -13.877  0.0000E+00  0.0000E+00
    -13.796  0.0000E+00  0.0000E+00
    -13.714  0.0000E+00  0.0000E+00
    -13.632  0.0000E+00  0.0000E+00
    -13.551  0.0000E+00  0.0000E+00
    -13.469  0.9531E-15  0.7661E-16
    -13.387  0.1906E-07  0.1540E-08
    -13.306  0.2152E-02  0.1744E-03
    -13.224  0.1774E+01  0.1441E+00
    -13.142  0.1789E+02  0.1596E+01
    -13.061  0.5326E+01  0.2029E+01
    -12.979  0.5701E+01  0.2493E+01
    -12.897  0.8076E+01  0.3149E+01
    -12.816  0.5232E+01  0.3573E+01
    -12.734  0.3687E+01  0.3870E+01
    -12.652  0.5990E+00  0.3918E+01
    -12.571  0.5718E+00  0.3965E+01
    -12.489  0.4123E+00  0.3999E+01
    -12.407  0.1679E-01  0.4000E+01
    -12.326  0.9277E-05  0.4000E+01
    -12.244  0.3710E-10  0.4000E+01
    -12.162  0.0000E+00  0.4000E+01
    -12.081  0.0000E+00  0.4000E+01
    -11.999  0.0000E+00  0.4000E+01
    -11.917  0.0000E+00  0.4000E+01
    -11.836  0.0000E+00  0.4000E+01
    -11.754  0.0000E+00  0.4000E+01
    -11.672  0.0000E+00  0.4000E+01
    -11.591  0.0000E+00  0.4000E+01
    -11.509  0.0000E+00  0.4000E+01
    -11.427  0.0000E+00  0.4000E+01
    -11.346  0.0000E+00  0.4000E+01
    -11.264  0.0000E+00  0.4000E+01
    -11.182  0.0000E+00  0.4000E+01
    -11.101  0.3118E-11  0.4000E+01
    -11.019  0.2124E-05  0.4000E+01
    -10.937  0.1073E-01  0.4001E+01
    -10.856  0.6515E+00  0.4053E+01
    -10.774  0.1708E+01  0.4191E+01
    -10.692  0.2319E+01  0.4378E+01
    -10.611  0.2967E+01  0.4616E+01
    -10.529  0.4296E+01  0.4962E+01
    -10.447  0.4869E+01  0.5355E+01
    -10.366  0.9530E+01  0.6130E+01
    -10.284  0.1002E+02  0.6943E+01
    -10.202  0.1048E+02  0.7794E+01
    -10.121  0.1118E+02  0.8700E+01
    -10.039  0.8405E+01  0.9380E+01
     -9.957  0.8515E+01  0.1007E+02
     -9.876  0.9660E+01  0.1086E+02
     -9.794  0.8371E+01  0.1154E+02
     -9.712  0.5303E+01  0.1197E+02
     -9.631  0.6540E+01  0.1250E+02
     -9.549  0.1066E+02  0.1337E+02
     -9.467  0.9381E+01  0.1413E+02
     -9.386  0.6242E+01  0.1464E+02
     -9.304  0.4771E+01  0.1503E+02
     -9.222  0.4061E+01  0.1535E+02
     -9.141  0.3429E+01  0.1563E+02
     -9.059  0.9028E+00  0.1571E+02
     -8.977  0.7285E+00  0.1577E+02
     -8.896  0.1157E+01  0.1586E+02
     -8.814  0.1480E+01  0.1598E+02
     -8.732  0.2416E+00  0.1600E+02
     -8.651  0.1094E-02  0.1600E+02
     -8.569  0.4887E-07  0.1600E+02
     -8.487  0.1469E-13  0.1600E+02
     -8.406  0.0000E+00  0.1600E+02
     -8.324  0.0000E+00  0.1600E+02
     -8.242  0.0000E+00  0.1600E+02
     -8.161  0.0000E+00  0.1600E+02
     -8.079  0.0000E+00  0.1600E+02
     -7.997  0.0000E+00  0.1600E+02
     -7.916  0.0000E+00  0.1600E+02
     -7.834  0.0000E+00  0.1600E+02
     -7.752  0.0000E+00  0.1600E+02
     -7.671  0.0000E+00  0.1600E+02
     -7.589  0.0000E+00  0.1600E+02
     -7.507  0.0000E+00  0.1600E+02
     -7.426  0.0000E+00  0.1600E+02
     -7.344  0.0000E+00  0.1600E+02
     -7.262  0.0000E+00  0.1600E+02
     -7.181  0.0000E+00  0.1600E+02
     -7.099  0.0000E+00  0.1600E+02
     -7.017  0.0000E+00  0.1600E+02
     -6.936  0.0000E+00  0.1600E+02
     -6.854  0.3255E-11  0.1600E+02
     -6.772  0.2014E-05  0.1600E+02
     -6.691  0.1035E-01  0.1600E+02
     -6.609  0.6978E+00  0.1606E+02
     -6.527  0.2389E+01  0.1625E+02
     -6.446  0.4792E+01  0.1663E+02
     -6.364  0.2854E+01  0.1686E+02
     -6.282  0.1769E+01  0.1701E+02
     -6.201  0.2103E+01  0.1718E+02
     -6.119  0.3196E+01  0.1744E+02
     -6.037  0.4207E+01  0.1779E+02
     -5.956  0.2682E+01  0.1800E+02
     -5.874  0.4130E+01  0.1833E+02
     -5.792  0.3456E+01  0.1861E+02
     -5.711  0.2404E+01  0.1881E+02
     -5.629  0.2302E+01  0.1899E+02
     -5.547  0.2557E+01  0.1920E+02
     -5.466  0.4123E+01  0.1954E+02
     -5.384  0.4189E+01  0.1988E+02
     -5.302  0.1349E+01  0.1999E+02
     -5.221  0.8120E-01  0.2000E+02
     -5.139  0.1007E-03  0.2000E+02
     -5.057  0.9540E-09  0.2000E+02
     -4.976  0.2725E-16  0.2000E+02
     -4.894  0.0000E+00  0.2000E+02
     -4.812  0.0000E+00  0.2000E+02
     -4.731  0.0000E+00  0.2000E+02
     -4.649  0.0000E+00  0.2000E+02
     -4.567  0.0000E+00  0.2000E+02
     -4.486  0.0000E+00  0.2000E+02
     -4.404  0.0000E+00  0.2000E+02
     -4.322  0.0000E+00  0.2000E+02
     -4.241  0.0000E+00  0.2000E+02
     -4.159  0.0000E+00  0.2000E+02
     -4.077  0.0000E+00  0.2000E+02
     -3.996  0.0000E+00  0.2000E+02
     -3.914  0.0000E+00  0.2000E+02
     -3.832  0.0000E+00  0.2000E+02
     -3.751  0.0000E+00  0.2000E+02
     -3.669  0.0000E+00  0.2000E+02
     -3.587  0.0000E+00  0.2000E+02
     -3.506  0.7243E-11  0.2000E+02
     -3.424  0.5208E-05  0.2000E+02
     -3.342  0.2512E-01  0.2000E+02
     -3.261  0.1421E+01  0.2012E+02
     -3.179  0.5280E+01  0.2055E+02
     -3.097  0.1076E+02  0.2141E+02
     -3.016  0.1399E+02  0.2255E+02
     -2.934  0.1477E+02  0.2375E+02
     -2.852  0.1327E+02  0.2483E+02
     -2.771  0.9590E+01  0.2561E+02
     -2.689  0.7745E+01  0.2624E+02
     -2.607  0.1152E+02  0.2717E+02
     -2.526  0.1205E+02  0.2815E+02
     -2.444  0.9371E+01  0.2892E+02
     -2.362  0.6754E+01  0.2946E+02
     -2.281  0.1005E+02  0.3028E+02
     -2.199  0.1152E+02  0.3121E+02
     -2.117  0.5549E+01  0.3166E+02
     -2.036  0.2747E+01  0.3188E+02
     -1.954  0.1264E+01  0.3198E+02
     -1.872  0.1984E+00  0.3200E+02
     -1.791  0.6396E-03  0.3200E+02
     -1.709  0.1658E-07  0.3200E+02
     -1.627  0.2643E-14  0.3200E+02
     -1.546  0.0000E+00  0.3200E+02
     -1.464  0.0000E+00  0.3200E+02
     -1.382  0.0000E+00  0.3200E+02
     -1.301  0.8347E-16  0.3200E+02
     -1.219  0.1101E-08  0.3200E+02
     -1.137  0.1091E-03  0.3200E+02
     -1.056  0.1019E+00  0.3201E+02
     -0.974  0.1874E+01  0.3216E+02
     -0.892  0.3700E+01  0.3246E+02
     -0.811  0.5501E+01  0.3290E+02
     -0.729  0.6035E+01  0.3339E+02
     -0.647  0.5856E+01  0.3387E+02
     -0.566  0.6279E+01  0.3438E+02
     -0.484  0.8881E+01  0.3510E+02
     -0.402  0.1055E+02  0.3595E+02
     -0.321  0.1495E+02  0.3717E+02
     -0.239  0.1142E+02  0.3809E+02
     -0.157  0.1465E+02  0.3928E+02
     -0.076  0.1642E+02  0.4062E+02
      0.006  0.1119E+02  0.4152E+02
      0.088  0.1324E+02  0.4260E+02
      0.169  0.9403E+01  0.4336E+02
      0.251  0.6229E+01  0.4387E+02
      0.333  0.7761E+01  0.4450E+02
      0.414  0.1117E+02  0.4541E+02
      0.496  0.6354E+01  0.4592E+02
      0.578  0.7101E+01  0.4650E+02
      0.659  0.1026E+02  0.4733E+02
      0.741  0.1108E+02  0.4823E+02
      0.823  0.1081E+02  0.4910E+02
      0.904  0.1114E+02  0.5001E+02
      0.986  0.9991E+01  0.5082E+02
      1.068  0.7652E+01  0.5144E+02
      1.149  0.8309E+01  0.5212E+02
      1.231  0.1307E+02  0.5318E+02
      1.313  0.1637E+02  0.5451E+02
      1.394  0.1131E+02  0.5543E+02
      1.476  0.9236E+01  0.5618E+02
      1.558  0.1284E+02  0.5722E+02
      1.639  0.1062E+02  0.5807E+02
      1.721  0.1605E+02  0.5938E+02
      1.803  0.1455E+02  0.6056E+02
      1.884  0.1222E+02  0.6155E+02
      1.966  0.5078E+01  0.6196E+02
      2.048  0.4833E+01  0.6235E+02
      2.129  0.5849E+01  0.6283E+02
      2.211  0.7201E+01  0.6341E+02
      2.293  0.4677E+01  0.6379E+02
      2.374  0.2395E+01  0.6399E+02
      2.456  0.1479E+00  0.6400E+02
      2.538  0.2051E-03  0.6400E+02
      2.619  0.2599E-08  0.6400E+02
      2.701  0.1915E-15  0.6400E+02
      2.783  0.0000E+00  0.6400E+02
      2.864  0.0000E+00  0.6400E+02
      2.946  0.0000E+00  0.6400E+02
      3.028  0.0000E+00  0.6400E+02
      3.109  0.0000E+00  0.6400E+02
      3.191  0.0000E+00  0.6400E+02
      3.273  0.0000E+00  0.6400E+02
      3.354  0.0000E+00  0.6400E+02
      3.436  0.0000E+00  0.6400E+02
      3.518  0.0000E+00  0.6400E+02
      3.599  0.0000E+00  0.6400E+02
      3.681  0.5361E-12  0.6400E+02
      3.762  0.8625E-06  0.6400E+02
      3.844  0.1024E-01  0.6400E+02
      3.926  0.1295E+01  0.6410E+02
      4.007  0.5114E+01  0.6452E+02
      4.089  0.3197E+01  0.6477E+02
      4.171  0.1727E+01  0.6491E+02
      4.252  0.1523E+01  0.6504E+02
      4.334  0.3318E+01  0.6531E+02
      4.416  0.7376E+01  0.6591E+02
      4.497  0.2519E+01  0.6611E+02
      4.579  0.1517E+01  0.6623E+02
      4.661  0.1395E+01  0.6634E+02
      4.742  0.1378E+01  0.6646E+02
      4.824  0.1513E+01  0.6658E+02
      4.906  0.2148E+01  0.6675E+02
      4.987  0.3520E+01  0.6704E+02
      5.069  0.5063E+01  0.6745E+02
      5.151  0.5345E+01  0.6788E+02
      5.232  0.5216E+01  0.6830E+02
      5.314  0.7213E+01  0.6889E+02
      5.396  0.6435E+01  0.6941E+02
      5.477  0.3994E+01  0.6974E+02
      5.559  0.4638E+01  0.7011E+02
      5.641  0.4988E+01  0.7052E+02
      5.722  0.6692E+01  0.7106E+02
      5.804  0.6543E+01  0.7160E+02
      5.886  0.6150E+01  0.7210E+02
      5.967  0.6098E+01  0.7259E+02
      6.049  0.7115E+01  0.7317E+02
      6.131  0.8218E+01  0.7384E+02
      6.212  0.6589E+01  0.7437E+02
      6.294  0.7521E+01  0.7498E+02
      6.376  0.1097E+02  0.7588E+02
      6.457  0.7514E+01  0.7648E+02
      6.539  0.5835E+01  0.7696E+02
      6.621  0.7967E+01  0.7760E+02
      6.702  0.5150E+01  0.7802E+02
      6.784  0.7398E+01  0.7862E+02
      6.866  0.8035E+01  0.7927E+02
      6.947  0.4644E+01  0.7965E+02
      7.029  0.3698E+01  0.7995E+02
      7.111  0.5327E+01  0.8039E+02
      7.192  0.4587E+01  0.8076E+02
      7.274  0.3633E+01  0.8105E+02
      7.356  0.4706E+01  0.8143E+02
      7.437  0.5080E+01  0.8184E+02
      7.519  0.5711E+01  0.8231E+02
      7.601  0.1063E+02  0.8317E+02
      7.682  0.7318E+01  0.8377E+02
      7.764  0.3497E+01  0.8405E+02
      7.846  0.5689E+01  0.8451E+02
      7.927  0.8560E+01  0.8520E+02
      8.009  0.3395E+01  0.8548E+02
      8.091  0.3282E+01  0.8575E+02
      8.172  0.2911E+01  0.8598E+02
      8.254  0.2853E+01  0.8622E+02
      8.336  0.7917E+01  0.8686E+02
      8.417  0.7930E+01  0.8751E+02
      8.499  0.1368E+02  0.8862E+02
      8.581  0.1094E+02  0.8951E+02
      8.662  0.9867E+01  0.9030E+02
      8.744  0.1152E+02  0.9124E+02
      8.826  0.1422E+02  0.9240E+02
      8.907  0.8468E+01  0.9308E+02
      8.989  0.5761E+01  0.9355E+02
      9.071  0.1004E+02  0.9436E+02
      9.152  0.1844E+02  0.9586E+02
      9.234  0.1776E+01  0.9600E+02
      9.316  0.2153E-02  0.9600E+02
      9.397  0.1906E-07  0.9600E+02
      9.479  0.3888E-15  0.9600E+02
      9.561  0.0000E+00  0.9600E+02
      9.642  0.0000E+00  0.9600E+02
      9.724  0.0000E+00  0.9600E+02
      9.806  0.0000E+00  0.9600E+02
      9.887  0.0000E+00  0.9600E+02
      9.969  0.0000E+00  0.9600E+02
     10.051  0.0000E+00  0.9600E+02
     10.132  0.0000E+00  0.9600E+02
     10.214  0.0000E+00  0.9600E+02
     10.32891415    -14.34205484  301      1.86882770      1.00000000
    -14.342  0.0000E+00  0.0000E+00
    -14.260  0.0000E+00  0.0000E+00
    -14.178  0.0000E+00  0.0000E+00
    -14.095  0.0000E+00  0.0000E+00
    -14.013  0.0000E+00  0.0000E+00
    -13.931  0.0000E+00  0.0000E+00
    -13.849  0.0000E+00  0.0000E+00
    -13.766  0.0000E+00  0.0000E+00
    -13.684  0.0000E+00  0.0000E+00
    -13.602  0.0000E+00  0.0000E+00
    -13.520  0.3568E-15  0.2887E-16
    -13.437  0.1432E-07  0.1167E-08
    -13.355  0.1931E-02  0.1576E-03
    -13.273  0.1732E+01  0.1416E+00
    -13.191  0.1785E+02  0.1599E+01
    -13.109  0.5874E+01  0.2079E+01
    -13.026  0.1156E+02  0.3022E+01
    -12.944  0.1080E+02  0.3904E+01
    -12.862  0.1157E+01  0.3999E+01
    -12.780  0.6368E-02  0.4000E+01
    -12.697  0.3997E-06  0.4000E+01
    -12.615  0.1520E-12  0.4000E+01
    -12.533  0.0000E+00  0.4000E+01
    -12.451  0.0000E+00  0.4000E+01
    -12.368  0.0000E+00  0.4000E+01
    -12.286  0.0000E+00  0.4000E+01
    -12.204  0.0000E+00  0.4000E+01
    -12.122  0.0000E+00  0.4000E+01
    -12.039  0.0000E+00  0.4000E+01
    -11.957  0.0000E+00  0.4000E+01
    -11.875  0.0000E+00  0.4000E+01
    -11.793  0.0000E+00  0.4000E+01
    -11.710  0.0000E+00  0.4000E+01
    -11.628  0.0000E+00  0.4000E+01
    -11.546  0.0000E+00  0.4000E+01
    -11.464  0.0000E+00  0.4000E+01
    -11.382  0.0000E+00  0.4000E+01
    -11.299  0.0000E+00  0.4000E+01
    -11.217  0.0000E+00  0.4000E+01
    -11.135  0.0000E+00  0.4000E+01
    -11.053  0.0000E+00  0.4000E+01
    -10.970  0.1614E-10  0.4000E+01
    -10.888  0.7938E-05  0.4000E+01
    -10.806  0.2974E-01  0.4002E+01
    -10.724  0.1407E+01  0.4116E+01
    -10.641  0.3784E+01  0.4422E+01
    -10.559  0.7307E+01  0.5019E+01
    -10.477  0.5517E+01  0.5470E+01
    -10.395  0.7162E+01  0.6054E+01
    -10.312  0.7313E+01  0.6651E+01
    -10.230  0.1098E+02  0.7548E+01
    -10.148  0.1641E+02  0.8889E+01
    -10.066  0.1232E+02  0.9894E+01
     -9.984  0.1309E+02  0.1096E+02
     -9.901  0.1008E+02  0.1178E+02
     -9.819  0.1457E+02  0.1297E+02
     -9.737  0.9270E+01  0.1373E+02
     -9.655  0.6490E+01  0.1426E+02
     -9.572  0.1008E+02  0.1509E+02
     -9.490  0.8872E+01  0.1581E+02
     -9.408  0.2205E+01  0.1600E+02
     -9.326  0.6054E-01  0.1600E+02
     -9.243  0.2859E-04  0.1600E+02
     -9.161  0.9133E-10  0.1600E+02
     -9.079  0.0000E+00  0.1600E+02
     -8.997  0.0000E+00  0.1600E+02
     -8.914  0.0000E+00  0.1600E+02
     -8.832  0.0000E+00  0.1600E+02
     -8.750  0.0000E+00  0.1600E+02
     -8.668  0.0000E+00  0.1600E+02
     -8.585  0.0000E+00  0.1600E+02
     -8.503  0.0000E+00  0.1600E+02
     -8.421  0.0000E+00  0.1600E+02
     -8.339  0.0000E+00  0.1600E+02
     -8.257  0.0000E+00  0.1600E+02
     -8.174  0.0000E+00  0.1600E+02
     -8.092  0.0000E+00  0.1600E+02
     -8.010  0.0000E+00  0.1600E+02
     -7.928  0.0000E+00  0.1600E+02
     -7.845  0.0000E+00  0.1600E+02
     -7.763  0.0000E+00  0.1600E+02
     -7.681  0.0000E+00  0.1600E+02
     -7.599  0.0000E+00  0.1600E+02
     -7.516  0.0000E+00  0.1600E+02
     -7.434  0.0000E+00  0.1600E+02
     -7.352  0.0000E+00  0.1600E+02
     -7.270  0.0000E+00  0.1600E+02
     -7.187  0.0000E+00  0.1600E+02
     -7.105  0.0000E+00  0.1600E+02
     -7.023  0.0000E+00  0.1600E+02
     -6.941  0.0000E+00  0.1600E+02
     -6.859  0.2533E-12  0.1600E+02
     -6.776  0.4305E-06  0.1600E+02
     -6.694  0.5268E-02  0.1600E+02
     -6.612  0.6840E+00  0.1606E+02
     -6.530  0.2759E+01  0.1628E+02
     -6.447  0.2064E+01  0.1645E+02
     -6.365  0.2584E+01  0.1666E+02
     -6.283  0.6064E+01  0.1715E+02
     -6.201  0.4202E+01  0.1750E+02
     -6.118  0.2613E+01  0.1771E+02
     -6.036  0.2698E+01  0.1793E+02
     -5.954  0.8637E+00  0.1800E+02
     -5.872  0.1697E+01  0.1814E+02
     -5.789  0.3103E+01  0.1839E+02
     -5.707  0.4827E+01  0.1879E+02
     -5.625  0.7483E+01  0.1940E+02
     -5.543  0.4128E+01  0.1974E+02
     -5.461  0.2887E+01  0.1997E+02
     -5.378  0.3169E+00  0.2000E+02
     -5.296  0.7243E-03  0.2000E+02
     -5.214  0.1272E-07  0.2000E+02
     -5.132  0.1240E-14  0.2000E+02
     -5.049  0.0000E+00  0.2000E+02
     -4.967  0.0000E+00  0.2000E+02
     -4.885  0.0000E+00  0.2000E+02
     -4.803  0.0000E+00  0.2000E+02
     -4.720  0.0000E+00  0.2000E+02
     -4.638  0.0000E+00  0.2000E+02
     -4.556  0.0000E+00  0.2000E+02
     -4.474  0.0000E+00  0.2000E+02
     -4.391  0.0000E+00  0.2000E+02
     -4.309  0.0000E+00  0.2000E+02
     -4.227  0.0000E+00  0.2000E+02
     -4.145  0.0000E+00  0.2000E+02
     -4.062  0.0000E+00  0.2000E+02
     -3.980  0.0000E+00  0.2000E+02
     -3.898  0.0000E+00  0.2000E+02
     -3.816  0.0000E+00  0.2000E+02
     -3.734  0.0000E+00  0.2000E+02
     -3.651  0.0000E+00  0.2000E+02
     -3.569  0.9003E-13  0.2000E+02
     -3.487  0.2836E-06  0.2000E+02
     -3.405  0.5173E-02  0.2000E+02
     -3.322  0.8504E+00  0.2007E+02
     -3.240  0.5482E+01  0.2052E+02
     -3.158  0.6818E+01  0.2107E+02
     -3.076  0.1139E+02  0.2200E+02
     -2.993  0.1906E+02  0.2356E+02
     -2.911  0.1344E+02  0.2466E+02
     -2.829  0.1030E+02  0.2550E+02
     -2.747  0.1159E+02  0.2644E+02
     -2.664  0.1454E+02  0.2763E+02
     -2.582  0.1790E+02  0.2909E+02
     -2.500  0.1355E+02  0.3020E+02
     -2.418  0.1074E+02  0.3108E+02
     -2.336  0.8783E+01  0.3180E+02
     -2.253  0.2230E+01  0.3198E+02
     -2.171  0.2588E+00  0.3200E+02
     -2.089  0.1284E-02  0.3200E+02
     -2.007  0.6954E-07  0.3200E+02
     -1.924  0.2556E-13  0.3200E+02
     -1.842  0.0000E+00  0.3200E+02
     -1.760  0.0000E+00  0.3200E+02
     -1.678  0.0000E+00  0.3200E+02
     -1.595  0.0000E+00  0.3200E+02
     -1.513  0.0000E+00  0.3200E+02
     -1.431  0.0000E+00  0.3200E+02
     -1.349  0.0000E+00  0.3200E+02
     -1.266  0.0000E+00  0.3200E+02
     -1.184  0.0000E+00  0.3200E+02
     -1.102  0.9772E-15  0.3200E+02
     -1.020  0.8662E-08  0.3200E+02
     -0.937  0.5153E-03  0.3200E+02
     -0.855  0.2728E+00  0.3202E+02
     -0.773  0.3840E+01  0.3233E+02
     -0.691  0.9511E+01  0.3311E+02
     -0.609  0.1368E+02  0.3423E+02
     -0.526  0.1671E+02  0.3559E+02
     -0.444  0.9160E+01  0.3634E+02
     -0.362  0.9584E+01  0.3712E+02
     -0.280  0.1032E+02  0.3796E+02
     -0.197  0.8654E+01  0.3867E+02
     -0.115  0.1241E+02  0.3969E+02
     -0.033  0.1409E+02  0.4084E+02
      0.049  0.1107E+02  0.4174E+02
      0.132  0.1233E+02  0.4275E+02
      0.214  0.1173E+02  0.4371E+02
      0.296  0.8369E+01  0.4439E+02
      0.378  0.1200E+02  0.4537E+02
      0.461  0.1208E+02  0.4635E+02
      0.543  0.6759E+01  0.4691E+02
      0.625  0.4774E+01  0.4730E+02
      0.707  0.8226E+01  0.4797E+02
      0.789  0.1359E+02  0.4907E+02
      0.872  0.1664E+02  0.5044E+02
      0.954  0.1140E+02  0.5137E+02
      1.036  0.8430E+01  0.5206E+02
      1.118  0.1247E+02  0.5308E+02
      1.201  0.1585E+02  0.5437E+02
      1.283  0.1805E+02  0.5585E+02
      1.365  0.1915E+02  0.5741E+02
      1.447  0.1320E+02  0.5849E+02
      1.530  0.1282E+02  0.5954E+02
      1.612  0.1118E+02  0.6045E+02
      1.694  0.1698E+02  0.6184E+02
      1.776  0.6243E+01  0.6235E+02
      1.859  0.5545E+01  0.6280E+02
      1.941  0.5250E+01  0.6323E+02
      2.023  0.6254E+01  0.6374E+02
      2.105  0.3109E+01  0.6399E+02
      2.187  0.9944E-01  0.6400E+02
      2.270  0.4688E-04  0.6400E+02
      2.352  0.1548E-09  0.6400E+02
      2.434  0.0000E+00  0.6400E+02
      2.516  0.0000E+00  0.6400E+02
      2.599  0.0000E+00  0.6400E+02
      2.681  0.0000E+00  0.6400E+02
      2.763  0.0000E+00  0.6400E+02
      2.845  0.0000E+00  0.6400E+02
      2.928  0.0000E+00  0.6400E+02
      3.010  0.0000E+00  0.6400E+02
      3.092  0.0000E+00  0.6400E+02
      3.174  0.0000E+00  0.6400E+02
      3.257  0.0000E+00  0.6400E+02
      3.339  0.0000E+00  0.6400E+02
      3.421  0.0000E+00  0.6400E+02
      3.503  0.0000E+00  0.6400E+02
      3.586  0.0000E+00  0.6400E+02
      3.668  0.0000E+00  0.6400E+02