PROCAR lm decomposed
# of k-points:    1         # of bands:   48         # of ions:   16

 k-point     1 :    0.00000000 0.00000000 0.00000000     weight = 1.00000000

band     1 # energy  -12.86325019 # occ.  2.00000000
 
ion      s     py     pz     px    dxy    dyz    dz2    dxz  x2-y2    tot
    1  0.000  0.000  0.000  0.000  0.000  0.000  0.000  0.000  0.000  0.000
    2  0.001  0.000  0.000  0.000  0.000  0.000  0.000  0.000  0.000  0.001
    3  0.002  0.000  0.000  0.000  0.000  0.000  0.000  0.000  0.000  0.003
    4  0.000  0.000  0.000  0.000  0.000  0.000  0.000  0.000  0.000  0.000
    5  0.000  0.000  0.000  0.000  0.000  0.000  0.000  0.000  0.000  0.000
    6  0.001  0.000  0.000  0.000  0.000  0.000  0.000  0.000  0.000  0.002
    7  0.177  0.000  0.002  0.002  0.000  0.000  0.000  0.000  0.000  0.181
    8  0.068  0.000  0.000  0.000  0.000  0.000  0.000  0.000  0.000  0.068
    9  0.067  0.005  0.002  0.000  0.000  0.000  0.000  0.000  0.000  0.075
   10  0.027  0.000  0.002  0.000  0.000  0.000  0.000  0.000  0.000  0.030
   11  0.123  0.001  0.001  0.011  0.000  0.000  0.000  0.000  0.000  0.137
   12  0.018  0.000  0.000  0.002  0.000  0.000  0.000  0.000  0.000  0.020
   13  0.024  0.000  0.002  0.000  0.000  0.000  0.000  0.000  0.000  0.027
   14  0.026  0.002  0.000  0.000  0.000  0.000  0.000  0.000  0.000  0.029
   15  0.022  0.001  0.000  0.002  0.000  0.000  0.000  0.000  0.000  0.024
   16  0.037  0.002  0.000  0.002  0.000  0.000  0.000  0.000  0.000  0.042
tot    0.595  0.011  0.011  0.019  0.000  0.000  0.000  0.000  0.000  0.637
 
band     2 # energy  -12.68484418 # occ.  2.00000000
 
ion      s     py     pz     px    dxy    dyz    dz2    dxz  x2-y2    tot
    1  0.000  0.000  0.000  0.000  0.000  0.000  0.000  0.000  0.000  0.000
    2  0.000  0.000  0.000  0.000  0.000  0.000  0.000  0.000  0.000  0.001
    3  0.000  0.000  0.000  0.000  0.000  0.000  0.000  0.000  0.000  0.001
    4  0.000  0.000  0.000  0.000  0.000  0.000  0.000  0.000  0.000  0.000
    5  0.000  0.000  0.000  0.000  0.000  0.000  0.000  0.000  0.000  0.000
    6  0.000  0.000  0.000  0.000  0.000  0.000  0.000  0.000  0.000  0.001
    7  0.070  0.000  0.001  0.001  0.000  0.000  0.000  0.000  0.000  0.072
    8  0.202  0.000  0.000  0.000  0.000  0.000  0.000  0.000  0.000  0.202
    9  0.025  0.002  0.001  0.000  0.000  0.000  0.000  0.000  0.000  0.028
   10  0.009  0.000  0.001  0.000  0.000  0.000  0.000  0.000  0.000  0.010
   11  0.044  0.000  0.001  0.005  0.000  0.000  0.000  0.000  0.000  0.050
   12  0.045  0.000  0.000  0.006  0.000  0.000  0.000  0.000  0.000  0.052
   13  0.060  0.001  0.007  0.000  0.000  0.000  0.000  0.000  0.000  0.068
   14  0.075  0.007  0.000  0.000  0.000  0.000  0.000  0.000  0.000  0.083
   15  0.058  0.002  0.001  0.005  0.000  0.000  0.000  0.000  0.000  0.067
   16  0.009  0.001  0.000  0.001  0.000  0.000  0.000  0.000  0.000  0.012
tot    0.599  0.015  0.013  0.020  0.000  0.000  0.000  0.000  0.000  0.647
 
band     3 # energy  -10.24677437 # occ.  2.00000000
 
ion      s     py     pz     px    dxy    dyz    dz2    dxz  x2-y2    tot
    1  0.000  0.000  0.000  0.000  0.000  0.000  0.000  0.000  0.000  0.000
    2  0.000  0.000  0.000  0.000  0.000  0.000  0.000  0.000  0.000  0.000
    3  0.001  0.000  0.001  0.001  0.000  0.000  0.000  0.000  0.000  0.002
    4  0.000  0.001  0.000  0.000  0.000  0.000  0.000  0.000  0.000  0.001
    5  0.000  0.000  0.001  0.001  0.000  0.000  0.000  0.000  0.000  0.002
    6  0.000  0.000  0.000  0.000  0.000  0.000  0.000  0.000  0.000  0.001
    7  0.005  0.001  0.004  0.026  0.000  0.000  0.000  0.000  0.000  0.037
    8  0.000  0.013  0.002  0.003  0.000  0.000  0.000  0.000  0.000  0.018
    9  0.000  0.000  0.000  0.001  0.000  0.000  0.000  0.000  0.000  0.001
   10  0.035  0.000  0.001  0.000  0.000  0.000  0.000  0.000  0.000  0.036
   11  0.159  0.000  0.000  0.002  0.000  0.000  0.000  0.000  0.000  0.162
   12  0.003  0.000  0.000  0.000  0.000  0.000  0.000  0.000  0.000  0.003
   13  0.039  0.000  0.001  0.000  0.000  0.000  0.000  0.000  0.000  0.040
   14  0.139  0.001  0.000  0.000  0.000  0.000  0.000  0.000  0.000  0.140
   15  0.051  0.000  0.000  0.001  0.000  0.000  0.000  0.000  0.000  0.051
   16  0.181  0.002  0.000  0.001  0.000  0.000  0.000  0.000  0.000  0.184
tot    0.613  0.020  0.009  0.036  0.000  0.000  0.000  0.000  0.000  0.678
 
band     4 # energy  -10.11001384 # occ.  2.00000000
 
ion      s     py     pz     px    dxy    dyz    dz2    dxz  x2-y2    tot
    1  0.000  0.000  0.000  0.000  0.000  0.000  0.000  0.000  0.000  0.000
    2  0.001  0.000  0.000  0.000  0.000  0.000  0.000  0.000  0.000  0.001
    3  0.000  0.000  0.001  0.000  0.000  0.000  0.000  0.000  0.000  0.002
    4  0.000  0.000  0.000  0.000  0.000  0.000  0.000  0.000  0.000  0.001
    5  0.001  0.000  0.000  0.000  0.000  0.000  0.000  0.000  0.000  0.001
    6  0.000  0.000  0.000  0.000  0.000  0.000  0.000  0.000  0.000  0.001
    7  0.004  0.000  0.005  0.013  0.000  0.000  0.000  0.000  0.000  0.022
    8  0.001  0.019  0.012  0.000  0.000  0.000  0.000  0.000  0.000  0.031
    9  0.003  0.000  0.000  0.000  0.000  0.000  0.000  0.000  0.000  0.003
   10  0.074  0.000  0.001  0.000  0.000  0.000  0.000  0.000  0.000  0.075
   11  0.113  0.000  0.000  0.001  0.000  0.000  0.000  0.000  0.000  0.114
   12  0.002  0.000  0.000  0.000  0.000  0.000  0.000  0.000  0.000  0.003
   13  0.153  0.000  0.003  0.000  0.000  0.000  0.000  0.000  0.000  0.156
   14  0.239  0.002  0.000  0.000  0.000  0.000  0.000  0.000  0.000  0.241
   15  0.002  0.000  0.000  0.000  0.000  0.000  0.000  0.000  0.000  0.003
   16  0.028  0.001  0.000  0.001  0.000  0.000  0.000  0.000  0.000  0.031
tot    0.621  0.024  0.024  0.017  0.000  0.000  0.000  0.000  0.000  0.686
 
band     5 # energy   -9.83958744 # occ.  2.00000000
 
ion      s     py     pz     px    dxy    dyz    dz2    dxz  x2-y2    tot
    1  0.000  0.000  0.000  0.000  0.000  0.000  0.000  0.000  0.000  0.001
    2  0.001  0.000  0.000  0.000  0.000  0.000  0.000  0.000  0.000  0.001
    3  0.001  0.001  0.000  0.001  0.000  0.000  0.000  0.000  0.000  0.003
    4  0.000  0.000  0.000  0.000  0.000  0.000  0.000  0.000  0.000  0.000
    5  0.000  0.000  0.000  0.000  0.000  0.000  0.000  0.000  0.000  0.000
    6  0.000  0.002  0.001  0.000  0.000  0.000  0.000  0.000  0.000  0.002
    7  0.000  0.017  0.000  0.001  0.000  0.000  0.000  0.000  0.000  0.019
    8  0.000  0.001  0.001  0.020  0.000  0.000  0.000  0.000  0.000  0.021
    9  0.200  0.001  0.000  0.000  0.000  0.000  0.000  0.000  0.000  0.201
   10  0.021  0.000  0.000  0.000  0.000  0.000  0.000  0.000  0.000  0.022
   11  0.071  0.000  0.000  0.001  0.000  0.000  0.000  0.000  0.000  0.072
   12  0.170  0.000  0.001  0.002  0.000  0.000  0.000  0.000  0.000  0.173
   13  0.002  0.000  0.000  0.000  0.000  0.000  0.000  0.000  0.000  0.003
   14  0.027  0.000  0.000  0.000  0.000  0.000  0.000  0.000  0.000  0.027
   15  0.071  0.000  0.000  0.001  0.000  0.000  0.000  0.000  0.000  0.072
   16  0.062  0.000  0.000  0.001  0.000  0.000  0.000  0.000  0.000  0.063
tot    0.627  0.023  0.004  0.028  0.000  0.000  0.000  0.000  0.000  0.682
 
band     6 # energy   -9.67892168 # occ.  2.00000000
 
ion      s     py     pz     px    dxy    dyz    dz2    dxz  x2-y2    tot
    1  0.000  0.000  0.000  0.000  0.000  0.000  0.000  0.000  0.000  0.001
    2  0.000  0.000  0.000  0.001  0.000  0.000  0.000  0.000  0.000  0.001
    3  0.000  0.000  0.001  0.000  0.000  0.000  0.000  0.000  0.000  0.001
    4  0.000  0.000  0.000  0.000  0.000  0.000  0.000  0.000  0.000  0.001
    5  0.000  0.000  0.000  0.000  0.000  0.000  0.000  0.000  0.000  0.000
    6  0.000  0.000  0.000  0.000  0.000  0.000  0.000  0.000  0.000  0.001
    7  0.002  0.012  0.003  0.001  0.000  0.000  0.000  0.000  0.000  0.017
    8  0.001  0.004  0.010  0.023  0.000  0.000  0.000  0.000  0.000  0.038
    9  0.154  0.001  0.001  0.000  0.000  0.000  0.000  0.000  0.000  0.155
   10  0.012  0.000  0.001  0.000  0.000  0.000  0.000  0.000  0.000  0.013
   11  0.004  0.001  0.000  0.000  0.000  0.000  0.000  0.000  0.000  0.004
   12  0.052  0.000  0.000  0.001  0.000  0.000  0.000  0.000  0.000  0.053
   13  0.061  0.000  0.000  0.000  0.000  0.000  0.000  0.000  0.000  0.062
   14  0.008  0.000  0.000  0.000  0.000  0.000  0.000  0.000  0.000  0.008
   15  0.265  0.002  0.001  0.005  0.000  0.000  0.000  0.000  0.000  0.273
   16  0.063  0.001  0.000  0.001  0.000  0.000  0.000  0.000  0.000  0.065
tot    0.622  0.022  0.017  0.034  0.000  0.000  0.000  0.000  0.000  0.694
 
band     7 # energy   -9.53359042 # occ.  2.00000000
 
ion      s     py     pz     px    dxy    dyz    dz2    dxz  x2-y2    tot
    1  0.000  0.000  0.000  0.000  0.000  0.000  0.000  0.000  0.000  0.000
    2  0.001  0.000  0.001  0.000  0.000  0.000  0.000  0.000  0.000  0.001
    3  0.000  0.000  0.001  0.000  0.000  0.000  0.000  0.000  0.000  0.001
    4  0.000  0.000  0.000  0.000  0.000  0.000  0.000  0.000  0.000  0.000
    5  0.000  0.000  0.000  0.000  0.000  0.000  0.000  0.000  0.000  0.000
    6  0.000  0.000  0.000  0.000  0.000  0.000  0.000  0.000  0.000  0.001
    7  0.001  0.002  0.006  0.003  0.000  0.000  0.000  0.000  0.000  0.013
    8  0.001  0.008  0.017  0.002  0.000  0.000  0.000  0.000  0.000  0.027
    9  0.110  0.001  0.001  0.000  0.000  0.000  0.000  0.000  0.000  0.112
   10  0.075  0.000  0.001  0.000  0.000  0.000  0.000  0.000  0.000  0.076
   11  0.023  0.000  0.000  0.000  0.000  0.000  0.000  0.000  0.000  0.023
   12  0.162  0.000  0.000  0.002  0.000  0.000  0.000  0.000  0.000  0.164
   13  0.148  0.001  0.001  0.000  0.000  0.000  0.000  0.000  0.000  0.150
   14  0.057  0.000  0.000  0.000  0.000  0.000  0.000  0.000  0.000  0.057
   15  0.056  0.000  0.000  0.001  0.000  0.000  0.000  0.000  0.000  0.057
   16  0.010  0.000  0.000  0.000  0.000  0.000  0.000  0.000  0.000  0.010
tot    0.642  0.012  0.029  0.010  0.000  0.000  0.000  0.000  0.000  0.693
 
band     8 # energy   -9.40515213 # occ.  2.00000000
 
ion      s     py     pz     px    dxy    dyz    dz2    dxz  x2-y2    tot
    1  0.000  0.000  0.000  0.000  0.000  0.000  0.000  0.000  0.000  0.000
    2  0.000  0.000  0.000  0.000  0.000  0.000  0.000  0.000  0.000  0.001
    3  0.001  0.001  0.001  0.001  0.000  0.000  0.000  0.000  0.000  0.004
    4  0.000  0.000  0.000  0.000  0.000  0.000  0.000  0.000  0.000  0.000
    5  0.000  0.000  0.001  0.000  0.000  0.000  0.000  0.000  0.000  0.001
    6  0.001  0.000  0.000  0.000  0.000  0.000  0.000  0.000  0.000  0.001
    7  0.000  0.003  0.019  0.004  0.000  0.000  0.000  0.000  0.000  0.027
    8  0.000  0.000  0.007  0.006  0.000  0.000  0.000  0.000  0.000  0.012
    9  0.013  0.000  0.000  0.000  0.000  0.000  0.000  0.000  0.000  0.013
   10  0.316  0.000  0.003  0.000  0.000  0.000  0.000  0.000  0.000  0.318
   11  0.000  0.000  0.000  0.000  0.000  0.000  0.000  0.000  0.000  0.001
   12  0.099  0.000  0.000  0.001  0.000  0.000  0.000  0.000  0.000  0.100
   13  0.069  0.000  0.001  0.000  0.000  0.000  0.000  0.000  0.000  0.071
   14  0.000  0.000  0.000  0.000  0.000  0.000  0.000  0.000  0.000  0.001
   15  0.000  0.000  0.000  0.000  0.000  0.000  0.000  0.000  0.000  0.000
   16  0.144  0.001  0.000  0.002  0.000  0.000  0.000  0.000  0.000  0.147
tot    0.643  0.006  0.032  0.014  0.000  0.000  0.000  0.000  0.000  0.695
 
band     9 # energy   -6.34307621 # occ.  2.00000000
 
ion      s     py     pz     px    dxy    dyz    dz2    dxz  x2-y2    tot
    1  0.000  0.000  0.000  0.000  0.000  0.000  0.000  0.000  0.000  0.001
    2  0.001  0.000  0.000  0.000  0.000  0.000  0.000  0.000  0.000  0.001
    3  0.006  0.000  0.000  0.001  0.000  0.000  0.000  0.000  0.000  0.007
    4  0.002  0.000  0.000  0.000  0.000  0.000  0.000  0.000  0.000  0.002
    5  0.001  0.000  0.000  0.000  0.000  0.000  0.000  0.000  0.000  0.002
    6  0.001  0.000  0.000  0.000  0.000  0.000  0.000  0.000  0.000  0.002
    7  0.154  0.000  0.000  0.000  0.000  0.000  0.000  0.000  0.000  0.154
    8  0.077  0.000  0.000  0.000  0.000  0.000  0.000  0.000  0.000  0.077
    9  0.036  0.010  0.008  0.000  0.000  0.000  0.000  0.000  0.000  0.054
   10  0.042  0.001  0.017  0.000  0.000  0.000  0.000  0.000  0.000  0.060
   11  0.058  0.000  0.005  0.017  0.000  0.000  0.000  0.000  0.000  0.081
   12  0.022  0.000  0.000  0.007  0.000  0.000  0.000  0.000  0.000  0.030
   13  0.015  0.002  0.011  0.000  0.000  0.000  0.000  0.000  0.000  0.029
   14  0.021  0.013  0.001  0.000  0.000  0.000  0.000  0.000  0.000  0.034
   15  0.026  0.003  0.003  0.005  0.000  0.000  0.000  0.000  0.000  0.037
   16  0.049  0.008  0.000  0.010  0.000  0.000  0.000  0.000  0.000  0.067
tot    0.512  0.038  0.046  0.041  0.000  0.000  0.000  0.000  0.000  0.636
 
band    10 # energy   -5.55207933 # occ.  2.00000000
 
ion      s     py     pz     px    dxy    dyz    dz2    dxz  x2-y2    tot
    1  0.000  0.000  0.000  0.000  0.000  0.000  0.000  0.000  0.000  0.001
    2  0.001  0.000  0.000  0.001  0.000  0.000  0.000  0.000  0.000  0.002
    3  0.002  0.000  0.000  0.001  0.000  0.000  0.000  0.000  0.000  0.004
    4  0.002  0.000  0.001  0.000  0.000  0.000  0.000  0.000  0.000  0.002
    5  0.000  0.000  0.001  0.001  0.000  0.000  0.000  0.000  0.000  0.002
    6  0.000  0.000  0.000  0.000  0.000  0.000  0.000  0.000  0.000  0.000
    7  0.074  0.001  0.000  0.000  0.000  0.000  0.000  0.000  0.000  0.076
    8  0.135  0.002  0.000  0.000  0.000  0.000  0.000  0.000  0.000  0.136
    9  0.016  0.004  0.006  0.000  0.000  0.000  0.000  0.000  0.000  0.026
   10  0.033  0.000  0.013  0.000  0.000  0.000  0.000  0.000  0.000  0.046
   11  0.034  0.000  0.004  0.007  0.000  0.000  0.000  0.000  0.000  0.045
   12  0.054  0.001  0.001  0.011  0.000  0.000  0.000  0.000  0.000  0.068
   13  0.061  0.000  0.020  0.000  0.000  0.000  0.000  0.000  0.000  0.082
   14  0.048  0.029  0.003  0.000  0.000  0.000  0.000  0.000  0.000  0.081
   15  0.061  0.005  0.004  0.006  0.000  0.000  0.000  0.000  0.000  0.075
   16  0.041  0.001  0.002  0.001  0.000  0.000  0.000  0.000  0.000  0.044
tot    0.562  0.045  0.054  0.029  0.000  0.000  0.000  0.000  0.000  0.690
 
band    11 # energy   -3.07080881 # occ.  2.00000000
 
ion      s     py     pz     px    dxy    dyz    dz2    dxz  x2-y2    tot
    1  0.002  0.001  0.000  0.000  0.000  0.000  0.000  0.000  0.000  0.002
    2  0.003  0.000  0.000  0.000  0.000  0.000  0.000  0.000  0.000  0.003
    3  0.002  0.001  0.000  0.002  0.000  0.000  0.000  0.000  0.000  0.005
    4  0.000  0.001  0.003  0.000  0.000  0.000  0.000  0.000  0.000  0.004
    5  0.003  0.000  0.001  0.000  0.000  0.000  0.000  0.000  0.000  0.004
    6  0.001  0.001  0.000  0.000  0.000  0.000  0.000  0.000  0.000  0.003
    7  0.000  0.013  0.040  0.005  0.000  0.000  0.000  0.000  0.000  0.058
    8  0.000  0.042  0.050  0.002  0.000  0.000  0.000  0.000  0.000  0.094
    9  0.001  0.008  0.010  0.000  0.000  0.000  0.000  0.000  0.000  0.019
   10  0.004  0.000  0.042  0.001  0.000  0.000  0.000  0.000  0.000  0.046
   11  0.002  0.001  0.010  0.010  0.000  0.000  0.000  0.000  0.000  0.023
   12  0.001  0.007  0.005  0.003  0.000  0.000  0.000  0.000  0.000  0.016
   13  0.007  0.000  0.074  0.000  0.000  0.000  0.000  0.000  0.000  0.082
   14  0.012  0.078  0.000  0.002  0.000  0.000  0.000  0.000  0.000  0.093
   15  0.000  0.004  0.018  0.000  0.000  0.000  0.000  0.000  0.000  0.022
   16  0.005  0.013  0.003  0.020  0.000  0.000  0.000  0.000  0.000  0.041
tot    0.043  0.171  0.255  0.046  0.000  0.000  0.000  0.000  0.000  0.515
 
band    12 # energy   -2.94876467 # occ.  2.00000000
 
ion      s     py     pz     px    dxy    dyz    dz2    dxz  x2-y2    tot
    1  0.000  0.001  0.001  0.001  0.000  0.000  0.000  0.000  0.000  0.003
    2  0.000  0.000  0.000  0.001  0.000  0.000  0.000  0.000  0.000  0.002
    3  0.003  0.000  0.000  0.007  0.000  0.000  0.000  0.000  0.000  0.010
    4  0.003  0.001  0.000  0.000  0.000  0.000  0.000  0.000  0.000  0.004
    5  0.000  0.000  0.000  0.002  0.000  0.000  0.000  0.000  0.000  0.002
    6  0.001  0.001  0.000  0.001  0.000  0.000  0.000  0.000  0.000  0.002
    7  0.000  0.019  0.061  0.020  0.000  0.000  0.000  0.000  0.000  0.100
    8  0.002  0.040  0.009  0.005  0.000  0.000  0.000  0.000  0.000  0.056
    9  0.001  0.005  0.019  0.001  0.000  0.000  0.000  0.000  0.000  0.026
   10  0.008  0.001  0.071  0.001  0.000  0.000  0.000  0.000  0.000  0.080
   11  0.017  0.000  0.002  0.090  0.000  0.000  0.000  0.000  0.000  0.108
   12  0.003  0.002  0.004  0.010  0.000  0.000  0.000  0.000  0.000  0.019
   13  0.010  0.003  0.027  0.001  0.000  0.000  0.000  0.000  0.000  0.040
   14  0.003  0.053  0.000  0.001  0.000  0.000  0.000  0.000  0.000  0.057
   15  0.001  0.007  0.002  0.003  0.000  0.000  0.000  0.000  0.000  0.012
   16  0.001  0.001  0.004  0.005  0.000  0.000  0.000  0.000  0.000  0.011
tot    0.052  0.134  0.199  0.148  0.000  0.000  0.000  0.000  0.000  0.533
 
band    13 # energy   -2.66465072 # occ.  2.00000000
 
ion      s     py     pz     px    dxy    dyz    dz2    dxz  x2-y2    tot
    1  0.000  0.000  0.000  0.000  0.000  0.000  0.000  0.000  0.000  0.001
    2  0.000  0.000  0.001  0.002  0.000  0.000  0.000  0.000  0.000  0.003
    3  0.000  0.003  0.000  0.000  0.000  0.000  0.000  0.000  0.000  0.004
    4  0.002  0.000  0.000  0.000  0.000  0.000  0.000  0.000  0.000  0.002
    5  0.001  0.000  0.000  0.001  0.000  0.000  0.000  0.000  0.000  0.002
    6  0.005  0.002  0.000  0.000  0.000  0.000  0.000  0.000  0.000  0.006
    7  0.000  0.039  0.036  0.011  0.000  0.000  0.000  0.000  0.000  0.086
    8  0.000  0.017  0.049  0.008  0.000  0.000  0.000  0.000  0.000  0.074
    9  0.012  0.091  0.010  0.001  0.000  0.000  0.000  0.000  0.000  0.115
   10  0.005  0.003  0.018  0.001  0.000  0.000  0.000  0.000  0.000  0.027
   11  0.000  0.004  0.016  0.002  0.000  0.000  0.000  0.000  0.000  0.022
   12  0.004  0.000  0.003  0.043  0.000  0.000  0.000  0.000  0.000  0.051
   13  0.005  0.010  0.034  0.000  0.000  0.000  0.000  0.000  0.000  0.050
   14  0.000  0.004  0.011  0.001  0.000  0.000  0.000  0.000  0.000  0.016
   15  0.005  0.000  0.001  0.025  0.000  0.000  0.000  0.000  0.000  0.030
   16  0.000  0.005  0.005  0.011  0.000  0.000  0.000  0.000  0.000  0.020
tot    0.041  0.179  0.184  0.105  0.000  0.000  0.000  0.000  0.000  0.509
 
band    14 # energy   -2.45969495 # occ.  2.00000000
 
ion      s     py     pz     px    dxy    dyz    dz2    dxz  x2-y2    tot
    1  0.001  0.000  0.000  0.000  0.000  0.000  0.000  0.000  0.000  0.001
    2  0.000  0.003  0.000  0.002  0.000  0.000  0.000  0.000  0.000  0.005
    3  0.000  0.000  0.000  0.000  0.000  0.000  0.000  0.000  0.000  0.001
    4  0.000  0.000  0.001  0.000  0.000  0.000  0.000  0.000  0.000  0.001
    5  0.000  0.001  0.000  0.000  0.000  0.000  0.000  0.000  0.000  0.001
    6  0.002  0.001  0.000  0.001  0.000  0.000  0.000  0.000  0.000  0.004
    7  0.001  0.030  0.001  0.111  0.000  0.000  0.000  0.000  0.000  0.142
    8  0.000  0.006  0.010  0.002  0.000  0.000  0.000  0.000  0.000  0.018
    9  0.005  0.003  0.005  0.026  0.000  0.000  0.000  0.000  0.000  0.040
   10  0.001  0.002  0.000  0.008  0.000  0.000  0.000  0.000  0.000  0.011
   11  0.015  0.047  0.022  0.051  0.000  0.000  0.000  0.000  0.000  0.135
   12  0.000  0.000  0.001  0.001  0.000  0.000  0.000  0.000  0.000  0.002
   13  0.004  0.000  0.018  0.009  0.000  0.000  0.000  0.000  0.000  0.031
   14  0.002  0.011  0.000  0.001  0.000  0.000  0.000  0.000  0.000  0.014
   15  0.000  0.005  0.000  0.000  0.000  0.000  0.000  0.000  0.000  0.006
   16  0.032  0.050  0.007  0.056  0.000  0.000  0.000  0.000  0.000  0.146
tot    0.064  0.160  0.066  0.268  0.000  0.000  0.000  0.000  0.000  0.558
 
band    15 # energy   -2.35142452 # occ.  2.00000000
 
ion      s     py     pz     px    dxy    dyz    dz2    dxz  x2-y2    tot
    1  0.000  0.000  0.000  0.001  0.000  0.000  0.000  0.000  0.000  0.001
    2  0.000  0.001  0.000  0.000  0.000  0.000  0.000  0.000  0.000  0.001
    3  0.003  0.000  0.001  0.001  0.000  0.000  0.000  0.000  0.000  0.005
    4  0.002  0.000  0.000  0.000  0.000  0.000  0.000  0.000  0.000  0.003
    5  0.000  0.000  0.000  0.000  0.000  0.000  0.000  0.000  0.000  0.001
    6  0.001  0.000  0.001  0.000  0.000  0.000  0.000  0.000  0.000  0.003
    7  0.000  0.027  0.006  0.016  0.000  0.000  0.000  0.000  0.000  0.049
    8  0.001  0.053  0.036  0.021  0.000  0.000  0.000  0.000  0.000  0.110
    9  0.013  0.039  0.007  0.000  0.000  0.000  0.000  0.000  0.000  0.059
   10  0.000  0.001  0.001  0.003  0.000  0.000  0.000  0.000  0.000  0.004
   11  0.003  0.016  0.024  0.008  0.000  0.000  0.000  0.000  0.000  0.051
   12  0.000  0.007  0.007  0.001  0.000  0.000  0.000  0.000  0.000  0.016
   13  0.002  0.015  0.009  0.003  0.000  0.000  0.000  0.000  0.000  0.030
   14  0.005  0.020  0.028  0.006  0.000  0.000  0.000  0.000  0.000  0.059
   15  0.037  0.016  0.013  0.076  0.000  0.000  0.000  0.000  0.000  0.141
   16  0.000  0.004  0.001  0.002  0.000  0.000  0.000  0.000  0.000  0.008
tot    0.068  0.198  0.134  0.140  0.000  0.000  0.000  0.000  0.000  0.540
 
band    16 # energy   -2.21078512 # occ.  2.00000000
 
ion      s     py     pz     px    dxy    dyz    dz2    dxz  x2-y2    tot
    1  0.001  0.000  0.000  0.000  0.000  0.000  0.000  0.000  0.000  0.001
    2  0.001  0.000  0.001  0.000  0.000  0.000  0.000  0.000  0.000  0.003
    3  0.001  0.000  0.000  0.000  0.000  0.000  0.000  0.000  0.000  0.001
    4  0.001  0.000  0.001  0.000  0.000  0.000  0.000  0.000  0.000  0.002
    5  0.001  0.000  0.000  0.000  0.000  0.000  0.000  0.000  0.000  0.001
    6  0.001  0.000  0.002  0.000  0.000  0.000  0.000  0.000  0.000  0.003
    7  0.000  0.030  0.000  0.004  0.000  0.000  0.000  0.000  0.000  0.035
    8  0.000  0.002  0.001  0.128  0.000  0.000  0.000  0.000  0.000  0.131
    9  0.007  0.013  0.011  0.002  0.000  0.000  0.000  0.000  0.000  0.032
   10  0.000  0.003  0.002  0.000  0.000  0.000  0.000  0.000  0.000  0.005
   11  0.004  0.004  0.003  0.012  0.000  0.000  0.000  0.000  0.000  0.022
   12  0.039  0.011  0.013  0.097  0.000  0.000  0.000  0.000  0.000  0.160
   13  0.000  0.000  0.002  0.027  0.000  0.000  0.000  0.000  0.000  0.030
   14  0.000  0.005  0.002  0.022  0.000  0.000  0.000  0.000  0.000  0.030
   15  0.012  0.035  0.025  0.006  0.000  0.000  0.000  0.000  0.000  0.078
   16  0.002  0.000  0.006  0.010  0.000  0.000  0.000  0.000  0.000  0.019
tot    0.069  0.105  0.070  0.309  0.000  0.000  0.000  0.000  0.000  0.553
 
band    17 # energy   -0.81020797 # occ.  2.00000000
 
ion      s     py     pz     px    dxy    dyz    dz2    dxz  x2-y2    tot
    1  0.001  0.000  0.001  0.001  0.000  0.000  0.000  0.000  0.000  0.004
    2  0.011  0.001  0.004  0.000  0.000  0.000  0.000  0.000  0.000  0.016
    3  0.014  0.000  0.011  0.000  0.000  0.000  0.000  0.000  0.000  0.025
    4  0.000  0.000  0.000  0.000  0.000  0.000  0.000  0.000  0.000  0.001
    5  0.002  0.000  0.000  0.000  0.000  0.000  0.000  0.000  0.000  0.002
    6  0.000  0.005  0.001  0.000  0.000  0.000  0.000  0.000  0.000  0.007
    7  0.000  0.003  0.002  0.004  0.000  0.000  0.000  0.000  0.000  0.009
    8  0.000  0.003  0.005  0.007  0.000  0.000  0.000  0.000  0.000  0.016
    9  0.001  0.003  0.015  0.141  0.000  0.000  0.000  0.000  0.000  0.160
   10  0.000  0.001  0.001  0.001  0.000  0.000  0.000  0.000  0.000  0.003
   11  0.000  0.116  0.022  0.005  0.000  0.000  0.000  0.000  0.000  0.143
   12  0.000  0.001  0.002  0.008  0.000  0.000  0.000  0.000  0.000  0.011
   13  0.002  0.010  0.008  0.010  0.000  0.000  0.000  0.000  0.000  0.029
   14  0.000  0.004  0.001  0.002  0.000  0.000  0.000  0.000  0.000  0.008
   15  0.001  0.011  0.001  0.026  0.000  0.000  0.000  0.000  0.000  0.039
   16  0.000  0.013  0.006  0.022  0.000  0.000  0.000  0.000  0.000  0.041
tot    0.033  0.172  0.080  0.228  0.000  0.000  0.000  0.000  0.000  0.513
 
band    18 # energy   -0.48164347 # occ.  2.00000000
 
ion      s     py     pz     px    dxy    dyz    dz2    dxz  x2-y2    tot
    1  0.003  0.000  0.002  0.000  0.000  0.000  0.000  0.000  0.000  0.005
    2  0.000  0.000  0.001  0.000  0.000  0.000  0.000  0.000  0.000  0.002
    3  0.007  0.000  0.011  0.002  0.000  0.000  0.000  0.000  0.000  0.020
    4  0.000  0.001  0.000  0.002  0.000  0.000  0.000  0.000  0.000  0.003
    5  0.002  0.003  0.006  0.001  0.000  0.000  0.000  0.000  0.000  0.011
    6  0.000  0.000  0.000  0.001  0.000  0.000  0.000  0.000  0.000  0.002
    7  0.000  0.000  0.000  0.001  0.000  0.000  0.000  0.000  0.000  0.002
    8  0.001  0.000  0.000  0.001  0.000  0.000  0.000  0.000  0.000  0.002
    9  0.000  0.000  0.001  0.008  0.000  0.000  0.000  0.000  0.000  0.009
   10  0.000  0.004  0.001  0.068  0.000  0.000  0.000  0.000  0.000  0.073
   11  0.000  0.001  0.001  0.012  0.000  0.000  0.000  0.000  0.000  0.014
   12  0.000  0.029  0.013  0.006  0.000  0.000  0.000  0.000  0.000  0.048
   13  0.000  0.000  0.000  0.004  0.000  0.000  0.000  0.000  0.000  0.004
   14  0.000  0.001  0.000  0.198  0.000  0.000  0.000  0.000  0.000  0.199
   15  0.003  0.000  0.026  0.000  0.000  0.000  0.000  0.000  0.000  0.029
   16  0.000  0.003  0.032  0.010  0.000  0.000  0.000  0.000  0.000  0.046
tot    0.017  0.041  0.095  0.316  0.000  0.000  0.000  0.000  0.000  0.468
 
band    19 # energy   -0.24003571 # occ.  2.00000000
 
ion      s     py     pz     px    dxy    dyz    dz2    dxz  x2-y2    tot
    1  0.002  0.001  0.001  0.000  0.000  0.000  0.000  0.000  0.000  0.004
    2  0.000  0.001  0.000  0.001  0.000  0.000  0.000  0.000  0.000  0.002
    3  0.001  0.007  0.002  0.003  0.000  0.000  0.000  0.000  0.000  0.013
    4  0.001  0.005  0.001  0.000  0.000  0.000  0.000  0.000  0.000  0.008
    5  0.001  0.000  0.000  0.002  0.000  0.000  0.000  0.000  0.000  0.003
    6  0.005  0.003  0.000  0.000  0.000  0.000  0.000  0.000  0.000  0.008
    7  0.000  0.000  0.001  0.000  0.000  0.000  0.000  0.000  0.000  0.001
    8  0.000  0.000  0.002  0.001  0.000  0.000  0.000  0.000  0.000  0.003
    9  0.000  0.001  0.016  0.005  0.000  0.000  0.000  0.000  0.000  0.022
   10  0.000  0.024  0.009  0.007  0.000  0.000  0.000  0.000  0.000  0.040
   11  0.001  0.010  0.143  0.016  0.000  0.000  0.000  0.000  0.000  0.170
   12  0.000  0.028  0.001  0.000  0.000  0.000  0.000  0.000  0.000  0.029
   13  0.000  0.007  0.007  0.005  0.000  0.000  0.000  0.000  0.000  0.019
   14  0.000  0.000  0.095  0.008  0.000  0.000  0.000  0.000  0.000  0.104
   15  0.000  0.003  0.000  0.007  0.000  0.000  0.000  0.000  0.000  0.011
   16  0.000  0.039  0.000  0.002  0.000  0.000  0.000  0.000  0.000  0.041
tot    0.013  0.129  0.279  0.058  0.000  0.000  0.000  0.000  0.000  0.479
 
band    20 # energy   -0.06809372 # occ.  2.00000000
 
ion      s     py     pz     px    dxy    dyz    dz2    dxz  x2-y2    tot
    1  0.000  0.000  0.003  0.000  0.000  0.000  0.000  0.000  0.000  0.003
    2  0.000  0.001  0.003  0.001  0.000  0.000  0.000  0.000  0.000  0.006
    3  0.000  0.001  0.000  0.000  0.000  0.000  0.000  0.000  0.000  0.002
    4  0.001  0.000  0.001  0.000  0.000  0.000  0.000  0.000  0.000  0.002
    5  0.001  0.002  0.001  0.000  0.000  0.000  0.000  0.000  0.000  0.003
    6  0.013  0.000  0.000  0.004  0.000  0.000  0.000  0.000  0.000  0.017
    7  0.000  0.009  0.001  0.000  0.000  0.000  0.000  0.000  0.000  0.009
    8  0.000  0.000  0.001  0.000  0.000  0.000  0.000  0.000  0.000  0.001
    9  0.002  0.000  0.008  0.027  0.000  0.000  0.000  0.000  0.000  0.037
   10  0.000  0.015  0.004  0.001  0.000  0.000  0.000  0.000  0.000  0.020
   11  0.001  0.047  0.008  0.003  0.000  0.000  0.000  0.000  0.000  0.059
   12  0.001  0.002  0.084  0.015  0.000  0.000  0.000  0.000  0.000  0.102
   13  0.000  0.069  0.000  0.059  0.000  0.000  0.000  0.000  0.000  0.128
   14  0.001  0.011  0.020  0.000  0.000  0.000  0.000  0.000  0.000  0.032
   15  0.001  0.014  0.005  0.002  0.000  0.000  0.000  0.000  0.000  0.022
   16  0.001  0.000  0.024  0.003  0.000  0.000  0.000  0.000  0.000  0.027
tot    0.023  0.172  0.161  0.116  0.000  0.000  0.000  0.000  0.000  0.472
 
band    21 # energy    0.15507332 # occ.  2.00000000
 
ion      s     py     pz     px    dxy    dyz    dz2    dxz  x2-y2    tot
    1  0.008  0.001  0.000  0.000  0.000  0.000  0.000  0.000  0.000  0.009
    2  0.002  0.000  0.000  0.000  0.000  0.000  0.000  0.000  0.000  0.003
    3  0.001  0.002  0.000  0.001  0.000  0.000  0.000  0.000  0.000  0.004
    4  0.000  0.002  0.001  0.000  0.000  0.000  0.000  0.000  0.000  0.004
    5  0.006  0.000  0.002  0.000  0.000  0.000  0.000  0.000  0.000  0.008
    6  0.001  0.001  0.002  0.002  0.000  0.000  0.000  0.000  0.000  0.006
    7  0.004  0.002  0.005  0.001  0.000  0.000  0.000  0.000  0.000  0.012
    8  0.000  0.002  0.002  0.000  0.000  0.000  0.000  0.000  0.000  0.004
    9  0.001  0.004  0.091  0.000  0.000  0.000  0.000  0.000  0.000  0.097
   10  0.002  0.012  0.001  0.002  0.000  0.000  0.000  0.000  0.000  0.017
   11  0.002  0.000  0.021  0.000  0.000  0.000  0.000  0.000  0.000  0.023
   12  0.000  0.000  0.013  0.004  0.000  0.000  0.000  0.000  0.000  0.016
   13  0.000  0.035  0.012  0.000  0.000  0.000  0.000  0.000  0.000  0.048
   14  0.000  0.006  0.076  0.000  0.000  0.000  0.000  0.000  0.000  0.082
   15  0.000  0.027  0.009  0.014  0.000  0.000  0.000  0.000  0.000  0.050
   16  0.001  0.047  0.002  0.062  0.000  0.000  0.000  0.000  0.000  0.112