unknown system                          
           1
     7.786711    0.000000    0.000000
     0.000000    6.617013    0.000000
     0.000000    0.000000    6.218819
   Li   P    S 
   6   2   8
Direct configuration=     1
   0.00000000  0.14392600  0.48793200
   0.24349600  0.31707500  0.99612000
   0.25650400  0.68292500  0.49612000
   0.50000000  0.85607400  0.98793200
   0.74349600  0.68292500  0.49612000
   0.75650400  0.31707500  0.99612000
   0.00000000  0.81869500  0.99762400
   0.50000000  0.18130500  0.49762400
   0.00000000  0.11248300  0.88817400
   0.00000000  0.80842800  0.32914700
   0.21765100  0.67407100  0.88809000
   0.28234900  0.32592900  0.38809000
   0.50000000  0.19157200  0.82914700
   0.50000000  0.88751700  0.38817400
   0.71765100  0.32592900  0.38809000
   0.78234900  0.67407100  0.88809000
Direct configuration=     2
   0.00113056  0.14577545  0.48587904
   0.24323412  0.31691060  0.99491375
   0.25580493  0.67993719  0.49548973
   0.49996392  0.85638268  0.98606704
   0.74427768  0.68402860  0.49922157
   0.75474639  0.31637169  0.99504245
   0.00097600  0.81747943  0.99878883
   0.49959427  0.18162040  0.49813709
   0.99980833  0.11294594  0.88904740
   0.99900748  0.80825325  0.32841801
   0.21773543  0.67454960  0.88760911
   0.28201583  0.32483989  0.38747215
   0.49941044  0.19097815  0.82869665
   0.50142164  0.88937184  0.38821042
   0.71714294  0.32623951  0.38858524
   0.78309122  0.67382116  0.88815775
Direct configuration=     3
   0.00225733  0.14767333  0.48378799
   0.24296287  0.31675251  0.99369509
   0.25511937  0.67695539  0.49484112
   0.49992999  0.85663398  0.98416424
   0.74504588  0.68512142  0.50230353
   0.75300351  0.31567566  0.99395599
   0.00194659  0.81628148  0.99995383
   0.49919145  0.18193093  0.49865700
   0.99961677  0.11339576  0.88993096
   0.99801816  0.80808025  0.32767933
   0.21783632  0.67502741  0.88713545
   0.28166876  0.32375089  0.38686085
   0.49882001  0.19038429  0.82823225
   0.50284026  0.89122479  0.38825451
   0.71664821  0.32655092  0.38908732
   0.78381973  0.67357205  0.88823361
Direct configuration=     4
   0.00337603  0.14961382  0.48166502
   0.24268161  0.31660123  0.99246513
   0.25445108  0.67399047  0.49417006
   0.49990037  0.85682450  0.98223008
   0.74579595  0.68619884  0.50535918
   0.75128150  0.31498850  0.99286515
   0.00290637  0.81511157  0.00110941
   0.49879439  0.18223882  0.49918091
   0.99942546  0.11382675  0.89082547
   0.99703508  0.80790917  0.32693941
   0.21795713  0.67550186  0.88666868
   0.28130692  0.32266365  0.38625513
   0.49822780  0.18979188  0.82775782
   0.50425319  0.89306741  0.38830435
   0.71616714  0.32686565  0.38959573
   0.78453389  0.67332271  0.88831837
Direct configuration=     5
   0.00448197  0.15159103  0.47951602
   0.24238975  0.31645729  0.99122484
   0.25380282  0.67105244  0.49347305
   0.49987721  0.85695098  0.98027089
   0.74652348  0.68725669  0.50838137
   0.74958648  0.31431192  0.99177436
   0.00385009  0.81397913  0.00224593
   0.49840583  0.18254660  0.49970593
   0.99923457  0.11423358  0.89173157
   0.99606109  0.80774017  0.32620717
   0.21810127  0.67597064  0.88620834
   0.28092966  0.32157953  0.38565393
   0.49763277  0.18920237  0.82727747
   0.50565815  0.89489158  0.38835787
   0.71569986  0.32718610  0.39011012
   0.78523331  0.67307222  0.88841292
Direct configuration=     6
   0.00557010  0.15359916  0.47734639
   0.24208674  0.31632124  0.98997507
   0.25317642  0.66815036  0.49274716
   0.49986266  0.85701023  0.97829258
   0.74722436  0.68829140  0.51136281
   0.74792432  0.31364767  0.99068780
   0.00477272  0.81289273  0.00335384
   0.49802829  0.18285692  0.50022902
   0.99904423  0.11461161  0.89265000
   0.99509875  0.80757324  0.32549168
   0.21827209  0.67643153  0.88575377
   0.28053640  0.32049975  0.38505611
   0.49703377  0.18861704  0.82679550
   0.50705327  0.89668948  0.38841297
   0.71524659  0.32751476  0.39063018
   0.78591770  0.67281966  0.88851820
Direct configuration=     7
   0.00663510  0.15563264  0.47516090
   0.24177203  0.31619370  0.98871637
   0.25257286  0.66529236  0.49198992
   0.49985887  0.85699913  0.97630055
   0.74789486  0.68930005  0.51429629
   0.74630058  0.31299748  0.98960939
   0.00566970  0.81185988  0.00442379
   0.49766406  0.18317265  0.50074717
   0.99885451  0.11495674  0.89358174
   0.99415017  0.80740839  0.32480209
   0.21847279  0.67688253  0.88530412
   0.28012671  0.31942520  0.38446029
   0.49642952  0.18803703  0.82631631
   0.50843728  0.89845387  0.38846727
   0.71480729  0.32785420  0.39115571
   0.78658706  0.67256400  0.88863527
Direct configuration=     8
   0.00767136  0.15768626  0.47296349
   0.24144506  0.31607532  0.98744901
   0.25199237  0.66248567  0.49119917
   0.49986797  0.85691464  0.97429943
   0.74853160  0.69028041  0.51717475
   0.74472033  0.31236295  0.98854266
   0.00653698  0.81088705  0.00544695
   0.49731514  0.18349685  0.50125739
   0.99866548  0.11526545  0.89452798
   0.99321704  0.80724563  0.32414735
   0.21870648  0.67732186  0.88485840
   0.27970019  0.31835646  0.38386495
   0.49581861  0.18746329  0.82584427
   0.50980953  0.90017807  0.38851849
   0.71438189  0.32820693  0.39168662
   0.78724152  0.67230417  0.88876529
Direct configuration=     9
   0.00867301  0.15975523  0.47075724
   0.24110524  0.31596684  0.98617293
   0.25143452  0.65973656  0.49037298
   0.49989209  0.85675370  0.97229299
   0.74913156  0.69123088  0.51999154
   0.74318814  0.31174558  0.98749087
   0.00737114  0.80997967  0.00641490
   0.49698327  0.18383271  0.50175676
   0.99847709  0.11553476  0.89549006
   0.99230063  0.80708482  0.32353620
   0.21897615  0.67774808  0.88441547
   0.27925653  0.31729363  0.38326838
   0.49519933  0.18689653  0.82538366
   0.51116994  0.90185607  0.38856422
   0.71397020  0.32857577  0.39222317
   0.78788147  0.67203902  0.88890949
Direct configuration=    10
   0.00963390  0.16183520  0.46854411
   0.24075188  0.31586903  0.98488767
   0.25089830  0.65705048  0.48950956
   0.49993334  0.85651323  0.97028391
   0.74969204  0.69215041  0.52274040
   0.74170800  0.31114664  0.98645685
   0.00816941  0.80914226  0.00731983
   0.49666989  0.18418337  0.50224242
   0.99828927  0.11576216  0.89646963
   0.99140172  0.80692579  0.32297708
   0.21928466  0.67816002  0.88397400
   0.27879552  0.31623643  0.38266861
   0.49456978  0.18633723  0.82493880
   0.51251908  0.90348264  0.38860213
   0.71357194  0.32896360  0.39276582
   0.78850745  0.67176737  0.88906922
Direct configuration=    11
   0.01054757  0.16392235  0.46632492
   0.24038425  0.31578277  0.98359237
   0.25038222  0.65443218  0.48860711
   0.49999391  0.85619002  0.96827383
   0.75021061  0.69303855  0.52541558
   0.74028334  0.31056718  0.98544307
   0.00892966  0.80837848  0.00815455
   0.49637615  0.18455217  0.50271156
   0.99810183  0.11594545  0.89746875
   0.99052075  0.80676829  0.32247795
   0.21963472  0.67855676  0.88353258
   0.27831692  0.31518410  0.38206348
   0.49392780  0.18578559  0.82451387
   0.51385805  0.90505335  0.38862986
   0.71318674  0.32937352  0.39331522
   0.78912027  0.67148785  0.88924596
Direct configuration=    12
   0.01140711  0.16601344  0.46409931
   0.24000146  0.31570905  0.98228583
   0.24988440  0.65188584  0.48766389
   0.50007602  0.85578073  0.96626325
   0.75068506  0.69389538  0.52801198
   0.73891701  0.31000806  0.98445165
   0.00965030  0.80769141  0.00891251
   0.49610292  0.18494238  0.50316140
   0.99791455  0.11608283  0.89848970
   0.98965774  0.80661201  0.32204629
   0.22002900  0.67893773  0.88308969
   0.27782060  0.31413541  0.38145064
   0.49327098  0.18524152  0.82411296
   0.51518859  0.90656442  0.38864509
   0.71281416  0.32980889  0.39387230
   0.78972092  0.67119889  0.88944137
Direct configuration=    13
   0.01220513  0.16810571  0.46186571
   0.23960250  0.31564898  0.98096642
   0.24940261  0.64941513  0.48667799
   0.50018199  0.85528177  0.96425156
   0.75111332  0.69472154  0.53052506
   0.73761131  0.30946994  0.98348432
   0.01033030  0.80708347  0.00958790
   0.49585084  0.18535727  0.50358914
   0.99772706  0.11617263  0.89953520
   0.98881239  0.80645655  0.32168892
   0.22047001  0.67930263  0.88264371
   0.27730641  0.31308864  0.38082750
   0.49259669  0.18470483  0.82374009
   0.51651303  0.90801273  0.38864563
   0.71245380  0.33027335  0.39443821
   0.79031052  0.67089879  0.88965733
Direct configuration=    14
   0.01293353  0.17019695  0.45962141
   0.23918619  0.31560384  0.97963221
   0.24893437  0.64702321  0.48564733
   0.50031425  0.85468932  0.96223715
   0.75149342  0.69551812  0.53295075
   0.73636803  0.30895326  0.98254254
   0.01096910  0.80655662  0.01017567
   0.49562035  0.18580001  0.50399193
   0.99753896  0.11621331  0.90060840
   0.98798415  0.80630151  0.32141201
   0.22096027  0.67965142  0.88219300
   0.27677424  0.31204165  0.38019116
   0.49190203  0.18417500  0.82339925
   0.51783426  0.90939586  0.38862924
   0.71210515  0.33077091  0.39501446
   0.79089039  0.67058566  0.88989584
Direct configuration=    15
   0.01358339  0.17228531  0.45736269
   0.23875116  0.31557510  0.97828093
   0.24847694  0.64471280  0.48456956
   0.50047539  0.85399926  0.96021749
   0.75182339  0.69628668  0.53528523
   0.73518858  0.30845838  0.98162752
   0.01156655  0.80611262  0.01067162
   0.49541175  0.18627374  0.50436702
   0.99734976  0.11620341  0.90171282
   0.98717234  0.80614642  0.32122108
   0.22150221  0.67998428  0.88173593
   0.27622399  0.31099190  0.37953852
   0.49118376  0.18365142  0.82309423
   0.51915574  0.91071163  0.38859356
   0.71176766  0.33130592  0.39560274
   0.79146190  0.67025748  0.89015911
Direct configuration=    16
   0.01414485  0.17436925  0.45508489
   0.23829588  0.31556446  0.97691001
   0.24802740  0.64248625  0.48344192
   0.50066824  0.85320719  0.95818923
   0.75210120  0.69702910  0.53752464
   0.73407406  0.30798548  0.98074028
   0.01212294  0.80575310  0.01107231
   0.49522515  0.18678138  0.50471160
   0.99715891  0.11614141  0.90285228
   0.98637619  0.80599075  0.32112100
   0.22209824  0.68030159  0.88127082
   0.27565560  0.30993644  0.37886619
   0.49043839  0.18313319  0.82282891
   0.52048133  0.91195870  0.38853639
   0.71144082  0.33188320  0.39620499
   0.79202649  0.66991184  0.89044947
Direct configuration=    17
   0.01460692  0.17644731  0.45278258
   0.23781863  0.31557387  0.97551663
   0.24758266  0.64034571  0.48226126
   0.50089587  0.85230838  0.95614836
   0.75232467  0.69774747  0.53966489
   0.73302533  0.30753466  0.97988169
   0.01263883  0.80547970  0.01137510
   0.49506058  0.18732556  0.50502283
   0.99696574  0.11602573  0.90403105
   0.98559487  0.80583390  0.32111588
   0.22275077  0.68060392  0.88079602
   0.27506906  0.30887205  0.37817055
   0.48966223  0.18261929  0.82260703
   0.52181534  0.91313612  0.38845556
   0.71112415  0.33250796  0.39682334
   0.79258564  0.66954619  0.89076952
Direct configuration=    18
   0.01495740  0.17851804  0.45044971
   0.23731751  0.31560555  0.97409775
   0.24713951  0.63829341  0.48102408
   0.50116168  0.85129786  0.95409030
   0.75249148  0.69844404  0.54170137
   0.73204312  0.30710590  0.97905256
   0.01311504  0.80529408  0.01157813
   0.49491801  0.18790859  0.50529774
   0.99676954  0.11585471  0.90525369
   0.98482776  0.80567527  0.32120919
   0.22346213  0.68089198  0.88030994
   0.27446446  0.30779519  0.37744786
   0.48885132  0.18210861  0.82243218
   0.52316216  0.91424322  0.38834888
   0.71081728  0.33318599  0.39746015
   0.79314083  0.66915772  0.89112200
Direct configuration=    19
   0.01518280  0.18057981  0.44807970
   0.23679049  0.31566205  0.97265018
   0.24669462  0.63633190  0.47972654
   0.50146942  0.85017044  0.95201009
   0.75259904  0.69912104  0.54362885
   0.73112808  0.30669909  0.97825372
   0.01355252  0.80519795  0.01168045
   0.49479736  0.18853254  0.50553327
   0.99656947  0.11562652  0.90652505
   0.98407438  0.80551419  0.32140361
   0.22423457  0.68116660  0.87981105
   0.27384200  0.30670217  0.37669415
   0.48800154  0.18159994  0.82230790
   0.52452645  0.91527958  0.38821425
   0.71051993  0.33392351  0.39811799
   0.79369354  0.66874346  0.89150980
Direct configuration=    20
   0.01526828  0.18263070  0.44566560
   0.23623541  0.31574624  0.97117066
   0.24624462  0.63446433  0.47836463
   0.50182318  0.84892086  0.94990248
   0.75264454  0.69978066  0.54544135
   0.73028081  0.30631401  0.97748607
   0.01395237  0.80519317  0.01168188
   0.49469844  0.18919898  0.50572633
   0.99636473  0.11533928  0.90785019
   0.98333453  0.80534995  0.32170105
   0.22507018  0.68142873  0.87929803
   0.27320199  0.30558926  0.37590537
   0.48710868  0.18109207  0.82223765
   0.52591289  0.91624488  0.38804954
   0.71023196  0.33472716  0.39879948
   0.79424522  0.66830020  0.89193589
Direct configuration=    21
   0.01519775  0.18466834  0.44320018
   0.23565002  0.31586136  0.96965594
   0.24578610  0.63269468  0.47693423
   0.50222747  0.84754400  0.94776220
   0.75262492  0.70042489  0.54713216
   0.72950194  0.30595037  0.97675068
   0.01431578  0.80528159  0.01158319
   0.49462110  0.18990890  0.50587386
   0.99615443  0.11499111  0.90923425
   0.98260843  0.80518186  0.32210260
   0.22597074  0.68167941  0.87876972
   0.27254496  0.30445272  0.37507752
   0.48616852  0.18058369  0.82222458
   0.52732602  0.91713891  0.38785270
   0.70995341  0.33560404  0.39950726
   0.79479713  0.66782452  0.89240321
Direct configuration=    22
   0.01495402  0.18668980  0.44067625
   0.23503210  0.31601096  0.96810303
   0.24531575  0.63102792  0.47543134
   0.50268709  0.84603512  0.94558420
   0.75253689  0.70105546  0.54869387
   0.72879209  0.30560777  0.97604888
   0.01464405  0.80546501  0.01138616
   0.49456518  0.19066244  0.50597288
   0.99593762  0.11458023  0.91068219
   0.98189671  0.80500926  0.32260837
   0.22693774  0.68191972  0.87822516
   0.27187173  0.30328897  0.37420669
   0.48517692  0.18007365  0.82227154
   0.52877017  0.91796162  0.38762194
   0.70968444  0.33656147  0.40024393
   0.79535040  0.66731294  0.89291466
Direct configuration=    23
   0.01451914  0.18869137  0.43808683
   0.23437945  0.31619898  0.96650930
   0.24483032  0.62947009  0.47385222
   0.50320710  0.84439026  0.94336398
   0.75237705  0.70167368  0.55011842
   0.72815184  0.30528571  0.97538225
   0.01493849  0.80574489  0.01109369
   0.49453041  0.19145894  0.50602052
   0.99571335  0.11410513  0.91219866
   0.98120068  0.80483146  0.32321753
   0.22797204  0.68215078  0.87766374
   0.27118342  0.30209458  0.37328921
   0.48413011  0.17956094  0.82238087
   0.53024916  0.91871316  0.38735555
   0.70942540  0.33760692  0.40101192
   0.79590582  0.66676190  0.89347285
Direct configuration=    24
   0.01387496  0.19066833  0.43542565
   0.23369012  0.31642958  0.96487284
   0.24432688  0.62802836  0.47219367
   0.50379273  0.84260670  0.94109801
   0.75214198  0.70228039  0.55139738
   0.72758171  0.30498358  0.97475270
   0.01520055  0.80612221  0.01070987
   0.49451643  0.19229658  0.50601416
   0.99548072  0.11356489  0.91378748
   0.98052225  0.80464789  0.32392820
   0.22907356  0.68237379  0.87708529
   0.27048165  0.30086670  0.37232179
   0.48302488  0.17904472  0.82255431
   0.53176603  0.91939375  0.38705214
   0.70917692  0.33874752  0.40181342
   0.79646394  0.66616795  0.89408008
Direct configuration=    25
   0.01300389  0.19261471  0.43268755
   0.23296253  0.31670713  0.96319274
   0.24380286  0.62671093  0.47045336
   0.50444916  0.84068351  0.93878412
   0.75182848  0.70287580  0.55252215
   0.72708205  0.30470063  0.97416250
   0.01543173  0.80659696  0.01024023
   0.49452268  0.19317224  0.50595166
   0.99523883  0.11295943  0.91545149
   0.97986417  0.80445803  0.32473685
   0.23024114  0.68258987  0.87649014
   0.26976863  0.29960320  0.37130187
   0.48185884  0.17852448  0.82279281
   0.53332266  0.92000372  0.38671083
   0.70893982  0.33999008  0.40265005
   0.79702481  0.66552792  0.89473797
Direct configuration=    26
   0.01188990  0.19452308  0.42986909
   0.23219562  0.31703605  0.96146941
   0.24325624  0.62552688  0.46863026
   0.50518127  0.83862215  0.93642195
   0.75143382  0.70345935  0.55348447
   0.72665292  0.30443598  0.97361426
   0.01563372  0.80716789  0.00969188
   0.49454848  0.19408100  0.50583146
   0.99498695  0.11228991  0.91719189
   0.97923005  0.80426160  0.32563850
   0.23147216  0.68280007  0.87587938
   0.26904704  0.29830306  0.37022787
   0.48063083  0.17800020  0.82309624
   0.53491952  0.92054377  0.38633130
   0.70871506  0.34134035  0.40352271
   0.79758800  0.66483915  0.89544723
Direct configuration=    27
   0.01051980  0.19638447  0.42696921
   0.23138913  0.31742063  0.95970498
   0.24268574  0.62448581  0.46672501
   0.50599335  0.83642720  0.93401342
   0.75095612  0.70402962  0.55427686
   0.72629393  0.30418862  0.97311085
   0.01580836  0.80783181  0.00907372
   0.49459291  0.19501633  0.50565286
   0.99472449  0.11155911  0.91900776
   0.97862426  0.80405848  0.32662639
   0.23276224  0.68300542  0.87525470
   0.26832023  0.29696664  0.36909950
   0.47934121  0.17747227  0.82346319
   0.53655521  0.92101490  0.38591377
   0.70850375  0.34280262  0.40443154
   0.79815252  0.66409972  0.89620744
Direct configuration=    28
   0.00888465  0.19818833  0.42398998
   0.23054372  0.31786481  0.95790360
   0.24209095  0.62359737  0.46474045
   0.50688864  0.83410701  0.93156328
   0.75039468  0.70458419  0.55489332
   0.72600397  0.30395735  0.97265540
   0.01595762  0.80858315  0.00839652
   0.49465470  0.19596976  0.50541622
   0.99445111  0.11077201  0.92089569
   0.97805202  0.80384875  0.32769178
   0.23410495  0.68320682  0.87461864
   0.26759223  0.29559600  0.36791814
   0.47799237  0.17694174  0.82389056
   0.53822616  0.92141861  0.38545929
   0.70830717  0.34437917  0.40537547
   0.79871675  0.66330867  0.89701681
Direct configuration=    29
   0.00698123  0.19992279  0.42093722
   0.22966124  0.31837195  0.95607174
   0.24147253  0.62287067  0.46268202
   0.50786891  0.83167428  0.92907942
   0.74975044  0.70511970  0.55532996
   0.72578111  0.30374084  0.97225108
   0.01608381  0.80941347  0.00767287
   0.49473225  0.19693095  0.50512310
   0.99416678  0.10993599  0.92284940
   0.97751918  0.80363281  0.32882388
   0.23549149  0.68340503  0.87397457
   0.26686769  0.29419494  0.36668687
   0.47658889  0.17641019  0.82437357
   0.53992646  0.92175711  0.38496981
   0.70812655  0.34606970  0.40635223
   0.79927840  0.66246641  0.89787197
Direct configuration=    30
   0.00481342  0.20157499  0.41782096
   0.22874484  0.31894455  0.95421818
   0.24083237  0.62231351  0.46055803
   0.50893408  0.82914634  0.92657307
   0.74902636  0.70563178  0.55558575
   0.72562232  0.30353757  0.97190091
   0.01618958  0.81031108  0.00691723
   0.49482358  0.19788790  0.50477648
   0.99387178  0.10906107  0.92485937
   0.97703209  0.80341140  0.33000967
   0.23691054  0.68360072  0.87332695
   0.26615176  0.29276929  0.36541095
   0.47513789  0.17587980  0.82490540
   0.54164767  0.92203337  0.38444831
   0.70796305  0.34787077  0.40735801
   0.79983461  0.66157492  0.89876771
Direct configuration=    31
   0.00239306  0.20313165  0.41465543
   0.22779899  0.31958400  0.95235396
   0.24017362  0.62193159  0.45837971
   0.51008189  0.82654497  0.92405865
   0.74822767  0.70611526  0.55566313
   0.72552337  0.30334588  0.97160758
   0.01627782  0.81126096  0.00614541
   0.49492629  0.19882726  0.50438079
   0.99356686  0.10816010  0.92691294
   0.97659713  0.80318548  0.33123443
   0.23834860  0.68379437  0.87268077
   0.26544992  0.29132688  0.36409764
   0.47364895  0.17535341  0.82547755
   0.54337912  0.92225116  0.38389863
   0.70781761  0.34977548  0.40838767
   0.80038196  0.66063785  0.89969712
Direct configuration=    32
   0.99974021  0.20457985  0.41145865
   0.22682934  0.32029043  0.95049196
   0.23950064  0.62172781  0.45616092
   0.51130775  0.82389586  0.92155323
   0.74736193  0.70656446  0.55556838
   0.72547871  0.30316401  0.97137313
   0.01635162  0.81224487  0.00537426
   0.49503764  0.19973477  0.50394197
   0.99325295  0.10724852  0.92899465
   0.97622048  0.80295639  0.33248200
   0.23979049  0.68398630  0.87204166
   0.26476783  0.28987731  0.36275622
   0.47213386  0.17483420  0.82607982
   0.54510817  0.92241517  0.38332540
   0.70769090  0.35177351  0.40943480
   0.80091673  0.65966053  0.90065162
Direct configuration=    33
   0.99688267  0.20590757  0.40825164
   0.22584243  0.32106259  0.94864627
   0.23881884  0.62170160  0.45391761
   0.51260483  0.82122750  0.91907590
   0.74643894  0.70697338  0.55531178
   0.72548154  0.30299007  0.97119882
   0.01641422  0.81324190  0.00462103
   0.49515461  0.20059625  0.50346707
   0.99293134  0.10634386  0.93108686
   0.97590763  0.80272569  0.33373537
   0.24121999  0.68417660  0.87141547
   0.26411082  0.28843135  0.36139736
   0.47060607  0.17432572  0.82670086
   0.54682097  0.92253085  0.38273385
   0.70758307  0.35385146  0.41049196
   0.80143514  0.65864982  0.90162153
Direct configuration=    34
   0.99385482  0.20710434  0.40505709
   0.22484532  0.32189786  0.94683128
   0.23813447  0.62184869  0.45166682
   0.51396438  0.81856972  0.91664653
   0.74547037  0.70733612  0.55490732
   0.72552398  0.30282199  0.97108493
   0.01646906  0.81422928  0.00390243
   0.49527405  0.20139816  0.50296395
   0.99260345  0.10546508  0.93317079
   0.97566316  0.80249504  0.33497754
   0.24262071  0.68436526  0.87080806
   0.26348376  0.28700050  0.36003279
   0.46908005  0.17383147  0.82732858
   0.54850313  0.92260446  0.38212960
   0.70749366  0.35599358  0.41155122
   0.80193353  0.65761368  0.90259637
Direct configuration=    35
   0.99069581  0.20816162  0.40189802
   0.22384514  0.32279257  0.94506082
   0.23745425  0.62216117  0.44942563
   0.51537608  0.81595225  0.91428465
   0.74446918  0.70764722  0.55437204
   0.72559736  0.30265768  0.97103071
   0.01651958  0.81518333  0.00323405
   0.49539284  0.20212837  0.50244084
   0.99227067  0.10463161  0.93522759
   0.97549038  0.80226599  0.33619238
   0.24397670  0.68455217  0.87022505
   0.26289075  0.28559617  0.35867433
   0.46757042  0.17335480  0.82795078
   0.55014075  0.92264297  0.38151836
   0.70742164  0.35818278  0.41260459
   0.80240876  0.65656076  0.90356562
Direct configuration=    36
   0.98744723  0.20907303  0.39879613
   0.22284857  0.32374225  0.94334732
   0.23678507  0.62262801  0.44721011
   0.51682870  0.81340308  0.91200817
   0.74344893  0.70790205  0.55372511
   0.72569255  0.30249498  0.97103446
   0.01656899  0.81608085  0.00262959
   0.49550800  0.20277686  0.50190593
   0.99193421  0.10386231  0.93723945
   0.97539116  0.80204005  0.33736546
   0.24527376  0.68473720  0.86967126
   0.26233493  0.28422900  0.35733330
   0.46609093  0.17289856  0.82855577
   0.55172137  0.92265362  0.38090540
   0.70736543  0.36040172  0.41364462
   0.80285832  0.65549967  0.90451930
Direct configuration=    37
   0.98415048  0.20983446  0.39577044
   0.22186156  0.32474206  0.94170113
   0.23613359  0.62323573  0.44503434
   0.51831074  0.81094702  0.90983230
   0.74242304  0.70809691  0.55298679
   0.72580035  0.30233175  0.97109366
   0.01662033  0.81690029  0.00210040
   0.49561681  0.20333611  0.50136691
   0.99159510  0.10317452  0.93919098
   0.97536596  0.80181844  0.33848458
   0.24649989  0.68492022  0.86915058
   0.26181843  0.28290830  0.35601971
   0.46465386  0.17246501  0.82913302
   0.55323444  0.92264372  0.38029540
   0.70732281  0.36263377  0.41466473
   0.80328053  0.65443853  0.90544852
Direct configuration=    38
   0.98084424  0.21044403  0.39283615
   0.22088895  0.32578712  0.94013014
   0.23550607  0.62396934  0.44290981
   0.51981112  0.80860478  0.90776885
   0.74140419  0.70822927  0.55217730
   0.72591185  0.30216583  0.97120518
   0.01667635  0.81762271  0.00165517
   0.49571702  0.20380116  0.50083058
   0.99125409  0.10258334  0.94106967
   0.97541405  0.80160209  0.33954029
   0.24764572  0.68510125  0.86866576
   0.26134229  0.28164152  0.35474187
   0.46326942  0.17205567  0.82967338
   0.55467195  0.92262038  0.37969224
   0.70729106  0.36486394  0.41565968
   0.80367448  0.65338456  0.90634577
Direct configuration=    39
   0.97756257  0.21090185  0.39000420
   0.21993437  0.32687282  0.93863961
   0.23490821  0.62481320  0.44084509
   0.52131971  0.80639235  0.90582609
   0.74040385  0.70829766  0.55131600
   0.72601870  0.30199509  0.97136561
   0.01673946  0.81823221  0.00130007
   0.49580684  0.20416962  0.50030267
   0.99091159  0.10210110  0.94286608
   0.97553372  0.80139163  0.34052581
   0.24870455  0.68528033  0.86821865
   0.26090663  0.28043402  0.35350610
   0.46194547  0.17167140  0.83016934
   0.55602841  0.92259027  0.37909890
   0.70726719  0.36707968  0.41662575
   0.80404012  0.65234379  0.90720523
Direct configuration=    40
   0.97433395  0.21120953  0.38728113
   0.21900021  0.32799503  0.93723219
   0.23434504  0.62575187  0.43884581
   0.52282770  0.80432098  0.90400875
   0.73943202  0.70830168  0.55042062
   0.72611326  0.30181736  0.97157145
   0.01681167  0.81871657  0.00103890
   0.49588494  0.20444116  0.49978769
   0.99056772  0.10173708  0.94457422
   0.97572261  0.80118737  0.34143684
   0.24967228  0.68545776  0.86781007
   0.26051070  0.27928912  0.35231671
   0.46068749  0.17131231  0.83061494
   0.55730082  0.92255956  0.37851731
   0.70724795  0.36927110  0.41756073
   0.80437815  0.65132077  0.90802284
Direct configuration=    41
   0.97118088  0.21136961  0.38466941
   0.21808773  0.32915027  0.93590818
   0.23382110  0.62677069  0.43691482
   0.52432788  0.80239748  0.90231845
   0.73849711  0.70824174  0.54950680
   0.72618873  0.30163046  0.97181929
   0.01689469  0.81906723  0.00087347
   0.49595042  0.20461724  0.49928903
   0.99022224  0.10149744  0.94619123
   0.97597808  0.80098935  0.34227127
   0.25054699  0.68563389  0.86744020
   0.26015319  0.27820830  0.35117593
   0.45949875  0.17097800  0.83100581
   0.55848844  0.92253373  0.37794839
   0.70722996  0.37143122  0.41846388
   0.80468989  0.65031853  0.90879605
Direct configuration=    42
   0.96812010  0.21138511  0.38216805
   0.21719712  0.33033574  0.93466589
   0.23334041  0.62785631  0.43505261
   0.52581455  0.80062496  0.90075429
   0.73760602  0.70811914  0.54858803
   0.72623908  0.30143222  0.97210608
   0.01698983  0.81927918  0.00080400
   0.49600266  0.20470056  0.49880893
   0.98987462  0.10138543  0.94771703
   0.97629737  0.80079735  0.34302882
   0.25132872  0.68580934  0.86710846
   0.25983229  0.27719137  0.35008444
   0.45838052  0.17066764  0.83133877
   0.55959239  0.92251759  0.37739223
   0.70720986  0.37355540  0.41933571
   0.80497710  0.64933888  0.90952378
Direct configuration=    43
   0.96516308  0.21125894  0.37977330
   0.21632776  0.33154931  0.93350210
   0.23290677  0.62899678  0.43325778
   0.52728343  0.79900361  0.89931353
   0.73676425  0.70793578  0.54767562
   0.72625896  0.30122042  0.97242920
   0.01709807  0.81935052  0.00082964
   0.49604136  0.20469477  0.49834874
   0.98952423  0.10140167  0.94915369
   0.97667787  0.80061097  0.34371049
   0.25201875  0.68598488  0.86681385
   0.25954602  0.27623687  0.34904153
   0.45733256  0.17038005  0.83161173
   0.56061515  0.92251533  0.37684813
   0.70718434  0.37564130  0.42017770
   0.80524186  0.64838241  0.91020597
Direct configuration=    44
   0.96231681  0.21099350  0.37747937
   0.21547835  0.33278947  0.93241247
   0.23252387  0.63018173  0.43152738
   0.52873136  0.79753163  0.89799218
   0.73597620  0.70769418  0.54677893
   0.72624361  0.30099279  0.97278656
   0.01722012  0.81928212  0.00094880
   0.49606643  0.20460400  0.49790908
   0.98917028  0.10154436  0.95050512
   0.97711729  0.80042969  0.34431822
   0.25261933  0.68616145  0.86655512
   0.25929230  0.27534246  0.34804540
   0.45635341  0.17011392  0.83182327
   0.56156016  0.92253054  0.37631475
   0.70715013  0.37768827  0.42099211
   0.80548651  0.64744877  0.91084339
Direct configuration=    45
   0.95958462  0.21059036  0.37527905
   0.21464718  0.33405522  0.93139190
   0.23219555  0.63140228  0.42985736
   0.53015616  0.79620594  0.89678557
   0.73524533  0.70739746  0.54590555
   0.72618868  0.30074702  0.97317663
   0.01735640  0.81907717  0.00115954
   0.49607783  0.20443263  0.49748996
   0.98881196  0.10180971  0.95177649
   0.97761374  0.80025290  0.34485454
   0.25313321  0.68634017  0.86633101
   0.25906920  0.27450527  0.34709348
   0.45544081  0.16986782  0.83197256
   0.56243150  0.92256612  0.37579024
   0.70710401  0.37969707  0.42178164
   0.80571339  0.64653691  0.91143736
Direct configuration=    46
   0.95696703  0.21005007  0.37316433
   0.21383220  0.33534593  0.93043493
   0.23192595  0.63265088  0.42824289
   0.53155628  0.79502290  0.89568879
   0.73457447  0.70704930  0.54506176
   0.72609015  0.30048068  0.97359847
   0.01750715  0.81874063  0.00145983
   0.49607561  0.20418505  0.49709103
   0.98844836  0.10219252  0.95297386
   0.97816593  0.80007998  0.34532213
   0.25356327  0.68652223  0.86614030
   0.25887495  0.27372211  0.34618272
   0.45459197  0.16964027  0.83205888
   0.56323356  0.92262463  0.37527242
   0.70704285  0.38166920  0.42254920
   0.80592492  0.64564524  0.91198956
Direct configuration=    47
   0.95446252  0.20937207  0.37112681
   0.21303121  0.33666119  0.92953594
   0.23171969  0.63392115  0.42667866
   0.53293062  0.79397876  0.89469707
   0.73396599  0.70665403  0.54425268
   0.72594410  0.30019125  0.97405166
   0.01767235  0.81827888  0.00184777
   0.49605979  0.20386558  0.49671159
   0.98807868  0.10268643  0.95410380
   0.97877303  0.79991028  0.34572369
   0.25391235  0.68670895  0.86598190
   0.25870803  0.27298967  0.34530989
   0.45380375  0.16942983  0.83208159