 vasp.6.3.2 27Jun22 (build Mar 25 2024 10:42:18) complex                         
 executed on             LinuxGNU date 2024.03.31  17:29:27
 running on   32 total cores
 distrk:  each k-point on   32 cores,    1 groups
 distr:  one band on NCORE=   1 cores,   32 groups


--------------------------------------------------------------------------------------------------------


 INCAR:
   ISTART = 0
   ICHARG = 2
   PREC = Accurate
   IBRION = -1
   EDIFF = 0.000000001
   EDIFFG = -0.0005
   NSW = 0
   NELM = 100
   ENCUT = 520
   ISMEAR = -5
   SIGMA = 0.05
   ISPIN = 2
   ISYM = 0
   LWAVE = False
   LCHARG = False
   LASPH = True
   LORBIT = 11
   ADDGRID = TRUE

 POTCAR:    PAW_PBE S 06Sep2000                   
 -----------------------------------------------------------------------------
|                                                                             |
|           W    W    AA    RRRRR   N    N  II  N    N   GGGG   !!!           |
|           W    W   A  A   R    R  NN   N  II  NN   N  G    G  !!!           |
|           W    W  A    A  R    R  N N  N  II  N N  N  G       !!!           |
|           W WW W  AAAAAA  RRRRR   N  N N  II  N  N N  G  GGG   !            |
|           WW  WW  A    A  R   R   N   NN  II  N   NN  G    G                |
|           W    W  A    A  R    R  N    N  II  N    N   GGGG   !!!           |
|                                                                             |
|     You use a magnetic or noncollinear calculation, but did not specify     |
|     the initial magnetic moment with the MAGMOM tag. Note that a            |
|     default of 1 will be used for all atoms. This ferromagnetic setup       |
|     may break the symmetry of the crystal, in particular it may rule        |
|     out finding an antiferromagnetic solution. Thence, we recommend         |
|     setting the initial magnetic moment manually or verifying carefully     |
|     that this magnetic setup is desired.                                    |
|                                                                             |
 -----------------------------------------------------------------------------

 -----------------------------------------------------------------------------
|                                                                             |
|           W    W    AA    RRRRR   N    N  II  N    N   GGGG   !!!           |
|           W    W   A  A   R    R  NN   N  II  NN   N  G    G  !!!           |
|           W    W  A    A  R    R  N N  N  II  N N  N  G       !!!           |
|           W WW W  AAAAAA  RRRRR   N  N N  II  N  N N  G  GGG   !            |
|           WW  WW  A    A  R   R   N   NN  II  N   NN  G    G                |
|           W    W  A    A  R    R  N    N  II  N    N   GGGG   !!!           |
|                                                                             |
|     For optimal performance we recommend to set                             |
|       NCORE = 2 up to number-of-cores-per-socket                            |
|     NCORE specifies how many cores store one orbital (NPAR=cpu/NCORE).      |
|     This setting can greatly improve the performance of VASP for DFT.       |
|     The default, NCORE=1 might be grossly inefficient on modern             |
|     multi-core architectures or massively parallel machines. Do your        |
|     own testing! More info at https://www.vasp.at/wiki/index.php/NCORE      |
|     Unfortunately you need to use the default for GW and RPA                |
|     calculations (for HF NCORE is supported but not extensively tested      |
|     yet).                                                                   |
|                                                                             |
 -----------------------------------------------------------------------------

 POTCAR:    PAW_PBE S 06Sep2000                   
   SHA256 =  0fc7481fb0695f01bdc6462160264c5c84044ae9ec85a907d398b887a2bc3132 S/POTCAR              
   COPYR  = (c) Copyright 06Sep2000 Georg Kresse                                                    
   COPYR  = This file is part of the software VASP. Any use, copying, and all other rights are regul
   COPYR  = If you do not have a valid VASP license, you may not use, copy or distribute this file. 
   VRHFIN =S : s2p4                                                                                 
   LEXCH  = PE                                                                                      
   EATOM  =   276.8230 eV,   20.3459 Ry                                                             
                                                                                                    
   TITEL  = PAW_PBE S 06Sep2000                                                                     
   LULTRA =        F    use ultrasoft PP ?                                                          
   IUNSCR =        1    unscreen: 0-lin 1-nonlin 2-no                                               
   RPACOR =    1.500    partial core radius                                                         
   POMASS =   32.066; ZVAL   =    6.000    mass and valenz                                          
   RCORE  =    1.900    outmost cutoff radius                                                       
   RWIGS  =    2.200; RWIGS  =    1.164    wigner-seitz radius (au A)                               
   ENMAX  =  258.689; ENMIN  =  194.016 eV                                                          
   ICORE  =        2    local potential                                                             
   LCOR   =        T    correct aug charges                                                         
   LPAW   =        T    paw PP                                                                      
   EAUG   =  335.092                                                                                
   DEXC   =    0.000                                                                                
   RMAX   =    1.942    core radius for proj-oper                                                   
   RAUG   =    1.300    factor for augmentation sphere                                              
   RDEP   =    1.954    radius for radial grids                                                     
   RDEPT  =    1.744    core radius for aug-charge                                                  
                                                                                                    
   Atomic configuration                                                                             
    6 entries                                                                                       
     n  l   j            E        occ.                                                              
     1  0  0.50     -2405.8406   2.0000                                                             
     2  0  0.50      -211.7007   2.0000                                                             
     2  1  1.50      -156.4958   6.0000                                                             
     3  0  0.50       -17.2562   2.0000                                                             
     3  1  0.50        -7.0085   4.0000                                                             
     3  2  1.50        -6.8029   0.0000                                                             
   Description                                                                                      
     l       E           TYP  RCUT    TYP  RCUT                                                     
     0    -17.2561641     23  1.900                                                                 
     0    -15.8743224     23  1.900                                                                 
     1     -7.0085400     23  1.900                                                                 
     1     -2.7779785     23  1.900                                                                 
     2     -6.8029130     23  1.900                                                                 
  local pseudopotential read in
  partial core-charges read in
  partial kinetic energy density read in
  atomic valenz-charges read in
  non local Contribution for L=           0  read in
    real space projection operators read in
  non local Contribution for L=           0  read in
    real space projection operators read in
  non local Contribution for L=           1  read in
    real space projection operators read in
  non local Contribution for L=           1  read in
    real space projection operators read in
    PAW grid and wavefunctions read in

   number of l-projection  operators is LMAX  =           4
   number of lm-projection operators is LMMAX =           8

 -----------------------------------------------------------------------------
|                                                                             |
|               ----> ADVICE to this user running VASP <----                  |
|                                                                             |
|     You have a (more or less) 'large supercell' and for larger cells it     |
|     might be more efficient to use real-space projection operators.         |
|     Therefore, try LREAL= Auto in the INCAR file.                           |
|     Mind: For very accurate calculation, you might also keep the            |
|     reciprocal projection scheme (i.e. LREAL=.FALSE.).                      |
|                                                                             |
 -----------------------------------------------------------------------------

  PAW_PBE S 06Sep2000                   :
 energy of atom  1       EATOM= -276.8230
 kinetic energy error for atom=    0.0016 (will be added to EATOM!!)


 POSCAR: generated by phonopy
  positions in direct lattice
  No initial velocities read in
 exchange correlation table for  LEXCH =        8
   RHO(1)=    0.500       N(1)  =     2000
   RHO(2)=  100.500       N(2)  =     4000



--------------------------------------------------------------------------------------------------------


 ion  position               nearest neighbor table
   1  0.886  0.467  0.678-  45 1.98  24 2.13
   2  0.886  0.967  0.678-  46 1.98  23 2.13
   3  0.330  0.189  0.551-  41 2.05  19 2.13
   4  0.330  0.689  0.551-  42 2.05  20 2.13
   5  0.913  0.105  0.912-  51 1.98  11 2.13
   6  0.913  0.605  0.912-  52 1.98  12 2.13
   7  0.240  0.301  0.777-  19 1.98  37 2.23
   8  0.240  0.801  0.777-  20 1.98  38 2.23
   9  0.144  0.306  0.224-  31 2.05  39 2.13
  10  0.144  0.806  0.224-  32 2.05  40 2.13
  11  0.856  0.194  0.776-  47 2.05   5 2.13
  12  0.856  0.694  0.776-  48 2.05   6 2.13
  13  0.760  0.199  0.223-  27 1.98  33 2.22
  14  0.760  0.699  0.223-  28 1.98  34 2.23
  15  0.170  0.439  0.449-  31 2.05  30 2.13
  16  0.170  0.939  0.449-  32 2.05  29 2.13
  17  0.413  0.145  0.912-  37 1.98  43 2.13
  18  0.413  0.645  0.912-  38 1.98  44 2.13
  19  0.386  0.283  0.678-   7 1.98   3 2.13
  20  0.386  0.783  0.678-   8 1.98   4 2.13
  21  0.644  0.444  0.224-  53 2.05  35 2.13
  22  0.644  0.944  0.224-  54 2.05  36 2.13
  23  0.830  0.061  0.551-  47 2.05   2 2.13
  24  0.830  0.561  0.551-  48 2.05   1 2.13
  25  0.260  0.051  0.223-  29 1.98  50 2.23
  26  0.260  0.551  0.223-  30 1.98  49 2.23
  27  0.614  0.217  0.322-  13 1.98  55 2.13
  28  0.614  0.717  0.322-  14 1.98  56 2.13
  29  0.114  0.033  0.322-  25 1.98  16 2.13
  30  0.114  0.533  0.322-  26 1.98  15 2.13
  31  0.060  0.345  0.374-   9 2.05  15 2.05
  32  0.060  0.845  0.374-  10 2.05  16 2.05
  33  0.743  0.289  0.071-  35 1.99  13 2.22
  34  0.743  0.789  0.071-  36 1.98  14 2.23
  35  0.587  0.355  0.088-  33 1.99  21 2.13
  36  0.587  0.855  0.088-  34 1.98  22 2.13
  37  0.257  0.211  0.929-  17 1.98   7 2.23
  38  0.257  0.711  0.929-  18 1.98   8 2.23
  39  0.087  0.395  0.088-  49 1.98   9 2.13
  40  0.087  0.895  0.088-  50 1.98  10 2.13
  41  0.440  0.095  0.626-  43 2.05   3 2.05
  42  0.440  0.595  0.626-  44 2.05   4 2.05
  43  0.356  0.056  0.776-  41 2.05  17 2.13
  44  0.356  0.556  0.776-  42 2.05  18 2.13
  45  0.740  0.449  0.777-   1 1.98  52 2.23
  46  0.740  0.949  0.777-   2 1.98  51 2.23
  47  0.940  0.155  0.626-  11 2.05  23 2.05
  48  0.940  0.655  0.626-  12 2.05  24 2.05
  49  0.243  0.461  0.071-  39 1.98  26 2.23
  50  0.243  0.961  0.071-  40 1.98  25 2.23
  51  0.757  0.039  0.929-   5 1.98  46 2.23
  52  0.757  0.539  0.929-   6 1.98  45 2.23
  53  0.560  0.405  0.374-  21 2.05  55 2.05
  54  0.560  0.905  0.374-  22 2.05  56 2.05
  55  0.670  0.311  0.449-  53 2.05  27 2.13
  56  0.670  0.811  0.449-  54 2.05  28 2.13


IMPORTANT INFORMATION: All symmetrisations will be switched off!
NOSYMM: (Re-)initialisation of all symmetry stuff for point group C_1.


----------------------------------------------------------------------------------------

                                     Primitive cell                                     

  volume of cell :    1863.6770

  direct lattice vectors                    reciprocal lattice vectors
     0.000000000 10.307367086 -0.372855731     0.000000000  0.096453423 -0.015606996
    16.788494411  0.000000000  0.000000000     0.059564603  0.000000000  0.000000000
     0.000000000 -1.732519801-10.707215182     0.000000000 -0.003358783 -0.092851486

  length of vectors
    10.314108670 16.788494411 10.846477853     0.097707938  0.059564603  0.092912216

  position of ions in fractional coordinates (direct lattice)
     0.886423141  0.467004751  0.678126386
     0.886423141  0.967004751  0.678126386
     0.329563264  0.188743823  0.550707721
     0.329563264  0.688743823  0.550707721
     0.912671285  0.105241885  0.911960471
     0.912671285  0.605241885  0.911960471
     0.239736405  0.300831047  0.776574189
     0.239736405  0.800831047  0.776574189
     0.144417516  0.305688762  0.224396680
     0.144417516  0.805688762  0.224396680
     0.855582484  0.194311238  0.775603320
     0.855582484  0.694311238  0.775603320
     0.760263595  0.199168953  0.223425811
     0.760263595  0.699168953  0.223425811
     0.170436736  0.438743823  0.449292279
     0.170436736  0.938743823  0.449292279
     0.412671285  0.144758115  0.911960471
     0.412671285  0.644758115  0.911960471
     0.386423141  0.282995249  0.678126386
     0.386423141  0.782995249  0.678126386
     0.644417516  0.444311238  0.224396680
     0.644417516  0.944311238  0.224396680
     0.829563264  0.061256177  0.550707721
     0.829563264  0.561256177  0.550707721
     0.260263595  0.050831047  0.223425811
     0.260263595  0.550831047  0.223425811
     0.613576859  0.217004751  0.321873614
     0.613576859  0.717004751  0.321873614
     0.113576859  0.032995249  0.321873614
     0.113576859  0.532995249  0.321873614
     0.059895700  0.345087734  0.374484367
     0.059895700  0.845087734  0.374484367
     0.743425210  0.288748697  0.071165234
     0.743425210  0.789344343  0.071165234
     0.587328715  0.355241885  0.088039529
     0.587328715  0.855241885  0.088039529
     0.256574790  0.210655657  0.928834766
     0.256574790  0.710655657  0.928834766
     0.087328715  0.394758115  0.088039529
     0.087328715  0.894758115  0.088039529
     0.440104300  0.095087734  0.625515633
     0.440104300  0.595087734  0.625515633
     0.355582484  0.055688762  0.775603320
     0.355582484  0.555688762  0.775603320
     0.739736405  0.449168953  0.776574189
     0.739736405  0.949168953  0.776574189
     0.940104300  0.154912266  0.625515633
     0.940104300  0.654912266  0.625515633
     0.243425210  0.460655657  0.071165234
     0.243425210  0.960655657  0.071165234
     0.756574790  0.039344343  0.928834766
     0.756574790  0.539344343  0.928834766
     0.559895700  0.404912266  0.374484367
     0.559895700  0.904912266  0.374484367
     0.670436736  0.311256177  0.449292279
     0.670436736  0.811256177  0.449292279

  ion indices of the primitive-cell ions
   primitive index   ion index
                 1           1
                 2           2
                 3           3
                 4           4
                 5           5
                 6           6
                 7           7
                 8           8
                 9           9
                10          10
                11          11
                12          12
                13          13
                14          14
                15          15
                16          16
                17          17
                18          18
                19          19
                20          20
                21          21
                22          22
                23          23
                24          24
                25          25
                26          26
                27          27
                28          28
                29          29
                30          30
                31          31
                32          32
                33          33
                34          34
                35          35
                36          36
                37          37
                38          38
                39          39
                40          40
                41          41
                42          42
                43          43
                44          44
                45          45
                46          46
                47          47
                48          48
                49          49
                50          50
                51          51
                52          52
                53          53
                54          54
                55          55
                56          56

----------------------------------------------------------------------------------------



 KPOINTS: pymatgen with grid density = 595 / numbe

Automatic generation of k-mesh.
 Grid dimensions read from file:
 generate k-points for:    2    2    2

 Generating k-lattice:

  Cartesian coordinates                     Fractional coordinates (reciprocal lattice)
     0.000000000  0.048226712 -0.007803498     0.500000000  0.000000000 -0.000000000
     0.029782301  0.000000000  0.000000000     0.000000000  0.500000000  0.000000000
     0.000000000 -0.001679391 -0.046425743    -0.000000000  0.000000000  0.500000000

  Length of vectors
     0.048853969  0.029782301  0.046456108

  Shift w.r.t. Gamma in fractional coordinates (k-lattice)
     0.000000000  0.000000000  0.000000000

 TETIRR: Found     24 inequivalent tetrahedra from       48
 
 Subroutine IBZKPT returns following result:
 ===========================================
 
 Found      8 irreducible k-points:
 
 Following reciprocal coordinates:
            Coordinates               Weight
  0.000000  0.000000  0.000000      1.000000
  0.500000  0.000000  0.000000      1.000000
  0.000000  0.500000  0.000000      1.000000
  0.500000  0.500000  0.000000      1.000000
  0.000000  0.000000  0.500000      1.000000
  0.500000  0.000000  0.500000      1.000000
  0.000000  0.500000  0.500000      1.000000
  0.500000  0.500000  0.500000      1.000000
 
 Following cartesian coordinates:
            Coordinates               Weight
  0.000000  0.000000 -0.000000      1.000000
  0.000000  0.048227 -0.007803      1.000000
  0.029782  0.000000 -0.000000      1.000000
  0.029782  0.048227 -0.007803      1.000000
  0.000000 -0.001679 -0.046426      1.000000
  0.000000  0.046547 -0.054229      1.000000
  0.029782 -0.001679 -0.046426      1.000000
  0.029782  0.046547 -0.054229      1.000000
 


--------------------------------------------------------------------------------------------------------




 Dimension of arrays:
   k-points           NKPTS =      8   k-points in BZ     NKDIM =      8   number of bands    NBANDS=    256
   number of dos      NEDOS =    301   number of ions     NIONS =     56
   non local maximal  LDIM  =      4   non local SUM 2l+1 LMDIM =      8
   total plane-waves  NPLWV = 846720
   max r-space proj   IRMAX =      1   max aug-charges    IRDMAX= 114695
   dimension x,y,z NGX =    80 NGY =  126 NGZ =   84
   dimension x,y,z NGXF=   160 NGYF=  252 NGZF=  168
   support grid    NGXF=   320 NGYF=  504 NGZF=  336
   ions per type =              56
   NGX,Y,Z   is equivalent  to a cutoff of  12.89, 12.48, 12.87 a.u.
   NGXF,Y,Z  is equivalent  to a cutoff of  25.79, 24.95, 25.75 a.u.

 SYSTEM =  unknown system                          
 POSCAR =  generated by phonopy                    

 Startparameter for this run:
   NWRITE =      2    write-flag & timer
   PREC   = accura    normal or accurate (medium, high low for compatibility)
   ISTART =      0    job   : 0-new  1-cont  2-samecut
   ICHARG =      2    charge: 1-file 2-atom 10-const
   ISPIN  =      2    spin polarized calculation?
   LNONCOLLINEAR =      F non collinear calculations
   LSORBIT =      F    spin-orbit coupling
   INIWAV =      1    electr: 0-lowe 1-rand  2-diag
   LASPH  =      T    aspherical Exc in radial PAW
 Electronic Relaxation 1
   ENCUT  =  520.0 eV  38.22 Ry    6.18 a.u.  19.18 31.22 20.17*2*pi/ulx,y,z
   ENINI  =  520.0     initial cutoff
   ENAUG  =  335.1 eV  augmentation charge cutoff
   NELM   =    100;   NELMIN=  2; NELMDL= -5     # of ELM steps 
   EDIFF  = 0.1E-08   stopping-criterion for ELM
   LREAL  =      F    real-space projection
   NLSPLINE    = F    spline interpolate recip. space projectors
   LCOMPAT=      F    compatible to vasp.4.4
   GGA_COMPAT  = T    GGA compatible to vasp.4.4-vasp.4.6
   LMAXPAW     = -100 max onsite density
   LMAXMIX     =    2 max onsite mixed and CHGCAR
   VOSKOWN=      0    Vosko Wilk Nusair interpolation
   ROPT   =    0.00000
 Ionic relaxation
   EDIFFG = -.5E-03   stopping-criterion for IOM
   NSW    =      0    number of steps for IOM
   NBLOCK =      1;   KBLOCK =      1    inner block; outer block 
   IBRION =     -1    ionic relax: 0-MD 1-quasi-New 2-CG
   NFREE  =      0    steps in history (QN), initial steepest desc. (CG)
   ISIF   =      2    stress and relaxation
   IWAVPR =     10    prediction:  0-non 1-charg 2-wave 3-comb
   ISYM   =      0    0-nonsym 1-usesym 2-fastsym
   LCORR  =      T    Harris-Foulkes like correction to forces

   POTIM  = 0.5000    time-step for ionic-motion
   TEIN   =    0.0    initial temperature
   TEBEG  =    0.0;   TEEND  =   0.0 temperature during run
   SMASS  =  -3.00    Nose mass-parameter (am)
   estimated Nose-frequenzy (Omega)   =  0.10E-29 period in steps = 0.13E+47 mass=  -0.243E-26a.u.
   SCALEE = 1.0000    scale energy and forces
   NPACO  =    256;   APACO  = 10.0  distance and # of slots for P.C.
   PSTRESS=    0.0 pullay stress

  Mass of Ions in am
   POMASS =  32.07
  Ionic Valenz
   ZVAL   =   6.00
  Atomic Wigner-Seitz radii
   RWIGS  =  -1.00
  virtual crystal weights 
   VCA    =   1.00
   NELECT =     336.0000    total number of electrons
   NUPDOWN=      -1.0000    fix difference up-down

 DOS related values:
   EMIN   =  10.00;   EMAX   =-10.00  energy-range for DOS
   EFERMI =   0.00
   ISMEAR =    -5;   SIGMA  =   0.05  broadening in eV -4-tet -1-fermi 0-gaus

 Electronic relaxation 2 (details)
   IALGO  =     38    algorithm
   LDIAG  =      T    sub-space diagonalisation (order eigenvalues)
   LSUBROT=      F    optimize rotation matrix (better conditioning)
   TURBO    =      0    0=normal 1=particle mesh
   IRESTART =      0    0=no restart 2=restart with 2 vectors
   NREBOOT  =      0    no. of reboots
   NMIN     =      0    reboot dimension
   EREF     =   0.00    reference energy to select bands
   IMIX   =      4    mixing-type and parameters
     AMIX     =   0.40;   BMIX     =  1.00
     AMIX_MAG =   1.60;   BMIX_MAG =  1.00
     AMIN     =   0.10
     WC   =   100.;   INIMIX=   1;  MIXPRE=   1;  MAXMIX= -45

 Intra band minimization:
   WEIMIN = 0.0000     energy-eigenvalue tresh-hold
   EBREAK =  0.98E-12  absolut break condition
   DEPER  =   0.30     relativ break condition  

   TIME   =   0.40     timestep for ELM

  volume/ion in A,a.u.               =      33.28       224.58
  Fermi-wavevector in a.u.,A,eV,Ry     =   0.924835  1.747685 11.637339  0.855320
  Thomas-Fermi vector in A             =   2.050624

 Write flags
   LWAVE        =      F    write WAVECAR
   LDOWNSAMPLE  =      F    k-point downsampling of WAVECAR
   LCHARG       =      F    write CHGCAR
   LVTOT        =      F    write LOCPOT, total local potential
   LVHAR        =      F    write LOCPOT, Hartree potential only
   LELF         =      F    write electronic localiz. function (ELF)
   LORBIT       =     11    0 simple, 1 ext, 2 COOP (PROOUT), +10 PAW based schemes


 Dipole corrections
   LMONO  =      F    monopole corrections only (constant potential shift)
   LDIPOL =      F    correct potential (dipole corrections)
   IDIPOL =      0    1-x, 2-y, 3-z, 4-all directions 
   EPSILON=  1.0000000 bulk dielectric constant

 Exchange correlation treatment:
   GGA     =    --    GGA type
   LEXCH   =     8    internal setting for exchange type
   LIBXC   =     F    Libxc                    
   VOSKOWN =     0    Vosko Wilk Nusair interpolation
   LHFCALC =     F    Hartree Fock is set to
   LHFONE  =     F    Hartree Fock one center treatment
   AEXX    =    0.0000 exact exchange contribution

 Linear response parameters
   LEPSILON=     F    determine dielectric tensor
   LRPA    =     F    only Hartree local field effects (RPA)
   LNABLA  =     F    use nabla operator in PAW spheres
   LVEL    =     F    velocity operator in full k-point grid
   CSHIFT  =0.1000    complex shift for real part using Kramers Kronig
   OMEGAMAX=  -1.0    maximum frequency
   DEG_THRESHOLD= 0.2000000E-02 threshold for treating states as degnerate
   RTIME   =   -0.100 relaxation time in fs
  (WPLASMAI=    0.000 imaginary part of plasma frequency in eV, 0.658/RTIME)
   DFIELD  = 0.0000000 0.0000000 0.0000000 field for delta impulse in time

  Optional k-point grid parameters
   LKPOINTS_OPT  =     F    use optional k-point grid
   KPOINTS_OPT_MODE=     1    mode for optional k-point grid

 Orbital magnetization related:
   ORBITALMAG=     F  switch on orbital magnetization
   LCHIMAG   =     F  perturbation theory with respect to B field
   DQ        =  0.001000  dq finite difference perturbation B field
   LLRAUG    =     F  two centre corrections for induced B field



--------------------------------------------------------------------------------------------------------


 Static calculation
 charge density and potential will be updated during run
 spin polarized calculation
 Variant of blocked Davidson
 Davidson routine will perform the subspace rotation
 perform sub-space diagonalisation
    after iterative eigenvector-optimisation
 modified Broyden-mixing scheme, WC =      100.0
 initial mixing is a Kerker type mixing with AMIX =  0.4000 and BMIX =      1.0000
 Hartree-type preconditioning will be used
 using additional bands           88
 reciprocal scheme for non local part
 use partial core corrections
 calculate Harris-corrections to forces   (improved forces if not selfconsistent)
 use gradient corrections 
 use of overlap-Matrix (Vanderbilt PP)
 Fermi weights with tetrahedron method with Bloechl corrections


--------------------------------------------------------------------------------------------------------


  energy-cutoff  :      520.00
  volume of cell :     1863.68
      direct lattice vectors                 reciprocal lattice vectors
     0.000000000 10.307367086 -0.372855731     0.000000000  0.096453423 -0.015606996
    16.788494411  0.000000000  0.000000000     0.059564603  0.000000000  0.000000000
     0.000000000 -1.732519801-10.707215182     0.000000000 -0.003358783 -0.092851486

  length of vectors
    10.314108670 16.788494411 10.846477853     0.097707938  0.059564603  0.092912216



 k-points in units of 2pi/SCALE and weight: pymatgen with grid density = 595 / numbe
   0.00000000  0.00000000 -0.00000000       0.125
   0.00000000  0.04822671 -0.00780350       0.125
   0.02978230  0.00000000 -0.00000000       0.125
   0.02978230  0.04822671 -0.00780350       0.125
   0.00000000 -0.00167939 -0.04642574       0.125
   0.00000000  0.04654732 -0.05422924       0.125
   0.02978230 -0.00167939 -0.04642574       0.125
   0.02978230  0.04654732 -0.05422924       0.125

 k-points in reciprocal lattice and weights: pymatgen with grid density = 595 / numbe
   0.00000000  0.00000000  0.00000000       0.125
   0.50000000  0.00000000  0.00000000       0.125
   0.00000000  0.50000000  0.00000000       0.125
   0.50000000  0.50000000  0.00000000       0.125
   0.00000000  0.00000000  0.50000000       0.125
   0.50000000  0.00000000  0.50000000       0.125
   0.00000000  0.50000000  0.50000000       0.125
   0.50000000  0.50000000  0.50000000       0.125

 position of ions in fractional coordinates (direct lattice) 
   0.88642314  0.46700475  0.67812639
   0.88642314  0.96700475  0.67812639
   0.32956326  0.18874382  0.55070772
   0.32956326  0.68874382  0.55070772
   0.91267129  0.10524188  0.91196047
   0.91267129  0.60524188  0.91196047
   0.23973640  0.30083105  0.77657419
   0.23973640  0.80083105  0.77657419
   0.14441752  0.30568876  0.22439668
   0.14441752  0.80568876  0.22439668
   0.85558248  0.19431124  0.77560332
   0.85558248  0.69431124  0.77560332
   0.76026360  0.19916895  0.22342581
   0.76026360  0.69916895  0.22342581
   0.17043674  0.43874382  0.44929228
   0.17043674  0.93874382  0.44929228
   0.41267129  0.14475812  0.91196047
   0.41267129  0.64475812  0.91196047
   0.38642314  0.28299525  0.67812639
   0.38642314  0.78299525  0.67812639
   0.64441752  0.44431124  0.22439668
   0.64441752  0.94431124  0.22439668
   0.82956326  0.06125618  0.55070772
   0.82956326  0.56125618  0.55070772
   0.26026360  0.05083105  0.22342581
   0.26026360  0.55083105  0.22342581
   0.61357686  0.21700475  0.32187361
   0.61357686  0.71700475  0.32187361
   0.11357686  0.03299525  0.32187361
   0.11357686  0.53299525  0.32187361
   0.05989570  0.34508773  0.37448437
   0.05989570  0.84508773  0.37448437
   0.74342521  0.28874870  0.07116523
   0.74342521  0.78934434  0.07116523
   0.58732871  0.35524188  0.08803953
   0.58732871  0.85524188  0.08803953
   0.25657479  0.21065566  0.92883477
   0.25657479  0.71065566  0.92883477
   0.08732871  0.39475812  0.08803953
   0.08732871  0.89475812  0.08803953
   0.44010430  0.09508773  0.62551563
   0.44010430  0.59508773  0.62551563
   0.35558248  0.05568876  0.77560332
   0.35558248  0.55568876  0.77560332
   0.73973640  0.44916895  0.77657419
   0.73973640  0.94916895  0.77657419
   0.94010430  0.15491227  0.62551563
   0.94010430  0.65491227  0.62551563
   0.24342521  0.46065566  0.07116523
   0.24342521  0.96065566  0.07116523
   0.75657479  0.03934434  0.92883477
   0.75657479  0.53934434  0.92883477
   0.55989570  0.40491227  0.37448437
   0.55989570  0.90491227  0.37448437
   0.67043674  0.31125618  0.44929228
   0.67043674  0.81125618  0.44929228

 position of ions in cartesian coordinates  (Angst):
   7.84030666  7.96182132 -7.59135308
  16.23455387  7.96182132 -7.59135308
   3.16872461  2.44281751 -6.01942562
  11.56297182  2.44281751 -6.01942562
   1.76685280  7.82724839-10.10485172
  10.16110000  7.82724839-10.10485172
   5.05050035  1.12562097 -8.40433404
  13.44474755  1.12562097 -8.40433404
   5.13205407  1.09979266 -2.45651044
  13.52630128  1.09979266 -2.45651044
   3.26219313  7.47505463 -8.62356047
  11.65644034  7.47505463 -8.62356047
   3.34374686  7.44922632 -2.67573688
  11.73799406  7.44922632 -2.67573688
   7.36584822  0.97834624 -4.87421742
  15.76009542  0.97834624 -4.87421742
   2.43027081  2.67356485 -9.91842386
  10.82451801  2.67356485 -9.91842386
   4.75106415  2.80813777 -7.40492521
  13.14531135  2.80813777 -7.40492521
   7.45931673  6.25347620 -2.64293831
  15.85356394  6.25347620 -2.64293831
   1.02839899  7.59650105 -6.20585349
   9.42264619  7.59650105 -6.20585349
   0.85337674  2.29554277 -2.48930901
   9.24762395  2.29554277 -2.48930901
   3.64318306  5.76670951 -3.67514570
  12.03743026  5.76670951 -3.67514570
   0.55394055  0.61302597 -3.48871783
   8.94818775  0.61302597 -3.48871783
   5.79350349 -0.03143461 -4.03201715
  14.18775070 -0.03143461 -4.03201715
   4.84765589  7.53946136 -1.03917182
  13.25190310  7.53946136 -1.03917182
   5.96397640  5.90128244 -1.16164705
  14.35822361  5.90128244 -1.16164705
   3.53659131  1.03538593-10.04089909
  11.93083852  1.03538593-10.04089909
   6.62739441  0.74759889 -0.97521919
  15.02164161  0.74759889 -0.97521919
   1.59637989  3.45259836 -6.86162589
   9.99062710  3.45259836 -6.86162589
   0.93493047  2.32137108 -8.43713261
   9.32917768  2.32137108 -8.43713261
   7.54087046  6.27930451 -8.59076190
  15.93511767  6.27930451 -8.59076190
   2.60074371  8.60628190 -7.04805376
  10.99499092  8.60628190 -7.04805376
   7.73371492  2.38577782 -0.85274396
  16.12796212  2.38577782 -0.85274396
   0.66053229  6.18906947-10.22732695
   9.05477950  6.18906947-10.22732695
   6.79786731  5.12224893 -4.21844502
  15.19211452  5.12224893 -4.21844502
   5.22552259  6.13202978 -5.06064529
  13.61976980  6.13202978 -5.06064529



--------------------------------------------------------------------------------------------------------


 k-point   1 :   0.0000 0.0000 0.0000  plane waves:   50179
 k-point   2 :   0.5000 0.0000 0.0000  plane waves:   50160
 k-point   3 :   0.0000 0.5000 0.0000  plane waves:   50162
 k-point   4 :   0.5000 0.5000 0.0000  plane waves:   50192
 k-point   5 :   0.0000 0.0000 0.5000  plane waves:   50190
 k-point   6 :   0.5000 0.0000 0.5000  plane waves:   50190
 k-point   7 :   0.0000 0.5000 0.5000  plane waves:   50172
 k-point   8 :   0.5000 0.5000 0.5000  plane waves:   50200

 maximum and minimum number of plane-waves per node :     50200    50160

 maximum number of plane-waves:     50200
 maximum index in each direction: 
   IXMAX=   19   IYMAX=   31   IZMAX=   20
   IXMIN=  -19   IYMIN=  -31   IZMIN=  -20


 serial   3D FFT for wavefunctions
 parallel 3D FFT for charge:
    minimum data exchange during FFTs selected (reduces bandwidth)


 total amount of memory used by VASP MPI-rank0   322725. kBytes
=======================================================================

   base      :      30000. kBytes
   nonl-proj :      70692. kBytes
   fftplans  :      34504. kBytes
   grid      :      83442. kBytes
   one-center:        344. kBytes
   wavefun   :     103743. kBytes

     INWAV:  cpu time      0.0000: real time      0.0002
 Broyden mixing: mesh for mixing (old mesh)
   NGX = 39   NGY = 63   NGZ = 41
  (NGX  =160   NGY  =252   NGZ  =168)
  gives a total of 100737 points

 initial charge density was supplied:
 charge density of overlapping atoms calculated
 number of electron     336.0000000 magnetization      56.0000000
 keeping initial charge density in first step


--------------------------------------------------------------------------------------------------------


 Maximum index for augmentation-charges         3947 (set IRDMAX)


--------------------------------------------------------------------------------------------------------


 First call to EWALD:  gamma=   0.144
 Maximum number of real-space cells 3x 2x 3
 Maximum number of reciprocal cells 2x 4x 2

    FEWALD:  cpu time      0.0023: real time      0.0024


--------------------------------------- Iteration      1(   1)  ---------------------------------------


    POTLOK:  cpu time      6.9054: real time      6.9549
    SETDIJ:  cpu time     18.9940: real time     19.1086
     EDDAV:  cpu time     84.8005: real time     84.9363
 BZINTS: Fermi energy:   10.166646;  336.000000 electrons
         Band energy: 0.225158E+03;  BLOECHL correction:   -0.008872
       DOS:  cpu time      0.0523: real time      0.0523
    --------------------------------------------
      LOOP:  cpu time    110.7522: real time    111.0521

 eigenvalue-minimisations  :  8192
 total energy-change (2. order) : 0.2106133E+04  (-0.1333791E+05)
 number of electron     336.0000000 magnetization      56.0000000
 augmentation part      336.0000000 magnetization      56.0000000

 Free energy of the ion-electron system (eV)
  ---------------------------------------------------
  alpha Z        PSCENC =       253.99581917
  Ewald energy   TEWEN  =     -9971.13699729
  -Hartree energ DENC   =     -4765.63993580
  -exchange      EXHF   =         0.00000000
  -V(xc)+E(xc)   XCENC  =       682.50977420
  PAW double counting   =     12174.71095765   -11995.46358648
  entropy T*S    EENTRO =         0.00000000
  eigenvalues    EBANDS =       225.15802681
  atomic energy  EATOM  =     15501.99929693
  Solvation  Ediel_sol  =         0.00000000
  ---------------------------------------------------
  free energy    TOTEN  =      2106.13335521 eV

  energy without entropy =     2106.13335521  energy(sigma->0) =     2106.13335521


--------------------------------------------------------------------------------------------------------




--------------------------------------- Iteration      1(   2)  ---------------------------------------


     EDDAV:  cpu time    137.0854: real time    137.2724
 BZINTS: Fermi energy:    1.452313;  336.000000 electrons
         Band energy:-0.187471E+04;  BLOECHL correction:    0.000000
       DOS:  cpu time      0.0301: real time      0.0301
    --------------------------------------------
      LOOP:  cpu time    137.1155: real time    137.3025

 eigenvalue-minimisations  : 10272
 total energy-change (2. order) :-0.2099870E+04  (-0.2021689E+04)
 number of electron     336.0000000 magnetization      56.0000000
 augmentation part      336.0000000 magnetization      56.0000000

 Free energy of the ion-electron system (eV)
  ---------------------------------------------------
  alpha Z        PSCENC =       253.99581917
  Ewald energy   TEWEN  =     -9971.13699729
  -Hartree energ DENC   =     -4765.63993580
  -exchange      EXHF   =         0.00000000
  -V(xc)+E(xc)   XCENC  =       682.50977420
  PAW double counting   =     12174.71095765   -11995.46358648
  entropy T*S    EENTRO =         0.00000000
  eigenvalues    EBANDS =     -1874.71160857
  atomic energy  EATOM  =     15501.99929693
  Solvation  Ediel_sol  =         0.00000000
  ---------------------------------------------------
  free energy    TOTEN  =         6.26371983 eV

  energy without entropy =        6.26371983  energy(sigma->0) =        6.26371983


--------------------------------------------------------------------------------------------------------




--------------------------------------- Iteration      1(   3)  ---------------------------------------


     EDDAV:  cpu time    119.4788: real time    119.5952
 BZINTS: Fermi energy:    0.220870;  336.000000 electrons
         Band energy:-0.209455E+04;  BLOECHL correction:    0.000000
       DOS:  cpu time      0.0290: real time      0.0291
    --------------------------------------------
      LOOP:  cpu time    119.5078: real time    119.6243

 eigenvalue-minimisations  : 10240
 total energy-change (2. order) :-0.2198419E+03  (-0.2171554E+03)
 number of electron     336.0000000 magnetization      56.0000000
 augmentation part      336.0000000 magnetization      56.0000000

 Free energy of the ion-electron system (eV)
  ---------------------------------------------------
  alpha Z        PSCENC =       253.99581917
  Ewald energy   TEWEN  =     -9971.13699729
  -Hartree energ DENC   =     -4765.63993580
  -exchange      EXHF   =         0.00000000
  -V(xc)+E(xc)   XCENC  =       682.50977420
  PAW double counting   =     12174.71095765   -11995.46358648
  entropy T*S    EENTRO =         0.00000000
  eigenvalues    EBANDS =     -2094.55350409
  atomic energy  EATOM  =     15501.99929693
  Solvation  Ediel_sol  =         0.00000000
  ---------------------------------------------------
  free energy    TOTEN  =      -213.57817569 eV

  energy without entropy =     -213.57817569  energy(sigma->0) =     -213.57817569


--------------------------------------------------------------------------------------------------------




--------------------------------------- Iteration      1(   4)  ---------------------------------------


     EDDAV:  cpu time    131.0154: real time    131.2408
 BZINTS: Fermi energy:    0.193875;  336.000000 electrons
         Band energy:-0.209945E+04;  BLOECHL correction:    0.000000
       DOS:  cpu time      0.0290: real time      0.0290
    --------------------------------------------
      LOOP:  cpu time    131.0444: real time    131.2698

 eigenvalue-minimisations  : 10368
 total energy-change (2. order) :-0.4900525E+01  (-0.4882187E+01)
 number of electron     336.0000000 magnetization      56.0000000
 augmentation part      336.0000000 magnetization      56.0000000

 Free energy of the ion-electron system (eV)
  ---------------------------------------------------
  alpha Z        PSCENC =       253.99581917
  Ewald energy   TEWEN  =     -9971.13699729
  -Hartree energ DENC   =     -4765.63993580
  -exchange      EXHF   =         0.00000000
  -V(xc)+E(xc)   XCENC  =       682.50977420
  PAW double counting   =     12174.71095765   -11995.46358648
  entropy T*S    EENTRO =         0.00000000
  eigenvalues    EBANDS =     -2099.45402871
  atomic energy  EATOM  =     15501.99929693
  Solvation  Ediel_sol  =         0.00000000
  ---------------------------------------------------
  free energy    TOTEN  =      -218.47870031 eV

  energy without entropy =     -218.47870031  energy(sigma->0) =     -218.47870031


--------------------------------------------------------------------------------------------------------




--------------------------------------- Iteration      1(   5)  ---------------------------------------


     EDDAV:  cpu time    106.6562: real time    106.7414
 BZINTS: Fermi energy:    0.193509;  336.000000 electrons
         Band energy:-0.209959E+04;  BLOECHL correction:    0.000000
       DOS:  cpu time      0.0298: real time      0.0299
    CHARGE:  cpu time     11.4300: real time     11.4376
    MIXING:  cpu time      0.0084: real time      0.0084
    --------------------------------------------
      LOOP:  cpu time    118.1244: real time    118.2173

 eigenvalue-minimisations  : 10016
 total energy-change (2. order) :-0.1329332E+00  (-0.1328669E+00)
 number of electron     335.9999997 magnetization      44.9918631
 augmentation part      -47.3226378 magnetization      44.8837163

 Broyden mixing:
  rms(total) = 0.82831E+01    rms(broyden)= 0.82831E+01
  rms(prec ) = 0.83031E+01
  weight for this iteration     100.00

 Free energy of the ion-electron system (eV)
  ---------------------------------------------------
  alpha Z        PSCENC =       253.99581917
  Ewald energy   TEWEN  =     -9971.13699729
  -Hartree energ DENC   =     -4765.63993580
  -exchange      EXHF   =         0.00000000
  -V(xc)+E(xc)   XCENC  =       682.50977420
  PAW double counting   =     12174.71095765   -11995.46358648
  entropy T*S    EENTRO =         0.00000000
  eigenvalues    EBANDS =     -2099.58696190
  atomic energy  EATOM  =     15501.99929693
  Solvation  Ediel_sol  =         0.00000000
  ---------------------------------------------------
  free energy    TOTEN  =      -218.61163351 eV

  energy without entropy =     -218.61163351  energy(sigma->0) =     -218.61163351


--------------------------------------------------------------------------------------------------------




--------------------------------------- Iteration      1(   6)  ---------------------------------------


    POTLOK:  cpu time      3.8994: real time      3.9036
    SETDIJ:  cpu time     15.6377: real time     15.6518
     EDDAV:  cpu time    102.0184: real time    102.0999
 BZINTS: Fermi energy:    0.410071;  336.000000 electrons
         Band energy:-0.201413E+04;  BLOECHL correction:   -0.000000
       DOS:  cpu time      0.0332: real time      0.0332
    CHARGE:  cpu time     21.8501: real time     21.8647
    MIXING:  cpu time      0.0115: real time      0.0115
    --------------------------------------------
      LOOP:  cpu time    143.4503: real time    143.5647

 eigenvalue-minimisations  :  9632
 total energy-change (2. order) : 0.1022862E+03  (-0.2668048E+02)
 number of electron     335.9999997 magnetization      26.4832543
 augmentation part      -47.6488674 magnetization      27.5418013

 Broyden mixing:
  rms(total) = 0.49354E+01    rms(broyden)= 0.49354E+01
  rms(prec ) = 0.49577E+01
  weight for this iteration     100.00

 eigenvalues of (default mixing * dielectric matrix)
  average eigenvalue GAMMA=   1.6662
  1.6662

 Free energy of the ion-electron system (eV)
  ---------------------------------------------------
  alpha Z        PSCENC =       253.99581917
  Ewald energy   TEWEN  =     -9971.13699729
  -Hartree energ DENC   =     -4809.93081027
  -exchange      EXHF   =         0.00000000
  -V(xc)+E(xc)   XCENC  =       746.09419116
  PAW double counting   =     20724.98947316   -20548.20935150
  entropy T*S    EENTRO =         0.00000000
  eigenvalues    EBANDS =     -2014.12704379
  atomic energy  EATOM  =     15501.99929693
  Solvation  Ediel_sol  =         0.00000000
  ---------------------------------------------------
  free energy    TOTEN  =      -116.32542242 eV

  energy without entropy =     -116.32542242  energy(sigma->0) =     -116.32542242


--------------------------------------------------------------------------------------------------------




--------------------------------------- Iteration      1(   7)  ---------------------------------------


    POTLOK:  cpu time      3.2701: real time      3.2741
    SETDIJ:  cpu time     20.5234: real time     20.5593
     EDDAV:  cpu time    109.2115: real time    109.2899
 BZINTS: Fermi energy:    0.739759;  336.000000 electrons
         Band energy:-0.186771E+04;  BLOECHL correction:    0.000000
       DOS:  cpu time      0.0284: real time      0.0284
    CHARGE:  cpu time     17.1455: real time     17.1672
    MIXING:  cpu time      0.0092: real time      0.0092
    --------------------------------------------
      LOOP:  cpu time    150.1881: real time    150.3282

 eigenvalue-minimisations  : 10112
 total energy-change (2. order) :-0.1114729E+02  (-0.2696756E+01)
 number of electron     335.9999997 magnetization      19.7129686
 augmentation part      -47.3162479 magnetization      20.9184984

 Broyden mixing:
  rms(total) = 0.14000E+01    rms(broyden)= 0.14000E+01
  rms(prec ) = 0.14037E+01
  weight for this iteration     100.00

 eigenvalues of (default mixing * dielectric matrix)
  average eigenvalue GAMMA=   1.4854
  0.7899  2.1809

 Free energy of the ion-electron system (eV)
  ---------------------------------------------------
  alpha Z        PSCENC =       253.99581917
  Ewald energy   TEWEN  =     -9971.13699729
  -Hartree energ DENC   =     -4969.42446574
  -exchange      EXHF   =         0.00000000
  -V(xc)+E(xc)   XCENC  =       751.43308112
  PAW double counting   =     37030.41198616   -36857.04376315
  entropy T*S    EENTRO =         0.00000000
  eigenvalues    EBANDS =     -1867.70766802
  atomic energy  EATOM  =     15501.99929693
  Solvation  Ediel_sol  =         0.00000000
  ---------------------------------------------------
  free energy    TOTEN  =      -127.47271082 eV

  energy without entropy =     -127.47271082  energy(sigma->0) =     -127.47271082


--------------------------------------------------------------------------------------------------------




--------------------------------------- Iteration      1(   8)  ---------------------------------------


    POTLOK:  cpu time      6.3662: real time      6.3708
    SETDIJ:  cpu time     16.3435: real time     16.3736
     EDDAV:  cpu time    109.1271: real time    109.3015
 BZINTS: Fermi energy:    0.707383;  336.000000 electrons
         Band energy:-0.185522E+04;  BLOECHL correction:    0.000000
       DOS:  cpu time      0.0284: real time      0.0284
    CHARGE:  cpu time     21.7685: real time     21.7803
    MIXING:  cpu time      0.0076: real time      0.0076
    --------------------------------------------
      LOOP:  cpu time    153.6412: real time    153.8621

 eigenvalue-minimisations  :  9312
 total energy-change (2. order) :-0.4275650E+02  (-0.1979093E+01)
 number of electron     335.9999997 magnetization      16.0517930
 augmentation part      -47.0114806 magnetization      17.0961566

 Broyden mixing:
  rms(total) = 0.78316E+00    rms(broyden)= 0.78316E+00
  rms(prec ) = 0.78831E+00
  weight for this iteration     100.00

 eigenvalues of (default mixing * dielectric matrix)
  average eigenvalue GAMMA=   1.3391
  2.4917  0.9424  0.5832

 Free energy of the ion-electron system (eV)
  ---------------------------------------------------
  alpha Z        PSCENC =       253.99581917
  Ewald energy   TEWEN  =     -9971.13699729
  -Hartree energ DENC   =     -4998.99995983
  -exchange      EXHF   =         0.00000000
  -V(xc)+E(xc)   XCENC  =       726.53188826
  PAW double counting   =     40175.47289055   -40002.87140706
  entropy T*S    EENTRO =         0.00000000
  eigenvalues    EBANDS =     -1855.22073944
  atomic energy  EATOM  =     15501.99929693
  Solvation  Ediel_sol  =         0.00000000
  ---------------------------------------------------
  free energy    TOTEN  =      -170.22920869 eV

  energy without entropy =     -170.22920869  energy(sigma->0) =     -170.22920869


--------------------------------------------------------------------------------------------------------




--------------------------------------- Iteration      1(   9)  ---------------------------------------


    POTLOK:  cpu time      7.1372: real time      7.1420
    SETDIJ:  cpu time     16.9891: real time     17.0004
     EDDAV:  cpu time     88.3211: real time     88.3871
 BZINTS: Fermi energy:    0.629379;  336.000000 electrons
         Band energy:-0.186648E+04;  BLOECHL correction:    0.000000
       DOS:  cpu time      0.0277: real time      0.0278
    CHARGE:  cpu time     22.7156: real time     22.7300
    MIXING:  cpu time      0.0083: real time      0.0083
    --------------------------------------------
      LOOP:  cpu time    135.1991: real time    135.2956

 eigenvalue-minimisations  : 10240
 total energy-change (2. order) :-0.1675893E+02  (-0.6424151E+00)
 number of electron     335.9999997 magnetization      11.5238477
 augmentation part      -46.9150133 magnetization      12.3612878

 Broyden mixing:
  rms(total) = 0.43620E+00    rms(broyden)= 0.43620E+00
  rms(prec ) = 0.44829E+00
  weight for this iteration     100.00

 eigenvalues of (default mixing * dielectric matrix)
  average eigenvalue GAMMA=   1.3248
  2.5763  1.3007  0.7112  0.7112

 Free energy of the ion-electron system (eV)
  ---------------------------------------------------
  alpha Z        PSCENC =       253.99581917
  Ewald energy   TEWEN  =     -9971.13699729
  -Hartree energ DENC   =     -4995.18703022
  -exchange      EXHF   =         0.00000000
  -V(xc)+E(xc)   XCENC  =       717.20518362
  PAW double counting   =     40956.35970949   -40783.73941085
  entropy T*S    EENTRO =         0.00000000
  eigenvalues    EBANDS =     -1866.48470647
  atomic energy  EATOM  =     15501.99929693
  Solvation  Ediel_sol  =         0.00000000
  ---------------------------------------------------
  free energy    TOTEN  =      -186.98813561 eV

  energy without entropy =     -186.98813561  energy(sigma->0) =     -186.98813561


--------------------------------------------------------------------------------------------------------




--------------------------------------- Iteration      1(  10)  ---------------------------------------


    POTLOK:  cpu time      2.2800: real time      2.2819
    SETDIJ:  cpu time     22.2644: real time     22.2854
     EDDAV:  cpu time    140.1439: real time    140.2545
 BZINTS: Fermi energy:    0.476025;  336.000000 electrons
         Band energy:-0.190102E+04;  BLOECHL correction:    0.000000
       DOS:  cpu time      0.0282: real time      0.0282
    CHARGE:  cpu time     23.7913: real time     23.8049
    MIXING:  cpu time      1.7408: real time      1.7414
    --------------------------------------------
      LOOP:  cpu time    190.2486: real time    190.3963

 eigenvalue-minimisations  :  9984
 total energy-change (2. order) :-0.2006088E+02  (-0.1302803E+01)
 number of electron     335.9999997 magnetization       5.3080876
 augmentation part      -46.8732896 magnetization       5.8423773

 Broyden mixing:
  rms(total) = 0.32409E+00    rms(broyden)= 0.32409E+00
  rms(prec ) = 0.33707E+00
  weight for this iteration     100.00

 eigenvalues of (default mixing * dielectric matrix)
  average eigenvalue GAMMA=   1.4489
  2.4863  2.4863  0.9416  0.7283  0.6019

 Free energy of the ion-electron system (eV)
  ---------------------------------------------------
  alpha Z        PSCENC =       253.99581917
  Ewald energy   TEWEN  =     -9971.13699729
  -Hartree energ DENC   =     -4969.78920621
  -exchange      EXHF   =         0.00000000
  -V(xc)+E(xc)   XCENC  =       705.62741047
  PAW double counting   =     40966.48072528   -40793.20556255
  entropy T*S    EENTRO =         0.00000000
  eigenvalues    EBANDS =     -1901.02050462
  atomic energy  EATOM  =     15501.99929693
  Solvation  Ediel_sol  =         0.00000000
  ---------------------------------------------------
  free energy    TOTEN  =      -207.04901882 eV

  energy without entropy =     -207.04901882  energy(sigma->0) =     -207.04901882


--------------------------------------------------------------------------------------------------------




--------------------------------------- Iteration      1(  11)  ---------------------------------------


    POTLOK:  cpu time      7.6319: real time      7.6378
    SETDIJ:  cpu time     24.8259: real time     24.8504
     EDDAV:  cpu time     99.3818: real time     99.4511
 BZINTS: Fermi energy:    0.258661;  336.000000 electrons
         Band energy:-0.195838E+04;  BLOECHL correction:    0.000000
       DOS:  cpu time      0.0276: real time      0.0277
    CHARGE:  cpu time     16.9079: real time     16.9348
    MIXING:  cpu time      0.0087: real time      0.0087
    --------------------------------------------
      LOOP:  cpu time    148.7838: real time    148.9104

 eigenvalue-minimisations  :  9920
 total energy-change (2. order) :-0.1782539E+02  (-0.2161691E+01)
 number of electron     335.9999997 magnetization       3.5738679
 augmentation part      -46.9051152 magnetization       3.7571673

 Broyden mixing:
  rms(total) = 0.18659E+00    rms(broyden)= 0.18659E+00
  rms(prec ) = 0.20028E+00
  weight for this iteration     100.00

 eigenvalues of (default mixing * dielectric matrix)
  average eigenvalue GAMMA=   1.4666
  2.7972  2.7972  1.0270  0.8893  0.6992  0.5900

 Free energy of the ion-electron system (eV)
  ---------------------------------------------------
  alpha Z        PSCENC =       253.99581917
  Ewald energy   TEWEN  =     -9971.13699729
  -Hartree energ DENC   =     -4920.21518013
  -exchange      EXHF   =         0.00000000
  -V(xc)+E(xc)   XCENC  =       694.52952860
  PAW double counting   =     40394.16386395   -40219.82980593
  entropy T*S    EENTRO =         0.00000000
  eigenvalues    EBANDS =     -1958.38093509
  atomic energy  EATOM  =     15501.99929693
  Solvation  Ediel_sol  =         0.00000000
  ---------------------------------------------------
  free energy    TOTEN  =      -224.87440979 eV

  energy without entropy =     -224.87440979  energy(sigma->0) =     -224.87440979


--------------------------------------------------------------------------------------------------------




--------------------------------------- Iteration      1(  12)  ---------------------------------------


    POTLOK:  cpu time      4.3497: real time      4.3593
    SETDIJ:  cpu time     20.1591: real time     20.1705
     EDDAV:  cpu time    119.4896: real time    119.5792
 BZINTS: Fermi energy:    0.185405;  336.000000 electrons
         Band energy:-0.197905E+04;  BLOECHL correction:    0.000000
       DOS:  cpu time      0.0301: real time      0.0304
    CHARGE:  cpu time     24.1030: real time     24.1157
    MIXING:  cpu time      0.0072: real time      0.0072
    --------------------------------------------
      LOOP:  cpu time    168.1386: real time    168.2624

 eigenvalue-minimisations  : 10048
 total energy-change (2. order) :-0.3388338E+01  (-0.3879204E+00)
 number of electron     335.9999997 magnetization       2.3929948
 augmentation part      -46.9152802 magnetization       2.4761147

 Broyden mixing:
  rms(total) = 0.15961E+00    rms(broyden)= 0.15961E+00
  rms(prec ) = 0.17215E+00
  weight for this iteration     100.00

 eigenvalues of (default mixing * dielectric matrix)
  average eigenvalue GAMMA=   1.4918
  3.1009  3.1009  1.0554  1.0554  0.7809  0.7809  0.5680

 Free energy of the ion-electron system (eV)
  ---------------------------------------------------
  alpha Z        PSCENC =       253.99581917
  Ewald energy   TEWEN  =     -9971.13699729
  -Hartree energ DENC   =     -4900.71809619
  -exchange      EXHF   =         0.00000000
  -V(xc)+E(xc)   XCENC  =       692.07484597
  PAW double counting   =     39960.62742334   -39786.05637408
  entropy T*S    EENTRO =         0.00000000
  eigenvalues    EBANDS =     -1979.04866586
  atomic energy  EATOM  =     15501.99929693
  Solvation  Ediel_sol  =         0.00000000
  ---------------------------------------------------
  free energy    TOTEN  =      -228.26274800 eV

  energy without entropy =     -228.26274800  energy(sigma->0) =     -228.26274800


--------------------------------------------------------------------------------------------------------




--------------------------------------- Iteration      1(  13)  ---------------------------------------


    POTLOK:  cpu time      8.1826: real time      8.1885
    SETDIJ:  cpu time     17.7364: real time     17.7458
     EDDAV:  cpu time    121.1530: real time    121.2377
 BZINTS: Fermi energy:    0.117480;  336.000000 electrons
         Band energy:-0.200148E+04;  BLOECHL correction:    0.000000
       DOS:  cpu time      0.0283: real time      0.0284
    CHARGE:  cpu time     24.8969: real time     24.9090
    MIXING:  cpu time      0.0078: real time      0.0078
    --------------------------------------------
      LOOP:  cpu time    172.0051: real time    172.1170

 eigenvalue-minimisations  :  9536
 total energy-change (2. order) :-0.1052581E+01  (-0.1335517E+00)
 number of electron     335.9999997 magnetization       0.8882379
 augmentation part      -46.9734629 magnetization       0.9142640

 Broyden mixing:
  rms(total) = 0.93029E-01    rms(broyden)= 0.93029E-01
  rms(prec ) = 0.99844E-01
  weight for this iteration     100.00

 eigenvalues of (default mixing * dielectric matrix)
  average eigenvalue GAMMA=   1.5515
  3.3222  3.3222  1.5848  1.2839  0.9272  0.6997  0.6997  0.5723

 Free energy of the ion-electron system (eV)
  ---------------------------------------------------
  alpha Z        PSCENC =       253.99581917
  Ewald energy   TEWEN  =     -9971.13699729
  -Hartree energ DENC   =     -4877.59126163
  -exchange      EXHF   =         0.00000000
  -V(xc)+E(xc)   XCENC  =       690.09253597
  PAW double counting   =     39140.50499089   -38965.69476029
  entropy T*S    EENTRO =         0.00000000
  eigenvalues    EBANDS =     -2001.48495259
  atomic energy  EATOM  =     15501.99929693
  Solvation  Ediel_sol  =         0.00000000
  ---------------------------------------------------
  free energy    TOTEN  =      -229.31532882 eV

  energy without entropy =     -229.31532882  energy(sigma->0) =     -229.31532882


--------------------------------------------------------------------------------------------------------




--------------------------------------- Iteration      1(  14)  ---------------------------------------


    POTLOK:  cpu time     11.5634: real time     11.5664
    SETDIJ:  cpu time     20.4501: real time     20.4671
     EDDAV:  cpu time    104.1806: real time    104.4392
 BZINTS: Fermi energy:    0.081836;  336.000000 electrons
         Band energy:-0.201196E+04;  BLOECHL correction:    0.000000
       DOS:  cpu time      0.0281: real time      0.0282
    CHARGE:  cpu time     17.3702: real time     17.3850
    MIXING:  cpu time      2.1559: real time      2.1569
    --------------------------------------------
      LOOP:  cpu time    155.7483: real time    156.0428

 eigenvalue-minimisations  :  8992
 total energy-change (2. order) :-0.6468412E-01  (-0.1624073E-01)
 number of electron     335.9999997 magnetization       0.4185070
 augmentation part      -47.0005554 magnetization       0.4255109

 Broyden mixing:
  rms(total) = 0.43642E-01    rms(broyden)= 0.43642E-01
  rms(prec ) = 0.46346E-01
  weight for this iteration     100.00

 eigenvalues of (default mixing * dielectric matrix)
  average eigenvalue GAMMA=   1.5785
  4.1296  2.5574  2.5574  1.0965  1.0965  0.7712  0.7712  0.5748  0.6517

 Free energy of the ion-electron system (eV)
  ---------------------------------------------------
  alpha Z        PSCENC =       253.99581917
  Ewald energy   TEWEN  =     -9971.13699729
  -Hartree energ DENC   =     -4866.22499107
  -exchange      EXHF   =         0.00000000
  -V(xc)+E(xc)   XCENC  =       689.17974472
  PAW double counting   =     39079.91620441   -38905.15116803
  entropy T*S    EENTRO =         0.00000000
  eigenvalues    EBANDS =     -2011.95792178
  atomic energy  EATOM  =     15501.99929693
  Solvation  Ediel_sol  =         0.00000000
  ---------------------------------------------------
  free energy    TOTEN  =      -229.38001294 eV

  energy without entropy =     -229.38001294  energy(sigma->0) =     -229.38001294


--------------------------------------------------------------------------------------------------------




--------------------------------------- Iteration      1(  15)  ---------------------------------------


    POTLOK:  cpu time     11.1670: real time     11.1737
    SETDIJ:  cpu time     22.6394: real time     22.6561
     EDDAV:  cpu time     97.8126: real time     97.8815
 BZINTS: Fermi energy:    0.079956;  336.000000 electrons
         Band energy:-0.201165E+04;  BLOECHL correction:    0.000000
       DOS:  cpu time      0.0296: real time      0.0297
    CHARGE:  cpu time     13.9206: real time     13.9330
    MIXING:  cpu time      0.0082: real time      0.0082
    --------------------------------------------
      LOOP:  cpu time    145.5774: real time    145.6822

 eigenvalue-minimisations  :  9600
 total energy-change (2. order) : 0.1299996E-02  (-0.2078687E-02)
 number of electron     335.9999997 magnetization       0.1727619
 augmentation part      -46.9944131 magnetization       0.1770632

 Broyden mixing:
  rms(total) = 0.20213E-01    rms(broyden)= 0.20213E-01
  rms(prec ) = 0.21788E-01
  weight for this iteration     100.00

 eigenvalues of (default mixing * dielectric matrix)
  average eigenvalue GAMMA=   1.5647
  4.5520  2.5280  2.5280  1.3341  0.9971  0.9971  0.7586  0.7586  0.6240  0.5693

 Free energy of the ion-electron system (eV)
  ---------------------------------------------------
  alpha Z        PSCENC =       253.99581917
  Ewald energy   TEWEN  =     -9971.13699729
  -Hartree energ DENC   =     -4866.40528916
  -exchange      EXHF   =         0.00000000
  -V(xc)+E(xc)   XCENC  =       689.14210739
  PAW double counting   =     39165.43142282   -38990.75343208
  entropy T*S    EENTRO =         0.00000000
  eigenvalues    EBANDS =     -2011.65164072
  atomic energy  EATOM  =     15501.99929693
  Solvation  Ediel_sol  =         0.00000000
  ---------------------------------------------------
  free energy    TOTEN  =      -229.37871294 eV

  energy without entropy =     -229.37871294  energy(sigma->0) =     -229.37871294


--------------------------------------------------------------------------------------------------------




--------------------------------------- Iteration      1(  16)  ---------------------------------------


    POTLOK:  cpu time      5.0920: real time      5.1012
    SETDIJ:  cpu time     15.8548: real time     15.8700
     EDDAV:  cpu time     94.1737: real time     94.2433
 BZINTS: Fermi energy:    0.078034;  336.000000 electrons
         Band energy:-0.201212E+04;  BLOECHL correction:   -0.000000
       DOS:  cpu time      0.0289: real time      0.0290
    CHARGE:  cpu time     23.2459: real time     23.2647
    MIXING:  cpu time      0.0111: real time      0.0111
    --------------------------------------------
      LOOP:  cpu time    138.4064: real time    138.5192

 eigenvalue-minimisations  :  9152
 total energy-change (2. order) : 0.3093752E-02  (-0.5503249E-03)
 number of electron     335.9999997 magnetization       0.0699553
 augmentation part      -46.9932741 magnetization       0.0707599

 Broyden mixing:
  rms(total) = 0.12330E-01    rms(broyden)= 0.12330E-01
  rms(prec ) = 0.13342E-01
  weight for this iteration     100.00

 eigenvalues of (default mixing * dielectric matrix)
  average eigenvalue GAMMA=   1.5466
  4.7566  2.4277  2.4277  1.8416  0.9958  0.9958  0.9230  0.7282  0.7282  0.5808
  0.6066

 Free energy of the ion-electron system (eV)
  ---------------------------------------------------
  alpha Z        PSCENC =       253.99581917
  Ewald energy   TEWEN  =     -9971.13699729
  -Hartree energ DENC   =     -4865.84345874
  -exchange      EXHF   =         0.00000000
  -V(xc)+E(xc)   XCENC  =       689.07377604
  PAW double counting   =     39135.27824715   -38960.62405297
  entropy T*S    EENTRO =         0.00000000
  eigenvalues    EBANDS =     -2012.11824948
  atomic energy  EATOM  =     15501.99929693
  Solvation  Ediel_sol  =         0.00000000
  ---------------------------------------------------
  free energy    TOTEN  =      -229.37561919 eV

  energy without entropy =     -229.37561919  energy(sigma->0) =     -229.37561919


--------------------------------------------------------------------------------------------------------




--------------------------------------- Iteration      1(  17)  ---------------------------------------


    POTLOK:  cpu time     16.8229: real time     16.8344
    SETDIJ:  cpu time     17.6719: real time     17.6814
     EDDAV:  cpu time    117.9576: real time    118.0385
 BZINTS: Fermi energy:    0.080114;  336.000000 electrons
         Band energy:-0.201119E+04;  BLOECHL correction:    0.000000
       DOS:  cpu time      0.0284: real time      0.0285
    CHARGE:  cpu time     22.4151: real time     22.4276
    MIXING:  cpu time      1.4361: real time      1.4370
    --------------------------------------------
      LOOP:  cpu time    176.3320: real time    176.4475

 eigenvalue-minimisations  :  9472
 total energy-change (2. order) :-0.5022051E-03  (-0.1194663E-03)
 number of electron     335.9999997 magnetization       0.0179516
 augmentation part      -46.9882081 magnetization       0.0183532

 Broyden mixing:
  rms(total) = 0.49343E-02    rms(broyden)= 0.49343E-02
  rms(prec ) = 0.55334E-02
  weight for this iteration     100.00

 eigenvalues of (default mixing * dielectric matrix)
  average eigenvalue GAMMA=   1.5761
  4.9474  2.6018  2.6018  2.2029  1.1775  0.9957  0.9957  0.7617  0.7617  0.6817
  0.5876  0.5973

 Free energy of the ion-electron system (eV)
  ---------------------------------------------------
  alpha Z        PSCENC =       253.99581917
  Ewald energy   TEWEN  =     -9971.13699729
  -Hartree energ DENC   =     -4866.80611389
  -exchange      EXHF   =         0.00000000
  -V(xc)+E(xc)   XCENC  =       689.13375892
  PAW double counting   =     39176.21152453   -39001.58158414
  entropy T*S    EENTRO =         0.00000000
  eigenvalues    EBANDS =     -2011.19182563
  atomic energy  EATOM  =     15501.99929693
  Solvation  Ediel_sol  =         0.00000000
  ---------------------------------------------------
  free energy    TOTEN  =      -229.37612140 eV

  energy without entropy =     -229.37612140  energy(sigma->0) =     -229.37612140


--------------------------------------------------------------------------------------------------------




--------------------------------------- Iteration      1(  18)  ---------------------------------------


    POTLOK:  cpu time      1.5378: real time      1.5465
    SETDIJ:  cpu time     17.2283: real time     17.2381
     EDDAV:  cpu time     87.0435: real time     87.1011
 BZINTS: Fermi energy:    0.081099;  336.000000 electrons
         Band energy:-0.201067E+04;  BLOECHL correction:    0.000000
       DOS:  cpu time      0.0284: real time      0.0284
    CHARGE:  cpu time     17.9487: real time     17.9626
    MIXING:  cpu time      0.0104: real time      0.0104
    --------------------------------------------
      LOOP:  cpu time    123.7970: real time    123.8872

 eigenvalue-minimisations  :  9472
 total energy-change (2. order) :-0.1150592E-03  (-0.3966757E-04)
 number of electron     335.9999997 magnetization       0.0052547
 augmentation part      -46.9848640 magnetization       0.0057982

 Broyden mixing:
  rms(total) = 0.44699E-02    rms(broyden)= 0.44699E-02
  rms(prec ) = 0.47214E-02
  weight for this iteration     100.00

 eigenvalues of (default mixing * dielectric matrix)
  average eigenvalue GAMMA=   1.5445
  5.0014  2.6454  2.6454  2.2656  1.1298  1.1298  0.9908  0.9908  0.7249  0.7249
  0.5784  0.6445  0.6066

 Free energy of the ion-electron system (eV)
  ---------------------------------------------------
  alpha Z        PSCENC =       253.99581917
  Ewald energy   TEWEN  =     -9971.13699729
  -Hartree energ DENC   =     -4867.35224947
  -exchange      EXHF   =         0.00000000
  -V(xc)+E(xc)   XCENC  =       689.16924386
  PAW double counting   =     39205.02697301   -39030.41189738
  entropy T*S    EENTRO =         0.00000000
  eigenvalues    EBANDS =     -2010.66642529
  atomic energy  EATOM  =     15501.99929693
  Solvation  Ediel_sol  =         0.00000000
  ---------------------------------------------------
  free energy    TOTEN  =      -229.37623646 eV

  energy without entropy =     -229.37623646  energy(sigma->0) =     -229.37623646


--------------------------------------------------------------------------------------------------------




--------------------------------------- Iteration      1(  19)  ---------------------------------------


    POTLOK:  cpu time      4.4277: real time      4.4307
    SETDIJ:  cpu time     16.4332: real time     16.4480
     EDDAV:  cpu time     96.7334: real time     96.7982
 BZINTS: Fermi energy:    0.080429;  336.000000 electrons
         Band energy:-0.201093E+04;  BLOECHL correction:    0.000000
       DOS:  cpu time      0.0277: real time      0.0277
    CHARGE:  cpu time     18.7198: real time     18.7291
    MIXING:  cpu time      0.0090: real time      0.0090
    --------------------------------------------
      LOOP:  cpu time    136.3508: real time    136.4428

 eigenvalue-minimisations  :  9824
 total energy-change (2. order) :-0.5839516E-05  (-0.6221251E-05)
 number of electron     335.9999997 magnetization      -0.0004981
 augmentation part      -46.9856991 magnetization      -0.0002546

 Broyden mixing:
  rms(total) = 0.20276E-02    rms(broyden)= 0.20275E-02
  rms(prec ) = 0.22017E-02
  weight for this iteration     100.00

 eigenvalues of (default mixing * dielectric matrix)
  average eigenvalue GAMMA=   1.5456
  5.0449  2.7074  2.7074  2.1102  1.4073  1.4073  1.0333  1.0333  0.8589  0.7538
  0.7538  0.5799  0.6094  0.6308

 Free energy of the ion-electron system (eV)
  ---------------------------------------------------
  alpha Z        PSCENC =       253.99581917
  Ewald energy   TEWEN  =     -9971.13699729
  -Hartree energ DENC   =     -4867.07782287
  -exchange      EXHF   =         0.00000000
  -V(xc)+E(xc)   XCENC  =       689.15233404
  PAW double counting   =     39203.63669933   -39029.01847030
  entropy T*S    EENTRO =         0.00000000
  eigenvalues    EBANDS =     -2010.92710131
  atomic energy  EATOM  =     15501.99929693
  Solvation  Ediel_sol  =         0.00000000
  ---------------------------------------------------
  free energy    TOTEN  =      -229.37624229 eV

  energy without entropy =     -229.37624229  energy(sigma->0) =     -229.37624229


--------------------------------------------------------------------------------------------------------




--------------------------------------- Iteration      1(  20)  ---------------------------------------


    POTLOK:  cpu time      5.3184: real time      5.3390
    SETDIJ:  cpu time     20.8132: real time     20.8240
     EDDAV:  cpu time     93.5232: real time     93.5974
 BZINTS: Fermi energy:    0.080068;  336.000000 electrons
         Band energy:-0.201106E+04;  BLOECHL correction:    0.000000
       DOS:  cpu time      0.0277: real time      0.0278
    CHARGE:  cpu time     20.0131: real time     20.0299
    MIXING:  cpu time      0.0112: real time      0.0112
    --------------------------------------------
      LOOP:  cpu time    139.7069: real time    139.8293

 eigenvalue-minimisations  :  9184
 total energy-change (2. order) :-0.1041640E-04  (-0.3471431E-05)
 number of electron     335.9999997 magnetization      -0.0016224
 augmentation part      -46.9862294 magnetization      -0.0015432

 Broyden mixing:
  rms(total) = 0.95449E-03    rms(broyden)= 0.95437E-03
  rms(prec ) = 0.10134E-02
  weight for this iteration     100.00

 eigenvalues of (default mixing * dielectric matrix)
  average eigenvalue GAMMA=   1.5470
  5.0950  2.7085  2.7085  2.0982  2.0982  1.2305  1.2305  0.9897  0.9897  0.7802
  0.7328  0.7328  0.5779  0.6158  0.6158

 Free energy of the ion-electron system (eV)
  ---------------------------------------------------
  alpha Z        PSCENC =       253.99581917
  Ewald energy   TEWEN  =     -9971.13699729
  -Hartree energ DENC   =     -4866.93507126
  -exchange      EXHF   =         0.00000000
  -V(xc)+E(xc)   XCENC  =       689.14534175
  PAW double counting   =     39208.81619676   -39034.19604702
  entropy T*S    EENTRO =         0.00000000
  eigenvalues    EBANDS =     -2011.06479175
  atomic energy  EATOM  =     15501.99929693
  Solvation  Ediel_sol  =         0.00000000
  ---------------------------------------------------
  free energy    TOTEN  =      -229.37625271 eV

  energy without entropy =     -229.37625271  energy(sigma->0) =     -229.37625271


--------------------------------------------------------------------------------------------------------




--------------------------------------- Iteration      1(  21)  ---------------------------------------


    POTLOK:  cpu time      1.9642: real time      1.9660
    SETDIJ:  cpu time     19.0588: real time     19.0693
     EDDAV:  cpu time     83.5550: real time     83.6127
 BZINTS: Fermi energy:    0.079725;  336.000000 electrons
         Band energy:-0.201112E+04;  BLOECHL correction:   -0.000000
       DOS:  cpu time      0.0297: real time      0.0298
    CHARGE:  cpu time     13.1762: real time     13.1847
    MIXING:  cpu time      0.0110: real time      0.0110
    --------------------------------------------
      LOOP:  cpu time    117.7948: real time    117.8735

 eigenvalue-minimisations  :  9216
 total energy-change (2. order) : 0.1190274E-05  (-0.8871115E-06)
 number of electron     335.9999997 magnetization      -0.0013369
 augmentation part      -46.9864251 magnetization      -0.0013407

 Broyden mixing:
  rms(total) = 0.42608E-03    rms(broyden)= 0.42581E-03
  rms(prec ) = 0.44819E-03
  weight for this iteration     100.00

 eigenvalues of (default mixing * dielectric matrix)
  average eigenvalue GAMMA=   1.5118
  5.0967  2.6684  2.6684  2.5715  1.6129  1.3987  1.1551  1.1551  0.9283  0.9283
  0.7391  0.7391  0.7254  0.5775  0.6126  0.6126

 Free energy of the ion-electron system (eV)
  ---------------------------------------------------
  alpha Z        PSCENC =       253.99581917
  Ewald energy   TEWEN  =     -9971.13699729
  -Hartree energ DENC   =     -4866.87579132
  -exchange      EXHF   =         0.00000000
  -V(xc)+E(xc)   XCENC  =       689.14170971
  PAW double counting   =     39208.23411420   -39033.61314429
  entropy T*S    EENTRO =         0.00000000
  eigenvalues    EBANDS =     -2011.12125863
  atomic energy  EATOM  =     15501.99929693
  Solvation  Ediel_sol  =         0.00000000
  ---------------------------------------------------
  free energy    TOTEN  =      -229.37625152 eV

  energy without entropy =     -229.37625152  energy(sigma->0) =     -229.37625152


--------------------------------------------------------------------------------------------------------




--------------------------------------- Iteration      1(  22)  ---------------------------------------


    POTLOK:  cpu time      7.4734: real time      7.4998
    SETDIJ:  cpu time     21.8610: real time     21.8786
     EDDAV:  cpu time     96.2794: real time     96.3390
 BZINTS: Fermi energy:    0.079984;  336.000000 electrons
         Band energy:-0.201114E+04;  BLOECHL correction:    0.000000
       DOS:  cpu time      0.0284: real time      0.0285
    CHARGE:  cpu time     21.2601: real time     21.2734
    MIXING:  cpu time      0.0134: real time      0.0134
    --------------------------------------------
      LOOP:  cpu time    146.9156: real time    147.0327

 eigenvalue-minimisations  :  9824
 total energy-change (2. order) : 0.4445974E-06  (-0.1412494E-06)
 number of electron     335.9999997 magnetization      -0.0004734
 augmentation part      -46.9864929 magnetization      -0.0004947

 Broyden mixing:
  rms(total) = 0.23109E-03    rms(broyden)= 0.23060E-03
  rms(prec ) = 0.24531E-03
  weight for this iteration     100.00

 eigenvalues of (default mixing * dielectric matrix)
  average eigenvalue GAMMA=   1.5006
  5.0911  2.6574  2.6574  2.6241  1.6704  1.4400  1.4400  1.0836  1.0836  0.9003
  0.9003  0.7423  0.7423  0.6735  0.5787  0.6126  0.6126

 Free energy of the ion-electron system (eV)
  ---------------------------------------------------
  alpha Z        PSCENC =       253.99581917
  Ewald energy   TEWEN  =     -9971.13699729
  -Hartree energ DENC   =     -4866.85433556
  -exchange      EXHF   =         0.00000000
  -V(xc)+E(xc)   XCENC  =       689.14013995
  PAW double counting   =     39206.82297261   -39032.20170086
  entropy T*S    EENTRO =         0.00000000
  eigenvalues    EBANDS =     -2011.14144604
  atomic energy  EATOM  =     15501.99929693
  Solvation  Ediel_sol  =         0.00000000
  ---------------------------------------------------
  free energy    TOTEN  =      -229.37625108 eV

  energy without entropy =     -229.37625108  energy(sigma->0) =     -229.37625108


--------------------------------------------------------------------------------------------------------




--------------------------------------- Iteration      1(  23)  ---------------------------------------


    POTLOK:  cpu time      9.2974: real time      9.3028
    SETDIJ:  cpu time     22.9982: real time     23.0115
     EDDAV:  cpu time    108.2409: real time    108.3135
 BZINTS: Fermi energy:    0.080001;  336.000000 electrons
         Band energy:-0.201114E+04;  BLOECHL correction:    0.000000
       DOS:  cpu time      0.0280: real time      0.0280
    CHARGE:  cpu time     15.3234: real time     15.3326
    MIXING:  cpu time      0.0105: real time      0.0105
    --------------------------------------------
      LOOP:  cpu time    155.8983: real time    155.9989

 eigenvalue-minimisations  :  9216
 total energy-change (2. order) :-0.2230736E-06  (-0.5745132E-07)
 number of electron     335.9999997 magnetization      -0.0002604
 augmentation part      -46.9864665 magnetization      -0.0002566

 Broyden mixing:
[...]

  length of vectors
    10.314108670 16.788494411 10.846477853     0.097707938  0.059564603  0.092912216


 FORCES acting on ions
    electron-ion (+dipol)            ewald-force                    non-local-force                 convergence-correction
 -----------------------------------------------------------------------------------------------
   0.986E+02 -.105E+03 -.125E+02   -.104E+03 0.113E+03 0.112E+02   0.495E+01 -.888E+01 0.132E+01   0.168E-05 -.290E-06 0.766E-06
   0.987E+02 -.105E+03 -.125E+02   -.104E+03 0.113E+03 0.112E+02   0.495E+01 -.888E+01 0.132E+01   0.166E-05 -.306E-06 0.817E-06
   -.124E+02 0.420E+02 -.127E+03   0.126E+02 -.472E+02 0.134E+03   -.246E+00 0.519E+01 -.705E+01   0.119E-06 0.298E-07 -.119E-05
   -.123E+02 0.420E+02 -.127E+03   0.126E+02 -.472E+02 0.134E+03   -.246E+00 0.519E+01 -.705E+01   0.103E-06 0.660E-07 -.122E-05
   -.211E+02 -.903E+02 0.980E+02   0.197E+02 0.990E+02 -.103E+03   0.134E+01 -.874E+01 0.530E+01   -.472E-07 -.793E-07 0.181E-05
   -.211E+02 -.902E+02 0.981E+02   0.197E+02 0.989E+02 -.103E+03   0.134E+01 -.874E+01 0.530E+01   -.776E-07 -.776E-07 0.187E-05
   -.108E+03 0.950E+02 0.625E+01   0.114E+03 -.101E+03 -.414E+01   -.534E+01 0.592E+01 -.212E+01   -.164E-05 -.132E-07 0.674E-06
   -.108E+03 0.950E+02 0.625E+01   0.114E+03 -.101E+03 -.414E+01   -.534E+01 0.592E+01 -.212E+01   -.171E-05 0.307E-07 0.670E-06
   0.136E+03 -.539E+02 -.187E+02   -.143E+03 0.595E+02 0.193E+02   0.680E+01 -.552E+01 -.558E+00   0.157E-05 0.101E-07 -.100E-05
   0.136E+03 -.540E+02 -.187E+02   -.143E+03 0.595E+02 0.193E+02   0.680E+01 -.552E+01 -.558E+00   0.157E-05 0.335E-07 -.102E-05
   -.136E+03 0.539E+02 0.186E+02   0.143E+03 -.594E+02 -.192E+02   -.680E+01 0.552E+01 0.558E+00   -.154E-05 -.435E-07 0.101E-05
   -.136E+03 0.540E+02 0.187E+02   0.143E+03 -.595E+02 -.193E+02   -.680E+01 0.552E+01 0.558E+00   -.160E-05 -.716E-07 0.102E-05
   0.109E+03 -.950E+02 -.561E+01   -.114E+03 0.101E+03 0.344E+01   0.535E+01 -.593E+01 0.215E+01   0.166E-05 -.111E-07 -.674E-06
   0.108E+03 -.950E+02 -.626E+01   -.114E+03 0.101E+03 0.414E+01   0.534E+01 -.592E+01 0.212E+01   0.167E-05 -.191E-07 -.666E-06
   -.124E+02 -.420E+02 0.127E+03   0.126E+02 0.472E+02 -.134E+03   -.245E+00 -.519E+01 0.705E+01   0.106E-06 0.249E-07 0.115E-05
   -.123E+02 -.420E+02 0.127E+03   0.126E+02 0.472E+02 -.134E+03   -.246E+00 -.519E+01 0.705E+01   0.865E-07 0.521E-07 0.119E-05
   0.211E+02 -.901E+02 0.980E+02   -.198E+02 0.989E+02 -.103E+03   -.134E+01 -.874E+01 0.530E+01   0.914E-07 0.485E-08 0.178E-05
   0.212E+02 -.902E+02 0.981E+02   -.198E+02 0.989E+02 -.103E+03   -.134E+01 -.874E+01 0.530E+01   0.649E-07 0.461E-07 0.183E-05
   -.987E+02 -.105E+03 -.125E+02   0.104E+03 0.113E+03 0.112E+02   -.495E+01 -.888E+01 0.132E+01   -.163E-05 -.203E-06 0.770E-06
   -.986E+02 -.105E+03 -.125E+02   0.104E+03 0.113E+03 0.112E+02   -.495E+01 -.888E+01 0.132E+01   -.168E-05 -.146E-06 0.772E-06
   -.136E+03 -.541E+02 -.189E+02   0.143E+03 0.596E+02 0.194E+02   -.684E+01 -.552E+01 -.541E+00   -.157E-05 -.137E-07 -.100E-05
   -.136E+03 -.539E+02 -.187E+02   0.143E+03 0.595E+02 0.192E+02   -.680E+01 -.552E+01 -.558E+00   -.156E-05 -.143E-07 -.102E-05
   0.124E+02 0.420E+02 -.127E+03   -.126E+02 -.472E+02 0.134E+03   0.245E+00 0.519E+01 -.705E+01   -.104E-06 -.605E-07 -.113E-05
   0.124E+02 0.420E+02 -.127E+03   -.126E+02 -.472E+02 0.134E+03   0.246E+00 0.519E+01 -.705E+01   -.967E-07 -.756E-07 -.121E-05
   -.108E+03 -.950E+02 -.624E+01   0.114E+03 0.101E+03 0.413E+01   -.534E+01 -.592E+01 0.212E+01   -.166E-05 0.111E-06 -.695E-06
   -.108E+03 -.950E+02 -.626E+01   0.114E+03 0.101E+03 0.415E+01   -.534E+01 -.592E+01 0.212E+01   -.165E-05 0.118E-06 -.680E-06
   0.985E+02 0.105E+03 0.126E+02   -.104E+03 -.114E+03 -.113E+02   0.496E+01 0.889E+01 -.131E+01   0.165E-05 0.265E-06 -.756E-06
   0.987E+02 0.105E+03 0.125E+02   -.104E+03 -.113E+03 -.112E+02   0.495E+01 0.888E+01 -.132E+01   0.167E-05 0.197E-06 -.803E-06
   -.986E+02 0.105E+03 0.126E+02   0.104E+03 -.113E+03 -.112E+02   -.495E+01 0.888E+01 -.132E+01   -.166E-05 0.232E-06 -.773E-06
   -.986E+02 0.105E+03 0.125E+02   0.104E+03 -.113E+03 -.112E+02   -.495E+01 0.888E+01 -.132E+01   -.167E-05 0.236E-06 -.807E-06
   0.727E+02 0.962E+02 0.632E+02   -.755E+02 -.106E+03 -.653E+02   0.274E+01 0.971E+01 0.207E+01   0.856E-06 0.378E-06 0.524E-06
   0.728E+02 0.961E+02 0.633E+02   -.755E+02 -.106E+03 -.653E+02   0.274E+01 0.971E+01 0.207E+01   0.855E-06 0.367E-06 0.529E-06
   0.210E+02 -.929E+02 -.892E+02   -.197E+02 0.992E+02 0.944E+02   -.124E+01 -.635E+01 -.513E+01   0.296E-06 0.480E-07 -.145E-05
   0.219E+02 -.938E+02 -.889E+02   -.205E+02 0.100E+03 0.940E+02   -.133E+01 -.628E+01 -.509E+01   0.278E-06 0.399E-07 -.143E-05
   -.211E+02 0.892E+02 -.981E+02   0.198E+02 -.980E+02 0.103E+03   0.127E+01 0.883E+01 -.530E+01   -.818E-07 0.625E-07 -.182E-05
   -.211E+02 0.902E+02 -.981E+02   0.197E+02 -.989E+02 0.103E+03   0.134E+01 0.874E+01 -.530E+01   -.824E-07 0.112E-07 -.182E-05
   -.219E+02 0.938E+02 0.889E+02   0.205E+02 -.100E+03 -.940E+02   0.133E+01 0.628E+01 0.509E+01   -.266E-06 -.659E-07 0.143E-05
   -.218E+02 0.938E+02 0.889E+02   0.205E+02 -.100E+03 -.940E+02   0.133E+01 0.628E+01 0.509E+01   -.303E-06 -.446E-07 0.145E-05
   0.211E+02 0.903E+02 -.981E+02   -.197E+02 -.990E+02 0.103E+03   -.134E+01 0.874E+01 -.530E+01   0.641E-07 0.215E-07 -.180E-05
   0.212E+02 0.902E+02 -.981E+02   -.198E+02 -.989E+02 0.103E+03   -.134E+01 0.874E+01 -.530E+01   0.615E-07 0.205E-07 -.183E-05
   0.728E+02 -.961E+02 -.633E+02   -.755E+02 0.106E+03 0.653E+02   0.274E+01 -.971E+01 -.207E+01   0.857E-06 -.371E-06 -.504E-06
   0.728E+02 -.962E+02 -.632E+02   -.755E+02 0.106E+03 0.653E+02   0.274E+01 -.971E+01 -.207E+01   0.866E-06 -.345E-06 -.555E-06
   0.136E+03 0.540E+02 0.187E+02   -.143E+03 -.595E+02 -.192E+02   0.680E+01 0.552E+01 0.558E+00   0.156E-05 0.485E-07 0.100E-05
   0.136E+03 0.539E+02 0.187E+02   -.143E+03 -.595E+02 -.193E+02   0.680E+01 0.552E+01 0.558E+00   0.158E-05 0.407E-07 0.100E-05
   0.108E+03 0.950E+02 0.635E+01   -.114E+03 -.101E+03 -.423E+01   0.534E+01 0.592E+01 -.212E+01   0.169E-05 -.778E-07 0.687E-06
   0.108E+03 0.950E+02 0.624E+01   -.114E+03 -.101E+03 -.412E+01   0.534E+01 0.592E+01 -.212E+01   0.163E-05 -.108E-06 0.701E-06
   -.728E+02 -.962E+02 -.633E+02   0.755E+02 0.106E+03 0.653E+02   -.274E+01 -.971E+01 -.207E+01   -.839E-06 -.443E-06 -.503E-06
   -.727E+02 -.961E+02 -.632E+02   0.755E+02 0.106E+03 0.653E+02   -.274E+01 -.971E+01 -.207E+01   -.879E-06 -.443E-06 -.544E-06
   -.218E+02 -.938E+02 -.889E+02   0.205E+02 0.100E+03 0.940E+02   0.133E+01 -.628E+01 -.509E+01   -.290E-06 0.150E-06 -.141E-05
   -.218E+02 -.938E+02 -.889E+02   0.205E+02 0.100E+03 0.940E+02   0.133E+01 -.628E+01 -.509E+01   -.301E-06 0.174E-06 -.147E-05
   0.219E+02 0.938E+02 0.888E+02   -.206E+02 -.100E+03 -.939E+02   -.133E+01 0.628E+01 0.509E+01   0.289E-06 -.160E-06 0.140E-05
   0.219E+02 0.938E+02 0.889E+02   -.206E+02 -.100E+03 -.940E+02   -.133E+01 0.628E+01 0.509E+01   0.297E-06 -.155E-06 0.148E-05
   -.728E+02 0.961E+02 0.632E+02   0.755E+02 -.106E+03 -.653E+02   -.274E+01 0.971E+01 0.206E+01   -.857E-06 0.429E-06 0.519E-06
   -.727E+02 0.962E+02 0.633E+02   0.755E+02 -.106E+03 -.653E+02   -.274E+01 0.971E+01 0.207E+01   -.873E-06 0.404E-06 0.524E-06
   0.123E+02 -.420E+02 0.127E+03   -.125E+02 0.472E+02 -.134E+03   0.251E+00 -.519E+01 0.705E+01   -.975E-07 -.736E-08 0.120E-05
   0.124E+02 -.420E+02 0.127E+03   -.126E+02 0.472E+02 -.134E+03   0.246E+00 -.519E+01 0.705E+01   -.118E-06 -.414E-07 0.119E-05
 -----------------------------------------------------------------------------------------------
   -.223E-01 -.197E-01 -.393E-02   0.355E-13 0.142E-13 0.853E-13   0.223E-01 0.197E-01 0.393E-02   -.372E-08 -.357E-07 -.100E-07


 POSITION                                       TOTAL-FORCE (eV/Angst)
 -----------------------------------------------------------------------------------
      7.84031      7.96182     -7.59135         0.002493     -0.001405      0.000936
     16.23455      7.96182     -7.59135         0.002419     -0.001188      0.000821
      3.16872      2.44282     -6.01943         0.002188     -0.000849     -0.002456
     11.56297      2.44282     -6.01943         0.002176     -0.000904     -0.002478
      1.76685      7.82725    -10.10485        -0.000088      0.000292     -0.000414
     10.16110      7.82725    -10.10485        -0.000148     -0.000247     -0.000389
      5.05050      1.12562     -8.40433         0.001537     -0.000580     -0.000681
     13.44475      1.12562     -8.40433         0.001586     -0.000639     -0.000698
      5.13205      1.09979     -2.45651        -0.000067      0.000560     -0.000428
     13.52630      1.09979     -2.45651        -0.000091      0.000430     -0.000287
      3.26219      7.47505     -8.62356         0.000086     -0.000505      0.000478
     11.65644      7.47505     -8.62356         0.000172     -0.000335      0.000353
      3.34375      7.44923     -2.67574        -0.022092      0.003674     -0.016225
     11.73799      7.44923     -2.67574        -0.001598      0.000622      0.000701
      7.36585      0.97835     -4.87422         0.002304      0.000777      0.002494
     15.76010      0.97835     -4.87422         0.002145      0.000846      0.002506
      2.43027      2.67356     -9.91842         0.000262     -0.000029     -0.000372
     10.82452      2.67356     -9.91842         0.000022      0.000056     -0.000413
      4.75106      2.80814     -7.40493        -0.002471     -0.001322      0.000866
     13.14531      2.80814     -7.40493        -0.002477     -0.001255      0.000956
      7.45932      6.25348     -2.64294        -0.011781      0.008938      0.013038
     15.85356      6.25348     -2.64294         0.000096      0.000448     -0.000302
      1.02840      7.59650     -6.20585        -0.002072     -0.001141     -0.002523
      9.42265      7.59650     -6.20585        -0.002096     -0.000765     -0.002472
      0.85338      2.29554     -2.48931         0.001623      0.000616      0.000718
      9.24762      2.29554     -2.48931         0.001604      0.000740      0.000770
      3.64318      5.76671     -3.67515        -0.002362     -0.007715     -0.011416
     12.03743      5.76671     -3.67515         0.002503      0.001263     -0.000925
      0.55394      0.61303     -3.48872        -0.002525      0.001351     -0.000952
      8.94819      0.61303     -3.48872        -0.002516      0.001279     -0.001070
      5.79350     -0.03143     -4.03202        -0.001289      0.001901      0.000387
     14.18775     -0.03143     -4.03202        -0.001216      0.001795      0.000238
      4.84766      7.53946     -1.03917         0.074041     -0.058462      0.012032
     13.25190      7.53946     -1.03917        -0.003945      0.002017     -0.000266
      5.96398      5.90128     -1.16165        -0.038494      0.058791      0.000159
     14.35822      5.90128     -1.16165        -0.000098      0.000036      0.000514
      3.53659      1.03539    -10.04090         0.003871     -0.002014      0.000279
     11.93084      1.03539    -10.04090         0.003930     -0.002074      0.000270
      6.62739      0.74760     -0.97522        -0.000295     -0.000282      0.000586
     15.02164      0.74760     -0.97522         0.000046      0.000007      0.000452
      1.59638      3.45260     -6.86163        -0.001229     -0.001722     -0.000204
      9.99063      3.45260     -6.86163        -0.001220     -0.001787     -0.000333
      0.93493      2.32137     -8.43713        -0.000229     -0.000561      0.000273
      9.32918      2.32137     -8.43713        -0.000068     -0.000447      0.000296
      7.54087      6.27930     -8.59076        -0.001776     -0.000625     -0.001064
     15.93512      6.27930     -8.59076        -0.001500     -0.000595     -0.000656
      2.60074      8.60628     -7.04805         0.001175     -0.001684     -0.000392
     10.99499      8.60628     -7.04805         0.001345     -0.001800     -0.000133
      7.73371      2.38578     -0.85274         0.003806      0.001944     -0.000286
     16.12796      2.38578     -0.85274         0.003950      0.002024     -0.000269
      0.66053      6.18907    -10.22733        -0.004259     -0.002163      0.000423
      9.05478      6.18907    -10.22733        -0.004258     -0.001878      0.000064
      6.79787      5.12225     -4.21845        -0.001255      0.001040      0.000001
     15.19211      5.12225     -4.21845         0.001204      0.001767      0.000155
      5.22552      6.13203     -5.06065        -0.000959      0.000881      0.004814
     13.61977      6.13203     -5.06065        -0.002113      0.000878      0.002527
 -----------------------------------------------------------------------------------
    total drift:                                0.000002     -0.000000     -0.000000


--------------------------------------------------------------------------------------------------------



  FREE ENERGIE OF THE ION-ELECTRON SYSTEM (eV)
  ---------------------------------------------------
  free  energy   TOTEN  =      -229.37625110 eV

  energy  without entropy=     -229.37625110  energy(sigma->0) =     -229.37625110



--------------------------------------------------------------------------------------------------------


    POTLOK:  cpu time     29.7054: real time     29.7281


--------------------------------------------------------------------------------------------------------


     LOOP+:  cpu time   5205.5859: real time   5210.0660
    4ORBIT:  cpu time      0.0000: real time      0.0000



 total charge

# of ion       s       p       d       tot
------------------------------------------
    1        1.376   2.247   0.000   3.623
    2        1.376   2.247   0.000   3.623
    3        1.376   2.258   0.000   3.635
    4        1.376   2.258   0.000   3.635
    5        1.376   2.247   0.000   3.622
    6        1.376   2.247   0.000   3.623
    7        1.375   2.262   0.000   3.638
    8        1.375   2.262   0.000   3.638
    9        1.377   2.257   0.000   3.634
   10        1.377   2.257   0.000   3.634
   11        1.377   2.257   0.000   3.634
   12        1.377   2.257   0.000   3.634
   13        1.375   2.263   0.000   3.639
   14        1.375   2.262   0.000   3.638
   15        1.376   2.258   0.000   3.635
   16        1.376   2.258   0.000   3.635
   17        1.376   2.247   0.000   3.622
   18        1.376   2.247   0.000   3.623
   19        1.376   2.247   0.000   3.623
   20        1.376   2.247   0.000   3.623
   21        1.377   2.257   0.000   3.634
   22        1.377   2.257   0.000   3.634
   23        1.376   2.258   0.000   3.635
   24        1.376   2.258   0.000   3.635
   25        1.375   2.262   0.000   3.638
   26        1.375   2.262   0.000   3.638
   27        1.376   2.247   0.000   3.623
   28        1.376   2.247   0.000   3.623
   29        1.376   2.247   0.000   3.623
   30        1.376   2.247   0.000   3.623
   31        1.376   2.254   0.000   3.630
   32        1.376   2.254   0.000   3.630
   33        1.375   2.262   0.000   3.637
   34        1.375   2.263   0.000   3.638
   35        1.376   2.244   0.000   3.621
   36        1.376   2.247   0.000   3.623
   37        1.375   2.263   0.000   3.638
   38        1.375   2.263   0.000   3.638
   39        1.376   2.247   0.000   3.622
   40        1.376   2.247   0.000   3.623
   41        1.376   2.254   0.000   3.630
   42        1.376   2.254   0.000   3.630
   43        1.377   2.257   0.000   3.634
   44        1.377   2.257   0.000   3.634
   45        1.375   2.262   0.000   3.638
   46        1.375   2.262   0.000   3.638
   47        1.376   2.254   0.000   3.630
   48        1.376   2.254   0.000   3.630
   49        1.375   2.263   0.000   3.638
   50        1.375   2.263   0.000   3.638
   51        1.375   2.263   0.000   3.638
   52        1.375   2.263   0.000   3.638
   53        1.376   2.255   0.000   3.630
   54        1.376   2.254   0.000   3.630
   55        1.376   2.258   0.000   3.635
   56        1.376   2.258   0.000   3.635
--------------------------------------------------
tot         77.049 126.310   0.000 203.359



 magnetization (x)

# of ion       s       p       d       tot
------------------------------------------
    1        0.000   0.000   0.000   0.000
    2        0.000   0.000   0.000   0.000
    3        0.000   0.000   0.000   0.000
    4        0.000   0.000   0.000   0.000
    5        0.000   0.000   0.000   0.000
    6        0.000   0.000   0.000   0.000
    7        0.000   0.000   0.000   0.000
    8        0.000   0.000   0.000   0.000
    9        0.000   0.000   0.000   0.000
   10        0.000   0.000   0.000   0.000
   11        0.000   0.000   0.000   0.000
   12        0.000   0.000   0.000   0.000
   13        0.000   0.000   0.000   0.000
   14        0.000   0.000   0.000   0.000
   15        0.000   0.000   0.000   0.000
   16        0.000   0.000   0.000   0.000
   17        0.000   0.000   0.000   0.000
   18        0.000   0.000   0.000   0.000
   19        0.000   0.000   0.000   0.000
   20        0.000   0.000   0.000   0.000
   21        0.000   0.000   0.000   0.000
   22        0.000   0.000   0.000   0.000
   23        0.000   0.000   0.000   0.000
   24        0.000   0.000   0.000   0.000
   25        0.000   0.000   0.000   0.000
   26        0.000   0.000   0.000   0.000
   27        0.000   0.000   0.000   0.000
   28        0.000   0.000   0.000   0.000
   29        0.000   0.000   0.000   0.000
   30        0.000   0.000   0.000   0.000
   31        0.000   0.000   0.000   0.000
   32        0.000   0.000   0.000   0.000
   33        0.000   0.000   0.000   0.000
   34        0.000   0.000   0.000   0.000
   35        0.000   0.000   0.000   0.000
   36        0.000   0.000   0.000   0.000
   37        0.000   0.000   0.000   0.000
   38        0.000   0.000   0.000   0.000
   39        0.000   0.000   0.000   0.000
   40        0.000   0.000   0.000   0.000
   41        0.000   0.000   0.000   0.000
   42        0.000   0.000   0.000   0.000
   43        0.000   0.000   0.000   0.000
   44        0.000   0.000   0.000   0.000
   45        0.000   0.000   0.000   0.000
   46        0.000   0.000   0.000   0.000
   47        0.000   0.000   0.000   0.000
   48        0.000   0.000   0.000   0.000
   49        0.000   0.000   0.000   0.000
   50        0.000   0.000   0.000   0.000
   51        0.000   0.000   0.000   0.000
   52        0.000   0.000   0.000   0.000
   53        0.000   0.000   0.000   0.000
   54        0.000   0.000   0.000   0.000
   55        0.000   0.000   0.000   0.000
   56        0.000   0.000   0.000   0.000
--------------------------------------------------
tot          0.000   0.000   0.000   0.000

 BZINTS: Fermi energy:    0.079689;  336.000000 electrons
         Band energy:-0.201115E+04;  BLOECHL correction:    0.000000

 total amount of memory used by VASP MPI-rank0   322725. kBytes
=======================================================================

   base      :      30000. kBytes
   nonl-proj :      70692. kBytes
   fftplans  :      34504. kBytes
   grid      :      83442. kBytes
   one-center:        344. kBytes
   wavefun   :     103743. kBytes

  
  
 General timing and accounting informations for this job:
 ========================================================
  
                  Total CPU time used (sec):     5253.825
                            User time (sec):     5251.673
                          System time (sec):        2.152
                         Elapsed time (sec):     5261.800
  
                   Maximum memory used (kb):      606576.
                   Average memory used (kb):          N/A
  
                          Minor page faults:       587312
                          Major page faults:            0
                 Voluntary context switches:        20515
