  39  39   0   0
  0.2439952E+02  0.6834254E-09  0.1767185E-08  0.7880486E-09  0.0000000E+00
   1.0000000000000000E-004
  CAR 
 NEB_refined                             
      9.51170917    -23.84100595  301      1.07166964      1.00000000
    -23.841  0.0000E+00  0.0000E+00
    -23.730  0.0000E+00  0.0000E+00
    -23.619  0.0000E+00  0.0000E+00
    -23.507 -0.9438E-31 -0.1049E-31
    -23.396 -0.7082E-27 -0.7875E-28
    -23.285 -0.2827E-23 -0.3144E-24
    -23.174 -0.6068E-20 -0.6749E-21
    -23.063 -0.7003E-17 -0.7793E-18
    -22.952 -0.4208E-14 -0.4687E-15
    -22.840 -0.1392E-11 -0.1552E-12
    -22.729 -0.2464E-09 -0.2755E-10
    -22.618 -0.2326E-07 -0.2614E-08
    -22.507 -0.1164E-05 -0.1320E-06
    -22.396 -0.3048E-04 -0.3521E-05
    -22.285 -0.4065E-03 -0.4872E-04
    -22.173 -0.2564E-02 -0.3337E-03
    -22.062 -0.5541E-02 -0.9498E-03
    -21.951  0.1110E-01  0.2847E-03
    -21.840  0.7096E-01  0.8174E-02
    -21.729  0.1231E+00  0.2186E-01
    -21.617  0.1113E+00  0.3424E-01
    -21.506  0.1178E+00  0.4733E-01
    -21.395  0.2433E+00  0.7438E-01
    -21.284  0.4360E+00  0.1229E+00
    -21.173  0.5077E+00  0.1793E+00
    -21.062  0.3472E+00  0.2179E+00
    -20.950  0.1120E+00  0.2303E+00
    -20.839 -0.3094E-02  0.2300E+00
    -20.728 -0.1347E-01  0.2285E+00
    -20.617 -0.3973E-02  0.2281E+00
    -20.506 -0.5223E-03  0.2280E+00
    -20.395 -0.3509E-04  0.2280E+00
    -20.283 -0.1248E-05  0.2280E+00
    -20.172 -0.2377E-07  0.2280E+00
    -20.061 -0.2438E-09  0.2280E+00
    -19.950 -0.1348E-11  0.2280E+00
    -19.839 -0.4010E-14  0.2280E+00
    -19.728 -0.7989E-17  0.2280E+00
    -19.616  0.0000E+00  0.2280E+00
    -19.505  0.0000E+00  0.2280E+00
    -19.394  0.0000E+00  0.2280E+00
    -19.283  0.0000E+00  0.2280E+00
    -19.172  0.0000E+00  0.2280E+00
    -19.060  0.0000E+00  0.2280E+00
    -18.949  0.0000E+00  0.2280E+00
    -18.838  0.0000E+00  0.2280E+00
    -18.727  0.0000E+00  0.2280E+00
    -18.616  0.0000E+00  0.2280E+00
    -18.505  0.0000E+00  0.2280E+00
    -18.393  0.0000E+00  0.2280E+00
    -18.282  0.0000E+00  0.2280E+00
    -18.171  0.0000E+00  0.2280E+00
    -18.060  0.0000E+00  0.2280E+00
    -17.949  0.0000E+00  0.2280E+00
    -17.838  0.0000E+00  0.2280E+00
    -17.726  0.0000E+00  0.2280E+00
    -17.615  0.0000E+00  0.2280E+00
    -17.504  0.0000E+00  0.2280E+00
    -17.393  0.0000E+00  0.2280E+00
    -17.282  0.0000E+00  0.2280E+00
    -17.170  0.0000E+00  0.2280E+00
    -17.059  0.0000E+00  0.2280E+00
    -16.948  0.0000E+00  0.2280E+00
    -16.837  0.0000E+00  0.2280E+00
    -16.726  0.0000E+00  0.2280E+00
    -16.615  0.0000E+00  0.2280E+00
    -16.503  0.0000E+00  0.2280E+00
    -16.392  0.0000E+00  0.2280E+00
    -16.281  0.0000E+00  0.2280E+00
    -16.170  0.0000E+00  0.2280E+00
    -16.059  0.0000E+00  0.2280E+00
    -15.948  0.0000E+00  0.2280E+00
    -15.836  0.0000E+00  0.2280E+00
    -15.725  0.0000E+00  0.2280E+00
    -15.614  0.0000E+00  0.2280E+00
    -15.503  0.0000E+00  0.2280E+00
    -15.392  0.0000E+00  0.2280E+00
    -15.280  0.0000E+00  0.2280E+00
    -15.169  0.0000E+00  0.2280E+00
    -15.058  0.0000E+00  0.2280E+00
    -14.947  0.0000E+00  0.2280E+00
    -14.836  0.0000E+00  0.2280E+00
    -14.725  0.0000E+00  0.2280E+00
    -14.613  0.0000E+00  0.2280E+00
    -14.502  0.0000E+00  0.2280E+00
    -14.391  0.0000E+00  0.2280E+00
    -14.280  0.0000E+00  0.2280E+00
    -14.169 -0.1170E-30  0.2280E+00
    -14.058 -0.8796E-27  0.2280E+00
    -13.946 -0.3510E-23  0.2280E+00
    -13.835 -0.7546E-20  0.2280E+00
    -13.724 -0.8734E-17  0.2280E+00
    -13.613 -0.5273E-14  0.2280E+00
    -13.502 -0.1753E-11  0.2280E+00
    -13.390 -0.3125E-09  0.2280E+00
    -13.279 -0.2976E-07  0.2280E+00
    -13.168 -0.1504E-05  0.2280E+00
    -13.057 -0.3989E-04  0.2280E+00
    -12.946 -0.5407E-03  0.2279E+00
    -12.835 -0.3497E-02  0.2275E+00
    -12.723 -0.8105E-02  0.2266E+00
    -12.612  0.1302E-01  0.2281E+00
    -12.501  0.9848E-01  0.2390E+00
    -12.390  0.1950E+00  0.2607E+00
    -12.279  0.2084E+00  0.2839E+00
    -12.168  0.1487E+00  0.3004E+00
    -12.056  0.6713E-01  0.3079E+00
    -11.945  0.9680E-02  0.3090E+00
    -11.834 -0.5449E-02  0.3084E+00
    -11.723 -0.2673E-02  0.3081E+00
    -11.612 -0.4624E-03  0.3080E+00
    -11.501 -0.3814E-04  0.3080E+00
    -11.389 -0.1608E-05  0.3080E+00
    -11.278 -0.3551E-07  0.3080E+00
    -11.167 -0.4163E-09  0.3080E+00
    -11.056 -0.5411E-10  0.3080E+00
    -10.945 -0.5053E-08  0.3080E+00
    -10.833 -0.2600E-06  0.3080E+00
    -10.722 -0.6930E-05  0.3080E+00
    -10.611 -0.9343E-04  0.3080E+00
    -10.500 -0.6008E-03  0.3079E+00
    -10.389 -0.1456E-02  0.3078E+00
    -10.278  0.1644E-02  0.3079E+00
    -10.166  0.1636E-01  0.3098E+00
    -10.055  0.3823E-01  0.3140E+00
     -9.944  0.4685E-01  0.3192E+00
     -9.833  0.3243E-01  0.3228E+00
     -9.722  0.8947E-02  0.3238E+00
     -9.611 -0.5663E-02  0.3232E+00
     -9.499  0.1039E-01  0.3243E+00
     -9.388  0.7812E-01  0.3330E+00
     -9.277  0.1437E+00  0.3490E+00
     -9.166  0.1269E+00  0.3631E+00
     -9.055  0.6363E-01  0.3702E+00
     -8.943  0.1902E-01  0.3723E+00
     -8.832  0.6188E-03  0.3724E+00
     -8.721 -0.2329E-02  0.3721E+00
     -8.610 -0.8922E-03  0.3720E+00
     -8.499 -0.1399E-03  0.3720E+00
     -8.388 -0.1068E-04  0.3720E+00
     -8.276 -0.4163E-06  0.3720E+00
     -8.165 -0.8474E-08  0.3720E+00
     -8.054 -0.9104E-10  0.3720E+00
     -7.943 -0.5192E-12  0.3720E+00
     -7.832 -0.1582E-14  0.3720E+00
     -7.721  0.0000E+00  0.3720E+00
     -7.609  0.0000E+00  0.3720E+00
     -7.498  0.0000E+00  0.3720E+00
     -7.387  0.0000E+00  0.3720E+00
     -7.276  0.0000E+00  0.3720E+00
     -7.165  0.0000E+00  0.3720E+00
     -7.053  0.0000E+00  0.3720E+00
     -6.942  0.0000E+00  0.3720E+00
     -6.831  0.0000E+00  0.3720E+00
     -6.720  0.0000E+00  0.3720E+00
     -6.609  0.0000E+00  0.3720E+00
     -6.498  0.0000E+00  0.3720E+00
     -6.386  0.0000E+00  0.3720E+00
     -6.275  0.0000E+00  0.3720E+00
     -6.164  0.0000E+00  0.3720E+00
     -6.053  0.0000E+00  0.3720E+00
     -5.942  0.0000E+00  0.3720E+00
     -5.831  0.0000E+00  0.3720E+00
     -5.719  0.0000E+00  0.3720E+00
     -5.608  0.0000E+00  0.3720E+00
     -5.497  0.0000E+00  0.3720E+00
     -5.386  0.0000E+00  0.3720E+00
     -5.275  0.0000E+00  0.3720E+00
     -5.163  0.0000E+00  0.3720E+00
     -5.052  0.0000E+00  0.3720E+00
     -4.941 -0.9257E-31  0.3720E+00
     -4.830 -0.6492E-27  0.3720E+00
     -4.719 -0.2441E-23  0.3720E+00
     -4.608 -0.4918E-20  0.3720E+00
     -4.496 -0.5303E-17  0.3720E+00
     -4.385 -0.2957E-14  0.3720E+00
     -4.274 -0.9012E-12  0.3720E+00
     -4.163 -0.1456E-09  0.3720E+00
     -4.052 -0.1240E-07  0.3720E+00
     -3.941 -0.5503E-06  0.3720E+00
     -3.829 -0.1252E-04  0.3720E+00
     -3.718 -0.1409E-03  0.3720E+00
     -3.607 -0.7172E-03  0.3719E+00
     -3.496 -0.1062E-02  0.3718E+00
     -3.385  0.3426E-02  0.3722E+00
     -3.273  0.1703E-01  0.3741E+00
     -3.162  0.3603E-01  0.3781E+00
     -3.051  0.4674E-01  0.3833E+00
     -2.940  0.3417E-01  0.3871E+00
     -2.829  0.1087E-01  0.3883E+00
     -2.718 -0.6652E-03  0.3882E+00
     -2.606 -0.1374E-02  0.3880E+00
     -2.495 -0.3534E-03  0.3880E+00
     -2.384 -0.3978E-04  0.3880E+00
     -2.273 -0.2224E-05  0.3880E+00
     -2.162 -0.1381E-06  0.3880E+00
     -2.051 -0.2444E-05  0.3880E+00
     -1.939 -0.4080E-04  0.3880E+00
     -1.828 -0.3289E-03  0.3880E+00
     -1.717 -0.1113E-02  0.3878E+00
     -1.606 -0.4177E-03  0.3878E+00
     -1.495  0.6863E-02  0.3886E+00
     -1.384  0.2451E-01  0.3913E+00
     -1.272  0.5442E-01  0.3973E+00
     -1.161  0.8213E-01  0.4065E+00
     -1.050  0.8285E-01  0.4157E+00
     -0.939  0.5505E-01  0.4218E+00
     -0.828  0.2491E-01  0.4246E+00
     -0.716  0.2673E-01  0.4275E+00
     -0.605  0.4065E-01  0.4320E+00
     -0.494  0.2723E-01  0.4351E+00
     -0.383  0.5420E-02  0.4357E+00
     -0.272  0.1601E-01  0.4375E+00
     -0.161  0.6086E-01  0.4442E+00
     -0.049  0.1050E+00  0.4559E+00
      0.062  0.1265E+00  0.4700E+00
      0.173  0.1208E+00  0.4834E+00
      0.284  0.1049E+00  0.4950E+00
      0.395  0.1097E+00  0.5072E+00
      0.506  0.1133E+00  0.5198E+00
      0.618  0.8625E-01  0.5294E+00
      0.729  0.6231E-01  0.5364E+00
      0.840  0.7599E-01  0.5448E+00
      0.951  0.8994E-01  0.5548E+00
      1.062  0.6156E-01  0.5616E+00
      1.174  0.2186E-01  0.5641E+00
      1.285  0.2213E-02  0.5643E+00
      1.396 -0.1816E-02  0.5641E+00
      1.507 -0.9194E-03  0.5640E+00
      1.618 -0.1770E-03  0.5640E+00
      1.729 -0.1620E-04  0.5640E+00
      1.841 -0.7453E-06  0.5640E+00
      1.952 -0.1767E-07  0.5640E+00
      2.063 -0.2189E-09  0.5640E+00
      2.174 -0.1816E-10  0.5640E+00
      2.285 -0.1890E-08  0.5640E+00
      2.396 -0.1117E-06  0.5640E+00
      2.508 -0.3402E-05  0.5640E+00
      2.619 -0.5166E-04  0.5640E+00
      2.730 -0.3602E-03  0.5640E+00
      2.841 -0.8125E-03  0.5639E+00
      2.952  0.1893E-02  0.5641E+00
      3.064  0.1101E-01  0.5653E+00
      3.175  0.1611E-01  0.5671E+00
      3.286  0.8592E-02  0.5680E+00
      3.397  0.6595E-03  0.5681E+00
      3.508 -0.7903E-03  0.5680E+00
      3.619 -0.2986E-03  0.5680E+00
      3.731 -0.4745E-03  0.5679E+00
      3.842 -0.1565E-02  0.5678E+00
      3.953  0.2257E-03  0.5678E+00
      4.064  0.1470E-01  0.5694E+00
      4.175  0.3623E-01  0.5735E+00
      4.286  0.3859E-01  0.5777E+00
      4.398  0.1958E-01  0.5799E+00
      4.509  0.2936E-02  0.5803E+00
      4.620 -0.1431E-02  0.5801E+00
      4.731 -0.6997E-03  0.5800E+00
      4.842 -0.1210E-03  0.5800E+00
      4.954 -0.6536E-04  0.5800E+00
      5.065 -0.4541E-03  0.5799E+00
      5.176 -0.1549E-02  0.5798E+00
      5.287  0.9758E-05  0.5798E+00
      5.398  0.1387E-01  0.5813E+00
      5.509  0.3694E-01  0.5854E+00
      5.621  0.4404E-01  0.5903E+00
      5.732  0.3440E-01  0.5941E+00
      5.843  0.3852E-01  0.5984E+00
      5.954  0.5819E-01  0.6049E+00
      6.065  0.6346E-01  0.6119E+00
      6.176  0.4609E-01  0.6171E+00
      6.288  0.2154E-01  0.6195E+00
      6.399  0.5229E-02  0.6200E+00
      6.510  0.1160E-01  0.6213E+00
      6.621  0.3168E-01  0.6249E+00
      6.732  0.4120E-01  0.6294E+00
      6.843  0.4251E-01  0.6342E+00
      6.955  0.4399E-01  0.6391E+00
      7.066  0.4483E-01  0.6440E+00
      7.177  0.4921E-01  0.6495E+00
      7.288  0.5505E-01  0.6556E+00
      7.399  0.5868E-01  0.6622E+00
      7.511  0.5399E-01  0.6682E+00
      7.622  0.3153E-01  0.6717E+00
      7.733  0.6571E-02  0.6724E+00
      7.844 -0.2070E-02  0.6722E+00
      7.955 -0.1246E-02  0.6720E+00
      8.066 -0.2223E-03  0.6720E+00
      8.178 -0.1811E-04  0.6720E+00
      8.289 -0.7362E-06  0.6720E+00
      8.400 -0.1543E-07  0.6720E+00
      8.511 -0.1696E-09  0.6720E+00
      8.622 -0.9859E-12  0.6720E+00
      8.733 -0.3052E-14  0.6720E+00
      8.845  0.0000E+00  0.6720E+00
      8.956  0.0000E+00  0.6720E+00
      9.067  0.0000E+00  0.6720E+00
      9.178  0.0000E+00  0.6720E+00
      9.289  0.0000E+00  0.6720E+00
      9.401  0.0000E+00  0.6720E+00
      9.512  0.0000E+00  0.6720E+00
