 vasp.6.3.2 27Jun22 (build Jun 14 2024 17:29:11) complex                         
 POSCAR found type information on POSCAR NaInS 
 07/POSCAR found :  3 types and      39 ions
 -----------------------------------------------------------------------------
|                                                                             |
|           W    W    AA    RRRRR   N    N  II  N    N   GGGG   !!!           |
|           W    W   A  A   R    R  NN   N  II  NN   N  G    G  !!!           |
|           W    W  A    A  R    R  N N  N  II  N N  N  G       !!!           |
|           W WW W  AAAAAA  RRRRR   N  N N  II  N  N N  G  GGG   !            |
|           WW  WW  A    A  R   R   N   NN  II  N   NN  G    G                |
|           W    W  A    A  R    R  N    N  II  N    N   GGGG   !!!           |
|                                                                             |
|     The value NPAR = 9 specified in the INCAR file was overwritten,         |
|     because it was not compatible with the 3 processes available:           |
|     NPAR = 3                                                                |
|     was used instead, please check that this makes sense for your           |
|     machine.                                                                |
|                                                                             |
 -----------------------------------------------------------------------------

 LDA part: xc-table for Pade appr. of Perdew
 POSCAR found type information on POSCAR NaInS 
 00/POSCAR found :  3 types and      39 ions
 POSCAR found type information on POSCAR NaInS 
 10/POSCAR found :  3 types and      39 ions
 POSCAR, INCAR and KPOINTS ok, starting setup
 FFT: planning ... GRIDC
 FFT: planning ... GRID_SOFT
 FFT: planning ... GRID
 WAVECAR not read
 entering main loop
       N       E                     dE             d eps       ncg     rms          rms(c)
DAV:   1     0.289057988282E+04    0.28906E+04   -0.11444E+05   336   0.151E+03
DAV:   2     0.327160869213E+03   -0.25634E+04   -0.24847E+04   345   0.437E+02
DAV:   3    -0.111363180980E+03   -0.43852E+03   -0.42913E+03   396   0.194E+02
DAV:   4    -0.147280101845E+03   -0.35917E+02   -0.35620E+02   420   0.500E+01
DAV:   5    -0.148413578113E+03   -0.11335E+01   -0.11317E+01   492   0.103E+01    0.190E+01
RMM:   6    -0.139494796402E+03    0.89188E+01   -0.16834E+01   380   0.724E+00    0.119E+01
RMM:   7    -0.139344893568E+03    0.14990E+00   -0.15311E+01   407   0.525E+00    0.745E+00
RMM:   8    -0.139421884708E+03   -0.76991E-01   -0.12347E+00   393   0.301E+00    0.323E+00
RMM:   9    -0.139307602545E+03    0.11428E+00   -0.75114E-01   402   0.177E+00    0.205E+00
RMM:  10    -0.139190454770E+03    0.11715E+00   -0.20492E-01   434   0.124E+00    0.835E-01
RMM:  11    -0.139186680762E+03    0.37740E-02   -0.58453E-02   476   0.516E-01    0.709E-01
RMM:  12    -0.139187139471E+03   -0.45871E-03   -0.11574E-02   505   0.244E-01    0.581E-01
RMM:  13    -0.139192020714E+03   -0.48812E-02   -0.43351E-03   394   0.135E-01    0.359E-01
RMM:  14    -0.139196825245E+03   -0.48045E-02   -0.82979E-03   428   0.150E-01    0.379E-01
RMM:  15    -0.139192790766E+03    0.40345E-02   -0.28924E-03   382   0.979E-02    0.144E-01
RMM:  16    -0.139192863374E+03   -0.72609E-04   -0.92122E-04   408   0.567E-02    0.117E-01
RMM:  17    -0.139192706034E+03    0.15734E-03   -0.16831E-04   346   0.312E-02    0.771E-02
RMM:  18    -0.139192601855E+03    0.10418E-03   -0.13900E-04   292   0.251E-02    0.244E-02
RMM:  19    -0.139192600609E+03    0.12459E-05   -0.52570E-05   300   0.171E-02
   1 F= -.13919260E+03 E0= -.13920479E+03  d E =-.139193E+03
quench:  g(F)=  0.000E+00 g(S)=  0.000E+00 dE (1.order)= 0.000E+00
 bond charge predicted
       N       E                     dE             d eps       ncg     rms          rms(c)
DAV:   1    -0.139192602457E+03   -0.60165E-06   -0.77965E-06   210   0.102E-02    0.912E-03
RMM:   2    -0.139192603467E+03   -0.10102E-05   -0.37189E-06   195   0.756E-03
   2 F= -.13919260E+03 E0= -.13920480E+03  d E =-.285777E-05
quench:  g(F)=  0.000E+00 g(S)=  0.000E+00 dE (1.order)= 0.000E+00
 bond charge predicted
       N       E                     dE             d eps       ncg     rms          rms(c)
DAV:   1    -0.139192603181E+03   -0.72413E-06   -0.11513E-05   249   0.790E-03    0.648E-03
RMM:   2    -0.139192603942E+03   -0.76095E-06   -0.11374E-06   191   0.394E-03
   3 F= -.13919260E+03 E0= -.13920480E+03  d E =-.474869E-06
quench:  g(F)=  0.000E+00 g(S)=  0.000E+00 dE (1.order)= 0.000E+00
 bond charge predicted
       N       E                     dE             d eps       ncg     rms          rms(c)
DAV:   1    -0.139192603377E+03   -0.19647E-06   -0.77738E-06   231   0.540E-03    0.445E-03
RMM:   2    -0.139192603583E+03   -0.20563E-06   -0.35964E-07   149   0.256E-03
   4 F= -.13919260E+03 E0= -.13920480E+03  d E =0.358854E-06
quench:  g(F)=  0.000E+00 g(S)=  0.000E+00 dE (1.order)= 0.000E+00
 bond charge predicted
       N       E                     dE             d eps       ncg     rms          rms(c)
DAV:   1    -0.139192603537E+03   -0.15960E-06   -0.24511E-06   213   0.328E-03    0.319E-03
RMM:   2    -0.139192603711E+03   -0.17367E-06   -0.15955E-07    87   0.188E-03
   5 F= -.13919260E+03 E0= -.13920480E+03  d E =-.127635E-06
quench:  g(F)=  0.000E+00 g(S)=  0.000E+00 dE (1.order)= 0.000E+00
 bond charge predicted
       N       E                     dE             d eps       ncg     rms          rms(c)
DAV:   1    -0.139192603571E+03   -0.34383E-07   -0.21295E-06   213   0.265E-03    0.204E-03
RMM:   2    -0.139192603623E+03   -0.51474E-07   -0.29890E-09    31   0.132E-03
   6 F= -.13919260E+03 E0= -.13920480E+03  d E =0.878099E-07
quench:  g(F)=  0.000E+00 g(S)=  0.000E+00 dE (1.order)= 0.000E+00
 bond charge predicted
       N       E                     dE             d eps       ncg     rms          rms(c)
DAV:   1    -0.139192603593E+03   -0.21992E-07   -0.85227E-07   213   0.167E-03    0.135E-03
RMM:   2    -0.139192603623E+03   -0.29253E-07   -0.22802E-09    26   0.101E-03
   7 F= -.13919260E+03 E0= -.13920480E+03  d E =0.229193E-09
quench:  g(F)=  0.000E+00 g(S)=  0.000E+00 dE (1.order)= 0.000E+00
 bond charge predicted
       N       E                     dE             d eps       ncg     rms          rms(c)
DAV:   1    -0.139192603593E+03    0.25830E-09   -0.50441E-07   213   0.123E-03    0.939E-04
RMM:   2    -0.139192603599E+03   -0.58462E-08    0.79775-227    23   0.865E-04
   8 F= -.13919260E+03 E0= -.13920480E+03  d E =0.236651E-07
quench:  g(F)=  0.000E+00 g(S)=  0.000E+00 dE (1.order)= 0.000E+00
 bond charge predicted
       N       E                     dE             d eps       ncg     rms          rms(c)
DAV:   1    -0.139192603596E+03   -0.32560E-08   -0.20423E-07   213   0.954E-04    0.671E-04
RMM:   2    -0.139192603597E+03   -0.19281E-09    0.58131-227    21   0.665E-04
   9 F= -.13919260E+03 E0= -.13920480E+03  d E =0.239743E-08
quench:  g(F)=  0.000E+00 g(S)=  0.000E+00 dE (1.order)= 0.000E+00
 bond charge predicted
       N       E                     dE             d eps       ncg     rms          rms(c)
DAV:   1    -0.139192603588E+03    0.82873E-08   -0.12671E-07   213   0.741E-04    0.440E-04
RMM:   2    -0.139192603588E+03   -0.24374E-09    0.20930-273    16   0.473E-04
  10 F= -.13919260E+03 E0= -.13920480E+03  d E =0.823638E-08
quench:  g(F)=  0.000E+00 g(S)=  0.000E+00 dE (1.order)= 0.000E+00
 bond charge predicted
       N       E                     dE             d eps       ncg     rms          rms(c)
DAV:   1    -0.139192603588E+03   -0.50932E-10   -0.46448E-08   195   0.513E-04    0.390E-04
RMM:   2    -0.139192603586E+03    0.20882E-08    0.19236-257    16   0.368E-04
  11 F= -.13919260E+03 E0= -.13920480E+03  d E =0.228101E-08
quench:  g(F)=  0.000E+00 g(S)=  0.000E+00 dE (1.order)= 0.000E+00
 bond charge predicted
       N       E                     dE             d eps       ncg     rms          rms(c)
DAV:   1    -0.139192603584E+03    0.40563E-08   -0.35723E-08   186   0.412E-04    0.240E-04
RMM:   2    -0.139192603583E+03    0.78217E-09    0.00000E+00    13   0.250E-04
  12 F= -.13919260E+03 E0= -.13920480E+03  d E =0.275031E-08
quench:  g(F)=  0.000E+00 g(S)=  0.000E+00 dE (1.order)= 0.000E+00
 bond charge predicted
       N       E                     dE             d eps       ncg     rms          rms(c)
DAV:   1    -0.139192603583E+03    0.67303E-09   -0.14146E-08   186   0.277E-04    0.215E-04
RMM:   2    -0.139192603582E+03    0.17972E-08    0.00000E+00    13   0.202E-04
  13 F= -.13919260E+03 E0= -.13920480E+03  d E =0.168802E-08
quench:  g(F)=  0.000E+00 g(S)=  0.000E+00 dE (1.order)= 0.000E+00
 bond charge predicted
       N       E                     dE             d eps       ncg     rms          rms(c)
DAV:   1    -0.139192603582E+03    0.12515E-08   -0.91025E-09   186   0.223E-04    0.142E-04
RMM:   2    -0.139192603581E+03    0.88767E-09    0.00000E+00    12   0.143E-04
  14 F= -.13919260E+03 E0= -.13920480E+03  d E =0.341970E-09
quench:  g(F)=  0.000E+00 g(S)=  0.000E+00 dE (1.order)= 0.000E+00
 bond charge predicted
       N       E                     dE             d eps       ncg     rms          rms(c)
DAV:   1    -0.139192603581E+03    0.97498E-09   -0.58326E-09   186   0.168E-04    0.104E-04
RMM:   2    -0.139192603580E+03    0.13715E-08    0.00000E+00    12   0.115E-04
  15 F= -.13919260E+03 E0= -.13920480E+03  d E =0.145883E-08
quench:  g(F)=  0.000E+00 g(S)=  0.000E+00 dE (1.order)= 0.000E+00
 bond charge predicted
       N       E                     dE             d eps       ncg     rms          rms(c)
DAV:   1    -0.139192603579E+03    0.26303E-08   -0.24936E-09   186   0.123E-04    0.101E-04
RMM:   2    -0.139192603580E+03   -0.12078E-08    0.00000E+00    11   0.952E-05
  16 F= -.13919260E+03 E0= -.13920480E+03  d E =0.509317E-10
quench:  g(F)=  0.000E+00 g(S)=  0.000E+00 dE (1.order)= 0.000E+00
 bond charge predicted
       N       E                     dE             d eps       ncg     rms          rms(c)
DAV:   1    -0.139192603580E+03   -0.12260E-08   -0.26102E-09   186   0.115E-04    0.563E-05
RMM:   2    -0.139192603579E+03    0.93860E-09    0.00000E+00    10   0.640E-05
  17 F= -.13919260E+03 E0= -.13920480E+03  d E =0.920409E-09
quench:  g(F)=  0.000E+00 g(S)=  0.000E+00 dE (1.order)= 0.000E+00
 bond charge predicted
       N       E                     dE             d eps       ncg     rms          rms(c)
DAV:   1    -0.139192603578E+03    0.15134E-08   -0.82142E-10   186   0.706E-05    0.526E-05
RMM:   2    -0.139192603579E+03   -0.52387E-09    0.00000E+00    10   0.540E-05
  18 F= -.13919260E+03 E0= -.13920480E+03  d E =0.509317E-10
quench:  g(F)=  0.000E+00 g(S)=  0.000E+00 dE (1.order)= 0.000E+00
 bond charge predicted
       N       E                     dE             d eps       ncg     rms          rms(c)
DAV:   1    -0.139192603578E+03    0.72760E-10   -0.57032E-10   186   0.598E-05    0.357E-05
RMM:   2    -0.139192603578E+03   -0.21464E-09    0.00000E+00     9   0.389E-05
  19 F= -.13919260E+03 E0= -.13920480E+03  d E =0.381988E-09
quench:  g(F)=  0.000E+00 g(S)=  0.000E+00 dE (1.order)= 0.000E+00
 bond charge predicted
       N       E                     dE             d eps       ncg     rms          rms(c)
DAV:   1    -0.139192603578E+03    0.31650E-09   -0.27589E-10   186   0.458E-05    0.263E-05
RMM:   2    -0.139192603578E+03   -0.43656E-09    0.00000E+00     8   0.323E-05
  20 F= -.13919260E+03 E0= -.13920480E+03  d E =0.945874E-10
quench:  g(F)=  0.000E+00 g(S)=  0.000E+00 dE (1.order)= 0.000E+00
 bond charge predicted
       N       E                     dE             d eps       ncg     rms          rms(c)
DAV:   1    -0.139192603579E+03   -0.12187E-08   -0.22153E-10   186   0.343E-05    0.290E-05
RMM:   2    -0.139192603578E+03    0.85493E-09    0.00000E+00     8   0.271E-05
  21 F= -.13919260E+03 E0= -.13920480E+03  d E =0.727596E-10
quench:  g(F)=  0.000E+00 g(S)=  0.000E+00 dE (1.order)= 0.000E+00
 bond charge predicted
       N       E                     dE             d eps       ncg     rms          rms(c)
DAV:   1    -0.139192603577E+03    0.21355E-08   -0.25803E-10   186   0.325E-05    0.155E-05
RMM:   2    -0.139192603578E+03   -0.10259E-08    0.00000E+00     8   0.192E-05
  22 F= -.13919260E+03 E0= -.13920480E+03  d E =0.254659E-09
quench:  g(F)=  0.000E+00 g(S)=  0.000E+00 dE (1.order)= 0.000E+00
 bond charge predicted
       N       E                     dE             d eps       ncg     rms          rms(c)
DAV:   1    -0.139192603579E+03   -0.18990E-08   -0.81159E-11   186   0.210E-05    0.154E-05
RMM:   2    -0.139192603578E+03    0.80036E-09    0.00000E+00     8   0.153E-05
  23 F= -.13919260E+03 E0= -.13920480E+03  d E =-.727596E-10
quench:  g(F)=  0.000E+00 g(S)=  0.000E+00 dE (1.order)= 0.000E+00
 bond charge predicted
       N       E                     dE             d eps       ncg     rms          rms(c)
DAV:   1    -0.139192603579E+03   -0.21828E-10    0.85478E-11   186   0.174E-05    0.102E-05
RMM:   2    -0.139192603578E+03    0.91313E-09    0.00000E+00     6   0.122E-05
  24 F= -.13919260E+03 E0= -.13920480E+03  d E =0.909495E-10
quench:  g(F)=  0.000E+00 g(S)=  0.000E+00 dE (1.order)= 0.000E+00
 bond charge predicted
       N       E                     dE             d eps       ncg     rms          rms(c)
DAV:   1    -0.139192603579E+03    0.32742E-09   -0.10598E-12   186   0.146E-05    0.635E-06
RMM:   2    -0.139192603578E+03    0.54933E-09    0.00000E+00     5   0.100E-05
  25 F= -.13919260E+03 E0= -.13920480E+03  d E =-.363798E-10
quench:  g(F)=  0.000E+00 g(S)=  0.000E+00 dE (1.order)= 0.000E+00
 bond charge predicted
       N       E                     dE             d eps       ncg     rms          rms(c)
DAV:   1    -0.139192603577E+03    0.11532E-08    0.26744E-11   186   0.104E-05    0.719E-06
RMM:   2    -0.139192603578E+03   -0.61482E-09    0.00000E+00     5   0.838E-06
  26 F= -.13919260E+03 E0= -.13920480E+03  d E =-.109139E-10
quench:  g(F)=  0.000E+00 g(S)=  0.000E+00 dE (1.order)= 0.000E+00
 bond charge predicted
       N       E                     dE             d eps       ncg     rms          rms(c)
DAV:   1    -0.139192603578E+03   -0.17826E-09   -0.66497E-11   186   0.977E-06    0.405E-06
RMM:   2    -0.139192603578E+03   -0.33469E-09    0.00000E+00     5   0.575E-06
  27 F= -.13919260E+03 E0= -.13920480E+03  d E =0.101863E-09
quench:  g(F)=  0.000E+00 g(S)=  0.000E+00 dE (1.order)= 0.000E+00
 bond charge predicted
       N       E                     dE             d eps       ncg     rms          rms(c)
DAV:   1    -0.139192603578E+03   -0.45839E-09    0.44462E-12   186   0.621E-06    0.369E-06
RMM:   2    -0.139192603578E+03    0.87311E-10    0.00000E+00     5   0.481E-06
  28 F= -.13919260E+03 E0= -.13920480E+03  d E =-.363798E-10
quench:  g(F)=  0.000E+00 g(S)=  0.000E+00 dE (1.order)= 0.000E+00
 bond charge predicted
       N       E                     dE             d eps       ncg     rms          rms(c)
DAV:   1    -0.139192603577E+03    0.82582E-09    0.14476E-11   186   0.528E-06    0.281E-06
RMM:   2    -0.139192603578E+03   -0.83674E-09    0.00000E+00     5   0.369E-06
  29 F= -.13919260E+03 E0= -.13920480E+03  d E =-.982254E-10
quench:  g(F)=  0.000E+00 g(S)=  0.000E+00 dE (1.order)= 0.000E+00
 bond charge predicted
       N       E                     dE             d eps       ncg     rms          rms(c)
DAV:   1    -0.139192603578E+03   -0.68758E-09   -0.37148E-11   186   0.413E-06    0.226E-06
RMM:   2    -0.139192603578E+03    0.47294E-10    0.00000E+00     4   0.311E-06
  30 F= -.13919260E+03 E0= -.13920480E+03  d E =0.196451E-09
quench:  g(F)=  0.000E+00 g(S)=  0.000E+00 dE (1.order)= 0.000E+00
 bond charge predicted
       N       E                     dE             d eps       ncg     rms          rms(c)
DAV:   1    -0.139192603578E+03   -0.20736E-09    0.10397E-10   186   0.335E-06    0.212E-06
RMM:   2    -0.139192603578E+03    0.26557E-09    0.00000E+00     4   0.258E-06
  31 F= -.13919260E+03 E0= -.13920480E+03  d E =0.109139E-10
quench:  g(F)=  0.000E+00 g(S)=  0.000E+00 dE (1.order)= 0.000E+00
 bond charge predicted
       N       E                     dE             d eps       ncg     rms          rms(c)
DAV:   1    -0.139192603578E+03    0.12369E-09    0.77774E-11   186   0.290E-06    0.135E-06
RMM:   2    -0.139192603578E+03    0.13824E-09    0.00000E+00     4   0.192E-06
  32 F= -.13919260E+03 E0= -.13920480E+03  d E =-.363798E-11
quench:  g(F)=  0.000E+00 g(S)=  0.000E+00 dE (1.order)= 0.000E+00
 bond charge predicted
       N       E                     dE             d eps       ncg     rms          rms(c)
DAV:   1    -0.139192603578E+03   -0.38563E-09    0.94383E-11   186   0.208E-06    0.135E-06
RMM:   2    -0.139192603578E+03    0.45475E-09    0.00000E+00     4   0.163E-06
  33 F= -.13919260E+03 E0= -.13920480E+03  d E =-.691216E-10
quench:  g(F)=  0.000E+00 g(S)=  0.000E+00 dE (1.order)= 0.000E+00
 bond charge predicted
       N       E                     dE             d eps       ncg     rms          rms(c)
DAV:   1    -0.139192603578E+03    0.72760E-11    0.57086E-11   186   0.180E-06    0.911E-07
RMM:   2    -0.139192603578E+03    0.32378E-09    0.00000E+00     4   0.119E-06
  34 F= -.13919260E+03 E0= -.13920480E+03  d E =-.123691E-09
quench:  g(F)=  0.000E+00 g(S)=  0.000E+00 dE (1.order)= 0.000E+00
 bond charge predicted
       N       E                     dE             d eps       ncg     rms          rms(c)
DAV:   1    -0.139192603577E+03    0.90949E-09    0.44398E-11   186   0.139E-06    0.628E-07
RMM:   2    -0.139192603578E+03   -0.38199E-09    0.00000E+00     4   0.986E-07
  35 F= -.13919260E+03 E0= -.13920480E+03  d E =0.203727E-09
quench:  g(F)=  0.000E+00 g(S)=  0.000E+00 dE (1.order)= 0.000E+00
 bond charge predicted
       N       E                     dE             d eps       ncg     rms          rms(c)
DAV:   1    -0.139192603577E+03   -0.29104E-10    0.42656E-11   186   0.104E-06    0.682E-07
RMM:   2    -0.139192603578E+03   -0.38199E-09    0.00000E+00     4   0.813E-07
  36 F= -.13919260E+03 E0= -.13920480E+03  d E =-.291038E-10
quench:  g(F)=  0.000E+00 g(S)=  0.000E+00 dE (1.order)= 0.000E+00
 bond charge predicted
       N       E                     dE             d eps       ncg     rms          rms(c)
DAV:   1    -0.139192603577E+03    0.90949E-10    0.15587E-11   186   0.943E-07    0.408E-07
RMM:   2    -0.139192603578E+03   -0.33469E-09    0.00000E+00     4   0.596E-07
  37 F= -.13919260E+03 E0= -.13920480E+03  d E =0.138243E-09
quench:  g(F)=  0.000E+00 g(S)=  0.000E+00 dE (1.order)= 0.000E+00
 bond charge predicted
       N       E                     dE             d eps       ncg     rms          rms(c)
DAV:   1    -0.139192603578E+03   -0.98225E-09   -0.17715E-11   186   0.664E-07    0.326E-07
RMM:   2    -0.139192603578E+03    0.65120E-09    0.00000E+00     4   0.495E-07
  38 F= -.13919260E+03 E0= -.13920480E+03  d E =0.363798E-11
quench:  g(F)=  0.000E+00 g(S)=  0.000E+00 dE (1.order)= 0.000E+00
 bond charge predicted
       N       E                     dE             d eps       ncg     rms          rms(c)
DAV:   1    -0.139192603577E+03    0.15461E-08   -0.40715E-11   186   0.535E-07    0.292E-07
RMM:   2    -0.139192603578E+03   -0.90949E-09    0.00000E+00     4   0.399E-07
  39 F= -.13919260E+03 E0= -.13920480E+03  d E =-.145519E-10
quench:  g(F)=  0.000E+00 g(S)=  0.000E+00 dE (1.order)= 0.000E+00
 bond charge predicted
       N       E                     dE             d eps       ncg     rms          rms(c)
DAV:   1    -0.139192603578E+03   -0.11460E-08    0.12693E-11   186   0.450E-07    0.195E-07
RMM:   2    -0.139192603578E+03    0.21464E-09    0.00000E+00     4   0.314E-07
  40 F= -.13919260E+03 E0= -.13920480E+03  d E =-.218279E-10
quench:  g(F)=  0.000E+00 g(S)=  0.000E+00 dE (1.order)= 0.000E+00
 bond charge predicted
       N       E                     dE             d eps       ncg     rms          rms(c)
DAV:   1    -0.139192603578E+03    0.20373E-09   -0.16643E-11   186   0.340E-07    0.186E-07
RMM:   2    -0.139192603578E+03   -0.47294E-10    0.00000E+00     4   0.261E-07
  41 F= -.13919260E+03 E0= -.13920480E+03  d E =-.582077E-10
quench:  g(F)=  0.000E+00 g(S)=  0.000E+00 dE (1.order)= 0.000E+00
 bond charge predicted
       N       E                     dE             d eps       ncg     rms          rms(c)
DAV:   1    -0.139192603578E+03    0.26557E-09    0.14339E-10   186   0.284E-07    0.133E-07
RMM:   2    -0.139192603578E+03   -0.25830E-09    0.00000E+00     4   0.200E-07
  42 F= -.13919260E+03 E0= -.13920480E+03  d E =0.545697E-10
quench:  g(F)=  0.000E+00 g(S)=  0.000E+00 dE (1.order)= 0.000E+00
 bond charge predicted
       N       E                     dE             d eps       ncg     rms          rms(c)
DAV:   1    -0.139192603578E+03   -0.40018E-09    0.47309E-11   186   0.228E-07    0.917E-08
RMM:   2    -0.139192603578E+03   -0.69122E-10    0.00000E+00     4   0.164E-07
  43 F= -.13919260E+03 E0= -.13920480E+03  d E =-.211003E-09
quench:  g(F)=  0.000E+00 g(S)=  0.000E+00 dE (1.order)= 0.000E+00
 bond charge predicted
       N       E                     dE             d eps       ncg     rms          rms(c)
DAV:   1    -0.139192603578E+03   -0.10550E-09    0.45903E-12   186   0.173E-07    0.974E-08
RMM:   2    -0.139192603578E+03    0.15280E-09    0.00000E+00     4   0.141E-07
  44 F= -.13919260E+03 E0= -.13920480E+03  d E =0.116415E-09
quench:  g(F)=  0.000E+00 g(S)=  0.000E+00 dE (1.order)= 0.000E+00
 bond charge predicted
       N       E                     dE             d eps       ncg     rms          rms(c)
DAV:   1    -0.139192603578E+03    0.46566E-09   -0.50529E-11   186   0.158E-07    0.590E-08
RMM:   2    -0.139192603578E+03   -0.40018E-09    0.00000E+00     2   0.996E-08
  45 F= -.13919260E+03 E0= -.13920480E+03  d E =-.873115E-10
quench:  g(F)=  0.000E+00 g(S)=  0.000E+00 dE (1.order)= 0.000E+00
 bond charge predicted
       N       E                     dE             d eps       ncg     rms          rms(c)
DAV:   1    -0.139192603578E+03   -0.42201E-09    0.69954E-11   186   0.110E-07    0.501E-08
RMM:   2    -0.139192603578E+03   -0.18190E-10    0.00000E+00     4   0.843E-08
  46 F= -.13919260E+03 E0= -.13920480E+03  d E =-.400178E-10
quench:  g(F)=  0.000E+00 g(S)=  0.000E+00 dE (1.order)= 0.000E+00
 bond charge predicted
       N       E                     dE             d eps       ncg     rms          rms(c)
DAV:   1    -0.139192603578E+03   -0.12733E-09    0.33622E-11   180   0.906E-08    0.403E-08
RMM:   2    -0.139192603578E+03    0.22919E-09    0.00000E+00     2   0.681E-08
  47 F= -.13919260E+03 E0= -.13920480E+03  d E =0.120053E-09
quench:  g(F)=  0.000E+00 g(S)=  0.000E+00 dE (1.order)= 0.000E+00
 bond charge predicted
       N       E                     dE             d eps       ncg     rms          rms(c)
DAV:   1    -0.139192603578E+03    0.20009E-09    0.43102E-11   168   0.759E-08    0.257E-08
RMM:   2    -0.139192603578E+03   -0.65484E-10    0.00000E+00     2   0.540E-08
  48 F= -.13919260E+03 E0= -.13920480E+03  d E =-.945874E-10
quench:  g(F)=  0.000E+00 g(S)=  0.000E+00 dE (1.order)= 0.000E+00
 bond charge predicted
       N       E                     dE             d eps       ncg     rms          rms(c)
DAV:   1    -0.139192603578E+03   -0.30195E-09    0.14021E-10   168   0.563E-08    0.289E-08
RMM:   2    -0.139192603578E+03    0.23283E-09    0.00000E+00     2   0.439E-08
  49 F= -.13919260E+03 E0= -.13920480E+03  d E =-.363798E-11
quench:  g(F)=  0.000E+00 g(S)=  0.000E+00 dE (1.order)= 0.000E+00
 bond charge predicted
       N       E                     dE             d eps       ncg     rms          rms(c)
DAV:   1    -0.139192603579E+03   -0.12042E-08    0.30790E-11   168   0.487E-08    0.174E-08
RMM:   2    -0.139192603578E+03    0.14406E-08    0.00000E+00     2   0.339E-08
  50 F= -.13919260E+03 E0= -.13920480E+03  d E =0.363798E-11
quench:  g(F)=  0.000E+00 g(S)=  0.000E+00 dE (1.order)= 0.000E+00
 bond charge predicted
       N       E                     dE             d eps       ncg     rms          rms(c)
DAV:   1    -0.139192603577E+03    0.25429E-08    0.79506E-12   168   0.371E-08    0.141E-08
RMM:   2    -0.139192603578E+03   -0.10441E-08    0.00000E+00     2   0.277E-08
  51 F= -.13919260E+03 E0= -.13920480E+03  d E =0.582077E-10
quench:  g(F)=  0.000E+00 g(S)=  0.000E+00 dE (1.order)= 0.000E+00
 bond charge predicted
       N       E                     dE             d eps       ncg     rms          rms(c)
DAV:   1    -0.139192603577E+03   -0.55297E-09    0.42753E-11   168   0.293E-08    0.123E-08
RMM:   2    -0.139192603578E+03   -0.52023E-09    0.00000E+00     2   0.232E-08
  52 F= -.13919260E+03 E0= -.13920480E+03  d E =-.291038E-10
quench:  g(F)=  0.000E+00 g(S)=  0.000E+00 dE (1.order)= 0.000E+00
 bond charge predicted
       N       E                     dE             d eps       ncg     rms          rms(c)
DAV:   1    -0.139192603577E+03    0.16007E-09    0.10279E-10   168   0.260E-08    0.798E-09
RMM:   2    -0.139192603578E+03   -0.59299E-09    0.00000E+00     2   0.175E-08
  53 F= -.13919260E+03 E0= -.13920480E+03  d E =0.873115E-10
quench:  g(F)=  0.000E+00 g(S)=  0.000E+00 dE (1.order)= 0.000E+00
 bond charge predicted
       N       E                     dE             d eps       ncg     rms          rms(c)
DAV:   1    -0.139192603578E+03   -0.77489E-09    0.10331E-10   168   0.185E-08    0.821E-09
RMM:   2    -0.139192603578E+03    0.22919E-09    0.00000E+00     2   0.148E-08
  54 F= -.13919260E+03 E0= -.13920480E+03  d E =0.472937E-10
quench:  g(F)=  0.000E+00 g(S)=  0.000E+00 dE (1.order)= 0.000E+00
 bond charge predicted
       N       E                     dE             d eps       ncg     rms          rms(c)
DAV:   1    -0.139192603578E+03   -0.16371E-09    0.70088E-11   168   0.161E-08    0.525E-09
RMM:   2    -0.139192603578E+03    0.30195E-09    0.00000E+00     2   0.114E-08
  55 F= -.13919260E+03 E0= -.13920480E+03  d E =-.909495E-10
quench:  g(F)=  0.000E+00 g(S)=  0.000E+00 dE (1.order)= 0.000E+00
 bond charge predicted
       N       E                     dE             d eps       ncg     rms          rms(c)
DAV:   1    -0.139192603577E+03    0.11933E-08    0.84653E-11   168   0.122E-08    0.413E-09
RMM:   2    -0.139192603578E+03   -0.89494E-09    0.00000E+00     2   0.946E-09
  56 F= -.13919260E+03 E0= -.13920480E+03  d E =-.363798E-11
quench:  g(F)=  0.000E+00 g(S)=  0.000E+00 dE (1.order)= 0.000E+00
 bond charge predicted
       N       E                     dE             d eps       ncg     rms          rms(c)
DAV:   1    -0.139192603579E+03   -0.20227E-08    0.61115E-11   168   0.100E-08    0.399E-09
RMM:   2    -0.139192603578E+03    0.12260E-08    0.00000E+00     2   0.770E-09
  57 F= -.13919260E+03 E0= -.13920480E+03  d E =0.982254E-10
quench:  g(F)=  0.000E+00 g(S)=  0.000E+00 dE (1.order)= 0.000E+00
 bond charge predicted
       N       E                     dE             d eps       ncg     rms          rms(c)
DAV:   1    -0.139192603577E+03    0.15789E-08    0.12038E-10   168   0.836E-09    0.250E-09
RMM:   2    -0.139192603578E+03   -0.47658E-09    0.00000E+00     2   0.603E-09
  58 F= -.13919260E+03 E0= -.13920480E+03  d E =-.123691E-09
quench:  g(F)=  0.000E+00 g(S)=  0.000E+00 dE (1.order)= 0.000E+00
 bond charge predicted
       N       E                     dE             d eps       ncg     rms          rms(c)
DAV:   1    -0.139192603577E+03    0.29468E-09    0.83611E-13   168   0.637E-09    0.267E-09
RMM:   2    -0.139192603578E+03   -0.62937E-09    0.00000E+00     2   0.507E-09
  59 F= -.13919260E+03 E0= -.13920480E+03  d E =0.141881E-09
quench:  g(F)=  0.000E+00 g(S)=  0.000E+00 dE (1.order)= 0.000E+00
 bond charge predicted
       N       E                     dE             d eps       ncg     rms          rms(c)
DAV:   1    -0.139192603579E+03   -0.18044E-08    0.88940E-11   168   0.542E-09    0.183E-09
RMM:   2    -0.139192603578E+03    0.11423E-08    0.00000E+00     2   0.386E-09
  60 F= -.13919260E+03 E0= -.13920480E+03  d E =-.327418E-10
quench:  g(F)=  0.000E+00 g(S)=  0.000E+00 dE (1.order)= 0.000E+00
 bond charge predicted
       N       E                     dE             d eps       ncg     rms          rms(c)
DAV:   1    -0.139192603578E+03    0.50204E-09   -0.14214E-11   168   0.443E-09    0.117E-09
RMM:   2    -0.139192603578E+03    0.74215E-09    0.00000E+00     2   0.316E-09
  61 F= -.13919260E+03 E0= -.13920480E+03  d E =0.101863E-09
quench:  g(F)=  0.000E+00 g(S)=  0.000E+00 dE (1.order)= 0.000E+00
 bond charge predicted
       N       E                     dE             d eps       ncg     rms          rms(c)
DAV:   1    -0.139192603578E+03    0.29831E-09    0.69605E-11   168   0.328E-09    0.122E-09
RMM:   2    -0.139192603578E+03    0.24738E-09    0.00000E+00     2   0.260E-09
  62 F= -.13919260E+03 E0= -.13920480E+03  d E =-.196451E-09
quench:  g(F)=  0.000E+00 g(S)=  0.000E+00 dE (1.order)= 0.000E+00
 bond charge predicted
       N       E                     dE             d eps       ncg     rms          rms(c)
DAV:   1    -0.139192603578E+03    0.60027E-09    0.34929E-11   168   0.278E-09    0.841E-10
RMM:   2    -0.139192603578E+03   -0.18917E-09    0.00000E+00     2   0.202E-09
  63 F= -.13919260E+03 E0= -.13920480E+03  d E =0.163709E-09
quench:  g(F)=  0.000E+00 g(S)=  0.000E+00 dE (1.order)= 0.000E+00
 bond charge predicted
       N       E                     dE             d eps       ncg     rms          rms(c)
DAV:   1    -0.139192603578E+03   -0.65120E-09    0.40813E-11   168   0.216E-09    0.642E-10
RMM:   2    -0.139192603578E+03    0.34925E-09    0.00000E+00     2   0.166E-09
  64 F= -.13919260E+03 E0= -.13920480E+03  d E =-.112777E-09
quench:  g(F)=  0.000E+00 g(S)=  0.000E+00 dE (1.order)= 0.000E+00
 bond charge predicted
       N       E                     dE             d eps       ncg     rms          rms(c)
DAV:   1    -0.139192603578E+03   -0.29104E-10    0.25358E-11   168   0.176E-09    0.614E-10
RMM:   2    -0.139192603578E+03    0.33833E-09    0.00000E+00     2   0.138E-09
  65 F= -.13919260E+03 E0= -.13920480E+03  d E =-.400178E-10
quench:  g(F)=  0.000E+00 g(S)=  0.000E+00 dE (1.order)= 0.000E+00
 bond charge predicted
       N       E                     dE             d eps       ncg     rms          rms(c)
DAV:   1    -0.139192603577E+03    0.86220E-09    0.41184E-11   168   0.143E-09    0.581E-10
RMM:   2    -0.139192603578E+03   -0.55661E-09    0.00000E+00     2   0.114E-09
  66 F= -.13919260E+03 E0= -.13920480E+03  d E =-.327418E-10
quench:  g(F)=  0.000E+00 g(S)=  0.000E+00 dE (1.order)= 0.000E+00
 bond charge predicted
       N       E                     dE             d eps       ncg     rms          rms(c)
DAV:   1    -0.139192603578E+03   -0.13824E-09    0.39498E-11   168   0.129E-09    0.398E-10
RMM:   2    -0.139192603578E+03   -0.25466E-09    0.00000E+00     2   0.871E-10
  67 F= -.13919260E+03 E0= -.13920480E+03  d E =0.163709E-09
quench:  g(F)=  0.000E+00 g(S)=  0.000E+00 dE (1.order)= 0.000E+00
 bond charge predicted
       N       E                     dE             d eps       ncg     rms          rms(c)
DAV:   1    -0.139192603577E+03    0.13097E-09    0.72759E-11   168   0.933E-10    0.433E-10
RMM:   2    -0.139192603578E+03   -0.52751E-09    0.00000E+00     2   0.770E-10
  68 F= -.13919260E+03 E0= -.13920480E+03  d E =-.141881E-09
quench:  g(F)=  0.000E+00 g(S)=  0.000E+00 dE (1.order)= 0.000E+00
 bond charge predicted
       N       E                     dE             d eps       ncg     rms          rms(c)
DAV:   1    -0.139192603578E+03   -0.83674E-09    0.14936E-11   168   0.858E-10    0.340E-10
RMM:   2    -0.139192603578E+03    0.37835E-09    0.00000E+00     2   0.620E-10
  69 F= -.13919260E+03 E0= -.13920480E+03  d E =0.691216E-10
quench:  g(F)=  0.000E+00 g(S)=  0.000E+00 dE (1.order)= 0.000E+00
 bond charge predicted
       N       E                     dE             d eps       ncg     rms          rms(c)
DAV:   1    -0.139192603578E+03    0.53842E-09    0.21037E-11   168   0.669E-10    0.258E-10
RMM:   2    -0.139192603578E+03   -0.16371E-09    0.00000E+00     2   0.514E-10
  70 F= -.13919260E+03 E0= -.13920480E+03  d E =-.363798E-11
quench:  g(F)=  0.000E+00 g(S)=  0.000E+00 dE (1.order)= 0.000E+00
 bond charge predicted
       N       E                     dE             d eps       ncg     rms          rms(c)
DAV:   1    -0.139192603578E+03   -0.63301E-09    0.12102E-11   168   0.608E-10    0.151E-10
RMM:   2    -0.139192603578E+03    0.49477E-09    0.00000E+00     2   0.406E-10
  71 F= -.13919260E+03 E0= -.13920480E+03  d E =0.254659E-10
quench:  g(F)=  0.000E+00 g(S)=  0.000E+00 dE (1.order)= 0.000E+00
 bond charge predicted
       N       E                     dE             d eps       ncg     rms          rms(c)
DAV:   1    -0.139192603577E+03    0.14625E-08    0.45189E-11   168   0.437E-10    0.217E-10
RMM:   2    -0.139192603578E+03   -0.96770E-09    0.00000E+00     2   0.345E-10
  72 F= -.13919260E+03 E0= -.13920480E+03  d E =0.000000E+00
quench:  g(F)=  0.000E+00 g(S)=  0.000E+00 dE (1.order)= 0.000E+00
 bond charge predicted
       N       E                     dE             d eps       ncg     rms          rms(c)
DAV:   1    -0.139192603577E+03    0.29104E-09    0.74777E-12   168   0.374E-10    0.262E-10
RMM:   2    -0.139192603578E+03   -0.12878E-08    0.00000E+00     2   0.296E-10
  73 F= -.13919260E+03 E0= -.13920480E+03  d E =-.291038E-10
quench:  g(F)=  0.000E+00 g(S)=  0.000E+00 dE (1.order)= 0.000E+00
 bond charge predicted
       N       E                     dE             d eps       ncg     rms          rms(c)
DAV:   1    -0.139192603579E+03   -0.20482E-08   -0.14999E-11   168   0.355E-10    0.245E-10
RMM:   2    -0.139192603578E+03    0.78944E-09    0.00000E+00     2   0.246E-10
  74 F= -.13919260E+03 E0= -.13920480E+03  d E =0.291038E-10
quench:  g(F)=  0.000E+00 g(S)=  0.000E+00 dE (1.order)= 0.000E+00
 bond charge predicted
       N       E                     dE             d eps       ncg     rms          rms(c)
DAV:   1    -0.139192603578E+03    0.51659E-09   -0.24690E-11   168   0.284E-10    0.308E-10
RMM:   2    -0.139192603578E+03    0.27649E-09    0.00000E+00     2   0.232E-10
  75 F= -.13919260E+03 E0= -.13920480E+03  d E =0.363798E-11
quench:  g(F)=  0.000E+00 g(S)=  0.000E+00 dE (1.order)= 0.000E+00
 bond charge predicted
       N       E                     dE             d eps       ncg     rms          rms(c)
DAV:   1    -0.139192603579E+03   -0.11751E-08    0.94732E-11   168   0.291E-10    0.190E-10
RMM:   2    -0.139192603578E+03    0.13206E-08    0.00000E+00     2   0.196E-10
  76 F= -.13919260E+03 E0= -.13920480E+03  d E =-.130967E-09
quench:  g(F)=  0.000E+00 g(S)=  0.000E+00 dE (1.order)= 0.000E+00
 bond charge predicted
       N       E                     dE             d eps       ncg     rms          rms(c)
DAV:   1    -0.139192603578E+03    0.17390E-08    0.86648E-12   168   0.260E-10    0.151E-10
RMM:   2    -0.139192603578E+03   -0.40018E-09    0.00000E+00     2   0.178E-10
  77 F= -.13919260E+03 E0= -.13920480E+03  d E =0.181899E-10
quench:  g(F)=  0.000E+00 g(S)=  0.000E+00 dE (1.order)= 0.000E+00
 bond charge predicted
       N       E                     dE             d eps       ncg     rms          rms(c)
DAV:   1    -0.139192603578E+03   -0.87675E-09    0.92139E-11   168   0.200E-10    0.360E-10
RMM:   2    -0.139192603578E+03    0.56389E-09    0.00000E+00     2   0.199E-10
  78 F= -.13919260E+03 E0= -.13920480E+03  d E =0.873115E-10
quench:  g(F)=  0.000E+00 g(S)=  0.000E+00 dE (1.order)= 0.000E+00
 bond charge predicted
       N       E                     dE             d eps       ncg     rms          rms(c)
DAV:   1    -0.139192603578E+03    0.56389E-09    0.25465E-11   168   0.330E-10    0.256E-10
RMM:   2    -0.139192603578E+03    0.72760E-11    0.00000E+00     2   0.176E-10
  79 F= -.13919260E+03 E0= -.13920480E+03  d E =0.727596E-11
quench:  g(F)=  0.000E+00 g(S)=  0.000E+00 dE (1.order)= 0.000E+00
 bond charge predicted
       N       E                     dE             d eps       ncg     rms          rms(c)
DAV:   1    -0.139192603578E+03   -0.44020E-09   -0.35042E-11   168   0.188E-10    0.148E-10
RMM:   2    -0.139192603578E+03    0.52023E-09    0.00000E+00     2   0.139E-10
  80 F= -.13919260E+03 E0= -.13920480E+03  d E =0.727596E-10
quench:  g(F)=  0.000E+00 g(S)=  0.000E+00 dE (1.order)= 0.000E+00
 bond charge predicted
       N       E                     dE             d eps       ncg     rms          rms(c)
DAV:   1    -0.139192603578E+03    0.65847E-09   -0.52903E-13   168   0.154E-10    0.140E-10
RMM:   2    -0.139192603578E+03   -0.17826E-09    0.00000E+00     2   0.130E-10
  81 F= -.13919260E+03 E0= -.13920480E+03  d E =-.400178E-10
quench:  g(F)=  0.000E+00 g(S)=  0.000E+00 dE (1.order)= 0.000E+00
 bond charge predicted
       N       E                     dE             d eps       ncg     rms          rms(c)
DAV:   1    -0.139192603578E+03   -0.79672E-09    0.22439E-11   168   0.159E-10    0.243E-10
RMM:   2    -0.139192603578E+03    0.53114E-09    0.00000E+00     2   0.131E-10
  82 F= -.13919260E+03 E0= -.13920480E+03  d E =-.873115E-10
quench:  g(F)=  0.000E+00 g(S)=  0.000E+00 dE (1.order)= 0.000E+00
 bond charge predicted
       N       E                     dE             d eps       ncg     rms          rms(c)
DAV:   1    -0.139192603578E+03    0.53478E-09   -0.22228E-11   168   0.184E-10    0.167E-10
RMM:   2    -0.139192603578E+03   -0.50932E-10    0.00000E+00     2   0.115E-10
  83 F= -.13919260E+03 E0= -.13920480E+03  d E =-.472937E-10
quench:  g(F)=  0.000E+00 g(S)=  0.000E+00 dE (1.order)= 0.000E+00
 bond charge predicted
       N       E                     dE             d eps       ncg     rms          rms(c)
DAV:   1    -0.139192603577E+03    0.91313E-09    0.64074E-11   168   0.135E-10    0.201E-10
RMM:   2    -0.139192603578E+03   -0.90949E-09    0.00000E+00     2   0.110E-10
  84 F= -.13919260E+03 E0= -.13920480E+03  d E =0.545697E-10
quench:  g(F)=  0.000E+00 g(S)=  0.000E+00 dE (1.order)= 0.000E+00
 bond charge predicted
       N       E                     dE             d eps       ncg     rms          rms(c)
DAV:   1    -0.139192603578E+03   -0.10114E-08   -0.36555E-11   168   0.158E-10    0.185E-10
RMM:   2    -0.139192603578E+03    0.58208E-10    0.00000E+00     2   0.106E-10
  85 F= -.13919260E+03 E0= -.13920480E+03  d E =-.436557E-10
quench:  g(F)=  0.000E+00 g(S)=  0.000E+00 dE (1.order)= 0.000E+00
 bond charge predicted
       N       E                     dE             d eps       ncg     rms          rms(c)
DAV:   1    -0.139192603579E+03   -0.63301E-09    0.37975E-11   168   0.138E-10    0.227E-10
RMM:   2    -0.139192603578E+03    0.66575E-09    0.00000E+00     2   0.107E-10
  86 F= -.13919260E+03 E0= -.13920480E+03  d E =-.254659E-10
quench:  g(F)=  0.000E+00 g(S)=  0.000E+00 dE (1.order)= 0.000E+00
 bond charge predicted
       N       E                     dE             d eps       ncg     rms          rms(c)
DAV:   1    -0.139192603577E+03    0.13752E-08   -0.16763E-11   168   0.178E-10    0.163E-10
RMM:   2    -0.139192603578E+03   -0.56752E-09    0.00000E+00     2   0.119E-10
  87 F= -.13919260E+03 E0= -.13920480E+03  d E =0.141881E-09
quench:  g(F)=  0.000E+00 g(S)=  0.000E+00 dE (1.order)= 0.000E+00
 bond charge predicted
       N       E                     dE             d eps       ncg     rms          rms(c)
DAV:   1    -0.139192603577E+03    0.46566E-09   -0.14013E-11   168   0.141E-10    0.216E-10
RMM:   2    -0.139192603578E+03   -0.10259E-08    0.00000E+00     2   0.126E-10
  88 F= -.13919260E+03 E0= -.13920480E+03  d E =0.727596E-11
quench:  g(F)=  0.000E+00 g(S)=  0.000E+00 dE (1.order)= 0.000E+00
 bond charge predicted
       N       E                     dE             d eps       ncg     rms          rms(c)
DAV:   1    -0.139192603578E+03   -0.14224E-08    0.82058E-11   168   0.128E-10    0.252E-10
RMM:   2    -0.139192603578E+03    0.25102E-09    0.00000E+00     2   0.112E-10
  89 F= -.13919260E+03 E0= -.13920480E+03  d E =-.145519E-09
quench:  g(F)=  0.000E+00 g(S)=  0.000E+00 dE (1.order)= 0.000E+00
 bond charge predicted
       N       E                     dE             d eps       ncg     rms          rms(c)
DAV:   1    -0.139192603578E+03    0.63301E-09    0.97583E-11   168   0.177E-10    0.288E-10
RMM:   2    -0.139192603578E+03   -0.21100E-09    0.00000E+00     2   0.118E-10
  90 F= -.13919260E+03 E0= -.13920480E+03  d E =0.170985E-09
quench:  g(F)=  0.000E+00 g(S)=  0.000E+00 dE (1.order)= 0.000E+00
 bond charge predicted
       N       E                     dE             d eps       ncg     rms          rms(c)
DAV:   1    -0.139192603578E+03   -0.76398E-09    0.41162E-11   168   0.195E-10    0.325E-10
RMM:   2    -0.139192603578E+03    0.38199E-09    0.00000E+00     2   0.123E-10
  91 F= -.13919260E+03 E0= -.13920480E+03  d E =-.170985E-09
quench:  g(F)=  0.000E+00 g(S)=  0.000E+00 dE (1.order)= 0.000E+00
 bond charge predicted
       N       E                     dE             d eps       ncg     rms          rms(c)
DAV:   1    -0.139192603577E+03    0.12697E-08   -0.53285E-11   168   0.170E-10    0.181E-10
RMM:   2    -0.139192603578E+03   -0.79672E-09    0.00000E+00     2   0.111E-10
  92 F= -.13919260E+03 E0= -.13920480E+03  d E =0.909495E-10
quench:  g(F)=  0.000E+00 g(S)=  0.000E+00 dE (1.order)= 0.000E+00
 bond charge predicted
       N       E                     dE             d eps       ncg     rms          rms(c)
DAV:   1    -0.139192603577E+03   -0.32378E-09    0.88719E-11   168   0.141E-10    0.236E-10
RMM:   2    -0.139192603578E+03   -0.50204E-09    0.00000E+00     2   0.110E-10
  93 F= -.13919260E+03 E0= -.13920480E+03  d E =-.291038E-10
quench:  g(F)=  0.000E+00 g(S)=  0.000E+00 dE (1.order)= 0.000E+00
 bond charge predicted
       N       E                     dE             d eps       ncg     rms          rms(c)
DAV:   1    -0.139192603578E+03   -0.64756E-09    0.66187E-11   168   0.174E-10    0.161E-10
RMM:   2    -0.139192603578E+03    0.13097E-09    0.00000E+00     2   0.967E-11
  94 F= -.13919260E+03 E0= -.13920480E+03  d E =-.145519E-10
quench:  g(F)=  0.000E+00 g(S)=  0.000E+00 dE (1.order)= 0.000E+00
 bond charge predicted
       N       E                     dE             d eps       ncg     rms          rms(c)
DAV:   1    -0.139192603578E+03   -0.47294E-10    0.45810E-11   168   0.160E-10    0.355E-10
RMM:   2    -0.139192603578E+03    0.16371E-09    0.00000E+00     2   0.151E-10
  95 F= -.13919260E+03 E0= -.13920480E+03  d E =-.145519E-10
quench:  g(F)=  0.000E+00 g(S)=  0.000E+00 dE (1.order)= 0.000E+00
 bond charge predicted
       N       E                     dE             d eps       ncg     rms          rms(c)
DAV:   1    -0.139192603578E+03    0.54570E-09    0.88875E-11   168   0.307E-10    0.235E-10
RMM:   2    -0.139192603578E+03   -0.31287E-09    0.00000E+00     2   0.101E-10
  96 F= -.13919260E+03 E0= -.13920480E+03  d E =0.691216E-10
quench:  g(F)=  0.000E+00 g(S)=  0.000E+00 dE (1.order)= 0.000E+00
 bond charge predicted
       N       E                     dE             d eps       ncg     rms          rms(c)
DAV:   1    -0.139192603578E+03   -0.62573E-09    0.19146E-11   168   0.145E-10    0.184E-10
RMM:   2    -0.139192603578E+03    0.34561E-09    0.00000E+00     2   0.821E-11
  97 F= -.13919260E+03 E0= -.13920480E+03  d E =0.327418E-10
quench:  g(F)=  0.000E+00 g(S)=  0.000E+00 dE (1.order)= 0.000E+00
 bond charge predicted
       N       E                     dE             d eps       ncg     rms          rms(c)
DAV:   1    -0.139192603578E+03    0.63665E-09    0.19074E-11   168   0.117E-10    0.296E-10
RMM:   2    -0.139192603578E+03   -0.42928E-09    0.00000E+00     2   0.129E-10
  98 F= -.13919260E+03 E0= -.13920480E+03  d E =-.138243E-09
quench:  g(F)=  0.000E+00 g(S)=  0.000E+00 dE (1.order)= 0.000E+00
 bond charge predicted
       N       E                     dE             d eps       ncg     rms          rms(c)
DAV:   1    -0.139192603578E+03   -0.44020E-09    0.62553E-12   168   0.229E-10    0.157E-10
RMM:   2    -0.139192603578E+03    0.87311E-10    0.00000E+00     1   0.115E-10
  99 F= -.13919260E+03 E0= -.13920480E+03  d E =0.763976E-10
quench:  g(F)=  0.000E+00 g(S)=  0.000E+00 dE (1.order)= 0.000E+00
 bond charge predicted
       N       E                     dE             d eps       ncg     rms          rms(c)
DAV:   1    -0.139192603578E+03    0.14188E-09    0.32915E-11   168   0.143E-10    0.262E-10
RMM:   2    -0.139192603578E+03    0.40018E-10    0.00000E+00     2   0.119E-10
 100 F= -.13919260E+03 E0= -.13920480E+03  d E =0.945874E-10
quench:  g(F)=  0.000E+00 g(S)=  0.000E+00 dE (1.order)= 0.000E+00
 bond charge predicted
       N       E                     dE             d eps       ncg     rms          rms(c)
DAV:   1    -0.139192603577E+03    0.34561E-09    0.81350E-11   168   0.210E-10    0.226E-10
RMM:   2    -0.139192603578E+03   -0.31287E-09    0.00000E+00     1   0.125E-10
 101 F= -.13919260E+03 E0= -.13920480E+03  d E =-.727596E-11
quench:  g(F)=  0.000E+00 g(S)=  0.000E+00 dE (1.order)= 0.000E+00
 bond charge predicted
       N       E                     dE             d eps       ncg     rms          rms(c)
DAV:   1    -0.139192603577E+03    0.38926E-09   -0.61212E-11   168   0.143E-10    0.275E-10
RMM:   2    -0.139192603578E+03   -0.73123E-09    0.00000E+00     2   0.127E-10
 102 F= -.13919260E+03 E0= -.13920480E+03  d E =-.291038E-10
quench:  g(F)=  0.000E+00 g(S)=  0.000E+00 dE (1.order)= 0.000E+00
 bond charge predicted
       N       E                     dE             d eps       ncg     rms          rms(c)
DAV:   1    -0.139192603578E+03   -0.10587E-08    0.97147E-11   168   0.238E-10    0.287E-10
RMM:   2    -0.139192603578E+03    0.28740E-09    0.00000E+00     1   0.149E-10
 103 F= -.13919260E+03 E0= -.13920480E+03  d E =-.400178E-10
quench:  g(F)=  0.000E+00 g(S)=  0.000E+00 dE (1.order)= 0.000E+00
 bond charge predicted
       N       E                     dE             d eps       ncg     rms          rms(c)
DAV:   1    -0.139192603578E+03    0.23647E-09    0.11069E-10   168   0.238E-10    0.220E-10
RMM:   2    -0.139192603578E+03    0.83674E-10    0.00000E+00     2   0.115E-10
 104 F= -.13919260E+03 E0= -.13920480E+03  d E =0.327418E-10
quench:  g(F)=  0.000E+00 g(S)=  0.000E+00 dE (1.order)= 0.000E+00
 bond charge predicted
       N       E                     dE             d eps       ncg     rms          rms(c)
DAV:   1    -0.139192603578E+03   -0.36380E-09   -0.15112E-11   168   0.142E-10    0.224E-10
RMM:   2    -0.139192603578E+03    0.45111E-09    0.00000E+00     1   0.108E-10
 105 F= -.13919260E+03 E0= -.13920480E+03  d E =0.363798E-11
quench:  g(F)=  0.000E+00 g(S)=  0.000E+00 dE (1.order)= 0.000E+00
 bond charge predicted
       N       E                     dE             d eps       ncg     rms          rms(c)
DAV:   1    -0.139192603578E+03    0.54570E-09    0.32372E-11   168   0.210E-10    0.176E-10
RMM:   2    -0.139192603578E+03   -0.17826E-09    0.00000E+00     2   0.928E-11
 106 F= -.13919260E+03 E0= -.13920480E+03  d E =-.836735E-10
quench:  g(F)=  0.000E+00 g(S)=  0.000E+00 dE (1.order)= 0.000E+00
 bond charge predicted
       N       E                     dE             d eps       ncg     rms          rms(c)
DAV:   1    -0.139192603577E+03    0.45839E-09    0.69543E-11   168   0.121E-10    0.248E-10
RMM:   2    -0.139192603578E+03   -0.54570E-09    0.00000E+00     1   0.112E-10
 107 F= -.13919260E+03 E0= -.13920480E+03  d E =0.909495E-10
quench:  g(F)=  0.000E+00 g(S)=  0.000E+00 dE (1.order)= 0.000E+00
 bond charge predicted
       N       E                     dE             d eps       ncg     rms          rms(c)
DAV:   1    -0.139192603578E+03   -0.49840E-09    0.15944E-11   168   0.184E-10    0.139E-10
RMM:   2    -0.139192603578E+03    0.29104E-10    0.00000E+00     1   0.110E-10
 108 F= -.13919260E+03 E0= -.13920480E+03  d E =0.763976E-10
quench:  g(F)=  0.000E+00 g(S)=  0.000E+00 dE (1.order)= 0.000E+00
 bond charge predicted
       N       E                     dE             d eps       ncg     rms          rms(c)
DAV:   1    -0.139192603578E+03   -0.25466E-10   -0.41233E-11   168   0.132E-10    0.218E-10
RMM:   2    -0.139192603578E+03    0.72760E-11    0.00000E+00     1   0.110E-10
 109 F= -.13919260E+03 E0= -.13920480E+03  d E =-.472937E-10
quench:  g(F)=  0.000E+00 g(S)=  0.000E+00 dE (1.order)= 0.000E+00
 bond charge predicted
       N       E                     dE             d eps       ncg     rms          rms(c)
DAV:   1    -0.139192603578E+03    0.12005E-09    0.33807E-12   168   0.147E-10    0.275E-10
RMM:   2    -0.139192603578E+03   -0.18917E-09    0.00000E+00     1   0.121E-10
 110 F= -.13919260E+03 E0= -.13920480E+03  d E =-.763976E-10
quench:  g(F)=  0.000E+00 g(S)=  0.000E+00 dE (1.order)= 0.000E+00
 bond charge predicted
       N       E                     dE             d eps       ncg     rms          rms(c)
DAV:   1    -0.139192603577E+03    0.24011E-09    0.55018E-11   168   0.171E-10    0.292E-10
RMM:   2    -0.139192603578E+03   -0.44747E-09    0.00000E+00     1   0.135E-10
 111 F= -.13919260E+03 E0= -.13920480E+03  d E =-.181899E-10
quench:  g(F)=  0.000E+00 g(S)=  0.000E+00 dE (1.order)= 0.000E+00
 bond charge predicted
       N       E                     dE             d eps       ncg     rms          rms(c)
DAV:   1    -0.139192603578E+03   -0.22555E-09    0.45550E-11   168   0.174E-10    0.288E-10
RMM:   2    -0.139192603578E+03   -0.21464E-09    0.00000E+00     1   0.120E-10
 112 F= -.13919260E+03 E0= -.13920480E+03  d E =0.727596E-11
quench:  g(F)=  0.000E+00 g(S)=  0.000E+00 dE (1.order)= 0.000E+00
 bond charge predicted
       N       E                     dE             d eps       ncg     rms          rms(c)
DAV:   1    -0.139192603576E+03    0.14297E-08   -0.16150E-11   168   0.203E-10    0.215E-10
RMM:   2    -0.139192603578E+03   -0.16189E-08    0.00000E+00     1   0.139E-10
 113 F= -.13919260E+03 E0= -.13920480E+03  d E =0.254659E-10
quench:  g(F)=  0.000E+00 g(S)=  0.000E+00 dE (1.order)= 0.000E+00
 bond charge predicted
       N       E                     dE             d eps       ncg     rms          rms(c)
DAV:   1    -0.139192603578E+03   -0.17317E-08    0.13036E-11   168   0.181E-10    0.229E-10
RMM:   2    -0.139192603578E+03    0.69122E-10    0.00000E+00     1   0.125E-10
 114 F= -.13919260E+03 E0= -.13920480E+03  d E =-.436557E-10
quench:  g(F)=  0.000E+00 g(S)=  0.000E+00 dE (1.order)= 0.000E+00
 bond charge predicted
       N       E                     dE             d eps       ncg     rms          rms(c)
DAV:   1    -0.139192603578E+03   -0.37471E-09    0.27881E-11   168   0.182E-10    0.196E-10
RMM:   2    -0.139192603578E+03    0.47294E-09    0.00000E+00     1   0.139E-10
 115 F= -.13919260E+03 E0= -.13920480E+03  d E =0.291038E-10
quench:  g(F)=  0.000E+00 g(S)=  0.000E+00 dE (1.order)= 0.000E+00
 bond charge predicted
       N       E                     dE             d eps       ncg     rms          rms(c)
DAV:   1    -0.139192603578E+03   -0.98225E-10    0.64784E-11   168   0.161E-10    0.141E-10
RMM:   2    -0.139192603578E+03    0.54933E-09    0.00000E+00     1   0.889E-11
 116 F= -.13919260E+03 E0= -.13920480E+03  d E =-.218279E-10
quench:  g(F)=  0.000E+00 g(S)=  0.000E+00 dE (1.order)= 0.000E+00
 bond charge predicted
       N       E                     dE             d eps       ncg     rms          rms(c)
DAV:   1    -0.139192603578E+03    0.74215E-09    0.38713E-11   168   0.895E-11    0.220E-10
RMM:   2    -0.139192603578E+03   -0.19281E-09    0.00000E+00     1   0.107E-10
 117 F= -.13919260E+03 E0= -.13920480E+03  d E =0.000000E+00
quench:  g(F)=  0.000E+00 g(S)=  0.000E+00 dE (1.order)= 0.000E+00
 bond charge predicted
       N       E                     dE             d eps       ncg     rms          rms(c)
DAV:   1    -0.139192603578E+03   -0.65120E-09    0.41656E-11   168   0.199E-10    0.201E-10
RMM:   2    -0.139192603578E+03    0.53478E-09    0.00000E+00     1   0.119E-10
 118 F= -.13919260E+03 E0= -.13920480E+03  d E =0.763976E-10
quench:  g(F)=  0.000E+00 g(S)=  0.000E+00 dE (1.order)= 0.000E+00
 bond charge predicted
       N       E                     dE             d eps       ncg     rms          rms(c)
DAV:   1    -0.139192603578E+03    0.28740E-09    0.16910E-11   168   0.158E-10    0.258E-10
RMM:   2    -0.139192603578E+03    0.15643E-09    0.00000E+00     1   0.121E-10
 119 F= -.13919260E+03 E0= -.13920480E+03  d E =-.909495E-10
quench:  g(F)=  0.000E+00 g(S)=  0.000E+00 dE (1.order)= 0.000E+00
 bond charge predicted
       N       E                     dE             d eps       ncg     rms          rms(c)
DAV:   1    -0.139192603578E+03    0.23647E-09    0.94891E-11   168   0.201E-10    0.190E-10
RMM:   2    -0.139192603578E+03   -0.12733E-09    0.00000E+00     1   0.111E-10
 120 F= -.13919260E+03 E0= -.13920480E+03  d E =-.472937E-10
quench:  g(F)=  0.000E+00 g(S)=  0.000E+00 dE (1.order)= 0.000E+00
 bond charge predicted
       N       E                     dE             d eps       ncg     rms          rms(c)
DAV:   1    -0.139192603577E+03    0.41473E-09    0.43056E-11   168   0.195E-10    0.197E-10
RMM:   2    -0.139192603578E+03   -0.44747E-09    0.00000E+00     1   0.962E-11
 121 F= -.13919260E+03 E0= -.13920480E+03  d E =0.945874E-10
quench:  g(F)=  0.000E+00 g(S)=  0.000E+00 dE (1.order)= 0.000E+00
 bond charge predicted
       N       E                     dE             d eps       ncg     rms          rms(c)
DAV:   1    -0.139192603577E+03    0.40018E-10    0.29027E-11   168   0.152E-10    0.205E-10
RMM:   2    -0.139192603578E+03   -0.46566E-09    0.00000E+00     1   0.105E-10
 122 F= -.13919260E+03 E0= -.13920480E+03  d E =0.218279E-10
quench:  g(F)=  0.000E+00 g(S)=  0.000E+00 dE (1.order)= 0.000E+00
 bond charge predicted
       N       E                     dE             d eps       ncg     rms          rms(c)
DAV:   1    -0.139192603578E+03   -0.10805E-08    0.10315E-10   168   0.167E-10    0.258E-10
RMM:   2    -0.139192603578E+03    0.55661E-09    0.00000E+00     0   0.112E-10
 123 F= -.13919260E+03 E0= -.13920480E+03  d E =-.582077E-10
quench:  g(F)=  0.000E+00 g(S)=  0.000E+00 dE (1.order)= 0.000E+00
 bond charge predicted
       N       E                     dE             d eps       ncg     rms          rms(c)
DAV:   1    -0.139192603578E+03    0.84401E-09    0.74404E-11   168   0.176E-10    0.218E-10
RMM:   2    -0.139192603578E+03   -0.20373E-09    0.00000E+00     0   0.110E-10
 124 F= -.13919260E+03 E0= -.13920480E+03  d E =0.836735E-10
quench:  g(F)=  0.000E+00 g(S)=  0.000E+00 dE (1.order)= 0.000E+00
 bond charge predicted
       N       E                     dE             d eps       ncg     rms          rms(c)
DAV:   1    -0.139192603577E+03    0.78580E-09    0.16050E-11   168   0.170E-10    0.165E-10
RMM:   2    -0.139192603578E+03   -0.10295E-08    0.00000E+00     1   0.911E-11
 125 F= -.13919260E+03 E0= -.13920480E+03  d E =-.400178E-10
quench:  g(F)=  0.000E+00 g(S)=  0.000E+00 dE (1.order)= 0.000E+00
 bond charge predicted
       N       E                     dE             d eps       ncg     rms          rms(c)
DAV:   1    -0.139192603577E+03   -0.98225E-10    0.88787E-11   168   0.133E-10    0.224E-10
RMM:   2    -0.139192603578E+03   -0.10441E-08    0.00000E+00     2   0.118E-10
 126 F= -.13919260E+03 E0= -.13920480E+03  d E =-.112777E-09
quench:  g(F)=  0.000E+00 g(S)=  0.000E+00 dE (1.order)= 0.000E+00
 bond charge predicted
       N       E                     dE             d eps       ncg     rms          rms(c)
DAV:   1    -0.139192603578E+03   -0.68758E-09    0.27798E-11   168   0.220E-10    0.243E-10
RMM:   2    -0.139192603578E+03   -0.24374E-09    0.00000E+00     0   0.118E-10
 127 F= -.13919260E+03 E0= -.13920480E+03  d E =0.112777E-09
quench:  g(F)=  0.000E+00 g(S)=  0.000E+00 dE (1.order)= 0.000E+00
 bond charge predicted
       N       E                     dE             d eps       ncg     rms          rms(c)
DAV:   1    -0.139192603578E+03   -0.30923E-09   -0.45804E-11   168   0.201E-10    0.226E-10
RMM:   2    -0.139192603578E+03   -0.29104E-10    0.00000E+00     0   0.111E-10
 128 F= -.13919260E+03 E0= -.13920480E+03  d E =-.945874E-10
quench:  g(F)=  0.000E+00 g(S)=  0.000E+00 dE (1.order)= 0.000E+00
 bond charge predicted
       N       E                     dE             d eps       ncg     rms          rms(c)
DAV:   1    -0.139192603579E+03   -0.73851E-09    0.93462E-11   168   0.218E-10    0.295E-10
RMM:   2    -0.139192603578E+03    0.81491E-09    0.00000E+00     0   0.130E-10
 129 F= -.13919260E+03 E0= -.13920480E+03  d E =0.105501E-09
quench:  g(F)=  0.000E+00 g(S)=  0.000E+00 dE (1.order)= 0.000E+00
 bond charge predicted
       N       E                     dE             d eps       ncg     rms          rms(c)
DAV:   1    -0.139192603578E+03    0.74942E-09    0.98884E-11   168   0.216E-10    0.307E-10
RMM:   2    -0.139192603578E+03    0.47294E-10    0.00000E+00     0   0.114E-10
 130 F= -.13919260E+03 E0= -.13920480E+03  d E =-.181899E-10
quench:  g(F)=  0.000E+00 g(S)=  0.000E+00 dE (1.order)= 0.000E+00
 bond charge predicted
       N       E                     dE             d eps       ncg     rms          rms(c)
DAV:   1    -0.139192603577E+03    0.41837E-09    0.50467E-11   168   0.164E-10    0.151E-10
RMM:   2    -0.139192603578E+03   -0.27649E-09    0.00000E+00     0   0.105E-10
 131 F= -.13919260E+03 E0= -.13920480E+03  d E =0.945874E-10
quench:  g(F)=  0.000E+00 g(S)=  0.000E+00 dE (1.order)= 0.000E+00
 bond charge predicted
       N       E                     dE             d eps       ncg     rms          rms(c)
DAV:   1    -0.139192603577E+03    0.10550E-09    0.17654E-11   168   0.119E-10    0.247E-10
RMM:   2    -0.139192603578E+03   -0.40018E-09    0.00000E+00     0   0.127E-10
 132 F= -.13919260E+03 E0= -.13920480E+03  d E =-.181899E-10
quench:  g(F)=  0.000E+00 g(S)=  0.000E+00 dE (1.order)= 0.000E+00
 bond charge predicted
       N       E                     dE             d eps       ncg     rms          rms(c)
DAV:   1    -0.139192603578E+03   -0.94587E-09    0.83493E-11   168   0.141E-10    0.140E-10
RMM:   2    -0.139192603578E+03    0.37107E-09    0.00000E+00     0   0.855E-11
 133 F= -.13919260E+03 E0= -.13920480E+03  d E =-.174623E-09
quench:  g(F)=  0.000E+00 g(S)=  0.000E+00 dE (1.order)= 0.000E+00
 bond charge predicted
       N       E                     dE             d eps       ncg     rms          rms(c)
DAV:   1    -0.139192603577E+03    0.89858E-09    0.63031E-11   168   0.119E-10    0.256E-10
RMM:   2    -0.139192603578E+03   -0.37107E-09    0.00000E+00     0   0.120E-10
 134 F= -.13919260E+03 E0= -.13920480E+03  d E =0.156433E-09
quench:  g(F)=  0.000E+00 g(S)=  0.000E+00 dE (1.order)= 0.000E+00
 bond charge predicted
       N       E                     dE             d eps       ncg     rms          rms(c)
DAV:   1    -0.139192603578E+03   -0.57844E-09    0.38836E-11   168   0.195E-10    0.180E-10
RMM:   2    -0.139192603578E+03    0.12369E-09    0.00000E+00     0   0.109E-10
 135 F= -.13919260E+03 E0= -.13920480E+03  d E =-.836735E-10
quench:  g(F)=  0.000E+00 g(S)=  0.000E+00 dE (1.order)= 0.000E+00
 bond charge predicted
       N       E                     dE             d eps       ncg     rms          rms(c)
DAV:   1    -0.139192603578E+03    0.22555E-09    0.67470E-11   168   0.200E-10    0.164E-10
RMM:   2    -0.139192603578E+03   -0.25466E-10    0.00000E+00     0   0.109E-10
 136 F= -.13919260E+03 E0= -.13920480E+03  d E =0.763976E-10
quench:  g(F)=  0.000E+00 g(S)=  0.000E+00 dE (1.order)= 0.000E+00
 bond charge predicted
       N       E                     dE             d eps       ncg     rms          rms(c)
DAV:   1    -0.139192603578E+03   -0.24374E-09    0.45792E-11   168   0.146E-10    0.196E-10
RMM:   2    -0.139192603578E+03    0.11278E-09    0.00000E+00     0   0.112E-10
 137 F= -.13919260E+03 E0= -.13920480E+03  d E =-.105501E-09
quench:  g(F)=  0.000E+00 g(S)=  0.000E+00 dE (1.order)= 0.000E+00
 bond charge predicted
       N       E                     dE             d eps       ncg     rms          rms(c)
DAV:   1    -0.139192603577E+03    0.58935E-09    0.60655E-11   168   0.146E-10    0.255E-10
RMM:   2    -0.139192603578E+03   -0.47658E-09    0.00000E+00     0   0.130E-10
 138 F= -.13919260E+03 E0= -.13920480E+03  d E =0.000000E+00
quench:  g(F)=  0.000E+00 g(S)=  0.000E+00 dE (1.order)= 0.000E+00
 bond charge predicted
       N       E                     dE             d eps       ncg     rms          rms(c)
DAV:   1    -0.139192603577E+03    0.60390E-09    0.38184E-11   168   0.183E-10    0.189E-10
RMM:   2    -0.139192603578E+03   -0.99317E-09    0.00000E+00     0   0.118E-10
 139 F= -.13919260E+03 E0= -.13920480E+03  d E =0.873115E-10
quench:  g(F)=  0.000E+00 g(S)=  0.000E+00 dE (1.order)= 0.000E+00
 bond charge predicted
       N       E                     dE             d eps       ncg     rms          rms(c)
DAV:   1    -0.139192603578E+03   -0.14370E-08    0.14810E-12   168   0.174E-10    0.227E-10
RMM:   2    -0.139192603578E+03    0.38563E-09    0.00000E+00     0   0.125E-10
 140 F= -.13919260E+03 E0= -.13920480E+03  d E =-.582077E-10
quench:  g(F)=  0.000E+00 g(S)=  0.000E+00 dE (1.order)= 0.000E+00
 bond charge predicted
       N       E                     dE             d eps       ncg     rms          rms(c)
DAV:   1    -0.139192603579E+03   -0.28740E-09    0.13937E-11   168   0.145E-10    0.187E-10
RMM:   2    -0.139192603578E+03    0.69122E-09    0.00000E+00     0   0.820E-11
 141 F= -.13919260E+03 E0= -.13920480E+03  d E =0.181899E-10
quench:  g(F)=  0.000E+00 g(S)=  0.000E+00 dE (1.order)= 0.000E+00
 bond charge predicted
       N       E                     dE             d eps       ncg     rms          rms(c)
DAV:   1    -0.139192603578E+03    0.62937E-09    0.54992E-11   168   0.143E-10    0.205E-10
RMM:   2    -0.139192603578E+03    0.14552E-09    0.00000E+00     0   0.107E-10
 142 F= -.13919260E+03 E0= -.13920480E+03  d E =0.836735E-10
quench:  g(F)=  0.000E+00 g(S)=  0.000E+00 dE (1.order)= 0.000E+00
 bond charge predicted
       N       E                     dE             d eps       ncg     rms          rms(c)
DAV:   1    -0.139192603578E+03    0.19281E-09   -0.74461E-11   168   0.171E-10    0.154E-10
RMM:   2    -0.139192603578E+03   -0.90949E-10    0.00000E+00     0   0.883E-11
 143 F= -.13919260E+03 E0= -.13920480E+03  d E =-.436557E-10
quench:  g(F)=  0.000E+00 g(S)=  0.000E+00 dE (1.order)= 0.000E+00
 bond charge predicted
       N       E                     dE             d eps       ncg     rms          rms(c)
DAV:   1    -0.139192603578E+03   -0.53114E-09   -0.52041E-11   168   0.108E-10    0.127E-10
RMM:   2    -0.139192603578E+03    0.46566E-09    0.00000E+00     0   0.803E-11
 144 F= -.13919260E+03 E0= -.13920480E+03  d E =0.254659E-10
quench:  g(F)=  0.000E+00 g(S)=  0.000E+00 dE (1.order)= 0.000E+00
 bond charge predicted
       N       E                     dE             d eps       ncg     rms          rms(c)
DAV:   1    -0.139192603578E+03    0.64392E-09    0.57451E-11   168   0.878E-11    0.326E-10
RMM:   2    -0.139192603578E+03   -0.24374E-09    0.00000E+00     0   0.130E-10
 145 F= -.13919260E+03 E0= -.13920480E+03  d E =-.654836E-10
quench:  g(F)=  0.000E+00 g(S)=  0.000E+00 dE (1.order)= 0.000E+00
 bond charge predicted
       N       E                     dE             d eps       ncg     rms          rms(c)
DAV:   1    -0.139192603578E+03   -0.16007E-09   -0.67016E-11   168   0.227E-10    0.198E-10
RMM:   2    -0.139192603578E+03   -0.65484E-10    0.00000E+00     0   0.965E-11
 146 F= -.13919260E+03 E0= -.13920480E+03  d E =0.181899E-10
quench:  g(F)=  0.000E+00 g(S)=  0.000E+00 dE (1.order)= 0.000E+00
 bond charge predicted
       N       E                     dE             d eps       ncg     rms          rms(c)
DAV:   1    -0.139192603578E+03   -0.10914E-09    0.71620E-11   168   0.147E-10    0.257E-10
RMM:   2    -0.139192603578E+03   -0.32742E-10    0.00000E+00     0   0.112E-10
 147 F= -.13919260E+03 E0= -.13920480E+03  d E =-.763976E-10
quench:  g(F)=  0.000E+00 g(S)=  0.000E+00 dE (1.order)= 0.000E+00
 bond charge predicted
       N       E                     dE             d eps       ncg     rms          rms(c)
DAV:   1    -0.139192603578E+03   -0.48021E-09    0.81428E-11   168   0.190E-10    0.265E-10
RMM:   2    -0.139192603578E+03    0.38926E-09    0.00000E+00     0   0.123E-10
 148 F= -.13919260E+03 E0= -.13920480E+03  d E =-.582077E-10
quench:  g(F)=  0.000E+00 g(S)=  0.000E+00 dE (1.order)= 0.000E+00
 bond charge predicted
       N       E                     dE             d eps       ncg     rms          rms(c)
DAV:   1    -0.139192603579E+03   -0.36380E-09    0.80307E-11   168   0.241E-10    0.148E-10
RMM:   2    -0.139192603578E+03    0.88039E-09    0.00000E+00     0   0.103E-10
 149 F= -.13919260E+03 E0= -.13920480E+03  d E =0.127329E-09
quench:  g(F)=  0.000E+00 g(S)=  0.000E+00 dE (1.order)= 0.000E+00
 bond charge predicted
       N       E                     dE             d eps       ncg     rms          rms(c)
DAV:   1    -0.139192603578E+03    0.66575E-09   -0.83030E-12   168   0.122E-10    0.247E-10
RMM:   2    -0.139192603578E+03    0.20736E-09    0.00000E+00     0   0.101E-10
 150 F= -.13919260E+03 E0= -.13920480E+03  d E =-.727596E-11
quench:  g(F)=  0.000E+00 g(S)=  0.000E+00 dE (1.order)= 0.000E+00
 bond charge predicted
       N       E                     dE             d eps       ncg     rms          rms(c)
DAV:   1    -0.139192603578E+03    0.21828E-10    0.11291E-11   168   0.169E-10    0.150E-10
RMM:   2    -0.139192603578E+03    0.22555E-09    0.00000E+00     0   0.881E-11
 151 F= -.13919260E+03 E0= -.13920480E+03  d E =0.400178E-10
quench:  g(F)=  0.000E+00 g(S)=  0.000E+00 dE (1.order)= 0.000E+00
 bond charge predicted
       N       E                     dE             d eps       ncg     rms          rms(c)
DAV:   1    -0.139192603578E+03   -0.34925E-09    0.29395E-11   168   0.125E-10    0.175E-10
RMM:   2    -0.139192603578E+03    0.52751E-09    0.00000E+00     0   0.907E-11
 152 F= -.13919260E+03 E0= -.13920480E+03  d E =-.472937E-10
quench:  g(F)=  0.000E+00 g(S)=  0.000E+00 dE (1.order)= 0.000E+00
 bond charge predicted
       N       E                     dE             d eps       ncg     rms          rms(c)
DAV:   1    -0.139192603577E+03    0.13897E-08    0.47959E-11   168   0.126E-10    0.311E-10
RMM:   2    -0.139192603578E+03   -0.79672E-09    0.00000E+00     0   0.114E-10
 153 F= -.13919260E+03 E0= -.13920480E+03  d E =0.654836E-10
quench:  g(F)=  0.000E+00 g(S)=  0.000E+00 dE (1.order)= 0.000E+00
 bond charge predicted
       N       E                     dE             d eps       ncg     rms          rms(c)
DAV:   1    -0.139192603578E+03   -0.84037E-09    0.11429E-11   168   0.138E-10    0.352E-10
RMM:   2    -0.139192603578E+03    0.50932E-10    0.00000E+00     0   0.125E-10
 154 F= -.13919260E+03 E0= -.13920480E+03  d E =0.727596E-11
quench:  g(F)=  0.000E+00 g(S)=  0.000E+00 dE (1.order)= 0.000E+00
 bond charge predicted
       N       E                     dE             d eps       ncg     rms          rms(c)
DAV:   1    -0.139192603578E+03    0.22919E-09    0.40423E-12   168   0.159E-10    0.126E-10
RMM:   2    -0.139192603578E+03   -0.32014E-09    0.00000E+00     0   0.108E-10
 155 F= -.13919260E+03 E0= -.13920480E+03  d E =-.141881E-09
quench:  g(F)=  0.000E+00 g(S)=  0.000E+00 dE (1.order)= 0.000E+00
 bond charge predicted
       N       E                     dE             d eps       ncg     rms          rms(c)
DAV:   1    -0.139192603577E+03    0.10696E-08    0.59340E-11   168   0.120E-10    0.234E-10
RMM:   2    -0.139192603578E+03   -0.13461E-08    0.00000E+00     0   0.118E-10
 156 F= -.13919260E+03 E0= -.13920480E+03  d E =0.436557E-10
quench:  g(F)=  0.000E+00 g(S)=  0.000E+00 dE (1.order)= 0.000E+00
 bond charge predicted
       N       E                     dE             d eps       ncg     rms          rms(c)
DAV:   1    -0.139192603578E+03   -0.12587E-08    0.47622E-11   168   0.153E-10    0.183E-10
RMM:   2    -0.139192603578E+03    0.10914E-10    0.00000E+00     0   0.907E-11
 157 F= -.13919260E+03 E0= -.13920480E+03  d E =0.982254E-10
quench:  g(F)=  0.000E+00 g(S)=  0.000E+00 dE (1.order)= 0.000E+00
 bond charge predicted
       N       E                     dE             d eps       ncg     rms          rms(c)
DAV:   1    -0.139192603578E+03   -0.55661E-09    0.37103E-11   168   0.144E-10    0.177E-10
RMM:   2    -0.139192603578E+03    0.45839E-09    0.00000E+00     0   0.976E-11
 158 F= -.13919260E+03 E0= -.13920480E+03  d E =-.109139E-09
quench:  g(F)=  0.000E+00 g(S)=  0.000E+00 dE (1.order)= 0.000E+00
 bond charge predicted
       N       E                     dE             d eps       ncg     rms          rms(c)
DAV:   1    -0.139192603578E+03    0.29831E-09    0.25854E-11   168   0.142E-10    0.248E-10
RMM:   2    -0.139192603578E+03    0.18917E-09    0.00000E+00     0   0.114E-10
 159 F= -.13919260E+03 E0= -.13920480E+03  d E =0.291038E-10
quench:  g(F)=  0.000E+00 g(S)=  0.000E+00 dE (1.order)= 0.000E+00
 bond charge predicted
       N       E                     dE             d eps       ncg     rms          rms(c)
DAV:   1    -0.139192603578E+03    0.36380E-09    0.17675E-11   168   0.151E-10    0.246E-10
RMM:   2    -0.139192603578E+03   -0.22192E-09    0.00000E+00     0   0.957E-11
 160 F= -.13919260E+03 E0= -.13920480E+03  d E =-.472937E-10
quench:  g(F)=  0.000E+00 g(S)=  0.000E+00 dE (1.order)= 0.000E+00
 bond charge predicted
       N       E                     dE             d eps       ncg     rms          rms(c)
DAV:   1    -0.139192603578E+03   -0.22555E-09    0.62394E-11   168   0.107E-10    0.148E-10
RMM:   2    -0.139192603578E+03    0.12733E-09    0.00000E+00     0   0.895E-11
 161 F= -.13919260E+03 E0= -.13920480E+03  d E =0.123691E-09
quench:  g(F)=  0.000E+00 g(S)=  0.000E+00 dE (1.order)= 0.000E+00
 bond charge predicted
       N       E                     dE             d eps       ncg     rms          rms(c)
DAV:   1    -0.139192603578E+03    0.10914E-10   -0.92905E-12   168   0.158E-10    0.203E-10
RMM:   2    -0.139192603578E+03    0.10550E-09    0.00000E+00     0   0.967E-11
 162 F= -.13919260E+03 E0= -.13920480E+03  d E =-.109139E-10
quench:  g(F)=  0.000E+00 g(S)=  0.000E+00 dE (1.order)= 0.000E+00
 bond charge predicted
       N       E                     dE             d eps       ncg     rms          rms(c)
DAV:   1    -0.139192603578E+03    0.16735E-09   -0.21218E-12   168   0.138E-10    0.219E-10
RMM:   2    -0.139192603578E+03   -0.16007E-09    0.00000E+00     0   0.887E-11
 163 F= -.13919260E+03 E0= -.13920480E+03  d E =-.982254E-10
quench:  g(F)=  0.000E+00 g(S)=  0.000E+00 dE (1.order)= 0.000E+00
 bond charge predicted
       N       E                     dE             d eps       ncg     rms          rms(c)
DAV:   1    -0.139192603578E+03   -0.32742E-10   -0.21556E-12   168   0.135E-10    0.164E-10
RMM:   2    -0.139192603578E+03   -0.40018E-10    0.00000E+00     0   0.859E-11
 164 F= -.13919260E+03 E0= -.13920480E+03  d E =0.873115E-10
quench:  g(F)=  0.000E+00 g(S)=  0.000E+00 dE (1.order)= 0.000E+00
 bond charge predicted
       N       E                     dE             d eps       ncg     rms          rms(c)
DAV:   1    -0.139192603578E+03   -0.31650E-09    0.11710E-10   168   0.131E-10    0.272E-10
RMM:   2    -0.139192603578E+03    0.24374E-09    0.00000E+00     0   0.119E-10
 165 F= -.13919260E+03 E0= -.13920480E+03  d E =-.327418E-10
quench:  g(F)=  0.000E+00 g(S)=  0.000E+00 dE (1.order)= 0.000E+00
 bond charge predicted
       N       E                     dE             d eps       ncg     rms          rms(c)
DAV:   1    -0.139192603577E+03    0.59299E-09    0.26032E-11   168   0.213E-10    0.140E-10
RMM:   2    -0.139192603578E+03   -0.40018E-09    0.00000E+00     0   0.914E-11
 166 F= -.13919260E+03 E0= -.13920480E+03  d E =-.509317E-10
quench:  g(F)=  0.000E+00 g(S)=  0.000E+00 dE (1.order)= 0.000E+00
 bond charge predicted
       N       E                     dE             d eps       ncg     rms          rms(c)
DAV:   1    -0.139192603578E+03   -0.37471E-09    0.71843E-11   168   0.112E-10    0.304E-10
RMM:   2    -0.139192603578E+03    0.12733E-09    0.00000E+00     0   0.124E-10
 167 F= -.13919260E+03 E0= -.13920480E+03  d E =0.152795E-09
quench:  g(F)=  0.000E+00 g(S)=  0.000E+00 dE (1.order)= 0.000E+00
 bond charge predicted
       N       E                     dE             d eps       ncg     rms          rms(c)
DAV:   1    -0.139192603578E+03    0.25830E-09    0.16406E-11   168   0.223E-10    0.263E-10
RMM:   2    -0.139192603578E+03   -0.17462E-09    0.00000E+00     0   0.120E-10
 168 F= -.13919260E+03 E0= -.13920480E+03  d E =-.436557E-10
quench:  g(F)=  0.000E+00 g(S)=  0.000E+00 dE (1.order)= 0.000E+00
 bond charge predicted
       N       E                     dE             d eps       ncg     rms          rms(c)
DAV:   1    -0.139192603577E+03    0.47658E-09    0.16157E-11   168   0.197E-10    0.181E-10
RMM:   2    -0.139192603578E+03   -0.79672E-09    0.00000E+00     0   0.120E-10
 169 F= -.13919260E+03 E0= -.13920480E+03  d E =-.145519E-09
quench:  g(F)=  0.000E+00 g(S)=  0.000E+00 dE (1.order)= 0.000E+00
 bond charge predicted
       N       E                     dE             d eps       ncg     rms          rms(c)
DAV:   1    -0.139192603579E+03   -0.13970E-08   -0.15310E-11   168   0.150E-10    0.317E-10
RMM:   2    -0.139192603578E+03    0.72396E-09    0.00000E+00     0   0.141E-10
 170 F= -.13919260E+03 E0= -.13920480E+03  d E =0.123691E-09
quench:  g(F)=  0.000E+00 g(S)=  0.000E+00 dE (1.order)= 0.000E+00
 bond charge predicted
       N       E                     dE             d eps       ncg     rms          rms(c)
DAV:   1    -0.139192603578E+03    0.77125E-09    0.29855E-11   168   0.216E-10    0.205E-10
RMM:   2    -0.139192603578E+03   -0.61846E-10    0.00000E+00     0   0.109E-10
 171 F= -.13919260E+03 E0= -.13920480E+03  d E =-.145519E-10
quench:  g(F)=  0.000E+00 g(S)=  0.000E+00 dE (1.order)= 0.000E+00
 bond charge predicted
       N       E                     dE             d eps       ncg     rms          rms(c)
DAV:   1    -0.139192603577E+03    0.32378E-09   -0.18869E-11   168   0.190E-10    0.133E-10
RMM:   2    -0.139192603578E+03   -0.42564E-09    0.00000E+00     0   0.109E-10
 172 F= -.13919260E+03 E0= -.13920480E+03  d E =-.400178E-10
quench:  g(F)=  0.000E+00 g(S)=  0.000E+00 dE (1.order)= 0.000E+00
 bond charge predicted
       N       E                     dE             d eps       ncg     rms          rms(c)
DAV:   1    -0.139192603578E+03   -0.92041E-09    0.39103E-11   168   0.110E-10    0.218E-10
RMM:   2    -0.139192603578E+03    0.46930E-09    0.00000E+00     0   0.117E-10
 173 F= -.13919260E+03 E0= -.13920480E+03  d E =-.254659E-10
quench:  g(F)=  0.000E+00 g(S)=  0.000E+00 dE (1.order)= 0.000E+00
 bond charge predicted
       N       E                     dE             d eps       ncg     rms          rms(c)
DAV:   1    -0.139192603578E+03    0.19645E-09    0.64767E-12   168   0.139E-10    0.247E-10
RMM:   2    -0.139192603578E+03    0.36016E-09    0.00000E+00     0   0.104E-10
 174 F= -.13919260E+03 E0= -.13920480E+03  d E =0.873115E-10
quench:  g(F)=  0.000E+00 g(S)=  0.000E+00 dE (1.order)= 0.000E+00
 bond charge predicted
       N       E                     dE             d eps       ncg     rms          rms(c)
DAV:   1    -0.139192603578E+03    0.64756E-09    0.52836E-11   168   0.227E-10    0.189E-10
RMM:   2    -0.139192603578E+03   -0.26557E-09    0.00000E+00     0   0.132E-10
 175 F= -.13919260E+03 E0= -.13920480E+03  d E =0.218279E-10
quench:  g(F)=  0.000E+00 g(S)=  0.000E+00 dE (1.order)= 0.000E+00
 bond charge predicted
       N       E                     dE             d eps       ncg     rms          rms(c)
DAV:   1    -0.139192603577E+03    0.56389E-09    0.78207E-11   168   0.174E-10    0.252E-10
RMM:   2    -0.139192603578E+03   -0.90586E-09    0.00000E+00     0   0.138E-10
 176 F= -.13919260E+03 E0= -.13920480E+03  d E =-.763976E-10
quench:  g(F)=  0.000E+00 g(S)=  0.000E+00 dE (1.order)= 0.000E+00
 bond charge predicted
       N       E                     dE             d eps       ncg     rms          rms(c)
DAV:   1    -0.139192603578E+03   -0.12260E-08    0.65845E-11   168   0.194E-10    0.194E-10
RMM:   2    -0.139192603578E+03    0.26557E-09    0.00000E+00     0   0.103E-10
 177 F= -.13919260E+03 E0= -.13920480E+03  d E =-.545697E-10
quench:  g(F)=  0.000E+00 g(S)=  0.000E+00 dE (1.order)= 0.000E+00
 bond charge predicted
       N       E                     dE             d eps       ncg     rms          rms(c)
DAV:   1    -0.139192603578E+03   -0.29468E-09    0.64384E-11   168   0.163E-10    0.148E-10
RMM:   2    -0.139192603578E+03    0.62209E-09    0.00000E+00     0   0.871E-11
 178 F= -.13919260E+03 E0= -.13920480E+03  d E =0.618456E-10
quench:  g(F)=  0.000E+00 g(S)=  0.000E+00 dE (1.order)= 0.000E+00
 bond charge predicted
       N       E                     dE             d eps       ncg     rms          rms(c)
DAV:   1    -0.139192603579E+03   -0.65484E-10    0.55973E-11   168   0.127E-10    0.199E-10
RMM:   2    -0.139192603578E+03    0.63665E-09    0.00000E+00     0   0.105E-10
 179 F= -.13919260E+03 E0= -.13920480E+03  d E =-.509317E-10
quench:  g(F)=  0.000E+00 g(S)=  0.000E+00 dE (1.order)= 0.000E+00
 bond charge predicted
       N       E                     dE             d eps       ncg     rms          rms(c)
DAV:   1    -0.139192603578E+03    0.10041E-08    0.35749E-11   168   0.156E-10    0.310E-10
RMM:   2    -0.139192603578E+03   -0.30559E-09    0.00000E+00     0   0.116E-10
 180 F= -.13919260E+03 E0= -.13920480E+03  d E =0.618456E-10
quench:  g(F)=  0.000E+00 g(S)=  0.000E+00 dE (1.order)= 0.000E+00
 bond charge predicted
       N       E                     dE             d eps       ncg     rms          rms(c)
DAV:   1    -0.139192603578E+03   -0.28012E-09    0.51580E-11   168   0.171E-10    0.199E-10
RMM:   2    -0.139192603578E+03   -0.12369E-09    0.00000E+00     0   0.964E-11
 181 F= -.13919260E+03 E0= -.13920480E+03  d E =-.982254E-10
quench:  g(F)=  0.000E+00 g(S)=  0.000E+00 dE (1.order)= 0.000E+00
 bond charge predicted
       N       E                     dE             d eps       ncg     rms          rms(c)
DAV:   1    -0.139192603578E+03    0.00000E+00    0.80933E-11   168   0.158E-10    0.188E-10
RMM:   2    -0.139192603578E+03   -0.98225E-10    0.00000E+00     0   0.107E-10
 182 F= -.13919260E+03 E0= -.13920480E+03  d E =0.254659E-10
quench:  g(F)=  0.000E+00 g(S)=  0.000E+00 dE (1.order)= 0.000E+00
 bond charge predicted
       N       E                     dE             d eps       ncg     rms          rms(c)
DAV:   1    -0.139192603578E+03   -0.32014E-09    0.11972E-11   168   0.118E-10    0.184E-10
RMM:   2    -0.139192603578E+03    0.25830E-09    0.00000E+00     0   0.106E-10
 183 F= -.13919260E+03 E0= -.13920480E+03  d E =0.363798E-10
quench:  g(F)=  0.000E+00 g(S)=  0.000E+00 dE (1.order)= 0.000E+00
 bond charge predicted
       N       E                     dE             d eps       ncg     rms          rms(c)
DAV:   1    -0.139192603578E+03    0.21828E-10    0.47855E-11   168   0.163E-10    0.187E-10
RMM:   2    -0.139192603578E+03    0.22555E-09    0.00000E+00     0   0.929E-11
 184 F= -.13919260E+03 E0= -.13920480E+03  d E =-.109139E-10
quench:  g(F)=  0.000E+00 g(S)=  0.000E+00 dE (1.order)= 0.000E+00
 bond charge predicted
[...]
 bond charge predicted
       N       E                     dE             d eps       ncg     rms          rms(c)
DAV:   1    -0.139192603578E+03   -0.82946E-09    0.53529E-11   168   0.197E-10    0.367E-10
RMM:   2    -0.139192603578E+03    0.25830E-09    0.00000E+00     0   0.131E-10
 453 F= -.13919260E+03 E0= -.13920480E+03  d E =0.327418E-10
quench:  g(F)=  0.000E+00 g(S)=  0.000E+00 dE (1.order)= 0.000E+00
 bond charge predicted
       N       E                     dE             d eps       ncg     rms          rms(c)
DAV:   1    -0.139192603578E+03    0.13824E-09   -0.40048E-11   168   0.172E-10    0.215E-10
RMM:   2    -0.139192603578E+03    0.83674E-10    0.00000E+00     0   0.117E-10
 454 F= -.13919260E+03 E0= -.13920480E+03  d E =-.363798E-10
quench:  g(F)=  0.000E+00 g(S)=  0.000E+00 dE (1.order)= 0.000E+00
 bond charge predicted
       N       E                     dE             d eps       ncg     rms          rms(c)
DAV:   1    -0.139192603578E+03    0.21464E-09   -0.10644E-11   168   0.147E-10    0.231E-10
RMM:   2    -0.139192603578E+03   -0.12369E-09    0.00000E+00     0   0.115E-10
 455 F= -.13919260E+03 E0= -.13920480E+03  d E =0.727596E-11
quench:  g(F)=  0.000E+00 g(S)=  0.000E+00 dE (1.order)= 0.000E+00
 bond charge predicted
       N       E                     dE             d eps       ncg     rms          rms(c)
DAV:   1    -0.139192603577E+03    0.43292E-09   -0.33013E-11   168   0.169E-10    0.279E-10
RMM:   2    -0.139192603578E+03   -0.63301E-09    0.00000E+00     0   0.884E-11
 456 F= -.13919260E+03 E0= -.13920480E+03  d E =-.763976E-10
quench:  g(F)=  0.000E+00 g(S)=  0.000E+00 dE (1.order)= 0.000E+00
 bond charge predicted
       N       E                     dE             d eps       ncg     rms          rms(c)
DAV:   1    -0.139192603578E+03   -0.89494E-09    0.16932E-10   168   0.176E-10    0.214E-10
RMM:   2    -0.139192603578E+03    0.25466E-09    0.00000E+00     0   0.115E-10
 457 F= -.13919260E+03 E0= -.13920480E+03  d E =-.727596E-11
quench:  g(F)=  0.000E+00 g(S)=  0.000E+00 dE (1.order)= 0.000E+00
 bond charge predicted
       N       E                     dE             d eps       ncg     rms          rms(c)
DAV:   1    -0.139192603577E+03    0.80399E-09    0.12616E-10   168   0.159E-10    0.167E-10
RMM:   2    -0.139192603578E+03   -0.42201E-09    0.00000E+00     0   0.891E-11
 458 F= -.13919260E+03 E0= -.13920480E+03  d E =0.127329E-09
quench:  g(F)=  0.000E+00 g(S)=  0.000E+00 dE (1.order)= 0.000E+00
 bond charge predicted
       N       E                     dE             d eps       ncg     rms          rms(c)
DAV:   1    -0.139192603578E+03   -0.99681E-09    0.66076E-11   168   0.136E-10    0.199E-10
RMM:   2    -0.139192603578E+03    0.44747E-09    0.00000E+00     0   0.119E-10
 459 F= -.13919260E+03 E0= -.13920480E+03  d E =-.127329E-09
quench:  g(F)=  0.000E+00 g(S)=  0.000E+00 dE (1.order)= 0.000E+00
 bond charge predicted
       N       E                     dE             d eps       ncg     rms          rms(c)
DAV:   1    -0.139192603579E+03   -0.26921E-09    0.18772E-11   168   0.136E-10    0.184E-10
RMM:   2    -0.139192603578E+03    0.76398E-09    0.00000E+00     0   0.988E-11
 460 F= -.13919260E+03 E0= -.13920480E+03  d E =0.472937E-10
quench:  g(F)=  0.000E+00 g(S)=  0.000E+00 dE (1.order)= 0.000E+00
 bond charge predicted
       N       E                     dE             d eps       ncg     rms          rms(c)
DAV:   1    -0.139192603578E+03    0.40745E-09    0.10678E-10   168   0.134E-10    0.147E-10
RMM:   2    -0.139192603578E+03    0.36744E-09    0.00000E+00     0   0.111E-10
 461 F= -.13919260E+03 E0= -.13920480E+03  d E =0.109139E-10
quench:  g(F)=  0.000E+00 g(S)=  0.000E+00 dE (1.order)= 0.000E+00
 bond charge predicted
       N       E                     dE             d eps       ncg     rms          rms(c)
DAV:   1    -0.139192603578E+03    0.24011E-09    0.63366E-11   168   0.139E-10    0.292E-10
RMM:   2    -0.139192603578E+03    0.18190E-10    0.00000E+00     0   0.121E-10
 462 F= -.13919260E+03 E0= -.13920480E+03  d E =-.109139E-09
quench:  g(F)=  0.000E+00 g(S)=  0.000E+00 dE (1.order)= 0.000E+00
 bond charge predicted
       N       E                     dE             d eps       ncg     rms          rms(c)
DAV:   1    -0.139192603578E+03    0.18190E-10   -0.14554E-11   168   0.198E-10    0.309E-10
RMM:   2    -0.139192603578E+03    0.10186E-09    0.00000E+00     0   0.134E-10
 463 F= -.13919260E+03 E0= -.13920480E+03  d E =0.101863E-09
quench:  g(F)=  0.000E+00 g(S)=  0.000E+00 dE (1.order)= 0.000E+00
 bond charge predicted
       N       E                     dE             d eps       ncg     rms          rms(c)
DAV:   1    -0.139192603577E+03    0.62937E-09    0.20385E-11   168   0.198E-10    0.158E-10
RMM:   2    -0.139192603578E+03   -0.60027E-09    0.00000E+00     0   0.907E-11
 464 F= -.13919260E+03 E0= -.13920480E+03  d E =-.727596E-10
quench:  g(F)=  0.000E+00 g(S)=  0.000E+00 dE (1.order)= 0.000E+00
 bond charge predicted
       N       E                     dE             d eps       ncg     rms          rms(c)
DAV:   1    -0.139192603578E+03   -0.44020E-09   -0.17135E-11   168   0.134E-10    0.221E-10
RMM:   2    -0.139192603578E+03   -0.94587E-10    0.00000E+00     0   0.942E-11
 465 F= -.13919260E+03 E0= -.13920480E+03  d E =0.654836E-10
quench:  g(F)=  0.000E+00 g(S)=  0.000E+00 dE (1.order)= 0.000E+00
 bond charge predicted
       N       E                     dE             d eps       ncg     rms          rms(c)
DAV:   1    -0.139192603577E+03    0.34197E-09    0.36300E-11   168   0.130E-10    0.168E-10
RMM:   2    -0.139192603578E+03   -0.50932E-09    0.00000E+00     0   0.862E-11
 466 F= -.13919260E+03 E0= -.13920480E+03  d E =-.727596E-10
quench:  g(F)=  0.000E+00 g(S)=  0.000E+00 dE (1.order)= 0.000E+00
 bond charge predicted
       N       E                     dE             d eps       ncg     rms          rms(c)
DAV:   1    -0.139192603578E+03   -0.16735E-09    0.11889E-11   168   0.104E-10    0.282E-10
RMM:   2    -0.139192603578E+03   -0.36744E-09    0.00000E+00     0   0.145E-10
 467 F= -.13919260E+03 E0= -.13920480E+03  d E =-.254659E-10
quench:  g(F)=  0.000E+00 g(S)=  0.000E+00 dE (1.order)= 0.000E+00
 bond charge predicted
       N       E                     dE             d eps       ncg     rms          rms(c)
DAV:   1    -0.139192603579E+03   -0.10732E-08    0.64917E-11   168   0.229E-10    0.336E-10
RMM:   2    -0.139192603578E+03    0.76034E-09    0.00000E+00     0   0.127E-10
 468 F= -.13919260E+03 E0= -.13920480E+03  d E =0.545697E-10
quench:  g(F)=  0.000E+00 g(S)=  0.000E+00 dE (1.order)= 0.000E+00
 bond charge predicted
       N       E                     dE             d eps       ncg     rms          rms(c)
DAV:   1    -0.139192603577E+03    0.13097E-08    0.80163E-12   168   0.240E-10    0.245E-10
RMM:   2    -0.139192603578E+03   -0.51659E-09    0.00000E+00     0   0.980E-11
 469 F= -.13919260E+03 E0= -.13920480E+03  d E =0.327418E-10
quench:  g(F)=  0.000E+00 g(S)=  0.000E+00 dE (1.order)= 0.000E+00
 bond charge predicted
       N       E                     dE             d eps       ncg     rms          rms(c)
DAV:   1    -0.139192603577E+03    0.61846E-10    0.16882E-11   168   0.173E-10    0.204E-10
RMM:   2    -0.139192603578E+03   -0.51659E-09    0.00000E+00     0   0.909E-11
 470 F= -.13919260E+03 E0= -.13920480E+03  d E =0.618456E-10
quench:  g(F)=  0.000E+00 g(S)=  0.000E+00 dE (1.order)= 0.000E+00
 bond charge predicted
       N       E                     dE             d eps       ncg     rms          rms(c)
DAV:   1    -0.139192603579E+03   -0.16698E-08    0.56408E-11   168   0.156E-10    0.164E-10
RMM:   2    -0.139192603578E+03    0.11241E-08    0.00000E+00     0   0.991E-11
 471 F= -.13919260E+03 E0= -.13920480E+03  d E =-.291038E-10
quench:  g(F)=  0.000E+00 g(S)=  0.000E+00 dE (1.order)= 0.000E+00
 bond charge predicted
       N       E                     dE             d eps       ncg     rms          rms(c)
DAV:   1    -0.139192603578E+03    0.88403E-09    0.71852E-12   168   0.149E-10    0.249E-10
RMM:   2    -0.139192603578E+03    0.22555E-09    0.00000E+00     0   0.120E-10
 472 F= -.13919260E+03 E0= -.13920480E+03  d E =-.145519E-10
quench:  g(F)=  0.000E+00 g(S)=  0.000E+00 dE (1.order)= 0.000E+00
 bond charge predicted
       N       E                     dE             d eps       ncg     rms          rms(c)
DAV:   1    -0.139192603577E+03    0.61118E-09    0.33992E-11   168   0.164E-10    0.213E-10
RMM:   2    -0.139192603578E+03   -0.40745E-09    0.00000E+00     0   0.116E-10
 473 F= -.13919260E+03 E0= -.13920480E+03  d E =-.218279E-10
quench:  g(F)=  0.000E+00 g(S)=  0.000E+00 dE (1.order)= 0.000E+00
 bond charge predicted
       N       E                     dE             d eps       ncg     rms          rms(c)
DAV:   1    -0.139192603579E+03   -0.17390E-08    0.37651E-11   168   0.181E-10    0.101E-10
RMM:   2    -0.139192603578E+03    0.13024E-08    0.00000E+00     0   0.931E-11
 474 F= -.13919260E+03 E0= -.13920480E+03  d E =-.291038E-10
quench:  g(F)=  0.000E+00 g(S)=  0.000E+00 dE (1.order)= 0.000E+00
 bond charge predicted
       N       E                     dE             d eps       ncg     rms          rms(c)
DAV:   1    -0.139192603579E+03    0.64756E-09    0.69970E-12   168   0.107E-10    0.180E-10
RMM:   2    -0.139192603578E+03    0.61846E-09    0.00000E+00     0   0.834E-11
 475 F= -.13919260E+03 E0= -.13920480E+03  d E =-.363798E-10
quench:  g(F)=  0.000E+00 g(S)=  0.000E+00 dE (1.order)= 0.000E+00
 bond charge predicted
       N       E                     dE             d eps       ncg     rms          rms(c)
DAV:   1    -0.139192603578E+03    0.10150E-08    0.13387E-10   168   0.138E-10    0.244E-10
RMM:   2    -0.139192603578E+03   -0.24738E-09    0.00000E+00     0   0.107E-10
 476 F= -.13919260E+03 E0= -.13920480E+03  d E =0.149157E-09
quench:  g(F)=  0.000E+00 g(S)=  0.000E+00 dE (1.order)= 0.000E+00
 bond charge predicted
       N       E                     dE             d eps       ncg     rms          rms(c)
DAV:   1    -0.139192603577E+03    0.22555E-09    0.40141E-11   168   0.136E-10    0.269E-10
RMM:   2    -0.139192603578E+03   -0.55661E-09    0.00000E+00     0   0.121E-10
 477 F= -.13919260E+03 E0= -.13920480E+03  d E =-.836735E-10
quench:  g(F)=  0.000E+00 g(S)=  0.000E+00 dE (1.order)= 0.000E+00
 bond charge predicted
       N       E                     dE             d eps       ncg     rms          rms(c)
DAV:   1    -0.139192603578E+03   -0.55661E-09    0.49697E-11   168   0.212E-10    0.211E-10
RMM:   2    -0.139192603578E+03    0.72760E-10    0.00000E+00     0   0.113E-10
 478 F= -.13919260E+03 E0= -.13920480E+03  d E =0.727596E-10
quench:  g(F)=  0.000E+00 g(S)=  0.000E+00 dE (1.order)= 0.000E+00
 bond charge predicted
       N       E                     dE             d eps       ncg     rms          rms(c)
DAV:   1    -0.139192603578E+03    0.29104E-09    0.14313E-10   168   0.164E-10    0.262E-10
RMM:   2    -0.139192603578E+03   -0.32378E-09    0.00000E+00     0   0.122E-10
 479 F= -.13919260E+03 E0= -.13920480E+03  d E =-.105501E-09
quench:  g(F)=  0.000E+00 g(S)=  0.000E+00 dE (1.order)= 0.000E+00
 bond charge predicted
       N       E                     dE             d eps       ncg     rms          rms(c)
DAV:   1    -0.139192603578E+03   -0.61846E-10   -0.30664E-12   168   0.224E-10    0.196E-10
RMM:   2    -0.139192603578E+03   -0.29468E-09    0.00000E+00     0   0.103E-10
 480 F= -.13919260E+03 E0= -.13920480E+03  d E =-.327418E-10
quench:  g(F)=  0.000E+00 g(S)=  0.000E+00 dE (1.order)= 0.000E+00
 bond charge predicted
       N       E                     dE             d eps       ncg     rms          rms(c)
DAV:   1    -0.139192603579E+03   -0.94224E-09   -0.70261E-12   168   0.117E-10    0.284E-10
RMM:   2    -0.139192603578E+03    0.66575E-09    0.00000E+00     0   0.103E-10
 481 F= -.13919260E+03 E0= -.13920480E+03  d E =0.181899E-10
quench:  g(F)=  0.000E+00 g(S)=  0.000E+00 dE (1.order)= 0.000E+00
 bond charge predicted
       N       E                     dE             d eps       ncg     rms          rms(c)
DAV:   1    -0.139192603578E+03    0.96043E-09    0.44668E-11   168   0.131E-10    0.336E-10
RMM:   2    -0.139192603578E+03   -0.24374E-09    0.00000E+00     0   0.120E-10
 482 F= -.13919260E+03 E0= -.13920480E+03  d E =0.509317E-10
quench:  g(F)=  0.000E+00 g(S)=  0.000E+00 dE (1.order)= 0.000E+00
 bond charge predicted
       N       E                     dE             d eps       ncg     rms          rms(c)
DAV:   1    -0.139192603578E+03   -0.42928E-09    0.71813E-11   168   0.156E-10    0.231E-10
RMM:   2    -0.139192603578E+03    0.14552E-09    0.00000E+00     0   0.115E-10
 483 F= -.13919260E+03 E0= -.13920480E+03  d E =-.400178E-10
quench:  g(F)=  0.000E+00 g(S)=  0.000E+00 dE (1.order)= 0.000E+00
 bond charge predicted
       N       E                     dE             d eps       ncg     rms          rms(c)
DAV:   1    -0.139192603578E+03    0.38199E-09    0.77095E-11   168   0.235E-10    0.155E-10
RMM:   2    -0.139192603578E+03   -0.14552E-09    0.00000E+00     0   0.112E-10
 484 F= -.13919260E+03 E0= -.13920480E+03  d E =0.909495E-10
quench:  g(F)=  0.000E+00 g(S)=  0.000E+00 dE (1.order)= 0.000E+00
 bond charge predicted
       N       E                     dE             d eps       ncg     rms          rms(c)
DAV:   1    -0.139192603578E+03   -0.20736E-09    0.50330E-11   168   0.165E-10    0.180E-10
RMM:   2    -0.139192603578E+03    0.25466E-10    0.00000E+00     0   0.101E-10
 485 F= -.13919260E+03 E0= -.13920480E+03  d E =-.363798E-10
quench:  g(F)=  0.000E+00 g(S)=  0.000E+00 dE (1.order)= 0.000E+00
 bond charge predicted
       N       E                     dE             d eps       ncg     rms          rms(c)
DAV:   1    -0.139192603578E+03   -0.18190E-09   -0.34264E-11   168   0.109E-10    0.208E-10
RMM:   2    -0.139192603578E+03    0.34197E-09    0.00000E+00     0   0.870E-11
 486 F= -.13919260E+03 E0= -.13920480E+03  d E =0.134605E-09
quench:  g(F)=  0.000E+00 g(S)=  0.000E+00 dE (1.order)= 0.000E+00
 bond charge predicted
       N       E                     dE             d eps       ncg     rms          rms(c)
DAV:   1    -0.139192603579E+03   -0.47658E-09    0.24440E-12   168   0.168E-10    0.190E-10
RMM:   2    -0.139192603578E+03    0.64756E-09    0.00000E+00     0   0.132E-10
 487 F= -.13919260E+03 E0= -.13920480E+03  d E =-.170985E-09
quench:  g(F)=  0.000E+00 g(S)=  0.000E+00 dE (1.order)= 0.000E+00
 bond charge predicted
       N       E                     dE             d eps       ncg     rms          rms(c)
DAV:   1    -0.139192603578E+03    0.56389E-09    0.58971E-11   168   0.170E-10    0.155E-10
RMM:   2    -0.139192603578E+03    0.14916E-09    0.00000E+00     0   0.104E-10
 488 F= -.13919260E+03 E0= -.13920480E+03  d E =0.654836E-10
quench:  g(F)=  0.000E+00 g(S)=  0.000E+00 dE (1.order)= 0.000E+00
 bond charge predicted
       N       E                     dE             d eps       ncg     rms          rms(c)
DAV:   1    -0.139192603577E+03    0.72760E-09    0.48670E-11   168   0.139E-10    0.164E-10
RMM:   2    -0.139192603578E+03   -0.59299E-09    0.00000E+00     0   0.842E-11
 489 F= -.13919260E+03 E0= -.13920480E+03  d E =-.145519E-10
quench:  g(F)=  0.000E+00 g(S)=  0.000E+00 dE (1.order)= 0.000E+00
 bond charge predicted
       N       E                     dE             d eps       ncg     rms          rms(c)
DAV:   1    -0.139192603578E+03   -0.27649E-09   -0.13623E-11   168   0.129E-10    0.273E-10
RMM:   2    -0.139192603578E+03   -0.32014E-09    0.00000E+00     0   0.113E-10
 490 F= -.13919260E+03 E0= -.13920480E+03  d E =-.363798E-11
quench:  g(F)=  0.000E+00 g(S)=  0.000E+00 dE (1.order)= 0.000E+00
 bond charge predicted
       N       E                     dE             d eps       ncg     rms          rms(c)
DAV:   1    -0.139192603578E+03   -0.46566E-09    0.27443E-12   168   0.226E-10    0.278E-10
RMM:   2    -0.139192603578E+03    0.10914E-10    0.00000E+00     0   0.121E-10
 491 F= -.13919260E+03 E0= -.13920480E+03  d E =-.134605E-09
quench:  g(F)=  0.000E+00 g(S)=  0.000E+00 dE (1.order)= 0.000E+00
 bond charge predicted
       N       E                     dE             d eps       ncg     rms          rms(c)
DAV:   1    -0.139192603577E+03    0.51659E-09    0.63913E-11   168   0.146E-10    0.203E-10
RMM:   2    -0.139192603578E+03   -0.33833E-09    0.00000E+00     0   0.112E-10
 492 F= -.13919260E+03 E0= -.13920480E+03  d E =0.167347E-09
quench:  g(F)=  0.000E+00 g(S)=  0.000E+00 dE (1.order)= 0.000E+00
 bond charge predicted
       N       E                     dE             d eps       ncg     rms          rms(c)
DAV:   1    -0.139192603578E+03   -0.89130E-09   -0.80787E-11   168   0.170E-10    0.189E-10
RMM:   2    -0.139192603578E+03    0.50568E-09    0.00000E+00     0   0.982E-11
 493 F= -.13919260E+03 E0= -.13920480E+03  d E =-.472937E-10
quench:  g(F)=  0.000E+00 g(S)=  0.000E+00 dE (1.order)= 0.000E+00
 bond charge predicted
       N       E                     dE             d eps       ncg     rms          rms(c)
DAV:   1    -0.139192603579E+03   -0.26921E-09    0.62931E-11   168   0.120E-10    0.238E-10
RMM:   2    -0.139192603578E+03    0.83310E-09    0.00000E+00     0   0.982E-11
 494 F= -.13919260E+03 E0= -.13920480E+03  d E =0.582077E-10
quench:  g(F)=  0.000E+00 g(S)=  0.000E+00 dE (1.order)= 0.000E+00
 bond charge predicted
       N       E                     dE             d eps       ncg     rms          rms(c)
DAV:   1    -0.139192603579E+03    0.40018E-10    0.40166E-11   168   0.152E-10    0.200E-10
RMM:   2    -0.139192603578E+03    0.71304E-09    0.00000E+00     0   0.946E-11
 495 F= -.13919260E+03 E0= -.13920480E+03  d E =-.800355E-10
quench:  g(F)=  0.000E+00 g(S)=  0.000E+00 dE (1.order)= 0.000E+00
 bond charge predicted
       N       E                     dE             d eps       ncg     rms          rms(c)
DAV:   1    -0.139192603578E+03    0.83674E-09   -0.32000E-11   168   0.178E-10    0.290E-10
RMM:   2    -0.139192603578E+03   -0.18917E-09    0.00000E+00     0   0.119E-10
 496 F= -.13919260E+03 E0= -.13920480E+03  d E =-.654836E-10
quench:  g(F)=  0.000E+00 g(S)=  0.000E+00 dE (1.order)= 0.000E+00
 bond charge predicted
       N       E                     dE             d eps       ncg     rms          rms(c)
DAV:   1    -0.139192603578E+03   -0.60027E-09   -0.47191E-12   168   0.192E-10    0.240E-10
RMM:   2    -0.139192603578E+03    0.47294E-09    0.00000E+00     0   0.116E-10
 497 F= -.13919260E+03 E0= -.13920480E+03  d E =0.618456E-10
quench:  g(F)=  0.000E+00 g(S)=  0.000E+00 dE (1.order)= 0.000E+00
 bond charge predicted
       N       E                     dE             d eps       ncg     rms          rms(c)
DAV:   1    -0.139192603578E+03    0.44747E-09    0.78618E-11   168   0.213E-10    0.170E-10
RMM:   2    -0.139192603578E+03    0.61846E-10    0.00000E+00     0   0.111E-10
 498 F= -.13919260E+03 E0= -.13920480E+03  d E =0.363798E-10
quench:  g(F)=  0.000E+00 g(S)=  0.000E+00 dE (1.order)= 0.000E+00
 bond charge predicted
       N       E                     dE             d eps       ncg     rms          rms(c)
DAV:   1    -0.139192603578E+03   -0.19645E-09    0.42953E-11   168   0.146E-10    0.221E-10
RMM:   2    -0.139192603578E+03    0.21828E-09    0.00000E+00     0   0.115E-10
 499 F= -.13919260E+03 E0= -.13920480E+03  d E =-.400178E-10
quench:  g(F)=  0.000E+00 g(S)=  0.000E+00 dE (1.order)= 0.000E+00
 bond charge predicted
       N       E                     dE             d eps       ncg     rms          rms(c)
DAV:   1    -0.139192603578E+03   -0.26557E-09    0.49463E-11   168   0.160E-10    0.159E-10
RMM:   2    -0.139192603578E+03    0.41109E-09    0.00000E+00     0   0.926E-11
 500 F= -.13919260E+03 E0= -.13920480E+03  d E =-.727596E-10
quench:  g(F)=  0.000E+00 g(S)=  0.000E+00 dE (1.order)= 0.000E+00
