  28  28   0   0
  0.2199171E+02  0.7339091E-09  0.7339091E-09  0.1143227E-08  0.1500000E-16
   1.0000000000000000E-004
  CAR 
 unknown system                          
      9.25295202    -23.18093314  301      1.37422075      1.00000000
    -23.181  0.0000E+00  0.0000E+00
    -23.073  0.0000E+00  0.0000E+00
    -22.965  0.0000E+00  0.0000E+00
    -22.857  0.0000E+00  0.0000E+00
    -22.748  0.0000E+00  0.0000E+00
    -22.640  0.0000E+00  0.0000E+00
    -22.532  0.0000E+00  0.0000E+00
    -22.424  0.0000E+00  0.0000E+00
    -22.316  0.0000E+00  0.0000E+00
    -22.208  0.0000E+00  0.0000E+00
    -22.100  0.0000E+00  0.0000E+00
    -21.992  0.2202E-16  0.2381E-17
    -21.884  0.2334E-07  0.2523E-08
    -21.775  0.4790E-02  0.5178E-03
    -21.667  0.6205E+00  0.6760E-01
    -21.559  0.5609E+00  0.1282E+00
    -21.451  0.4062E-02  0.1287E+00
    -21.343  0.2487E-07  0.1287E+00
    -21.235  0.2753E-16  0.1287E+00
    -21.127  0.0000E+00  0.1287E+00
    -21.019  0.0000E+00  0.1287E+00
    -20.911  0.0000E+00  0.1287E+00
    -20.802  0.0000E+00  0.1287E+00
    -20.694  0.0000E+00  0.1287E+00
    -20.586  0.0000E+00  0.1287E+00
    -20.478  0.0000E+00  0.1287E+00
    -20.370  0.0000E+00  0.1287E+00
    -20.262  0.0000E+00  0.1287E+00
    -20.154  0.0000E+00  0.1287E+00
    -20.046  0.0000E+00  0.1287E+00
    -19.938  0.0000E+00  0.1287E+00
    -19.829  0.0000E+00  0.1287E+00
    -19.721  0.0000E+00  0.1287E+00
    -19.613  0.0000E+00  0.1287E+00
    -19.505  0.0000E+00  0.1287E+00
    -19.397  0.0000E+00  0.1287E+00
    -19.289  0.0000E+00  0.1287E+00
    -19.181  0.0000E+00  0.1287E+00
    -19.073  0.0000E+00  0.1287E+00
    -18.965  0.0000E+00  0.1287E+00
    -18.856  0.0000E+00  0.1287E+00
    -18.748  0.0000E+00  0.1287E+00
    -18.640  0.0000E+00  0.1287E+00
    -18.532  0.0000E+00  0.1287E+00
    -18.424  0.0000E+00  0.1287E+00
    -18.316  0.0000E+00  0.1287E+00
    -18.208  0.0000E+00  0.1287E+00
    -18.100  0.0000E+00  0.1287E+00
    -17.992  0.0000E+00  0.1287E+00
    -17.883  0.0000E+00  0.1287E+00
    -17.775  0.0000E+00  0.1287E+00
    -17.667  0.0000E+00  0.1287E+00
    -17.559  0.0000E+00  0.1287E+00
    -17.451  0.0000E+00  0.1287E+00
    -17.343  0.0000E+00  0.1287E+00
    -17.235  0.0000E+00  0.1287E+00
    -17.127  0.0000E+00  0.1287E+00
    -17.018  0.0000E+00  0.1287E+00
    -16.910  0.0000E+00  0.1287E+00
    -16.802  0.0000E+00  0.1287E+00
    -16.694  0.0000E+00  0.1287E+00
    -16.586  0.0000E+00  0.1287E+00
    -16.478  0.0000E+00  0.1287E+00
    -16.370  0.0000E+00  0.1287E+00
    -16.262  0.0000E+00  0.1287E+00
    -16.154  0.0000E+00  0.1287E+00
    -16.045  0.0000E+00  0.1287E+00
    -15.937  0.0000E+00  0.1287E+00
    -15.829  0.0000E+00  0.1287E+00
    -15.721  0.0000E+00  0.1287E+00
    -15.613  0.0000E+00  0.1287E+00
    -15.505  0.0000E+00  0.1287E+00
    -15.397  0.0000E+00  0.1287E+00
    -15.289  0.0000E+00  0.1287E+00
    -15.181  0.0000E+00  0.1287E+00
    -15.072  0.0000E+00  0.1287E+00
    -14.964  0.0000E+00  0.1287E+00
    -14.856  0.0000E+00  0.1287E+00
    -14.748  0.0000E+00  0.1287E+00
    -14.640  0.0000E+00  0.1287E+00
    -14.532  0.0000E+00  0.1287E+00
    -14.424  0.0000E+00  0.1287E+00
    -14.316  0.0000E+00  0.1287E+00
    -14.208  0.0000E+00  0.1287E+00
    -14.099  0.0000E+00  0.1287E+00
    -13.991  0.0000E+00  0.1287E+00
    -13.883  0.0000E+00  0.1287E+00
    -13.775  0.0000E+00  0.1287E+00
    -13.667  0.0000E+00  0.1287E+00
    -13.559  0.0000E+00  0.1287E+00
    -13.451  0.0000E+00  0.1287E+00
    -13.343  0.0000E+00  0.1287E+00
    -13.235  0.0000E+00  0.1287E+00
    -13.126  0.0000E+00  0.1287E+00
    -13.018  0.0000E+00  0.1287E+00
    -12.910  0.0000E+00  0.1287E+00
    -12.802  0.0000E+00  0.1287E+00
    -12.694  0.0000E+00  0.1287E+00
    -12.586  0.0000E+00  0.1287E+00
    -12.478  0.0000E+00  0.1287E+00
    -12.370  0.0000E+00  0.1287E+00
    -12.262  0.0000E+00  0.1287E+00
    -12.153  0.0000E+00  0.1287E+00
    -12.045  0.0000E+00  0.1287E+00
    -11.937  0.0000E+00  0.1287E+00
    -11.829  0.0000E+00  0.1287E+00
    -11.721  0.0000E+00  0.1287E+00
    -11.613  0.0000E+00  0.1287E+00
    -11.505  0.0000E+00  0.1287E+00
    -11.397  0.1224E-17  0.1287E+00
    -11.289  0.8644E-09  0.1287E+00
    -11.180  0.7478E-04  0.1287E+00
    -11.072  0.2927E-02  0.1290E+00
    -10.964  0.1921E-01  0.1311E+00
    -10.856  0.4111E-01  0.1355E+00
    -10.748  0.3181E-01  0.1390E+00
    -10.640  0.3764E-01  0.1430E+00
    -10.532  0.4519E-01  0.1479E+00
    -10.424  0.1711E-01  0.1498E+00
    -10.315  0.2453E-01  0.1524E+00
    -10.207  0.1337E+00  0.1669E+00
    -10.099  0.5318E-01  0.1726E+00
     -9.991  0.1521E+00  0.1891E+00
     -9.883  0.3650E-01  0.1930E+00
     -9.775  0.2342E-04  0.1930E+00
     -9.667  0.4743E-11  0.1930E+00
     -9.559  0.0000E+00  0.1930E+00
     -9.451  0.0000E+00  0.1930E+00
     -9.342  0.0000E+00  0.1930E+00
     -9.234  0.0000E+00  0.1930E+00
     -9.126  0.0000E+00  0.1930E+00
     -9.018  0.0000E+00  0.1930E+00
     -8.910  0.0000E+00  0.1930E+00
     -8.802  0.0000E+00  0.1930E+00
     -8.694  0.0000E+00  0.1930E+00
     -8.586  0.0000E+00  0.1930E+00
     -8.478  0.0000E+00  0.1930E+00
     -8.369  0.0000E+00  0.1930E+00
     -8.261  0.0000E+00  0.1930E+00
     -8.153  0.0000E+00  0.1930E+00
     -8.045  0.0000E+00  0.1930E+00
     -7.937  0.0000E+00  0.1930E+00
     -7.829  0.0000E+00  0.1930E+00
     -7.721  0.0000E+00  0.1930E+00
     -7.613  0.0000E+00  0.1930E+00
     -7.505  0.0000E+00  0.1930E+00
     -7.396  0.0000E+00  0.1930E+00
     -7.288  0.0000E+00  0.1930E+00
     -7.180  0.0000E+00  0.1930E+00
     -7.072  0.0000E+00  0.1930E+00
     -6.964  0.0000E+00  0.1930E+00
     -6.856  0.0000E+00  0.1930E+00
     -6.748  0.0000E+00  0.1930E+00
     -6.640  0.0000E+00  0.1930E+00
     -6.532  0.0000E+00  0.1930E+00
     -6.423  0.0000E+00  0.1930E+00
     -6.315  0.0000E+00  0.1930E+00
     -6.207  0.0000E+00  0.1930E+00
     -6.099  0.0000E+00  0.1930E+00
     -5.991  0.0000E+00  0.1930E+00
     -5.883  0.0000E+00  0.1930E+00
     -5.775  0.0000E+00  0.1930E+00
     -5.667  0.0000E+00  0.1930E+00
     -5.559  0.0000E+00  0.1930E+00
     -5.450  0.0000E+00  0.1930E+00
     -5.342  0.4053E-11  0.1930E+00
     -5.234  0.2111E-04  0.1930E+00
     -5.126  0.2348E-01  0.1956E+00
     -5.018  0.1435E+00  0.2111E+00
     -4.910  0.3339E+00  0.2472E+00
     -4.802  0.2212E+00  0.2711E+00
     -4.694  0.3791E+00  0.3121E+00
     -4.586  0.4794E+00  0.3639E+00
     -4.477  0.2427E+00  0.3901E+00
     -4.369  0.1517E+00  0.4065E+00
     -4.261  0.8871E-02  0.4075E+00
     -4.153  0.8114E-06  0.4075E+00
     -4.045  0.1914E-12  0.4075E+00
     -3.937  0.1992E-05  0.4075E+00
     -3.829  0.3881E-02  0.4079E+00
     -3.721  0.1019E-01  0.4090E+00
     -3.612  0.1863E-01  0.4110E+00
     -3.504  0.2307E-01  0.4135E+00
     -3.396  0.3010E-01  0.4168E+00
     -3.288  0.1462E-01  0.4184E+00
     -3.180  0.1669E-01  0.4202E+00
     -3.072  0.4264E-02  0.4206E+00
     -2.964  0.2539E-01  0.4234E+00
     -2.856  0.2869E-01  0.4265E+00
     -2.748  0.5046E-02  0.4270E+00
     -2.639  0.1387E-01  0.4285E+00
     -2.531  0.2188E-01  0.4309E+00
     -2.423  0.4835E-01  0.4361E+00
     -2.315  0.2644E-01  0.4390E+00
     -2.207  0.6042E-02  0.4396E+00
     -2.099  0.2031E-01  0.4418E+00
     -1.991  0.2496E-01  0.4445E+00
     -1.883  0.9074E-02  0.4455E+00
     -1.775  0.1341E-01  0.4470E+00
     -1.666  0.2749E-01  0.4499E+00
     -1.558  0.2586E-01  0.4527E+00
     -1.450  0.4646E-01  0.4577E+00
     -1.342  0.4321E-01  0.4624E+00
     -1.234  0.2504E-01  0.4651E+00
     -1.126  0.4383E-01  0.4699E+00
     -1.018  0.5916E-01  0.4763E+00
     -0.910  0.5561E-01  0.4823E+00
     -0.802  0.4845E-01  0.4875E+00
     -0.693  0.3316E-01  0.4911E+00
     -0.585  0.6307E-01  0.4979E+00
     -0.477  0.3574E-01  0.5018E+00
     -0.369  0.4881E-01  0.5071E+00
     -0.261  0.6581E-01  0.5142E+00
     -0.153  0.3174E-01  0.5176E+00
     -0.045  0.6668E-01  0.5248E+00
      0.063  0.5490E-01  0.5307E+00
      0.171  0.7560E-01  0.5389E+00
      0.280  0.9099E-01  0.5488E+00
      0.388  0.7381E-01  0.5567E+00
      0.496  0.7326E-01  0.5647E+00
      0.604  0.8747E-01  0.5741E+00
      0.712  0.7505E-01  0.5822E+00
      0.820  0.7459E-01  0.5903E+00
      0.928  0.5971E-01  0.5967E+00
      1.036  0.2739E-01  0.5997E+00
      1.144  0.4600E-02  0.6002E+00
      1.253  0.3035E-02  0.6005E+00
      1.361  0.9509E-05  0.6005E+00
      1.469  0.6122E-11  0.6005E+00
      1.577  0.0000E+00  0.6005E+00
      1.685  0.0000E+00  0.6005E+00
      1.793  0.0000E+00  0.6005E+00
      1.901  0.0000E+00  0.6005E+00
      2.009  0.0000E+00  0.6005E+00
      2.117  0.0000E+00  0.6005E+00
      2.226  0.0000E+00  0.6005E+00
      2.334  0.0000E+00  0.6005E+00
      2.442  0.0000E+00  0.6005E+00
      2.550  0.0000E+00  0.6005E+00
      2.658  0.0000E+00  0.6005E+00
      2.766  0.0000E+00  0.6005E+00
      2.874  0.0000E+00  0.6005E+00
      2.982  0.2966E-13  0.6005E+00
      3.091  0.3795E-06  0.6005E+00
      3.199  0.7743E-03  0.6006E+00
      3.307  0.1962E-02  0.6008E+00
      3.415  0.1818E-04  0.6008E+00
      3.523  0.4255E-10  0.6008E+00
      3.631  0.0000E+00  0.6008E+00
      3.739  0.2539E-13  0.6008E+00
      3.847  0.3920E-06  0.6008E+00
      3.955  0.1145E-02  0.6010E+00
      4.064  0.4384E-02  0.6014E+00
      4.172  0.8749E-02  0.6024E+00
      4.280  0.1261E-01  0.6037E+00
      4.388  0.2231E-01  0.6062E+00
      4.496  0.3350E-01  0.6098E+00
      4.604  0.2209E-01  0.6122E+00
      4.712  0.1487E-01  0.6138E+00
      4.820  0.3089E-01  0.6171E+00
      4.928  0.3893E-01  0.6213E+00
      5.037  0.1432E-01  0.6229E+00
      5.145  0.7385E-02  0.6237E+00
      5.253  0.3896E-01  0.6279E+00
      5.361  0.4259E-01  0.6325E+00
      5.469  0.3872E-01  0.6367E+00
      5.577  0.4019E-01  0.6410E+00
      5.685  0.1134E-01  0.6422E+00
      5.793  0.2922E-02  0.6426E+00
      5.901  0.4397E-01  0.6473E+00
      6.010  0.5315E-01  0.6531E+00
      6.118  0.7888E-01  0.6616E+00
      6.226  0.2714E-01  0.6645E+00
      6.334  0.2193E-01  0.6669E+00
      6.442  0.6605E-01  0.6740E+00
      6.550  0.4597E-01  0.6790E+00
      6.658  0.4190E-01  0.6835E+00
      6.766  0.4245E-01  0.6881E+00
      6.874  0.3055E-01  0.6914E+00
      6.983  0.2760E-01  0.6944E+00
      7.091  0.2388E-01  0.6970E+00
      7.199  0.4444E-01  0.7018E+00
      7.307  0.7012E-01  0.7094E+00
      7.415  0.5749E-01  0.7156E+00
      7.523  0.6994E-01  0.7231E+00
      7.631  0.2211E-01  0.7255E+00
      7.739  0.1850E-01  0.7275E+00
      7.847  0.1545E-01  0.7292E+00
      7.956  0.1239E-03  0.7292E+00
      8.064  0.8747E-09  0.7292E+00
      8.172  0.1224E-17  0.7292E+00
      8.280  0.0000E+00  0.7292E+00
      8.388  0.0000E+00  0.7292E+00
      8.496  0.0000E+00  0.7292E+00
      8.604  0.0000E+00  0.7292E+00
      8.712  0.0000E+00  0.7292E+00
      8.821  0.0000E+00  0.7292E+00
      8.929  0.0000E+00  0.7292E+00
      9.037  0.0000E+00  0.7292E+00
      9.145  0.0000E+00  0.7292E+00
      9.253  0.0000E+00  0.7292E+00
