       N       E                     dE             d eps       ncg     rms          rms(c)
DAV:   1     0.209610331016E+04    0.20961E+04   -0.87089E+04  1648   0.157E+03
DAV:   2     0.269227043764E+03   -0.18269E+04   -0.17549E+04  1632   0.434E+02
DAV:   3    -0.717888869232E+02   -0.34102E+03   -0.32896E+03  1832   0.182E+02
DAV:   4    -0.999278573068E+02   -0.28139E+02   -0.27822E+02  1888   0.486E+01
DAV:   5    -0.101007766067E+03   -0.10799E+01   -0.10761E+01  1904   0.104E+01    0.208E+01
DAV:   6    -0.939039107428E+02    0.71039E+01   -0.13483E+01  2408   0.443E+01    0.167E+01
DAV:   7    -0.942334316761E+02   -0.32952E+00   -0.17671E+01  1864   0.897E+00    0.857E+00
DAV:   8    -0.940985962395E+02    0.13484E+00   -0.13041E+00  2024   0.617E+00    0.277E+00
DAV:   9    -0.941200199279E+02   -0.21424E-01   -0.21055E-01  2016   0.352E+00    0.659E-01
DAV:  10    -0.941225355382E+02   -0.25156E-02   -0.23938E-02  1872   0.802E-01    0.556E-01
DAV:  11    -0.941254530962E+02   -0.29176E-02   -0.54402E-03  1968   0.210E-01    0.320E-01
DAV:  12    -0.941280099517E+02   -0.25569E-02   -0.38075E-03  1728   0.155E-01    0.192E-01
DAV:  13    -0.941279947278E+02    0.15224E-04   -0.12316E-04  1992   0.523E-02    0.604E-02
DAV:  14    -0.941280203376E+02   -0.25610E-04   -0.67135E-05  1808   0.256E-02    0.212E-02
DAV:  15    -0.941280248687E+02   -0.45311E-05   -0.17376E-05  1648   0.121E-02    0.125E-02
DAV:  16    -0.941280246933E+02    0.17539E-06   -0.12942E-06  1104   0.694E-03
   1 F= -.94128025E+02 E0= -.94128025E+02  d E =-.755038E-11
 Found    11 degrees of freedom:
 Adding 6 more for cell shape distortion
       N       E                     dE             d eps       ncg     rms          rms(c)
DAV:   1    -0.960823619181E+02   -0.19543E+01   -0.52425E+01  2720   0.429E+01    0.113E+01
DAV:   2    -0.944472164169E+02    0.16351E+01   -0.83600E+00  2672   0.212E+01    0.508E+00
DAV:   3    -0.941187186481E+02    0.32850E+00   -0.57524E-01  2496   0.412E+00    0.269E+00
DAV:   4    -0.940083911831E+02    0.11033E+00   -0.13469E-01  2744   0.367E+00    0.977E-01
DAV:   5    -0.940036126846E+02    0.47785E-02   -0.48121E-02  2624   0.223E+00    0.463E-01
DAV:   6    -0.940047857616E+02   -0.11731E-02   -0.23534E-02  2528   0.906E-01    0.245E-01
DAV:   7    -0.940050331902E+02   -0.24743E-03   -0.44301E-03  2440   0.708E-01    0.104E-01
DAV:   8    -0.940050609041E+02   -0.27714E-04   -0.69854E-04  2448   0.298E-01    0.540E-02
DAV:   9    -0.940050944527E+02   -0.33549E-04   -0.28828E-04  2632   0.751E-02    0.282E-02
DAV:  10    -0.940051028413E+02   -0.83886E-05   -0.99513E-05  2544   0.861E-02    0.166E-02
DAV:  11    -0.940051029498E+02   -0.10853E-06   -0.64439E-06  2128   0.482E-02
   2 F= -.94005103E+02 E0= -.94005103E+02  d E =-.677617E-16
       N       E                     dE             d eps       ncg     rms          rms(c)
DAV:   1    -0.945927806272E+02   -0.58768E+00   -0.18626E+01  2640   0.215E+01    0.568E+00
DAV:   2    -0.941957061556E+02    0.39707E+00   -0.22779E+00  2632   0.125E+01    0.252E+00
DAV:   3    -0.941195842413E+02    0.76122E-01   -0.18568E-01  2560   0.259E+00    0.127E+00
DAV:   4    -0.940968203120E+02    0.22764E-01   -0.36609E-02  2672   0.184E+00    0.593E-01
DAV:   5    -0.940952643569E+02    0.15560E-02   -0.12108E-02  2600   0.117E+00    0.278E-01
DAV:   6    -0.940953909459E+02   -0.12659E-03   -0.57749E-03  2672   0.600E-01    0.951E-02
DAV:   7    -0.940954891398E+02   -0.98194E-04   -0.16886E-03  2432   0.383E-01    0.488E-02
DAV:   8    -0.940955068021E+02   -0.17662E-04   -0.27721E-04  2400   0.147E-01    0.271E-02
DAV:   9    -0.940955125875E+02   -0.57854E-05   -0.73689E-05  2184   0.789E-02    0.105E-02
DAV:  10    -0.940955137209E+02   -0.11333E-05   -0.21826E-05  2216   0.468E-02    0.360E-03
DAV:  11    -0.940955141736E+02   -0.45273E-06   -0.66278E-06  1888   0.962E-03
   3 F= -.94095514E+02 E0= -.94095514E+02  d E =-.125801E-17
       N       E                     dE             d eps       ncg     rms          rms(c)
DAV:   1    -0.962554430696E+02   -0.21599E+01   -0.48267E+01  2720   0.396E+01    0.117E+01
DAV:   2    -0.945230113963E+02    0.17324E+01   -0.86149E+00  2608   0.271E+01    0.513E+00
DAV:   3    -0.941985117352E+02    0.32450E+00   -0.72735E-01  2584   0.473E+00    0.257E+00
DAV:   4    -0.941036812096E+02    0.94831E-01   -0.14435E-01  2672   0.331E+00    0.132E+00
DAV:   5    -0.940959694753E+02    0.77117E-02   -0.46375E-02  2616   0.251E+00    0.625E-01
DAV:   6    -0.940957206377E+02    0.24884E-03   -0.22133E-02  2784   0.129E+00    0.174E-01
DAV:   7    -0.940962814264E+02   -0.56079E-03   -0.78926E-03  2384   0.697E-01    0.107E-01
DAV:   8    -0.940963397230E+02   -0.58297E-04   -0.10656E-03  2640   0.290E-01    0.568E-02
DAV:   9    -0.940963598991E+02   -0.20176E-04   -0.24685E-04  2200   0.194E-01    0.232E-02
DAV:  10    -0.940963638113E+02   -0.39122E-05   -0.81280E-05  2472   0.898E-02    0.666E-03
DAV:  11    -0.940963660032E+02   -0.21919E-05   -0.25190E-05  2304   0.189E-02    0.578E-03
DAV:  12    -0.940963662679E+02   -0.26471E-06   -0.26850E-06  1656   0.780E-03
   4 F= -.94096366E+02 E0= -.94096366E+02  d E =-.389968E-19
       N       E                     dE             d eps       ncg     rms          rms(c)
DAV:   1    -0.945346781175E+02   -0.43831E+00   -0.20751E+01  2624   0.226E+01    0.604E+00
DAV:   2    -0.941099315256E+02    0.42475E+00   -0.26439E+00  2584   0.138E+01    0.267E+00
DAV:   3    -0.940267459075E+02    0.83186E-01   -0.19503E-01  2544   0.244E+00    0.136E+00
DAV:   4    -0.939990953205E+02    0.27651E-01   -0.39566E-02  2664   0.169E+00    0.650E-01
DAV:   5    -0.939970981194E+02    0.19972E-02   -0.13282E-02  2584   0.131E+00    0.299E-01
DAV:   6    -0.939971314094E+02   -0.33290E-04   -0.58798E-03  2736   0.693E-01    0.110E-01
DAV:   7    -0.939972640080E+02   -0.13260E-03   -0.19586E-03  2448   0.376E-01    0.549E-02
DAV:   8    -0.939972865756E+02   -0.22568E-04   -0.31864E-04  2368   0.141E-01    0.301E-02
DAV:   9    -0.939972916276E+02   -0.50520E-05   -0.79004E-05  2280   0.109E-01    0.140E-02
DAV:  10    -0.939972922121E+02   -0.58442E-06   -0.23049E-05  2256   0.530E-02    0.425E-03
DAV:  11    -0.939972925779E+02   -0.36588E-06   -0.72132E-06  1888   0.127E-02
   5 F= -.93997293E+02 E0= -.93997293E+02  d E =-.168216E-17
       N       E                     dE             d eps       ncg     rms          rms(c)
DAV:   1    -0.101027065964E+03   -0.70298E+01   -0.16159E+02  2784   0.860E+01    0.200E+01
DAV:   2    -0.952476037283E+02    0.57795E+01   -0.25164E+01  2624   0.368E+01    0.847E+00
DAV:   3    -0.943335318210E+02    0.91407E+00   -0.20072E+00  2512   0.518E+00    0.451E+00
DAV:   4    -0.940231527341E+02    0.31038E+00   -0.30671E-01  2376   0.249E+00    0.131E+00
DAV:   5    -0.940037726686E+02    0.19380E-01   -0.73122E-02  3144   0.293E+00    0.619E-01
DAV:   6    -0.940046516542E+02   -0.87899E-03   -0.37245E-02  2696   0.185E+00    0.275E-01
DAV:   7    -0.940049840306E+02   -0.33238E-03   -0.99884E-03  2448   0.801E-01    0.165E-01
DAV:   8    -0.940051034281E+02   -0.11940E-03   -0.20349E-03  2512   0.192E-01    0.828E-02
DAV:   9    -0.940050926433E+02    0.10785E-04   -0.18294E-04  2880   0.200E-01    0.273E-02
DAV:  10    -0.940051020972E+02   -0.94539E-05   -0.12946E-04  2552   0.552E-02    0.163E-02
DAV:  11    -0.940051033359E+02   -0.12387E-05   -0.10368E-05  2712   0.141E-02    0.902E-03
DAV:  12    -0.940051036627E+02   -0.32676E-06   -0.29403E-06  1888   0.156E-02
   6 F= -.94005104E+02 E0= -.94005104E+02  d E =-.751396E-16
       N       E                     dE             d eps       ncg     rms          rms(c)
DAV:   1    -0.945927039609E+02   -0.58760E+00   -0.18683E+01  2632   0.215E+01    0.567E+00
DAV:   2    -0.941955931228E+02    0.39711E+00   -0.22713E+00  2608   0.125E+01    0.252E+00
DAV:   3    -0.941195454631E+02    0.76048E-01   -0.18719E-01  2568   0.255E+00    0.126E+00
DAV:   4    -0.940968300368E+02    0.22715E-01   -0.36393E-02  2720   0.180E+00    0.592E-01
DAV:   5    -0.940952701153E+02    0.15599E-02   -0.11883E-02  2608   0.116E+00    0.276E-01
DAV:   6    -0.940953914418E+02   -0.12133E-03   -0.56754E-03  2704   0.598E-01    0.942E-02
DAV:   7    -0.940954891554E+02   -0.97714E-04   -0.16571E-03  2408   0.374E-01    0.487E-02
DAV:   8    -0.940955070298E+02   -0.17874E-04   -0.27059E-04  2400   0.143E-01    0.270E-02
DAV:   9    -0.940955125735E+02   -0.55438E-05   -0.71785E-05  2200   0.816E-02    0.103E-02
DAV:  10    -0.940955137119E+02   -0.11384E-05   -0.21155E-05  2208   0.454E-02    0.360E-03
DAV:  11    -0.940955141560E+02   -0.44411E-06   -0.64962E-06  1880   0.934E-03
   7 F= -.94095514E+02 E0= -.94095514E+02  d E =-.122843E-17
       N       E                     dE             d eps       ncg     rms          rms(c)
DAV:   1    -0.962555608783E+02   -0.21600E+01   -0.48329E+01  2736   0.396E+01    0.117E+01
DAV:   2    -0.945230069829E+02    0.17326E+01   -0.86190E+00  2616   0.271E+01    0.513E+00
DAV:   3    -0.941986167522E+02    0.32439E+00   -0.72548E-01  2608   0.475E+00    0.257E+00
DAV:   4    -0.941035926228E+02    0.95024E-01   -0.14398E-01  2672   0.332E+00    0.132E+00
DAV:   5    -0.940959595728E+02    0.76331E-02   -0.46287E-02  2632   0.250E+00    0.625E-01
DAV:   6    -0.940957232823E+02    0.23629E-03   -0.22096E-02  2784   0.129E+00    0.175E-01
DAV:   7    -0.940962804013E+02   -0.55712E-03   -0.78564E-03  2376   0.700E-01    0.106E-01
DAV:   8    -0.940963396774E+02   -0.59276E-04   -0.10716E-03  2632   0.290E-01    0.567E-02
DAV:   9    -0.940963598805E+02   -0.20203E-04   -0.24857E-04  2208   0.194E-01    0.231E-02
DAV:  10    -0.940963637891E+02   -0.39086E-05   -0.81452E-05  2472   0.902E-02    0.660E-03
DAV:  11    -0.940963659903E+02   -0.22012E-05   -0.25186E-05  2336   0.189E-02    0.578E-03
DAV:  12    -0.940963662517E+02   -0.26144E-06   -0.26681E-06  1656   0.785E-03
   8 F= -.94096366E+02 E0= -.94096366E+02  d E =-.389866E-19
       N       E                     dE             d eps       ncg     rms          rms(c)
DAV:   1    -0.945345136405E+02   -0.43815E+00   -0.20716E+01  2640   0.226E+01    0.605E+00
DAV:   2    -0.941098583244E+02    0.42466E+00   -0.26482E+00  2592   0.138E+01    0.267E+00
DAV:   3    -0.940267727786E+02    0.83086E-01   -0.19585E-01  2560   0.243E+00    0.136E+00
DAV:   4    -0.939991453044E+02    0.27627E-01   -0.39662E-02  2656   0.167E+00    0.655E-01
DAV:   5    -0.939971072184E+02    0.20381E-02   -0.13255E-02  2624   0.131E+00    0.301E-01
DAV:   6    -0.939971298392E+02   -0.22621E-04   -0.58698E-03  2728   0.700E-01    0.109E-01
DAV:   7    -0.939972643741E+02   -0.13453E-03   -0.19791E-03  2488   0.374E-01    0.553E-02
DAV:   8    -0.939972867266E+02   -0.22353E-04   -0.31935E-04  2360   0.140E-01    0.303E-02
DAV:   9    -0.939972916348E+02   -0.49081E-05   -0.78930E-05  2296   0.112E-01    0.140E-02
DAV:  10    -0.939972922075E+02   -0.57270E-06   -0.23106E-05  2264   0.530E-02    0.426E-03
DAV:  11    -0.939972925609E+02   -0.35338E-06   -0.72101E-06  1896   0.129E-02
   9 F= -.93997293E+02 E0= -.93997293E+02  d E =-.168089E-17
       N       E                     dE             d eps       ncg     rms          rms(c)
DAV:   1    -0.100804863269E+03   -0.68076E+01   -0.14441E+02  2080   0.842E+01    0.197E+01
DAV:   2    -0.951464322881E+02    0.56584E+01   -0.22397E+01  1992   0.347E+01    0.843E+00
DAV:   3    -0.942415932686E+02    0.90484E+00   -0.18684E+00  2024   0.524E+00    0.439E+00
DAV:   4    -0.939568617150E+02    0.28473E+00   -0.24173E-01  1800   0.215E+00    0.137E+00
DAV:   5    -0.939322998844E+02    0.24562E-01   -0.51992E-02  2424   0.192E+00    0.601E-01
DAV:   6    -0.939339673813E+02   -0.16675E-02   -0.43570E-02  1976   0.124E+00    0.279E-01
DAV:   7    -0.939334550855E+02    0.51230E-03   -0.64840E-03  2000   0.523E-01    0.883E-02
DAV:   8    -0.939336192396E+02   -0.16415E-03   -0.83720E-04  2016   0.130E-01    0.598E-02
DAV:   9    -0.939337452021E+02   -0.12596E-03   -0.22685E-04  2176   0.828E-02    0.160E-02
DAV:  10    -0.939337641202E+02   -0.18918E-04   -0.60190E-05  1848   0.281E-02    0.977E-03
DAV:  11    -0.939338080144E+02   -0.43894E-04   -0.93755E-06  1784   0.186E-02    0.514E-03
DAV:  12    -0.939338184063E+02   -0.10392E-04   -0.57031E-06  1608   0.901E-03    0.328E-03
DAV:  13    -0.939338428734E+02   -0.24467E-04   -0.18254E-06  1312   0.100E-02    0.290E-03
DAV:  14    -0.939338535101E+02   -0.10637E-04   -0.25385E-06  1264   0.698E-03    0.190E-03
DAV:  15    -0.939338558570E+02   -0.23469E-05   -0.11703E-06   960   0.615E-03    0.192E-03
DAV:  16    -0.939338577997E+02   -0.19426E-05   -0.47955E-07   960   0.413E-03    0.893E-04
DAV:  17    -0.939338579962E+02   -0.19651E-06   -0.21050E-07   960   0.167E-03
  10 F= -.93933858E+02 E0= -.93933858E+02  d E =-.901956E-19
       N       E                     dE             d eps       ncg     rms          rms(c)
DAV:   1    -0.945881213917E+02   -0.65426E+00   -0.12801E+01  2024   0.196E+01    0.568E+00
DAV:   2    -0.941877063004E+02    0.40042E+00   -0.21020E+00  1960   0.120E+01    0.255E+00
DAV:   3    -0.940984993561E+02    0.89207E-01   -0.14264E-01  1832   0.168E+00    0.126E+00
DAV:   4    -0.940737259844E+02    0.24773E-01   -0.35378E-02  1912   0.698E-01    0.594E-01
DAV:   5    -0.940719504113E+02    0.17756E-02   -0.92143E-03  1896   0.359E-01    0.198E-01
DAV:   6    -0.940718237707E+02    0.12664E-03   -0.10429E-03  1968   0.142E-01    0.882E-02
DAV:   7    -0.940718461571E+02   -0.22386E-04   -0.27014E-04  1848   0.677E-02    0.374E-02
DAV:   8    -0.940718458326E+02    0.32458E-06   -0.11577E-05  1752   0.160E-02    0.149E-02
DAV:   9    -0.940718459443E+02   -0.11173E-06   -0.51224E-06  1512   0.716E-03
  11 F= -.94071846E+02 E0= -.94071846E+02  d E =-.186298E-19
       N       E                     dE             d eps       ncg     rms          rms(c)
DAV:   1    -0.962258709595E+02   -0.21540E+01   -0.52696E+01  2024   0.397E+01    0.118E+01
DAV:   2    -0.945637113173E+02    0.16622E+01   -0.89114E+00  1952   0.265E+01    0.531E+00
DAV:   3    -0.942030217757E+02    0.36069E+00   -0.71319E-01  1920   0.404E+00    0.259E+00
DAV:   4    -0.941023702622E+02    0.10065E+00   -0.15028E-01  1952   0.146E+00    0.138E+00
DAV:   5    -0.940926156511E+02    0.97546E-02   -0.37998E-02  1960   0.720E-01    0.458E-01
DAV:   6    -0.940915529567E+02    0.10627E-02   -0.44856E-03  2024   0.316E-01    0.194E-01
DAV:   7    -0.940916635203E+02   -0.11056E-03   -0.12469E-03  1848   0.149E-01    0.542E-02
DAV:   8    -0.940916668152E+02   -0.32949E-05   -0.11645E-04  1880   0.712E-02    0.359E-02
DAV:   9    -0.940916639148E+02    0.29004E-05   -0.37207E-05  2136   0.345E-02    0.949E-03
DAV:  10    -0.940916642272E+02   -0.31244E-06   -0.44392E-06  1584   0.122E-02
  12 F= -.94091664E+02 E0= -.94091664E+02  d E =-.273667E-14
       N       E                     dE             d eps       ncg     rms          rms(c)
DAV:   1    -0.945057279511E+02   -0.41406E+00   -0.13834E+01  2040   0.210E+01    0.598E+00
DAV:   2    -0.940795969275E+02    0.42613E+00   -0.23302E+00  1960   0.130E+01    0.273E+00
DAV:   3    -0.939820516968E+02    0.97545E-01   -0.15519E-01  1864   0.184E+00    0.134E+00
DAV:   4    -0.939543016650E+02    0.27750E-01   -0.39416E-02  1880   0.739E-01    0.650E-01
DAV:   5    -0.939522231117E+02    0.20786E-02   -0.10467E-02  1896   0.382E-01    0.223E-01
DAV:   6    -0.939520169325E+02    0.20618E-03   -0.10668E-03  2032   0.163E-01    0.105E-01
DAV:   7    -0.939520476751E+02   -0.30743E-04   -0.40033E-04  1840   0.838E-02    0.411E-02
DAV:   8    -0.939520475216E+02    0.15349E-06   -0.13579E-05  1832   0.166E-02    0.204E-02
DAV:   9    -0.939520471856E+02    0.33595E-06   -0.76566E-06  1800   0.927E-03
  13 F= -.93952047E+02 E0= -.93952047E+02  d E =-.247321E-18
       N       E                     dE             d eps       ncg     rms          rms(c)
DAV:   1    -0.967492009243E+02   -0.27972E+01   -0.76874E+01  3352   0.476E+01    0.130E+01
DAV:   2    -0.948042629123E+02    0.19449E+01   -0.11030E+01  3328   0.236E+01    0.623E+00
DAV:   3    -0.942595087467E+02    0.54475E+00   -0.69079E-01  3120   0.389E+00    0.333E+00
DAV:   4    -0.940697008198E+02    0.18981E+00   -0.26850E-01  3200   0.300E+00    0.105E+00
DAV:   5    -0.940665908310E+02    0.31100E-02   -0.92485E-02  3280   0.244E+00    0.581E-01
DAV:   6    -0.940677864254E+02   -0.11956E-02   -0.30780E-02  3296   0.156E+00    0.329E-01
DAV:   7    -0.940679860325E+02   -0.19961E-03   -0.63939E-03  3264   0.741E-01    0.145E-01
DAV:   8    -0.940681578250E+02   -0.17179E-03   -0.19503E-03  3080   0.224E-01    0.819E-02
DAV:   9    -0.940681767675E+02   -0.18943E-04   -0.31904E-04  3120   0.158E-01    0.372E-02
DAV:  10    -0.940681831510E+02   -0.63835E-05   -0.67421E-05  3056   0.561E-02    0.193E-02
DAV:  11    -0.940681843234E+02   -0.11724E-05   -0.13648E-05  3072   0.216E-02    0.112E-02
DAV:  12    -0.940681859805E+02   -0.16571E-05   -0.68883E-06  3048   0.275E-02    0.704E-03
DAV:  13    -0.940681859715E+02    0.90149E-08   -0.10554E-06  1600   0.112E-02
  14 F= -.94068186E+02 E0= -.94068186E+02  d E =-.810538E-18
       N       E                     dE             d eps       ncg     rms          rms(c)
DAV:   1    -0.942314509767E+02   -0.16326E+00   -0.11349E+01  2784   0.105E+01    0.258E+00
DAV:   2    -0.941624325659E+02    0.69018E-01   -0.37035E-01  3088   0.313E+00    0.149E+00
DAV:   3    -0.941160520383E+02    0.46381E-01   -0.58145E-02  3528   0.169E+00    0.597E-01
DAV:   4    -0.941124006762E+02    0.36514E-02   -0.31796E-02  3360   0.119E+00    0.293E-01
DAV:   5    -0.941128635882E+02   -0.46291E-03   -0.91076E-03  3152   0.776E-01    0.239E-01
DAV:   6    -0.941128084507E+02    0.55137E-04   -0.21964E-03  3600   0.404E-01    0.845E-02
DAV:   7    -0.941128376713E+02   -0.29221E-04   -0.54981E-04  3544   0.214E-01    0.554E-02
DAV:   8    -0.941128491435E+02   -0.11472E-04   -0.12204E-04  3072   0.800E-02    0.334E-02
DAV:   9    -0.941128508735E+02   -0.17300E-05   -0.27177E-05  2984   0.270E-02    0.883E-03
DAV:  10    -0.941128514822E+02   -0.60872E-06   -0.52818E-06  2592   0.161E-02
  15 F= -.94112851E+02 E0= -.94112851E+02  d E =-.294980E-19
       N       E                     dE             d eps       ncg     rms          rms(c)
DAV:   1    -0.946508736849E+02   -0.53802E+00   -0.16101E+01  2968   0.126E+01    0.536E+00
DAV:   2    -0.943221481220E+02    0.32873E+00   -0.79926E-01  3112   0.496E+00    0.298E+00
DAV:   3    -0.941360364633E+02    0.18611E+00   -0.15146E-01  3496   0.241E+00    0.133E+00
DAV:   4    -0.941114119630E+02    0.24625E-01   -0.11732E-01  3320   0.157E+00    0.393E-01
DAV:   5    -0.941128371551E+02   -0.14252E-02   -0.28819E-02  3080   0.128E+00    0.370E-01
DAV:   6    -0.941126955980E+02    0.14156E-03   -0.75340E-03  3752   0.783E-01    0.128E-01
DAV:   7    -0.941128030012E+02   -0.10740E-03   -0.15229E-03  3232   0.334E-01    0.980E-02
DAV:   8    -0.941128489409E+02   -0.45940E-04   -0.42287E-04  2880   0.814E-02    0.459E-02
DAV:   9    -0.941128492189E+02   -0.27797E-06   -0.22385E-05  3032   0.221E-02    0.276E-02
DAV:  10    -0.941128511950E+02   -0.19761E-05   -0.55032E-06  2560   0.131E-02    0.626E-03
DAV:  11    -0.941128514686E+02   -0.27361E-06   -0.26209E-06  2368   0.851E-03
  16 F= -.94112851E+02 E0= -.94112851E+02  d E =-.357509E-19
       N       E                     dE             d eps       ncg     rms          rms(c)
DAV:   1    -0.941801749633E+02   -0.67324E-01   -0.12729E+01  2744   0.103E+01    0.279E+00
DAV:   2    -0.941202490280E+02    0.59926E-01   -0.41100E-01  3128   0.314E+00    0.152E+00
DAV:   3    -0.940777856096E+02    0.42463E-01   -0.37382E-02  3496   0.123E+00    0.795E-01
DAV:   4    -0.940675164961E+02    0.10269E-01   -0.30213E-02  3408   0.104E+00    0.198E-01
DAV:   5    -0.940681044669E+02   -0.58797E-03   -0.10476E-02  3088   0.820E-01    0.192E-01
DAV:   6    -0.940681489417E+02   -0.44475E-04   -0.24379E-03  3392   0.332E-01    0.903E-02
DAV:   7    -0.940681759554E+02   -0.27014E-04   -0.41085E-04  3384   0.192E-01    0.392E-02
DAV:   8    -0.940681832899E+02   -0.73345E-05   -0.86594E-05  2912   0.867E-02    0.160E-02
DAV:   9    -0.940681855793E+02   -0.22894E-05   -0.26806E-05  2744   0.242E-02    0.115E-02
DAV:  10    -0.940681857855E+02   -0.20618E-06   -0.19543E-06  1928   0.136E-02
  17 F= -.94068186E+02 E0= -.94068186E+02  d E =-.302472E-18
       N       E                     dE             d eps       ncg     rms          rms(c)
DAV:   1    -0.950193976174E+02   -0.95121E+00   -0.38649E+01  2176   0.202E+01    0.703E+00
DAV:   2    -0.945011482160E+02    0.51825E+00   -0.18017E+00  2512   0.832E+00    0.411E+00
DAV:   3    -0.941443223597E+02    0.35683E+00   -0.31943E-01  2704   0.532E+00    0.177E+00
DAV:   4    -0.940782890388E+02    0.66033E-01   -0.19912E-01  2752   0.327E+00    0.458E-01
DAV:   5    -0.940797371641E+02   -0.14481E-02   -0.75833E-02  2528   0.159E+00    0.449E-01
DAV:   6    -0.940787671621E+02    0.97000E-03   -0.14479E-02  2800   0.977E-01    0.169E-01
DAV:   7    -0.940781705240E+02    0.59664E-03   -0.27899E-03  2880   0.577E-01    0.954E-02
DAV:   8    -0.940779944910E+02    0.17603E-03   -0.13552E-03  2744   0.252E-01    0.719E-02
DAV:   9    -0.940779025776E+02    0.91913E-04   -0.42577E-04  2872   0.940E-02    0.408E-02
DAV:  10    -0.940778747381E+02    0.27840E-04   -0.12361E-04  2696   0.105E-01    0.129E-02
DAV:  11    -0.940778550093E+02    0.19729E-04   -0.32365E-05  2640   0.326E-02    0.877E-03
DAV:  12    -0.940778493898E+02    0.56195E-05   -0.14625E-05  2632   0.241E-02    0.752E-03
DAV:  13    -0.940778477098E+02    0.16800E-05   -0.44746E-06  1688   0.187E-02    0.340E-03
DAV:  14    -0.940778470684E+02    0.64147E-06   -0.18733E-06  1576   0.670E-03
  18 F= -.94077847E+02 E0= -.94077847E+02  d E =-.707029E-11
       N       E                     dE             d eps       ncg     rms          rms(c)
DAV:   1    -0.942132108828E+02   -0.13536E+00   -0.76234E+00  2240   0.900E+00    0.258E+00
DAV:   2    -0.941549879207E+02    0.58223E-01   -0.26567E-01  2536   0.356E+00    0.148E+00
DAV:   3    -0.941200875091E+02    0.34900E-01   -0.52144E-02  2800   0.221E+00    0.690E-01
DAV:   4    -0.941149837023E+02    0.51038E-02   -0.23071E-02  2832   0.117E+00    0.201E-01
DAV:   5    -0.941153054540E+02   -0.32175E-03   -0.75894E-03  2496   0.583E-01    0.173E-01
DAV:   6    -0.941152910481E+02    0.14406E-04   -0.20079E-03  2776   0.400E-01    0.628E-02
DAV:   7    -0.941153037839E+02   -0.12736E-04   -0.36109E-04  2680   0.227E-01    0.334E-02
DAV:   8    -0.941153120670E+02   -0.82831E-05   -0.10076E-04  2312   0.474E-02    0.220E-02
DAV:   9    -0.941153141015E+02   -0.20345E-05   -0.11488E-05  2224   0.229E-02    0.871E-03
DAV:  10    -0.941153145219E+02   -0.42040E-06   -0.28456E-06  1824   0.258E-02
  19 F= -.94115315E+02 E0= -.94115315E+02  d E =-.428167E-11
       N       E                     dE             d eps       ncg     rms          rms(c)
DAV:   1    -0.945332339733E+02   -0.41792E+00   -0.16110E+01  2208   0.133E+01    0.525E+00
DAV:   2    -0.942777653231E+02    0.25547E+00   -0.79368E-01  2536   0.654E+00    0.295E+00
DAV:   3    -0.941377060210E+02    0.14006E+00   -0.17609E-01  2816   0.394E+00    0.142E+00
DAV:   4    -0.941140864250E+02    0.23620E-01   -0.86706E-02  2856   0.218E+00    0.362E-01
DAV:   5    -0.941151719532E+02   -0.10855E-02   -0.28219E-02  2488   0.111E+00    0.298E-01
DAV:   6    -0.941152363064E+02   -0.64353E-04   -0.69925E-03  2768   0.710E-01    0.126E-01
DAV:   7    -0.941152797650E+02   -0.43459E-04   -0.11975E-03  2696   0.410E-01    0.701E-02
DAV:   8    -0.941153064929E+02   -0.26728E-04   -0.33202E-04  2416   0.889E-02    0.453E-02
DAV:   9    -0.941153135689E+02   -0.70760E-05   -0.35661E-05  2448   0.324E-02    0.212E-02
DAV:  10    -0.941153145360E+02   -0.96706E-06   -0.11781E-05  2432   0.482E-02    0.993E-03
DAV:  11    -0.941153146257E+02   -0.89694E-07   -0.22073E-06  1576   0.145E-02
  20 F= -.94115315E+02 E0= -.94115315E+02  d E =-.423652E-11
       N       E                     dE             d eps       ncg     rms          rms(c)
DAV:   1    -0.941742276506E+02   -0.58913E-01   -0.80645E+00  2224   0.881E+00    0.268E+00
DAV:   2    -0.941182929550E+02    0.55935E-01   -0.27344E-01  2544   0.361E+00    0.149E+00
DAV:   3    -0.940848131120E+02    0.33480E-01   -0.43369E-02  2824   0.199E+00    0.765E-01
DAV:   4    -0.940774805283E+02    0.73326E-02   -0.21540E-02  2776   0.110E+00    0.182E-01
DAV:   5    -0.940777880754E+02   -0.30755E-03   -0.77061E-03  2504   0.619E-01    0.152E-01
DAV:   6    -0.940778263130E+02   -0.38238E-04   -0.19036E-03  2768   0.353E-01    0.713E-02
DAV:   7    -0.940778406358E+02   -0.14323E-04   -0.35289E-04  2680   0.244E-01    0.336E-02
DAV:   8    -0.940778459094E+02   -0.52737E-05   -0.87874E-05  2288   0.630E-02    0.187E-02
DAV:   9    -0.940778478142E+02   -0.19048E-05   -0.12219E-05  2456   0.301E-02    0.105E-02
DAV:  10    -0.940778485299E+02   -0.71570E-06   -0.88750E-06  1840   0.261E-02
  21 F= -.94077849E+02 E0= -.94077849E+02  d E =-.703131E-11
       N       E                     dE             d eps       ncg     rms          rms(c)
DAV:   1    -0.949355606520E+02   -0.85771E+00   -0.28348E+01  2488   0.172E+01    0.691E+00
DAV:   2    -0.944425499135E+02    0.49301E+00   -0.13380E+00  2552   0.730E+00    0.405E+00
DAV:   3    -0.941178408392E+02    0.32471E+00   -0.27891E-01  2760   0.482E+00    0.156E+00
DAV:   4    -0.940774801276E+02    0.40361E-01   -0.16180E-01  2864   0.275E+00    0.442E-01
DAV:   5    -0.940790498248E+02   -0.15697E-02   -0.54295E-02  2568   0.132E+00    0.415E-01
DAV:   6    -0.940780471521E+02    0.10027E-02   -0.10976E-02  2784   0.971E-01    0.143E-01
DAV:   7    -0.940777294928E+02    0.31766E-03   -0.22612E-03  2832   0.500E-01    0.980E-02
DAV:   8    -0.940776308759E+02    0.98617E-04   -0.10532E-03  2704   0.191E-01    0.709E-02
DAV:   9    -0.940775601706E+02    0.70705E-04   -0.33002E-04  2904   0.132E-01    0.378E-02
DAV:  10    -0.940775356098E+02    0.24561E-04   -0.12779E-04  2904   0.780E-02    0.107E-02
DAV:  11    -0.940775271812E+02    0.84286E-05   -0.45338E-05  2496   0.333E-02    0.102E-02
DAV:  12    -0.940775239084E+02    0.32728E-05   -0.14475E-05  2656   0.296E-02    0.627E-03
DAV:  13    -0.940775219584E+02    0.19500E-05   -0.46595E-06  2160   0.219E-02    0.346E-03
DAV:  14    -0.940775204989E+02    0.14594E-05   -0.38590E-06  1920   0.132E-02    0.339E-03
DAV:  15    -0.940775202687E+02    0.23029E-06   -0.32539E-06  1808   0.134E-02
  22 F= -.94077520E+02 E0= -.94077520E+02  d E =-.724105E-11
       N       E                     dE             d eps       ncg     rms          rms(c)
DAV:   1    -0.942133692763E+02   -0.13585E+00   -0.76119E+00  2256   0.900E+00    0.258E+00
DAV:   2    -0.941549020013E+02    0.58467E-01   -0.26366E-01  2512   0.355E+00    0.148E+00
DAV:   3    -0.941200032195E+02    0.34899E-01   -0.52103E-02  2808   0.219E+00    0.689E-01
DAV:   4    -0.941148995957E+02    0.51036E-02   -0.22787E-02  2768   0.117E+00    0.203E-01
DAV:   5    -0.941152270483E+02   -0.32745E-03   -0.76664E-03  2496   0.596E-01    0.175E-01
DAV:   6    -0.941152161090E+02    0.10939E-04   -0.20488E-03  2776   0.411E-01    0.645E-02
DAV:   7    -0.941152286423E+02   -0.12533E-04   -0.37285E-04  2696   0.233E-01    0.334E-02
DAV:   8    -0.941152374452E+02   -0.88029E-05   -0.10637E-04  2296   0.490E-02    0.228E-02
DAV:   9    -0.941152393323E+02   -0.18871E-05   -0.12402E-05  2256   0.251E-02    0.902E-03
DAV:  10    -0.941152396903E+02   -0.35799E-06   -0.31469E-06  1832   0.274E-02
  23 F= -.94115240E+02 E0= -.94115240E+02  d E =-.426467E-11
       N       E                     dE             d eps       ncg     rms          rms(c)
DAV:   1    -0.945337510155E+02   -0.41851E+00   -0.16103E+01  2224   0.133E+01    0.526E+00
DAV:   2    -0.942776913820E+02    0.25606E+00   -0.78779E-01  2528   0.651E+00    0.295E+00
DAV:   3    -0.941374526003E+02    0.14024E+00   -0.17626E-01  2848   0.393E+00    0.142E+00
DAV:   4    -0.941140140435E+02    0.23439E-01   -0.86107E-02  2832   0.217E+00    0.362E-01
DAV:   5    -0.941150969140E+02   -0.10829E-02   -0.28083E-02  2512   0.111E+00    0.299E-01
DAV:   6    -0.941151611502E+02   -0.64236E-04   -0.70323E-03  2768   0.720E-01    0.126E-01
DAV:   7    -0.941152040243E+02   -0.42874E-04   -0.12059E-03  2712   0.412E-01    0.699E-02
DAV:   8    -0.941152315315E+02   -0.27507E-04   -0.33853E-04  2408   0.875E-02    0.455E-02
DAV:   9    -0.941152384388E+02   -0.69073E-05   -0.33910E-05  2488   0.329E-02    0.212E-02
DAV:  10    -0.941152394679E+02   -0.10291E-05   -0.12099E-05  2416   0.490E-02    0.984E-03
DAV:  11    -0.941152395256E+02   -0.57655E-07   -0.21593E-06  1512   0.146E-02
  24 F= -.94115240E+02 E0= -.94115240E+02  d E =-.421917E-11
       N       E                     dE             d eps       ncg     rms          rms(c)
DAV:   1    -0.941739701787E+02   -0.58731E-01   -0.80732E+00  2232   0.881E+00    0.268E+00
DAV:   2    -0.941179998096E+02    0.55970E-01   -0.27289E-01  2544   0.359E+00    0.148E+00
DAV:   3    -0.940844097815E+02    0.33590E-01   -0.43043E-02  2824   0.199E+00    0.762E-01
DAV:   4    -0.940771535628E+02    0.72562E-02   -0.21617E-02  2752   0.110E+00    0.182E-01
DAV:   5    -0.940774598174E+02   -0.30625E-03   -0.77025E-03  2496   0.622E-01    0.153E-01
DAV:   6    -0.940774973357E+02   -0.37518E-04   -0.19145E-03  2768   0.355E-01    0.722E-02
DAV:   7    -0.940775120694E+02   -0.14734E-04   -0.35683E-04  2680   0.244E-01    0.337E-02
DAV:   8    -0.940775172585E+02   -0.51891E-05   -0.88284E-05  2296   0.639E-02    0.188E-02
DAV:   9    -0.940775192076E+02   -0.19491E-05   -0.12559E-05  2424   0.304E-02    0.106E-02
DAV:  10    -0.940775199437E+02   -0.73616E-06   -0.93414E-06  1888   0.270E-02
  25 F= -.94077520E+02 E0= -.94077520E+02  d E =-.720213E-11
       N       E                     dE             d eps       ncg     rms          rms(c)
DAV:   1    -0.945371209856E+02   -0.45960E+00   -0.20402E+01  2872   0.152E+01    0.518E+00
DAV:   2    -0.942859878335E+02    0.25113E+00   -0.87610E-01  3104   0.652E+00    0.294E+00
DAV:   3    -0.941440655270E+02    0.14192E+00   -0.19807E-01  3464   0.398E+00    0.135E+00
DAV:   4    -0.941246853447E+02    0.19380E-01   -0.87058E-02  3400   0.229E+00    0.373E-01
DAV:   5    -0.941258816047E+02   -0.11963E-02   -0.29213E-02  3136   0.117E+00    0.318E-01
DAV:   6    -0.941259072162E+02   -0.25612E-04   -0.77790E-03  3464   0.778E-01    0.131E-01
DAV:   7    -0.941259517839E+02   -0.44568E-04   -0.13956E-03  3392   0.456E-01    0.739E-02
DAV:   8    -0.941259868569E+02   -0.35073E-04   -0.41792E-04  3136   0.104E-01    0.539E-02
DAV:   9    -0.941259938404E+02   -0.69835E-05   -0.46240E-05  3056   0.454E-02    0.239E-02
DAV:  10    -0.941259951611E+02   -0.13207E-05   -0.16186E-05  3328   0.574E-02    0.106E-02
DAV:  11    -0.941259951400E+02    0.21126E-07   -0.34926E-06  2096   0.200E-02
  26 F= -.94125995E+02 E0= -.94125995E+02  d E =-.746839E-11
       N       E                     dE             d eps       ncg     rms          rms(c)
DAV:   1    -0.941234358206E+02    0.25593E-02   -0.24229E+00  3056   0.215E+00    0.370E-02
DAV:   2    -0.941271231014E+02   -0.36873E-02   -0.36969E-02  2968   0.353E-01    0.139E-02
DAV:   3    -0.941272369382E+02   -0.11384E-03   -0.11626E-03  3384   0.787E-02    0.120E-02
DAV:   4    -0.941272418655E+02   -0.49273E-05   -0.56827E-05  2368   0.283E-02    0.878E-03
DAV:   5    -0.941272419644E+02   -0.98957E-07   -0.54632E-06  2440   0.189E-02
  27 F= -.94127242E+02 E0= -.94127242E+02  d E =-.834221E-11
       N       E                     dE             d eps       ncg     rms          rms(c)
DAV:   1    -0.941240526265E+02    0.31892E-02   -0.27157E+00  2976   0.251E+00    0.907E-02
DAV:   2    -0.941281802911E+02   -0.41277E-02   -0.41684E-02  2936   0.425E-01    0.251E-02
DAV:   3    -0.941283086363E+02   -0.12835E-03   -0.13698E-03  3424   0.898E-02    0.179E-02
DAV:   4    -0.941283149800E+02   -0.63438E-05   -0.77872E-05  3536   0.367E-02    0.124E-02
DAV:   5    -0.941283155872E+02   -0.60722E-06   -0.50952E-06  2472   0.188E-02
  28 F= -.94128316E+02 E0= -.94128316E+02  d E =-.106325E-10
       N       E                     dE             d eps       ncg     rms          rms(c)
DAV:   1    -0.941243386104E+02    0.39764E-02   -0.24235E+00  2984   0.218E+00    0.720E-02
DAV:   2    -0.941279702538E+02   -0.36316E-02   -0.36731E-02  2952   0.340E-01    0.189E-02
DAV:   3    -0.941280822188E+02   -0.11197E-03   -0.11777E-03  3456   0.833E-02    0.176E-02
DAV:   4    -0.941280860882E+02   -0.38694E-05   -0.60285E-05  2888   0.228E-02    0.128E-02
DAV:   5    -0.941280855283E+02    0.55990E-06   -0.36269E-06  1880   0.137E-02
  29 F= -.94128086E+02 E0= -.94128086E+02  d E =-.126947E-10
       N       E                     dE             d eps       ncg     rms          rms(c)
DAV:   1    -0.941163375952E+02    0.11748E-01   -0.70097E+00  2984   0.378E+00    0.129E-01
DAV:   2    -0.941278069504E+02   -0.11469E-01   -0.11620E-01  2928   0.700E-01    0.404E-02
DAV:   3    -0.941281206474E+02   -0.31370E-03   -0.34461E-03  3528   0.155E-01    0.293E-02
DAV:   4    -0.941281325774E+02   -0.11930E-04   -0.17983E-04  3440   0.515E-02    0.204E-02
DAV:   5    -0.941281327577E+02   -0.18035E-06   -0.13784E-05  3192   0.365E-02    0.104E-02
DAV:   6    -0.941281341837E+02   -0.14260E-05   -0.76842E-06  2672   0.286E-02    0.433E-03
DAV:   7    -0.941281346030E+02   -0.41935E-06   -0.37359E-06  1984   0.132E-02
  30 F= -.94128135E+02 E0= -.94128135E+02  d E =-.704748E-11
       N       E                     dE             d eps       ncg     rms          rms(c)
DAV:   1    -0.941243230452E+02    0.38111E-02   -0.24208E+00  2904   0.217E+00    0.350E-02
DAV:   2    -0.941281110673E+02   -0.37880E-02   -0.37982E-02  2952   0.348E-01    0.146E-02
DAV:   3    -0.941281903281E+02   -0.79261E-04   -0.82530E-04  3392   0.667E-02    0.106E-02
DAV:   4    -0.941281936861E+02   -0.33579E-05   -0.38996E-05  2192   0.243E-02    0.733E-03
DAV:   5    -0.941281940432E+02   -0.35717E-06   -0.44515E-06  2504   0.183E-02
  31 F= -.94128194E+02 E0= -.94128194E+02  d E =-.819621E-11
       N       E                     dE             d eps       ncg     rms          rms(c)
DAV:   1    -0.941231951071E+02    0.49986E-02   -0.27139E+00  2928   0.250E+00    0.885E-02
DAV:   2    -0.941274508740E+02   -0.42558E-02   -0.43075E-02  2920   0.417E-01    0.240E-02
DAV:   3    -0.941275769619E+02   -0.12609E-03   -0.13440E-03  3536   0.928E-02    0.181E-02
DAV:   4    -0.941275832909E+02   -0.63290E-05   -0.73670E-05  3224   0.304E-02    0.127E-02
DAV:   5    -0.941275842601E+02   -0.96922E-06   -0.46330E-06  2368   0.219E-02
  32 F= -.94127584E+02 E0= -.94127584E+02  d E =-.105454E-10
       N       E                     dE             d eps       ncg     rms          rms(c)
DAV:   1    -0.941229507297E+02    0.46326E-02   -0.24211E+00  2888   0.213E+00    0.692E-02
DAV:   2    -0.941267461064E+02   -0.37954E-02   -0.38415E-02  2920   0.367E-01    0.199E-02
DAV:   3    -0.941268411340E+02   -0.95028E-04   -0.10224E-03  3488   0.859E-02    0.163E-02
DAV:   4    -0.941268452516E+02   -0.41176E-05   -0.57431E-05  2616   0.212E-02    0.123E-02
DAV:   5    -0.941268447228E+02    0.52881E-06   -0.34573E-06  2216   0.191E-02
  33 F= -.94126845E+02 E0= -.94126845E+02  d E =-.115180E-10
       N       E                     dE             d eps       ncg     rms          rms(c)
DAV:   1    -0.941152311276E+02    0.11614E-01   -0.70081E+00  3032   0.378E+00    0.133E-01
DAV:   2    -0.941267973479E+02   -0.11566E-01   -0.11727E-01  2944   0.635E-01    0.392E-02
DAV:   3    -0.941271149001E+02   -0.31755E-03   -0.34743E-03  3680   0.142E-01    0.297E-02
DAV:   4    -0.941271270206E+02   -0.12120E-04   -0.18467E-04  3392   0.523E-02    0.202E-02
DAV:   5    -0.941271264304E+02    0.59017E-06   -0.14194E-05  3104   0.449E-02    0.103E-02
DAV:   6    -0.941271279152E+02   -0.14847E-05   -0.10635E-05  3176   0.348E-02    0.520E-03
DAV:   7    -0.941271288722E+02   -0.95705E-06   -0.95147E-06  2816   0.172E-02
  34 F= -.94127129E+02 E0= -.94127129E+02  d E =-.770882E-11
       N       E                     dE             d eps       ncg     rms          rms(c)
DAV:   1    -0.941239702421E+02    0.31577E-02   -0.24207E+00  3112   0.214E+00    0.370E-02
DAV:   2    -0.941276464367E+02   -0.36762E-02   -0.36855E-02  2992   0.362E-01    0.187E-02
DAV:   3    -0.941277612647E+02   -0.11483E-03   -0.11772E-03  3456   0.803E-02    0.159E-02
DAV:   4    -0.941277661519E+02   -0.48873E-05   -0.58462E-05  2520   0.313E-02    0.111E-02
DAV:   5    -0.941277659857E+02    0.16624E-06   -0.65355E-06  2712   0.175E-02
  35 F= -.94127766E+02 E0= -.94127766E+02  d E =-.850023E-11
       N       E                     dE             d eps       ncg     rms          rms(c)
DAV:   1    -0.941237588230E+02    0.40073E-02   -0.27134E+00  3160   0.242E+00    0.818E-02
DAV:   2    -0.941278106841E+02   -0.40519E-02   -0.40756E-02  2936   0.396E-01    0.252E-02
DAV:   3    -0.941279360174E+02   -0.12533E-03   -0.13207E-03  3456   0.861E-02    0.177E-02
DAV:   4    -0.941279418195E+02   -0.58021E-05   -0.72242E-05  3464   0.447E-02    0.122E-02
DAV:   5    -0.941279422661E+02   -0.44662E-06   -0.65971E-06  3088   0.243E-02
  36 F= -.94127942E+02 E0= -.94127942E+02  d E =-.904970E-11
       N       E                     dE             d eps       ncg     rms          rms(c)
DAV:   1    -0.941237102654E+02    0.42316E-02   -0.24207E+00  3048   0.220E+00    0.702E-02
DAV:   2    -0.941274100487E+02   -0.36998E-02   -0.37349E-02  2976   0.340E-01    0.199E-02
DAV:   3    -0.941275192219E+02   -0.10917E-03   -0.11555E-03  3600   0.982E-02    0.176E-02
DAV:   4    -0.941275241362E+02   -0.49143E-05   -0.68787E-05  3112   0.227E-02    0.134E-02
DAV:   5    -0.941275231316E+02    0.10046E-05   -0.31919E-06  2232   0.227E-02    0.686E-03
DAV:   6    -0.941275230539E+02    0.77660E-07   -0.47147E-06  2600   0.240E-02
  37 F= -.94127523E+02 E0= -.94127523E+02  d E =-.937252E-11
       N       E                     dE             d eps       ncg     rms          rms(c)
DAV:   1    -0.941186045650E+02    0.89186E-02   -0.80270E+00  2808   0.709E+00    0.310E-01
DAV:   2    -0.941257881972E+02   -0.71836E-02   -0.73757E-02  3096   0.809E-01    0.121E-01
DAV:   3    -0.941259948204E+02   -0.20662E-03   -0.29388E-03  3496   0.350E-01    0.649E-02
DAV:   4    -0.941259918890E+02    0.29314E-05   -0.29338E-04  3496   0.206E-01    0.444E-02
DAV:   5    -0.941259916886E+02    0.20040E-06   -0.88608E-05  3352   0.570E-02    0.202E-02
DAV:   6    -0.941259931695E+02   -0.14809E-05   -0.37100E-05  3168   0.516E-02    0.132E-02
DAV:   7    -0.941259935572E+02   -0.38768E-06   -0.10127E-05  3048   0.311E-02    0.978E-03
DAV:   8    -0.941259938032E+02   -0.24602E-06   -0.28990E-06  2112   0.998E-03
  38 F= -.94125994E+02 E0= -.94125994E+02  d E =-.317469E-11
       N       E                     dE             d eps       ncg     rms          rms(c)
DAV:   1    -0.941261331761E+02   -0.13962E-03   -0.31503E+00  2752   0.390E+00    0.993E-02
DAV:   2    -0.941273859808E+02   -0.12528E-02   -0.12777E-02  3008   0.315E-01    0.716E-02
DAV:   3    -0.941274009941E+02   -0.15013E-04   -0.31696E-04  3384   0.907E-02    0.509E-02
DAV:   4    -0.941274009562E+02    0.37937E-07   -0.52036E-05  3256   0.110E-01    0.234E-02
DAV:   5    -0.941274004597E+02    0.49643E-06   -0.20954E-05  3376   0.415E-02    0.531E-03
DAV:   6    -0.941274005956E+02   -0.13588E-06   -0.57996E-06  2408   0.177E-02
  39 F= -.94127401E+02 E0= -.94127401E+02  d E =-.537911E-11
       N       E                     dE             d eps       ncg     rms          rms(c)
DAV:   1    -0.941265632464E+02    0.83721E-03   -0.35247E+00  2768   0.437E+00    0.254E-01
DAV:   2    -0.941276522647E+02   -0.10890E-02   -0.12086E-02  3136   0.351E-01    0.111E-01
DAV:   3    -0.941276642291E+02   -0.11964E-04   -0.75572E-04  3488   0.216E-01    0.536E-02
DAV:   4    -0.941276581400E+02    0.60891E-05   -0.15412E-04  3496   0.167E-01    0.299E-02
DAV:   5    -0.941276600236E+02   -0.18835E-05   -0.61112E-05  3072   0.410E-02    0.167E-02
DAV:   6    -0.941276601555E+02   -0.13199E-06   -0.14787E-05  2872   0.338E-02    0.636E-03
DAV:   7    -0.941276604513E+02   -0.29579E-06   -0.40087E-06  2240   0.180E-02
  40 F= -.94127660E+02 E0= -.94127660E+02  d E =-.108229E-10
       N       E                     dE             d eps       ncg     rms          rms(c)
DAV:   1    -0.941251229844E+02    0.25372E-02   -0.31470E+00  2752   0.387E+00    0.191E-01
DAV:   2    -0.941263015574E+02   -0.11786E-02   -0.12348E-02  3088   0.312E-01    0.554E-02
DAV:   3    -0.941263177410E+02   -0.16184E-04   -0.40485E-04  3240   0.180E-01    0.392E-02
DAV:   4    -0.941263170192E+02    0.72175E-06   -0.81435E-05  3168   0.965E-02    0.273E-02
DAV:   5    -0.941263162043E+02    0.81489E-06   -0.31159E-05  3096   0.357E-02    0.928E-03
DAV:   6    -0.941263166778E+02   -0.47343E-06   -0.10352E-05  2880   0.185E-02    0.101E-02
DAV:   7    -0.941263166648E+02    0.12944E-07   -0.20883E-06  1960   0.141E-02
  41 F= -.94126317E+02 E0= -.94126317E+02  d E =-.131528E-10
       N       E                     dE             d eps       ncg     rms          rms(c)
DAV:   1    -0.941231774414E+02    0.31392E-02   -0.91023E+00  2760   0.711E+00    0.384E-01
DAV:   2    -0.941262049232E+02   -0.30275E-02   -0.33408E-02  3152   0.692E-01    0.176E-01
DAV:   3    -0.941263269592E+02   -0.12204E-03   -0.32032E-03  3648   0.508E-01    0.985E-02
DAV:   4    -0.941262953902E+02    0.31569E-04   -0.43794E-04  3568   0.319E-01    0.483E-02
DAV:   5    -0.941263032806E+02   -0.78904E-05   -0.23068E-04  3264   0.563E-02    0.220E-02
DAV:   6    -0.941263037217E+02   -0.44109E-06   -0.34726E-05  3384   0.581E-02    0.106E-02
DAV:   7    -0.941263040584E+02   -0.33662E-06   -0.11262E-05  3024   0.371E-02    0.589E-03
DAV:   8    -0.941263044244E+02   -0.36604E-06   -0.36210E-06  2128   0.112E-02
  42 F= -.94126304E+02 E0= -.94126304E+02  d E =-.939302E-20
       N       E                     dE             d eps       ncg     rms          rms(c)
DAV:   1    -0.941265253580E+02   -0.22130E-03   -0.31470E+00  2744   0.391E+00    0.126E-01
DAV:   2    -0.941278874667E+02   -0.13621E-02   -0.14113E-02  3096   0.364E-01    0.836E-02
DAV:   3    -0.941279135327E+02   -0.26066E-04   -0.54780E-04  3448   0.152E-01    0.632E-02
DAV:   4    -0.941279103966E+02    0.31361E-05   -0.79293E-05  3248   0.133E-01    0.384E-02
DAV:   5    -0.941279090543E+02    0.13423E-05   -0.41388E-05  3320   0.271E-02    0.130E-02
DAV:   6    -0.941279087411E+02    0.31323E-06   -0.12717E-05  3472   0.318E-02    0.111E-02
DAV:   7    -0.941279086061E+02    0.13503E-06   -0.18919E-06  1768   0.844E-03
  43 F= -.94127909E+02 E0= -.94127909E+02  d E =-.142149E-10
       N       E                     dE             d eps       ncg     rms          rms(c)
DAV:   1    -0.941258442285E+02    0.20645E-02   -0.35223E+00  2752   0.437E+00    0.296E-01
DAV:   2    -0.941269744859E+02   -0.11303E-02   -0.12860E-02  3160   0.397E-01    0.123E-01
DAV:   3    -0.941269892723E+02   -0.14786E-04   -0.10266E-03  3576   0.190E-01    0.609E-02
DAV:   4    -0.941269743629E+02    0.14909E-04   -0.16483E-04  3552   0.205E-01    0.346E-02
DAV:   5    -0.941269718906E+02    0.24724E-05   -0.59180E-05  3264   0.450E-02    0.171E-02
DAV:   6    -0.941269707276E+02    0.11630E-05   -0.15544E-05  2936   0.251E-02    0.644E-03
DAV:   7    -0.941269711226E+02   -0.39503E-06   -0.49569E-06  2672   0.166E-02
  44 F= -.94126971E+02 E0= -.94126971E+02  d E =-.589133E-11
       N       E                     dE             d eps       ncg     rms          rms(c)
DAV:   1    -0.941235812765E+02    0.33895E-02   -0.31451E+00  2728   0.389E+00    0.225E-01
DAV:   2    -0.941248448588E+02   -0.12636E-02   -0.13286E-02  3088   0.310E-01    0.595E-02
DAV:   3    -0.941248488472E+02   -0.39884E-05   -0.31506E-04  3440   0.156E-01    0.444E-02
DAV:   4    -0.941248483509E+02    0.49631E-06   -0.10240E-04  3312   0.850E-02    0.296E-02
DAV:   5    -0.941248447947E+02    0.35562E-05   -0.27638E-05  3224   0.668E-02    0.977E-03
DAV:   6    -0.941248454840E+02   -0.68924E-06   -0.18282E-05  2944   0.191E-02    0.108E-02
DAV:   7    -0.941248455640E+02   -0.80054E-07   -0.28870E-06  2216   0.103E-02
  45 F= -.94124846E+02 E0= -.94124846E+02  d E =-.411940E-11
       N       E                     dE             d eps       ncg     rms          rms(c)
DAV:   1    -0.941203797343E+02    0.44657E-02   -0.91024E+00  2752   0.712E+00    0.415E-01
DAV:   2    -0.941235755375E+02   -0.31958E-02   -0.35562E-02  3232   0.703E-01    0.187E-01
DAV:   3    -0.941236412407E+02   -0.65703E-04   -0.30036E-03  3792   0.545E-01    0.104E-01
DAV:   4    -0.941236099755E+02    0.31265E-04   -0.53362E-04  3592   0.314E-01    0.564E-02
DAV:   5    -0.941236102052E+02   -0.22972E-06   -0.25230E-04  3272   0.772E-02    0.233E-02
DAV:   6    -0.941236065728E+02    0.36324E-05   -0.32905E-05  3392   0.491E-02    0.102E-02
DAV:   7    -0.941236085116E+02   -0.19388E-05   -0.27929E-05  3384   0.354E-02    0.100E-02
DAV:   8    -0.941236087724E+02   -0.26084E-06   -0.56033E-06  2408   0.174E-02
  46 F= -.94123609E+02 E0= -.94123609E+02  d E =-.116817E-10
       N       E                     dE             d eps       ncg     rms          rms(c)
DAV:   1    -0.941252932123E+02   -0.16847E-02   -0.31456E+00  2808   0.392E+00    0.128E-01
DAV:   2    -0.941267482871E+02   -0.14551E-02   -0.15055E-02  3000   0.404E-01    0.876E-02
DAV:   3    -0.941267746196E+02   -0.26333E-04   -0.63788E-04  3400   0.189E-01    0.636E-02
DAV:   4    -0.941267704157E+02    0.42039E-05   -0.90639E-05  3280   0.131E-01    0.351E-02
DAV:   5    -0.941267688966E+02    0.15191E-05   -0.44071E-05  3352   0.343E-02    0.110E-02
DAV:   6    -0.941267694547E+02   -0.55814E-06   -0.19375E-05  3528   0.341E-02    0.982E-03
DAV:   7    -0.941267692363E+02    0.21843E-06   -0.14967E-06  1696   0.103E-02
  47 F= -.94126769E+02 E0= -.94126769E+02  d E =-.101311E-10
       N       E                     dE             d eps       ncg     rms          rms(c)
DAV:   1    -0.941262646279E+02    0.50483E-03   -0.35203E+00  2808   0.438E+00    0.314E-01
DAV:   2    -0.941273818467E+02   -0.11172E-02   -0.13168E-02  3152   0.444E-01    0.133E-01
DAV:   3    -0.941273938008E+02   -0.11954E-04   -0.12637E-03  3560   0.290E-01    0.703E-02
DAV:   4    -0.941273694062E+02    0.24395E-04   -0.23034E-04  3704   0.254E-01    0.343E-02
DAV:   5    -0.941273681119E+02    0.12943E-05   -0.10447E-04  3360   0.501E-02    0.170E-02
DAV:   6    -0.941273657780E+02    0.23338E-05   -0.23778E-05  3248   0.310E-02    0.816E-03
DAV:   7    -0.941273656187E+02    0.15935E-06   -0.67036E-06  2832   0.330E-02
  48 F= -.94127366E+02 E0= -.94127366E+02  d E =-.744892E-11
       N       E                     dE             d eps       ncg     rms          rms(c)
DAV:   1    -0.941236443559E+02    0.37214E-02   -0.31438E+00  2784   0.389E+00    0.229E-01
DAV:   2    -0.941249223305E+02   -0.12780E-02   -0.13603E-02  3056   0.337E-01    0.627E-02
DAV:   3    -0.941249366717E+02   -0.14341E-04   -0.46293E-04  3480   0.177E-01    0.462E-02
DAV:   4    -0.941249313712E+02    0.53006E-05   -0.94742E-05  3456   0.118E-01    0.294E-02
DAV:   5    -0.941249263572E+02    0.50140E-05   -0.36102E-05  3432   0.504E-02    0.106E-02
DAV:   6    -0.941249272508E+02   -0.89359E-06   -0.22182E-05  3120   0.213E-02    0.123E-02
DAV:   7    -0.941249273237E+02   -0.72945E-07   -0.32026E-06  2368   0.943E-03
  49 F= -.94124927E+02 E0= -.94124927E+02  d E =-.700984E-11
       N       E                     dE             d eps       ncg     rms          rms(c)
DAV:   1    -0.941188572547E+02    0.60700E-02   -0.54846E+00  2752   0.556E+00    0.652E-01
DAV:   2    -0.941255909375E+02   -0.67337E-02   -0.74836E-02  3224   0.966E-01    0.235E-01
DAV:   3    -0.941255020388E+02    0.88899E-04   -0.37417E-03  3416   0.374E-01    0.184E-01
DAV:   4    -0.941253865708E+02    0.11547E-03   -0.65148E-04  3536   0.345E-01    0.108E-01
DAV:   5    -0.941253517410E+02    0.34830E-04   -0.37566E-04  3392   0.127E-01    0.285E-02
DAV:   6    -0.941253573734E+02   -0.56324E-05   -0.12177E-04  3264   0.640E-02    0.302E-02
DAV:   7    -0.941253569626E+02    0.41083E-06   -0.22688E-05  3440   0.383E-02    0.246E-02
DAV:   8    -0.941253556903E+02    0.12723E-05   -0.70330E-06  3048   0.333E-02    0.162E-02
DAV:   9    -0.941253554469E+02    0.24341E-06   -0.39449E-06  2584   0.202E-02
  50 F= -.94125355E+02 E0= -.94125355E+02  d E =-.745667E-11
       N       E                     dE             d eps       ncg     rms          rms(c)
DAV:   1    -0.941244280572E+02    0.92763E-03   -0.61560E-01  2768   0.127E+00    0.176E-01
DAV:   2    -0.941273223065E+02   -0.28942E-02   -0.31125E-02  3232   0.508E-01    0.693E-02
DAV:   3    -0.941274133097E+02   -0.91003E-04   -0.12978E-03  3632   0.162E-01    0.618E-02
DAV:   4    -0.941274087426E+02    0.45671E-05   -0.79843E-05  3496   0.823E-02    0.397E-02
DAV:   5    -0.941274042732E+02    0.44693E-05   -0.39395E-05  3080   0.398E-02    0.103E-02
DAV:   6    -0.941274047689E+02   -0.49565E-06   -0.85752E-06  2944   0.185E-02
  51 F= -.94127405E+02 E0= -.94127405E+02  d E =-.802748E-11
       N       E                     dE             d eps       ncg     rms          rms(c)
DAV:   1    -0.941240609321E+02    0.33433E-02   -0.74158E-01  2800   0.143E+00    0.449E-01
DAV:   2    -0.941271791798E+02   -0.31182E-02   -0.35908E-02  3344   0.705E-01    0.145E-01
DAV:   3    -0.941271009614E+02    0.78218E-04   -0.14924E-03  3384   0.205E-01    0.117E-01
DAV:   4    -0.941270352946E+02    0.65667E-04   -0.32169E-04  3504   0.176E-01    0.584E-02
DAV:   5    -0.941270366305E+02   -0.13359E-05   -0.13439E-04  3624   0.989E-02    0.182E-02
DAV:   6    -0.941270372854E+02   -0.65495E-06   -0.22417E-05  3160   0.215E-02    0.151E-02
DAV:   7    -0.941270369741E+02    0.31126E-06   -0.74955E-06  3040   0.259E-02
  52 F= -.94127037E+02 E0= -.94127037E+02  d E =-.132150E-10
       N       E                     dE             d eps       ncg     rms          rms(c)
DAV:   1    -0.941215431098E+02    0.54942E-02   -0.64186E-01  2784   0.123E+00    0.350E-01
DAV:   2    -0.941246304542E+02   -0.30873E-02   -0.32676E-02  3360   0.505E-01    0.116E-01
DAV:   3    -0.941246461336E+02   -0.15679E-04   -0.11128E-03  3168   0.135E-01    0.954E-02
DAV:   4    -0.941246078050E+02    0.38329E-04   -0.11508E-04  3216   0.101E-01    0.595E-02
DAV:   5    -0.941246022037E+02    0.56013E-05   -0.86570E-05  3088   0.518E-02    0.155E-02
DAV:   6    -0.941246033519E+02   -0.11482E-05   -0.14436E-05  2976   0.151E-02    0.103E-02
DAV:   7    -0.941246033866E+02   -0.34757E-07   -0.13166E-06  1760   0.141E-02
  53 F= -.94124603E+02 E0= -.94124603E+02  d E =-.208876E-10
       N       E                     dE             d eps       ncg     rms          rms(c)
DAV:   1    -0.941194302089E+02    0.51731E-02   -0.19132E+00  2768   0.222E+00    0.519E-01
DAV:   2    -0.941271965580E+02   -0.77663E-02   -0.85368E-02  3176   0.773E-01    0.247E-01
DAV:   3    -0.941271753000E+02    0.21258E-04   -0.27175E-03  3408   0.225E-01    0.194E-01
DAV:   4    -0.941269881904E+02    0.18711E-03   -0.53544E-04  3400   0.215E-01    0.112E-01
DAV:   5    -0.941269844750E+02    0.37154E-05   -0.36109E-04  3304   0.115E-01    0.289E-02
DAV:   6    -0.941269810783E+02    0.33967E-05   -0.61714E-05  3016   0.381E-02    0.177E-02
DAV:   7    -0.941269797152E+02    0.13631E-05   -0.10117E-05  3056   0.183E-02    0.116E-02
DAV:   8    -0.941269791550E+02    0.56017E-06   -0.28633E-06  2280   0.244E-02
  54 F= -.94126979E+02 E0= -.94126979E+02  d E =-.739406E-11
       N       E                     dE             d eps       ncg     rms          rms(c)
DAV:   1    -0.941252284074E+02    0.17513E-02   -0.62692E-01  2784   0.125E+00    0.158E-01
DAV:   2    -0.941279718993E+02   -0.27435E-02   -0.29326E-02  3152   0.478E-01    0.672E-02
DAV:   3    -0.941280626246E+02   -0.90725E-04   -0.12432E-03  3712   0.149E-01    0.577E-02
DAV:   4    -0.941280563686E+02    0.62560E-05   -0.68901E-05  3424   0.762E-02    0.381E-02
DAV:   5    -0.941280515542E+02    0.48144E-05   -0.39474E-05  3000   0.368E-02    0.934E-03
DAV:   6    -0.941280519672E+02   -0.41299E-06   -0.84615E-06  3032   0.148E-02
  55 F= -.94128052E+02 E0= -.94128052E+02  d E =-.828844E-11
       N       E                     dE             d eps       ncg     rms          rms(c)
DAV:   1    -0.941240305960E+02    0.40210E-02   -0.75095E-01  2784   0.141E+00    0.383E-01
DAV:   2    -0.941269558750E+02   -0.29253E-02   -0.33541E-02  3296   0.652E-01    0.151E-01
DAV:   3    -0.941268957282E+02    0.60147E-04   -0.13482E-03  3440   0.180E-01    0.118E-01
DAV:   4    -0.941268126947E+02    0.83034E-04   -0.30658E-04  3456   0.175E-01    0.595E-02
DAV:   5    -0.941268178206E+02   -0.51259E-05   -0.15693E-04  3504   0.918E-02    0.170E-02
DAV:   6    -0.941268160595E+02    0.17611E-05   -0.19776E-05  3096   0.254E-02    0.142E-02
DAV:   7    -0.941268162253E+02   -0.16575E-06   -0.95141E-06  2944   0.249E-02
  56 F= -.94126816E+02 E0= -.94126816E+02  d E =-.871947E-11
       N       E                     dE             d eps       ncg     rms          rms(c)
DAV:   1    -0.941218149076E+02    0.50012E-02   -0.64700E-01  2736   0.122E+00    0.313E-01
DAV:   2    -0.941246963823E+02   -0.28815E-02   -0.30568E-02  3288   0.469E-01    0.121E-01
DAV:   3    -0.941247195762E+02   -0.23194E-04   -0.10661E-03  3256   0.125E-01    0.954E-02
DAV:   4    -0.941246773763E+02    0.42200E-04   -0.10564E-04  3360   0.102E-01    0.602E-02
DAV:   5    -0.941246723607E+02    0.50156E-05   -0.95605E-05  3112   0.458E-02    0.176E-02
DAV:   6    -0.941246731075E+02   -0.74676E-06   -0.15110E-05  2944   0.161E-02    0.940E-03
DAV:   7    -0.941246730803E+02    0.27136E-07   -0.12134E-06  1776   0.109E-02
  57 F= -.94124673E+02 E0= -.94124673E+02  d E =-.884575E-11
       N       E                     dE             d eps       ncg     rms          rms(c)
DAV:   1    -0.941177750471E+02    0.68981E-02   -0.18836E+00  2752   0.228E+00    0.548E-01
DAV:   2    -0.941256099518E+02   -0.78349E-02   -0.87432E-02  3352   0.998E-01    0.209E-01
DAV:   3    -0.941255535329E+02    0.56419E-04   -0.36673E-03  3376   0.294E-01    0.171E-01
DAV:   4    -0.941253880087E+02    0.16552E-03   -0.58244E-04  3512   0.270E-01    0.936E-02
DAV:   5    -0.941253790660E+02    0.89427E-05   -0.34204E-04  3416   0.117E-01    0.200E-02
DAV:   6    -0.941253788790E+02    0.18704E-06   -0.69804E-05  3120   0.478E-02    0.236E-02
DAV:   7    -0.941253786366E+02    0.24233E-06   -0.16728E-05  3344   0.330E-02    0.166E-02
DAV:   8    -0.941253784156E+02    0.22109E-06   -0.36575E-06  2200   0.234E-02
  58 F= -.94125378E+02 E0= -.94125378E+02  d E =-.471306E-11
       N       E                     dE             d eps       ncg     rms          rms(c)
DAV:   1    -0.941245187260E+02    0.85991E-03   -0.60915E-01  2816   0.131E+00    0.173E-01
DAV:   2    -0.941274468580E+02   -0.29281E-02   -0.31569E-02  3200   0.503E-01    0.663E-02
DAV:   3    -0.941275434881E+02   -0.96630E-04   -0.14297E-03  3616   0.173E-01    0.585E-02
DAV:   4    -0.941275373619E+02    0.61262E-05   -0.88863E-05  3344   0.911E-02    0.374E-02
DAV:   5    -0.941275314867E+02    0.58752E-05   -0.37252E-05  2984   0.327E-02    0.130E-02
DAV:   6    -0.941275321357E+02   -0.64896E-06   -0.12975E-05  3360   0.232E-02    0.842E-03
DAV:   7    -0.941275320572E+02    0.78489E-07   -0.24837E-06  1936   0.159E-02
  59 F= -.94127532E+02 E0= -.94127532E+02  d E =-.672512E-11
       N       E                     dE             d eps       ncg     rms          rms(c)
DAV:   1    -0.941239411764E+02    0.35910E-02   -0.73582E-01  2800   0.147E+00    0.428E-01
DAV:   2    -0.941270358317E+02   -0.30947E-02   -0.35744E-02  3256   0.687E-01    0.143E-01
DAV:   3    -0.941269510143E+02    0.84817E-04   -0.17003E-03  3384   0.209E-01    0.116E-01
DAV:   4    -0.941268683512E+02    0.82663E-04   -0.33368E-04  3704   0.226E-01    0.591E-02
DAV:   5    -0.941268681390E+02    0.21218E-06   -0.16774E-04  3376   0.923E-02    0.201E-02
DAV:   6    -0.941268692042E+02   -0.10651E-05   -0.32239E-05  3200   0.262E-02    0.186E-02
DAV:   7    -0.941268678658E+02    0.13383E-05   -0.50921E-06  2960   0.304E-02    0.102E-02
DAV:   8    -0.941268675130E+02    0.35284E-06   -0.33363E-06  2352   0.156E-02
  60 F= -.94126868E+02 E0= -.94126868E+02  d E =-.844881E-11
       N       E                     dE             d eps       ncg     rms          rms(c)
DAV:   1    -0.941210170021E+02    0.58509E-02   -0.63509E-01  2760   0.126E+00    0.333E-01
DAV:   2    -0.941241379791E+02   -0.31210E-02   -0.32926E-02  3216   0.496E-01    0.113E-01
DAV:   3    -0.941241554693E+02   -0.17490E-04   -0.12003E-03  3280   0.139E-01    0.951E-02
DAV:   4    -0.941241100882E+02    0.45381E-04   -0.13254E-04  3360   0.127E-01    0.561E-02
DAV:   5    -0.941241056337E+02    0.44545E-05   -0.91947E-05  3176   0.545E-02    0.136E-02
DAV:   6    -0.941241069772E+02   -0.13435E-05   -0.20802E-05  3104   0.208E-02    0.118E-02
DAV:   7    -0.941241068098E+02    0.16739E-06   -0.21621E-06  2200   0.187E-02
  61 F= -.94124107E+02 E0= -.94124107E+02  d E =-.884837E-11
       N       E                     dE             d eps       ncg     rms          rms(c)
DAV:   1    -0.941168775778E+02    0.72294E-02   -0.18714E+00  2776   0.238E+00    0.627E-01
DAV:   2    -0.941262328158E+02   -0.93552E-02   -0.10466E-01  3336   0.111E+00    0.245E-01
DAV:   3    -0.941260899354E+02    0.14288E-03   -0.45203E-03  3344   0.350E-01    0.210E-01
DAV:   4    -0.941259195667E+02    0.17037E-03   -0.72898E-04  3496   0.281E-01    0.123E-01
DAV:   5    -0.941258858873E+02    0.33679E-04   -0.41550E-04  3616   0.138E-01    0.293E-02
DAV:   6    -0.941258904202E+02   -0.45329E-05   -0.83012E-05  3144   0.480E-02    0.277E-02
DAV:   7    -0.941258901008E+02    0.31937E-06   -0.13378E-05  3192   0.311E-02    0.220E-02
DAV:   8    -0.941258895556E+02    0.54518E-06   -0.38095E-06  2624   0.261E-02
  62 F= -.94125890E+02 E0= -.94125890E+02  d E =-.304610E-11
       N       E                     dE             d eps       ncg     rms          rms(c)
DAV:   1    -0.941244694277E+02    0.14207E-02   -0.62772E-01  2752   0.116E+00    0.166E-01
DAV:   2    -0.941274290202E+02   -0.29596E-02   -0.31374E-02  3136   0.435E-01    0.644E-02
DAV:   3    -0.941275065289E+02   -0.77509E-04   -0.11504E-03  3696   0.139E-01    0.535E-02
DAV:   4    -0.941274960531E+02    0.10476E-04   -0.69231E-05  3504   0.853E-02    0.318E-02
DAV:   5    -0.941274935516E+02    0.25015E-05   -0.38561E-05  3008   0.347E-02    0.718E-03
DAV:   6    -0.941274936409E+02   -0.89356E-07   -0.81013E-06  3048   0.139E-02
  63 F= -.94127494E+02 E0= -.94127494E+02  d E =-.528717E-11
       N       E                     dE             d eps       ncg     rms          rms(c)
DAV:   1    -0.941240847596E+02    0.34088E-02   -0.75179E-01  2792   0.132E+00    0.409E-01
DAV:   2    -0.941273766366E+02   -0.32919E-02   -0.37173E-02  3192   0.596E-01    0.150E-01
DAV:   3    -0.941272703921E+02    0.10624E-03   -0.12546E-03  3368   0.181E-01    0.118E-01
DAV:   4    -0.941271764831E+02    0.93909E-04   -0.37858E-04  3408   0.181E-01    0.573E-02
DAV:   5    -0.941271841161E+02   -0.76330E-05   -0.16848E-04  3432   0.993E-02    0.200E-02
DAV:   6    -0.941271831259E+02    0.99019E-06   -0.18452E-05  3296   0.272E-02    0.167E-02
DAV:   7    -0.941271828185E+02    0.30747E-06   -0.12420E-05  3160   0.287E-02    0.736E-03
DAV:   8    -0.941271828386E+02   -0.20118E-07   -0.18316E-06  1720   0.171E-02
  64 F= -.94127183E+02 E0= -.94127183E+02  d E =-.834523E-11
       N       E                     dE             d eps       ncg     rms          rms(c)
DAV:   1    -0.941217902315E+02    0.53926E-02   -0.65123E-01  2760   0.116E+00    0.327E-01
DAV:   2    -0.941249980220E+02   -0.32078E-02   -0.34161E-02  3176   0.462E-01    0.121E-01
DAV:   3    -0.941249912827E+02    0.67393E-05   -0.10360E-03  3200   0.135E-01    0.100E-01
DAV:   4    -0.941249436390E+02    0.47644E-04   -0.12884E-04  3336   0.100E-01    0.623E-02
DAV:   5    -0.941249356858E+02    0.79532E-05   -0.10916E-04  3224   0.526E-02    0.160E-02
DAV:   6    -0.941249366805E+02   -0.99474E-06   -0.14600E-05  2968   0.195E-02    0.110E-02
DAV:   7    -0.941249371922E+02   -0.51164E-06   -0.31777E-06  2248   0.160E-02
  65 F= -.94124937E+02 E0= -.94124937E+02  d E =-.838098E-11
       N       E                     dE             d eps       ncg     rms          rms(c)
DAV:   1    -0.941161471980E+02    0.87895E-02   -0.19148E+00  2736   0.209E+00    0.495E-01
DAV:   2    -0.941246406019E+02   -0.84934E-02   -0.93587E-02  3152   0.809E-01    0.221E-01
DAV:   3    -0.941245399904E+02    0.10061E-03   -0.29963E-03  3264   0.216E-01    0.182E-01
DAV:   4    -0.941243048999E+02    0.23509E-03   -0.64036E-04  3488   0.264E-01    0.974E-02
DAV:   5    -0.941243099653E+02   -0.50654E-05   -0.39898E-04  3464   0.112E-01    0.263E-02
DAV:   6    -0.941243056325E+02    0.43328E-05   -0.43249E-05  3264   0.421E-02    0.236E-02
DAV:   7    -0.941243047798E+02    0.85268E-06   -0.13940E-05  3128   0.323E-02    0.133E-02
DAV:   8    -0.941243034774E+02    0.13024E-05   -0.82195E-06  3176   0.316E-02    0.274E-03
DAV:   9    -0.941243037020E+02   -0.22452E-06   -0.26684E-06  1992   0.120E-02
  66 F= -.94124304E+02 E0= -.94124304E+02  d E =-.514765E-11
       N       E                     dE             d eps       ncg     rms          rms(c)
DAV:   1    -0.941238461256E+02    0.45735E-03   -0.61816E-01  2736   0.124E+00    0.183E-01
DAV:   2    -0.941269729695E+02   -0.31268E-02   -0.33882E-02  3192   0.529E-01    0.694E-02
DAV:   3    -0.941270614354E+02   -0.88466E-04   -0.14466E-03  3632   0.170E-01    0.624E-02
DAV:   4    -0.941270512288E+02    0.10207E-04   -0.90225E-05  3616   0.969E-02    0.387E-02
DAV:   5    -0.941270449332E+02    0.62956E-05   -0.41419E-05  2936   0.428E-02    0.937E-03
DAV:   6    -0.941270459317E+02   -0.99844E-06   -0.17657E-05  3120   0.231E-02    0.940E-03
DAV:   7    -0.941270457551E+02    0.17653E-06   -0.17063E-06  1712   0.165E-02
  67 F= -.94127046E+02 E0= -.94127046E+02  d E =-.679599E-11
       N       E                     dE             d eps       ncg     rms          rms(c)
DAV:   1    -0.941239350691E+02    0.31109E-02   -0.74882E-01  2816   0.140E+00    0.452E-01
DAV:   2    -0.941273031101E+02   -0.33680E-02   -0.39577E-02  3352   0.767E-01    0.152E-01
DAV:   3    -0.941271425958E+02    0.16051E-03   -0.16116E-03  3384   0.205E-01    0.125E-01
DAV:   4    -0.941270398876E+02    0.10271E-03   -0.43422E-04  3624   0.220E-01    0.566E-02
DAV:   5    -0.941270466282E+02   -0.67406E-05   -0.19426E-04  3536   0.110E-01    0.252E-02
DAV:   6    -0.941270473745E+02   -0.74634E-06   -0.34529E-05  3256   0.261E-02    0.200E-02
DAV:   7    -0.941270454504E+02    0.19241E-05   -0.57045E-06  3112   0.316E-02    0.965E-03
DAV:   8    -0.941270454756E+02   -0.25237E-07   -0.43973E-06  2688   0.122E-02
  68 F= -.94127045E+02 E0= -.94127045E+02  d E =-.651770E-11
       N       E                     dE             d eps       ncg     rms          rms(c)
DAV:   1    -0.941209494432E+02    0.60960E-02   -0.64172E-01  2744   0.119E+00    0.344E-01
DAV:   2    -0.941243802596E+02   -0.34308E-02   -0.36659E-02  3312   0.542E-01    0.117E-01
DAV:   3    -0.941243636582E+02    0.16601E-04   -0.11930E-03  3232   0.136E-01    0.102E-01
DAV:   4    -0.941243063063E+02    0.57352E-04   -0.16640E-04  3344   0.121E-01    0.569E-02
DAV:   5    -0.941243033585E+02    0.29478E-05   -0.99886E-05  3376   0.598E-02    0.131E-02
DAV:   6    -0.941243046041E+02   -0.12456E-05   -0.16108E-05  3064   0.169E-02    0.130E-02
DAV:   7    -0.941243040996E+02    0.50449E-06   -0.15210E-06  1696   0.202E-02
  69 F= -.94124304E+02 E0= -.94124304E+02  d E =-.506815E-11
