  39  39   0   0
  0.2439952E+02  0.6834254E-09  0.1767185E-08  0.7880486E-09  0.0000000E+00
   1.0000000000000000E-004
  CAR 
 NEB                                     
      9.52590423    -23.87448670  301      1.07811187      1.00000000
    -23.874  0.0000E+00  0.0000E+00
    -23.763  0.0000E+00  0.0000E+00
    -23.652  0.0000E+00  0.0000E+00
    -23.540 -0.1547E-30 -0.1722E-31
    -23.429 -0.1164E-26 -0.1297E-27
    -23.318 -0.4684E-23 -0.5216E-24
    -23.206 -0.1011E-19 -0.1126E-20
    -23.095 -0.1171E-16 -0.1305E-17
    -22.984 -0.7042E-14 -0.7853E-15
    -22.872 -0.2325E-11 -0.2597E-12
    -22.761 -0.4098E-09 -0.4589E-10
    -22.650 -0.3842E-07 -0.4323E-08
    -22.538 -0.1903E-05 -0.2162E-06
    -22.427 -0.4923E-04 -0.5698E-05
    -22.316 -0.6474E-03 -0.7778E-04
    -22.204 -0.4032E-02 -0.5267E-03
    -22.093 -0.8775E-02 -0.1504E-02
    -21.982  0.1595E-01  0.2726E-03
    -21.870  0.1100E+00  0.1252E-01
    -21.759  0.2101E+00  0.3591E-01
    -21.648  0.2073E+00  0.5899E-01
    -21.536  0.1905E+00  0.8020E-01
    -21.425  0.3882E+00  0.1234E+00
    -21.314  0.7156E+00  0.2031E+00
    -21.202  0.8120E+00  0.2935E+00
    -21.091  0.5679E+00  0.3567E+00
    -20.980  0.2189E+00  0.3811E+00
    -20.868  0.1946E-01  0.3833E+00
    -20.757 -0.1927E-01  0.3811E+00
    -20.646 -0.8392E-02  0.3802E+00
    -20.534 -0.1487E-02  0.3800E+00
    -20.423 -0.1326E-03  0.3800E+00
    -20.312 -0.6210E-05  0.3800E+00
    -20.200 -0.1544E-06  0.3800E+00
    -20.089 -0.2045E-08  0.3800E+00
    -19.978 -0.1446E-10  0.3800E+00
    -19.866 -0.5459E-13  0.3800E+00
    -19.755 -0.1064E-15  0.3800E+00
    -19.644  0.0000E+00  0.3800E+00
    -19.532  0.0000E+00  0.3800E+00
    -19.421  0.0000E+00  0.3800E+00
    -19.310  0.0000E+00  0.3800E+00
    -19.198  0.0000E+00  0.3800E+00
    -19.087  0.0000E+00  0.3800E+00
    -18.976  0.0000E+00  0.3800E+00
    -18.864  0.0000E+00  0.3800E+00
    -18.753  0.0000E+00  0.3800E+00
    -18.642  0.0000E+00  0.3800E+00
    -18.530  0.0000E+00  0.3800E+00
    -18.419  0.0000E+00  0.3800E+00
    -18.308  0.0000E+00  0.3800E+00
    -18.196  0.0000E+00  0.3800E+00
    -18.085  0.0000E+00  0.3800E+00
    -17.974  0.0000E+00  0.3800E+00
    -17.862  0.0000E+00  0.3800E+00
    -17.751  0.0000E+00  0.3800E+00
    -17.640  0.0000E+00  0.3800E+00
    -17.528  0.0000E+00  0.3800E+00
    -17.417  0.0000E+00  0.3800E+00
    -17.306  0.0000E+00  0.3800E+00
    -17.194  0.0000E+00  0.3800E+00
    -17.083  0.0000E+00  0.3800E+00
    -16.972  0.0000E+00  0.3800E+00
    -16.860  0.0000E+00  0.3800E+00
    -16.749  0.0000E+00  0.3800E+00
    -16.638  0.0000E+00  0.3800E+00
    -16.526  0.0000E+00  0.3800E+00
    -16.415  0.0000E+00  0.3800E+00
    -16.304  0.0000E+00  0.3800E+00
    -16.192  0.0000E+00  0.3800E+00
    -16.081  0.0000E+00  0.3800E+00
    -15.970  0.0000E+00  0.3800E+00
    -15.858  0.0000E+00  0.3800E+00
    -15.747  0.0000E+00  0.3800E+00
    -15.636  0.0000E+00  0.3800E+00
    -15.524  0.0000E+00  0.3800E+00
    -15.413  0.0000E+00  0.3800E+00
    -15.302  0.0000E+00  0.3800E+00
    -15.190  0.0000E+00  0.3800E+00
    -15.079  0.0000E+00  0.3800E+00
    -14.968  0.0000E+00  0.3800E+00
    -14.856  0.0000E+00  0.3800E+00
    -14.745  0.0000E+00  0.3800E+00
    -14.634  0.0000E+00  0.3800E+00
    -14.522  0.0000E+00  0.3800E+00
    -14.411  0.0000E+00  0.3800E+00
    -14.300  0.0000E+00  0.3800E+00
    -14.188 -0.3989E-31  0.3800E+00
    -14.077 -0.3340E-27  0.3800E+00
    -13.966 -0.1497E-23  0.3800E+00
    -13.854 -0.3592E-20  0.3800E+00
    -13.743 -0.4613E-17  0.3800E+00
    -13.632 -0.3068E-14  0.3800E+00
    -13.520 -0.1119E-11  0.3800E+00
    -13.409 -0.2173E-09  0.3800E+00
    -13.298 -0.2244E-07  0.3800E+00
    -13.186 -0.1229E-05  0.3800E+00
    -13.075 -0.3546E-04  0.3800E+00
    -12.964 -0.5315E-03  0.3799E+00
    -12.852 -0.3956E-02  0.3795E+00
    -12.741 -0.1220E-01  0.3781E+00
    -12.630  0.4701E-02  0.3787E+00
    -12.518  0.1199E+00  0.3920E+00
    -12.407  0.2946E+00  0.4248E+00
    -12.296  0.3523E+00  0.4640E+00
    -12.184  0.2766E+00  0.4948E+00
    -12.073  0.1498E+00  0.5115E+00
    -11.962  0.3329E-01  0.5152E+00
    -11.850 -0.9469E-02  0.5142E+00
    -11.739 -0.6242E-02  0.5135E+00
    -11.628 -0.1156E-02  0.5133E+00
    -11.516 -0.9649E-04  0.5133E+00
    -11.405 -0.3994E-05  0.5133E+00
    -11.294 -0.8496E-07  0.5133E+00
    -11.182 -0.9461E-09  0.5133E+00
    -11.071 -0.1246E-09  0.5133E+00
    -10.960 -0.1125E-07  0.5133E+00
    -10.848 -0.5566E-06  0.5133E+00
    -10.737 -0.1421E-04  0.5133E+00
    -10.626 -0.1827E-03  0.5133E+00
    -10.514 -0.1109E-02  0.5132E+00
    -10.403 -0.2428E-02  0.5129E+00
    -10.292  0.3697E-02  0.5133E+00
    -10.180  0.2967E-01  0.5166E+00
    -10.069  0.6709E-01  0.5241E+00
     -9.958  0.8061E-01  0.5331E+00
     -9.846  0.5188E-01  0.5389E+00
     -9.735  0.1073E-01  0.5400E+00
     -9.624 -0.1140E-01  0.5388E+00
     -9.512  0.7388E-02  0.5396E+00
     -9.401  0.1045E+00  0.5512E+00
     -9.290  0.2221E+00  0.5760E+00
     -9.178  0.2293E+00  0.6015E+00
     -9.067  0.1359E+00  0.6166E+00
     -8.956  0.4023E-01  0.6211E+00
     -8.844 -0.2643E-02  0.6208E+00
     -8.733 -0.5560E-02  0.6202E+00
     -8.622 -0.1482E-02  0.6200E+00
     -8.510 -0.1698E-03  0.6200E+00
     -8.399 -0.9527E-05  0.6200E+00
     -8.288 -0.2731E-06  0.6200E+00
     -8.176 -0.4079E-08  0.6200E+00
     -8.065 -0.3207E-10  0.6200E+00
     -7.954 -0.1337E-12  0.6200E+00
     -7.842 -0.3058E-15  0.6200E+00
     -7.731  0.0000E+00  0.6200E+00
     -7.620  0.0000E+00  0.6200E+00
     -7.508  0.0000E+00  0.6200E+00
     -7.397  0.0000E+00  0.6200E+00
     -7.286  0.0000E+00  0.6200E+00
     -7.174  0.0000E+00  0.6200E+00
     -7.063  0.0000E+00  0.6200E+00
     -6.952  0.0000E+00  0.6200E+00
     -6.840  0.0000E+00  0.6200E+00
     -6.729  0.0000E+00  0.6200E+00
     -6.618  0.0000E+00  0.6200E+00
     -6.506  0.0000E+00  0.6200E+00
     -6.395  0.0000E+00  0.6200E+00
     -6.284  0.0000E+00  0.6200E+00
     -6.172  0.0000E+00  0.6200E+00
     -6.061  0.0000E+00  0.6200E+00
     -5.950  0.0000E+00  0.6200E+00
     -5.838  0.0000E+00  0.6200E+00
     -5.727  0.0000E+00  0.6200E+00
     -5.616  0.0000E+00  0.6200E+00
     -5.504  0.0000E+00  0.6200E+00
     -5.393  0.0000E+00  0.6200E+00
     -5.282  0.0000E+00  0.6200E+00
     -5.170  0.0000E+00  0.6200E+00
     -5.059  0.0000E+00  0.6200E+00
     -4.948 -0.3088E-30  0.6200E+00
     -4.836 -0.2091E-26  0.6200E+00
     -4.725 -0.7576E-23  0.6200E+00
     -4.614 -0.1468E-19  0.6200E+00
     -4.502 -0.1519E-16  0.6200E+00
     -4.391 -0.8111E-14  0.6200E+00
     -4.280 -0.2364E-11  0.6200E+00
     -4.168 -0.3643E-09  0.6200E+00
     -4.057 -0.2949E-07  0.6200E+00
     -3.946 -0.1241E-05  0.6200E+00
     -3.834 -0.2662E-04  0.6200E+00
     -3.723 -0.2795E-03  0.6200E+00
     -3.612 -0.1292E-02  0.6198E+00
     -3.500 -0.1433E-02  0.6197E+00
     -3.389  0.7134E-02  0.6205E+00
     -3.278  0.2951E-01  0.6237E+00
     -3.166  0.6046E-01  0.6305E+00
     -3.055  0.7916E-01  0.6393E+00
     -2.944  0.5611E-01  0.6455E+00
     -2.832  0.1520E-01  0.6472E+00
     -2.721 -0.2337E-02  0.6470E+00
     -2.610 -0.2182E-02  0.6467E+00
     -2.498 -0.4601E-03  0.6467E+00
     -2.387 -0.4384E-04  0.6467E+00
     -2.276 -0.2105E-05  0.6467E+00
     -2.164 -0.4435E-06  0.6467E+00
     -2.053 -0.1049E-04  0.6467E+00
     -1.942 -0.1400E-03  0.6466E+00
     -1.830 -0.8635E-03  0.6466E+00
     -1.719 -0.1872E-02  0.6463E+00
     -1.608  0.2323E-02  0.6466E+00
     -1.496  0.1817E-01  0.6486E+00
     -1.385  0.4652E-01  0.6538E+00
     -1.274  0.8980E-01  0.6638E+00
     -1.162  0.1304E+00  0.6783E+00
     -1.051  0.1353E+00  0.6934E+00
     -0.940  0.8960E-01  0.7034E+00
     -0.828  0.3716E-01  0.7075E+00
     -0.717  0.4082E-01  0.7120E+00
     -0.606  0.6583E-01  0.7194E+00
     -0.494  0.4676E-01  0.7246E+00
     -0.383  0.1868E-01  0.7267E+00
     -0.272  0.4923E-01  0.7321E+00
     -0.160  0.1135E+00  0.7448E+00
     -0.049  0.1508E+00  0.7616E+00
      0.062  0.1734E+00  0.7809E+00
      0.174  0.1892E+00  0.8019E+00
      0.285  0.1909E+00  0.8232E+00
      0.396  0.1975E+00  0.8452E+00
      0.508  0.1874E+00  0.8660E+00
      0.619  0.1468E+00  0.8824E+00
      0.730  0.1183E+00  0.8956E+00
      0.842  0.1289E+00  0.9099E+00
      0.953  0.1374E+00  0.9252E+00
      1.064  0.9554E-01  0.9358E+00
      1.176  0.3726E-01  0.9400E+00
      1.287  0.4838E-02  0.9405E+00
      1.398 -0.2895E-02  0.9402E+00
      1.510 -0.1562E-02  0.9400E+00
      1.621 -0.3016E-03  0.9400E+00
      1.732 -0.2744E-04  0.9400E+00
      1.844 -0.1252E-05  0.9400E+00
      1.955 -0.2942E-07  0.9400E+00
      2.066 -0.3611E-09  0.9400E+00
      2.178 -0.8065E-11  0.9400E+00
      2.289 -0.7933E-09  0.9400E+00
      2.400 -0.5756E-07  0.9400E+00
      2.512 -0.2160E-05  0.9400E+00
      2.623 -0.4088E-04  0.9400E+00
      2.734 -0.3670E-03  0.9400E+00
      2.846 -0.1271E-02  0.9398E+00
      2.957  0.6756E-03  0.9399E+00
      3.068  0.1326E-01  0.9414E+00
      3.180  0.2663E-01  0.9443E+00
      3.291  0.1931E-01  0.9465E+00
      3.402  0.3764E-02  0.9469E+00
      3.514 -0.1331E-02  0.9468E+00
      3.625 -0.6834E-03  0.9467E+00
      3.737 -0.4870E-03  0.9466E+00
      3.848 -0.1971E-02  0.9464E+00
      3.959 -0.1995E-02  0.9462E+00
      4.071  0.1444E-01  0.9478E+00
      4.182  0.4809E-01  0.9531E+00
      4.293  0.6096E-01  0.9599E+00
      4.405  0.4288E-01  0.9647E+00
      4.516  0.1815E-01  0.9667E+00
      4.627  0.2035E-02  0.9669E+00
      4.739 -0.1722E-02  0.9668E+00
      4.850 -0.7071E-03  0.9667E+00
      4.961 -0.1376E-03  0.9667E+00
      5.073 -0.4148E-03  0.9666E+00
      5.184 -0.2256E-02  0.9664E+00
      5.295 -0.3596E-02  0.9660E+00
      5.407  0.1293E-01  0.9674E+00
      5.518  0.5885E-01  0.9740E+00
      5.629  0.9200E-01  0.9842E+00
      5.741  0.8650E-01  0.9938E+00
      5.852  0.8182E-01  0.1003E+01
      5.963  0.8259E-01  0.1012E+01
      6.075  0.7869E-01  0.1021E+01
      6.186  0.6739E-01  0.1028E+01
      6.297  0.3648E-01  0.1032E+01
      6.409  0.1836E-01  0.1035E+01
      6.520  0.3661E-01  0.1039E+01
      6.631  0.4881E-01  0.1044E+01
      6.743  0.4659E-01  0.1049E+01
      6.854  0.6796E-01  0.1057E+01
      6.965  0.8792E-01  0.1067E+01
      7.077  0.8551E-01  0.1076E+01
      7.188  0.8775E-01  0.1086E+01
      7.299  0.8458E-01  0.1095E+01
      7.411  0.8027E-01  0.1104E+01
      7.522  0.8324E-01  0.1113E+01
      7.633  0.5369E-01  0.1119E+01
      7.745  0.1100E-01  0.1121E+01
      7.856 -0.3640E-02  0.1120E+01
      7.967 -0.2015E-02  0.1120E+01
      8.079 -0.3402E-03  0.1120E+01
      8.190 -0.2658E-04  0.1120E+01
      8.301 -0.1050E-05  0.1120E+01
      8.413 -0.2163E-07  0.1120E+01
      8.524 -0.2357E-09  0.1120E+01
      8.635 -0.1368E-11  0.1120E+01
      8.747 -0.4228E-14  0.1120E+01
      8.858 -0.1330E-16  0.1120E+01
      8.969  0.0000E+00  0.1120E+01
      9.081  0.0000E+00  0.1120E+01
      9.192  0.0000E+00  0.1120E+01
      9.303  0.0000E+00  0.1120E+01
      9.415  0.0000E+00  0.1120E+01
      9.526  0.0000E+00  0.1120E+01
