  79  79   0   0
  0.2352942E+02  0.1210264E-08  0.7093817E-09  0.2165102E-08  0.5000000E-15
   1.0000000000000000E-004
  CAR 
 endpoint_relax_bottleneck               
      9.33605175    -23.87660022  301      0.88057870      1.00000000
    -23.877  0.0000E+00  0.0000E+00
    -23.766  0.0000E+00  0.0000E+00
    -23.655  0.0000E+00  0.0000E+00
    -23.544 -0.2575E-30 -0.2851E-31
    -23.434 -0.1955E-26 -0.2164E-27
    -23.323 -0.7871E-23 -0.8716E-24
    -23.212 -0.1717E-19 -0.1902E-20
    -23.102 -0.2030E-16 -0.2249E-17
    -22.991 -0.1259E-13 -0.1396E-14
    -22.880 -0.4327E-11 -0.4804E-12
    -22.770 -0.8011E-09 -0.8917E-10
    -22.659 -0.7957E-07 -0.8898E-08
    -22.548 -0.4212E-05 -0.4752E-06
    -22.437 -0.1174E-03 -0.1347E-04
    -22.327 -0.1686E-02 -0.2001E-03
    -22.216 -0.1187E-01 -0.1514E-02
    -22.105 -0.3507E-01 -0.5396E-02
    -21.995 -0.1239E-02 -0.5533E-02
    -21.884  0.2584E+00  0.2307E-01
    -21.773  0.8639E+00  0.1187E+00
    -21.662  0.1707E+01  0.3077E+00
    -21.552  0.2117E+01  0.5421E+00
    -21.441  0.1555E+01  0.7143E+00
    -21.330  0.6073E+00  0.7815E+00
    -21.220  0.6142E-01  0.7883E+00
    -21.109 -0.4712E-01  0.7831E+00
    -20.998 -0.2252E-01  0.7806E+00
    -20.887 -0.4677E-02  0.7801E+00
    -20.777 -0.5335E-03  0.7800E+00
    -20.666 -0.3411E-04  0.7800E+00
    -20.555 -0.1205E-05  0.7800E+00
    -20.445 -0.2318E-07  0.7800E+00
    -20.334 -0.2412E-09  0.7800E+00
    -20.223 -0.1354E-11  0.7800E+00
    -20.112 -0.4105E-14  0.7800E+00
    -20.002  0.0000E+00  0.7800E+00
    -19.891  0.0000E+00  0.7800E+00
    -19.780  0.0000E+00  0.7800E+00
    -19.670  0.0000E+00  0.7800E+00
    -19.559  0.0000E+00  0.7800E+00
    -19.448  0.0000E+00  0.7800E+00
    -19.338  0.0000E+00  0.7800E+00
    -19.227  0.0000E+00  0.7800E+00
    -19.116  0.0000E+00  0.7800E+00
    -19.005  0.0000E+00  0.7800E+00
    -18.895  0.0000E+00  0.7800E+00
    -18.784  0.0000E+00  0.7800E+00
    -18.673  0.0000E+00  0.7800E+00
    -18.563  0.0000E+00  0.7800E+00
    -18.452  0.0000E+00  0.7800E+00
    -18.341  0.0000E+00  0.7800E+00
    -18.230  0.0000E+00  0.7800E+00
    -18.120  0.0000E+00  0.7800E+00
    -18.009  0.0000E+00  0.7800E+00
    -17.898  0.0000E+00  0.7800E+00
    -17.788  0.0000E+00  0.7800E+00
    -17.677  0.0000E+00  0.7800E+00
    -17.566  0.0000E+00  0.7800E+00
    -17.455  0.0000E+00  0.7800E+00
    -17.345  0.0000E+00  0.7800E+00
    -17.234  0.0000E+00  0.7800E+00
    -17.123  0.0000E+00  0.7800E+00
    -17.013  0.0000E+00  0.7800E+00
    -16.902  0.0000E+00  0.7800E+00
    -16.791  0.0000E+00  0.7800E+00
    -16.681  0.0000E+00  0.7800E+00
    -16.570  0.0000E+00  0.7800E+00
    -16.459  0.0000E+00  0.7800E+00
    -16.348  0.0000E+00  0.7800E+00
    -16.238  0.0000E+00  0.7800E+00
    -16.127  0.0000E+00  0.7800E+00
    -16.016  0.0000E+00  0.7800E+00
    -15.906  0.0000E+00  0.7800E+00
    -15.795  0.0000E+00  0.7800E+00
    -15.684  0.0000E+00  0.7800E+00
    -15.573  0.0000E+00  0.7800E+00
    -15.463  0.0000E+00  0.7800E+00
    -15.352  0.0000E+00  0.7800E+00
    -15.241  0.0000E+00  0.7800E+00
    -15.131  0.0000E+00  0.7800E+00
    -15.020  0.0000E+00  0.7800E+00
    -14.909  0.0000E+00  0.7800E+00
    -14.798  0.0000E+00  0.7800E+00
    -14.688  0.0000E+00  0.7800E+00
    -14.577  0.0000E+00  0.7800E+00
    -14.466  0.0000E+00  0.7800E+00
    -14.356  0.0000E+00  0.7800E+00
    -14.245  0.0000E+00  0.7800E+00
    -14.134  0.0000E+00  0.7800E+00
    -14.024  0.0000E+00  0.7800E+00
    -13.913  0.0000E+00  0.7800E+00
    -13.802  0.0000E+00  0.7800E+00
    -13.691  0.0000E+00  0.7800E+00
    -13.581  0.0000E+00  0.7800E+00
    -13.470  0.0000E+00  0.7800E+00
    -13.359  0.0000E+00  0.7800E+00
    -13.249  0.0000E+00  0.7800E+00
    -13.138  0.0000E+00  0.7800E+00
    -13.027  0.0000E+00  0.7800E+00
    -12.916  0.0000E+00  0.7800E+00
    -12.806  0.0000E+00  0.7800E+00
    -12.695  0.0000E+00  0.7800E+00
    -12.584  0.0000E+00  0.7800E+00
    -12.474  0.0000E+00  0.7800E+00
    -12.363  0.0000E+00  0.7800E+00
    -12.252 -0.2037E-31  0.7800E+00
    -12.141 -0.1617E-27  0.7800E+00
    -12.031 -0.6812E-24  0.7800E+00
    -11.920 -0.1550E-20  0.7800E+00
    -11.809 -0.1903E-17  0.7800E+00
    -11.699 -0.1221E-14  0.7800E+00
    -11.588 -0.4345E-12  0.7800E+00
    -11.477 -0.8308E-10  0.7800E+00
    -11.367 -0.8530E-08  0.7800E+00
    -11.256 -0.4687E-06  0.7800E+00
    -11.145 -0.1368E-04  0.7800E+00
    -11.034 -0.2088E-03  0.7800E+00
    -10.924 -0.1599E-02  0.7798E+00
    -10.813 -0.5288E-02  0.7792E+00
    -10.702 -0.1920E-03  0.7792E+00
    -10.592  0.4678E-01  0.7844E+00
    -10.481  0.1343E+00  0.7992E+00
    -10.370  0.1741E+00  0.8185E+00
    -10.259  0.1116E+00  0.8309E+00
    -10.149  0.2218E-01  0.8333E+00
    -10.038 -0.1594E-01  0.8316E+00
     -9.927  0.2905E-01  0.8348E+00
     -9.817  0.1970E+00  0.8566E+00
     -9.706  0.4266E+00  0.9038E+00
     -9.595  0.4890E+00  0.9580E+00
     -9.484  0.2886E+00  0.9899E+00
     -9.374  0.6054E-01  0.9966E+00
     -9.263 -0.1642E-01  0.9948E+00
     -9.152 -0.1084E-01  0.9936E+00
     -9.042 -0.2132E-02  0.9934E+00
     -8.931 -0.1985E-03  0.9933E+00
     -8.820 -0.9550E-05  0.9933E+00
     -8.709 -0.2442E-06  0.9933E+00
     -8.599 -0.3356E-08  0.9933E+00
     -8.488 -0.2490E-10  0.9933E+00
     -8.377 -0.9996E-13  0.9933E+00
     -8.267 -0.2006E-15  0.9933E+00
     -8.156  0.0000E+00  0.9933E+00
     -8.045  0.0000E+00  0.9933E+00
     -7.935  0.0000E+00  0.9933E+00
     -7.824  0.0000E+00  0.9933E+00
     -7.713  0.0000E+00  0.9933E+00
     -7.602  0.0000E+00  0.9933E+00
     -7.492  0.0000E+00  0.9933E+00
     -7.381  0.0000E+00  0.9933E+00
     -7.270  0.0000E+00  0.9933E+00
     -7.160  0.0000E+00  0.9933E+00
     -7.049  0.0000E+00  0.9933E+00
     -6.938  0.0000E+00  0.9933E+00
     -6.827  0.0000E+00  0.9933E+00
     -6.717  0.0000E+00  0.9933E+00
     -6.606  0.0000E+00  0.9933E+00
     -6.495  0.0000E+00  0.9933E+00
     -6.385  0.0000E+00  0.9933E+00
     -6.274  0.0000E+00  0.9933E+00
     -6.163  0.0000E+00  0.9933E+00
     -6.052  0.0000E+00  0.9933E+00
     -5.942  0.0000E+00  0.9933E+00
     -5.831  0.0000E+00  0.9933E+00
     -5.720  0.0000E+00  0.9933E+00
     -5.610  0.0000E+00  0.9933E+00
     -5.499  0.0000E+00  0.9933E+00
     -5.388  0.0000E+00  0.9933E+00
     -5.278  0.0000E+00  0.9933E+00
     -5.167  0.0000E+00  0.9933E+00
     -5.056  0.0000E+00  0.9933E+00
     -4.945 -0.1557E-30  0.9933E+00
     -4.835 -0.1056E-26  0.9933E+00
     -4.724 -0.3854E-23  0.9933E+00
     -4.613 -0.7583E-20  0.9933E+00
     -4.503 -0.8035E-17  0.9933E+00
     -4.392 -0.4439E-14  0.9933E+00
     -4.281 -0.1350E-11  0.9933E+00
     -4.170 -0.2201E-09  0.9933E+00
     -4.060 -0.1917E-07  0.9933E+00
     -3.949 -0.8885E-06  0.9933E+00
     -3.838 -0.2176E-04  0.9933E+00
     -3.728 -0.2777E-03  0.9933E+00
     -3.617 -0.1771E-02  0.9931E+00
     -3.506 -0.4709E-02  0.9926E+00
     -3.395  0.2708E-02  0.9929E+00
     -3.285  0.4846E-01  0.9982E+00
     -3.174  0.1281E+00  0.1012E+01
     -3.063  0.1659E+00  0.1031E+01
     -2.953  0.1143E+00  0.1043E+01
     -2.842  0.3616E-01  0.1047E+01
     -2.731 -0.1197E-02  0.1047E+01
     -2.621 -0.4439E-02  0.1047E+01
     -2.510 -0.1297E-02  0.1047E+01
     -2.399 -0.1683E-03  0.1047E+01
     -2.288 -0.3627E-04  0.1047E+01
     -2.178 -0.3572E-03  0.1047E+01
     -2.067 -0.2579E-02  0.1046E+01
     -1.956 -0.8249E-02  0.1045E+01
     -1.846 -0.4282E-03  0.1045E+01
     -1.735  0.6998E-01  0.1053E+01
     -1.624  0.2037E+00  0.1076E+01
     -1.513  0.3008E+00  0.1109E+01
     -1.403  0.3084E+00  0.1143E+01
     -1.292  0.2643E+00  0.1172E+01
     -1.181  0.1912E+00  0.1194E+01
     -1.071  0.9852E-01  0.1204E+01
     -0.960  0.1892E-01  0.1207E+01
     -0.849 -0.6510E-02  0.1206E+01
     -0.738  0.5583E-01  0.1212E+01
     -0.628  0.1744E+00  0.1231E+01
     -0.517  0.2339E+00  0.1257E+01
     -0.406  0.2257E+00  0.1282E+01
     -0.296  0.2291E+00  0.1308E+01
     -0.185  0.2520E+00  0.1335E+01
     -0.074  0.2669E+00  0.1365E+01
      0.037  0.2489E+00  0.1393E+01
      0.147  0.2278E+00  0.1418E+01
      0.258  0.2591E+00  0.1446E+01
      0.369  0.3238E+00  0.1482E+01
      0.479  0.3807E+00  0.1524E+01
      0.590  0.3819E+00  0.1567E+01
      0.701  0.3096E+00  0.1601E+01
      0.811  0.1967E+00  0.1623E+01
      0.922  0.8665E-01  0.1632E+01
      1.033  0.1764E-01  0.1634E+01
      1.144 -0.4356E-02  0.1634E+01
      1.254 -0.3764E-02  0.1633E+01
      1.365 -0.9528E-03  0.1633E+01
      1.476 -0.1146E-03  0.1633E+01
      1.586 -0.7046E-05  0.1633E+01
      1.697 -0.2270E-06  0.1633E+01
      1.808 -0.3871E-08  0.1633E+01
      1.919 -0.3515E-10  0.1633E+01
      2.029 -0.1707E-12  0.1633E+01
      2.140 -0.4412E-15  0.1633E+01
      2.251 -0.7456E-19  0.1633E+01
      2.361 -0.6124E-16  0.1633E+01
      2.472 -0.2900E-13  0.1633E+01
      2.583 -0.7161E-11  0.1633E+01
      2.694 -0.9405E-09  0.1633E+01
      2.804 -0.6520E-07  0.1633E+01
      2.915 -0.2354E-05  0.1633E+01
      3.026 -0.4313E-04  0.1633E+01
      3.136 -0.3772E-03  0.1633E+01
      3.247 -0.1280E-02  0.1633E+01
      3.358  0.7014E-03  0.1633E+01
      3.468  0.1325E-01  0.1635E+01
      3.579  0.2661E-01  0.1638E+01
      3.690  0.1951E-01  0.1640E+01
      3.801  0.3919E-02  0.1640E+01
      3.911 -0.1693E-02  0.1640E+01
      4.022 -0.2445E-02  0.1640E+01
      4.133 -0.1601E-02  0.1640E+01
      4.243  0.1389E-01  0.1641E+01
      4.354  0.4399E-01  0.1646E+01
      4.465  0.4870E-01  0.1651E+01
      4.576  0.1998E-01  0.1654E+01
      4.686 -0.1731E-02  0.1653E+01
      4.797 -0.5811E-02  0.1653E+01
      4.908  0.7897E-02  0.1654E+01
      5.018  0.4726E-01  0.1659E+01
      5.129  0.7436E-01  0.1667E+01
      5.240  0.7182E-01  0.1675E+01
      5.351  0.9369E-01  0.1685E+01
      5.461  0.1338E+00  0.1700E+01
      5.572  0.1654E+00  0.1719E+01
      5.683  0.2060E+00  0.1741E+01
      5.793  0.2210E+00  0.1766E+01
      5.904  0.1708E+00  0.1785E+01
      6.015  0.1135E+00  0.1797E+01
      6.125  0.1171E+00  0.1810E+01
      6.236  0.1431E+00  0.1826E+01
      6.347  0.1404E+00  0.1842E+01
      6.458  0.1477E+00  0.1858E+01
      6.568  0.1848E+00  0.1878E+01
      6.679  0.1945E+00  0.1900E+01
      6.790  0.1750E+00  0.1919E+01
      6.900  0.1877E+00  0.1940E+01
      7.011  0.2203E+00  0.1965E+01
      7.122  0.2213E+00  0.1989E+01
      7.233  0.1843E+00  0.2009E+01
      7.343  0.1173E+00  0.2022E+01
      7.454  0.4326E-01  0.2027E+01
      7.565  0.1803E-02  0.2027E+01
      7.675 -0.4815E-02  0.2027E+01
      7.786 -0.1733E-02  0.2027E+01
      7.897 -0.2595E-03  0.2027E+01
      8.008 -0.1932E-04  0.2027E+01
      8.118 -0.7491E-06  0.2027E+01
      8.229 -0.1538E-07  0.2027E+01
      8.340 -0.1683E-09  0.2027E+01
      8.450 -0.9867E-12  0.2027E+01
      8.561 -0.3102E-14  0.2027E+01
      8.672  0.0000E+00  0.2027E+01
      8.783  0.0000E+00  0.2027E+01
      8.893  0.0000E+00  0.2027E+01
      9.004  0.0000E+00  0.2027E+01
      9.115  0.0000E+00  0.2027E+01
      9.225  0.0000E+00  0.2027E+01
      9.336  0.0000E+00  0.2027E+01
