 vasp.6.3.2 27Jun22 (build Jun 14 2024 17:29:11) complex                         
 executed on             LinuxGNU date 2026.04.03  19:49:12
 running on   16 total cores
 distrk:  each k-point on   16 cores,    1 groups
 distr:  one band on NCORE=   1 cores,   16 groups


--------------------------------------------------------------------------------------------------------


 INCAR:
   SYSTEM = endpoint_relax_bottleneck
   ENCUT = 500
   EDIFF = 1E-06
   PREC = Accurate
   ALGO = Fast
   LREAL = .FALSE.
   ADDGRID = .TRUE.
   ISYM = 0
   IBRION = 2
   ISIF = 2
   NSW = 300
   EDIFFG = -0.02
   LWAVE = .TRUE.
   LCHARG = .FALSE.

 POTCAR:    PAW_PBE Na_pv 19Sep2006               
 POTCAR:    PAW_PBE Al 04Jan2001                  
 POTCAR:    PAW_PBE S 06Sep2000                   
 -----------------------------------------------------------------------------
|                                                                             |
|           W    W    AA    RRRRR   N    N  II  N    N   GGGG   !!!           |
|           W    W   A  A   R    R  NN   N  II  NN   N  G    G  !!!           |
|           W    W  A    A  R    R  N N  N  II  N N  N  G       !!!           |
|           W WW W  AAAAAA  RRRRR   N  N N  II  N  N N  G  GGG   !            |
|           WW  WW  A    A  R   R   N   NN  II  N   NN  G    G                |
|           W    W  A    A  R    R  N    N  II  N    N   GGGG   !!!           |
|                                                                             |
|     For optimal performance we recommend to set                             |
|       NCORE = 2 up to number-of-cores-per-socket                            |
|     NCORE specifies how many cores store one orbital (NPAR=cpu/NCORE).      |
|     This setting can greatly improve the performance of VASP for DFT.       |
|     The default, NCORE=1 might be grossly inefficient on modern             |
|     multi-core architectures or massively parallel machines. Do your        |
|     own testing! More info at https://www.vasp.at/wiki/index.php/NCORE      |
|     Unfortunately you need to use the default for GW and RPA                |
|     calculations (for HF NCORE is supported but not extensively tested      |
|     yet).                                                                   |
|                                                                             |
 -----------------------------------------------------------------------------

 POTCAR:    PAW_PBE Na_pv 19Sep2006               
   SHA256 =  6a2f546d9e11350984debacf3dc457d8cffc0868e817d445faca461816a32b94 Na_pv/POTCAR          
   COPYR  = (c) Copyright 19Sep2006 Georg Kresse                                                    
   COPYR  = This file is part of the software VASP. Any use, copying, and all other rights are regul
   COPYR  = If you do not have a valid VASP license, you may not use, copy or distribute this file. 
   VRHFIN =Na: p6s1                                                                                 
   LEXCH  = PE                                                                                      
   EATOM  =   766.0439 eV,   56.3026 Ry                                                             
                                                                                                    
   TITEL  = PAW_PBE Na_pv 19Sep2006                                                                 
   LULTRA =        F    use ultrasoft PP ?                                                          
   IUNSCR =        1    unscreen: 0-lin 1-nonlin 2-no                                               
   RPACOR =    1.800    partial core radius                                                         
   POMASS =   22.990; ZVAL   =    7.000    mass and valenz                                          
   RCORE  =    2.200    outmost cutoff radius                                                       
   RWIGS  =    2.200; RWIGS  =    1.164    wigner-seitz radius (au A)                               
   ENMAX  =  259.561; ENMIN  =  194.671 eV                                                          
   ICORE  =        2    local potential                                                             
   LCOR   =        T    correct aug charges                                                         
   LPAW   =        T    paw PP                                                                      
   EAUG   =  368.056                                                                                
   DEXC   =    0.000                                                                                
   RMAX   =    2.245    core radius for proj-oper                                                   
   RAUG   =    1.300    factor for augmentation sphere                                              
   RDEP   =    2.259    radius for radial grids                                                     
   RDEPT  =    1.738    core radius for aug-charge                                                  
                                                                                                    
   Atomic configuration                                                                             
    5 entries                                                                                       
     n  l   j            E        occ.                                                              
     1  0  0.50     -1033.6933   2.0000                                                             
     2  0  0.50       -56.7526   2.0000                                                             
     2  1  1.50       -28.6721   6.0000                                                             
     3  0  0.50        -2.7440   1.0000                                                             
     3  2  1.50        -1.3606   0.0000                                                             
   Description                                                                                      
     l       E           TYP  RCUT    TYP  RCUT                                                     
     1    -28.6720912     23  2.000                                                                 
     1      6.8029130     23  2.000                                                                 
     0     -2.7439560     23  2.200                                                                 
     0     34.0145650     23  2.200                                                                 
     2     -1.3605826     23  2.200                                                                 
  local pseudopotential read in
  partial core-charges read in
  partial kinetic energy density read in
  atomic valenz-charges read in
  non local Contribution for L=           1  read in
    real space projection operators read in
  non local Contribution for L=           1  read in
    real space projection operators read in
  non local Contribution for L=           0  read in
    real space projection operators read in
  non local Contribution for L=           0  read in
    real space projection operators read in
    PAW grid and wavefunctions read in

   number of l-projection  operators is LMAX  =           4
   number of lm-projection operators is LMMAX =           8

 POTCAR:    PAW_PBE Al 04Jan2001                  
   SHA256 =  17880443556af62b473fe41b62a467bd001ad55d2cabe504a3f22e34d4e9db96 Al/POTCAR             
   COPYR  = (c) Copyright 04Jan2001 Georg Kresse                                                    
   COPYR  = This file is part of the software VASP. Any use, copying, and all other rights are regul
   COPYR  = If you do not have a valid VASP license, you may not use, copy or distribute this file. 
   VRHFIN =Al: s2p1                                                                                 
   LEXCH  = PE                                                                                      
   EATOM  =    53.5387 eV,    3.9350 Ry                                                             
                                                                                                    
   TITEL  = PAW_PBE Al 04Jan2001                                                                    
   LULTRA =        F    use ultrasoft PP ?                                                          
   IUNSCR =        1    unscreen: 0-lin 1-nonlin 2-no                                               
   RPACOR =    1.500    partial core radius                                                         
   POMASS =   26.981; ZVAL   =    3.000    mass and valenz                                          
   RCORE  =    1.900    outmost cutoff radius                                                       
   RWIGS  =    2.650; RWIGS  =    1.402    wigner-seitz radius (au A)                               
   ENMAX  =  240.300; ENMIN  =  180.225 eV                                                          
   ICORE  =        2    local potential                                                             
   LCOR   =        T    correct aug charges                                                         
   LPAW   =        T    paw PP                                                                      
   EAUG   =  291.052                                                                                
   DEXC   =    0.000                                                                                
   RMAX   =    1.939    core radius for proj-oper                                                   
   RAUG   =    1.300    factor for augmentation sphere                                              
   RDEP   =    1.966    radius for radial grids                                                     
   RDEPT  =    1.856    core radius for aug-charge                                                  
                                                                                                    
   Atomic configuration                                                                             
    6 entries                                                                                       
     n  l   j            E        occ.                                                              
     1  0  0.50     -1511.1048   2.0000                                                             
     2  0  0.50      -108.1629   2.0000                                                             
     2  1  1.50       -69.6402   6.0000                                                             
     3  0  0.50        -7.7528   2.0000                                                             
     3  1  1.50        -2.7121   1.0000                                                             
     3  2  2.50        -2.7212   0.0000                                                             
   Description                                                                                      
     l       E           TYP  RCUT    TYP  RCUT                                                     
     0     -7.7528455     23  1.900                                                                 
     0     -3.3096929     23  1.900                                                                 
     1     -2.7120682     23  1.900                                                                 
     1     13.6058260     23  1.900                                                                 
     2     -2.7211652      7  1.900                                                                 
  local pseudopotential read in
  partial core-charges read in
  partial kinetic energy density read in
  atomic valenz-charges read in
  non local Contribution for L=           0  read in
    real space projection operators read in
  non local Contribution for L=           0  read in
    real space projection operators read in
  non local Contribution for L=           1  read in
    real space projection operators read in
  non local Contribution for L=           1  read in
    real space projection operators read in
    PAW grid and wavefunctions read in

   number of l-projection  operators is LMAX  =           4
   number of lm-projection operators is LMMAX =           8

 POTCAR:    PAW_PBE S 06Sep2000                   
   SHA256 =  0fc7481fb0695f01bdc6462160264c5c84044ae9ec85a907d398b887a2bc3132 S/POTCAR              
   COPYR  = (c) Copyright 06Sep2000 Georg Kresse                                                    
   COPYR  = This file is part of the software VASP. Any use, copying, and all other rights are regul
   COPYR  = If you do not have a valid VASP license, you may not use, copy or distribute this file. 
   VRHFIN =S : s2p4                                                                                 
   LEXCH  = PE                                                                                      
   EATOM  =   276.8230 eV,   20.3459 Ry                                                             
                                                                                                    
   TITEL  = PAW_PBE S 06Sep2000                                                                     
   LULTRA =        F    use ultrasoft PP ?                                                          
   IUNSCR =        1    unscreen: 0-lin 1-nonlin 2-no                                               
   RPACOR =    1.500    partial core radius                                                         
   POMASS =   32.066; ZVAL   =    6.000    mass and valenz                                          
   RCORE  =    1.900    outmost cutoff radius                                                       
   RWIGS  =    2.200; RWIGS  =    1.164    wigner-seitz radius (au A)                               
   ENMAX  =  258.689; ENMIN  =  194.016 eV                                                          
   ICORE  =        2    local potential                                                             
   LCOR   =        T    correct aug charges                                                         
   LPAW   =        T    paw PP                                                                      
   EAUG   =  335.092                                                                                
   DEXC   =    0.000                                                                                
   RMAX   =    1.942    core radius for proj-oper                                                   
   RAUG   =    1.300    factor for augmentation sphere                                              
   RDEP   =    1.954    radius for radial grids                                                     
   RDEPT  =    1.744    core radius for aug-charge                                                  
                                                                                                    
   Atomic configuration                                                                             
    6 entries                                                                                       
     n  l   j            E        occ.                                                              
     1  0  0.50     -2405.8406   2.0000                                                             
     2  0  0.50      -211.7007   2.0000                                                             
     2  1  1.50      -156.4958   6.0000                                                             
     3  0  0.50       -17.2562   2.0000                                                             
     3  1  0.50        -7.0085   4.0000                                                             
     3  2  1.50        -6.8029   0.0000                                                             
   Description                                                                                      
     l       E           TYP  RCUT    TYP  RCUT                                                     
     0    -17.2561641     23  1.900                                                                 
     0    -15.8743224     23  1.900                                                                 
     1     -7.0085400     23  1.900                                                                 
     1     -2.7779785     23  1.900                                                                 
     2     -6.8029130     23  1.900                                                                 
  local pseudopotential read in
  partial core-charges read in
  partial kinetic energy density read in
  atomic valenz-charges read in
  non local Contribution for L=           0  read in
    real space projection operators read in
  non local Contribution for L=           0  read in
    real space projection operators read in
  non local Contribution for L=           1  read in
    real space projection operators read in
  non local Contribution for L=           1  read in
    real space projection operators read in
    PAW grid and wavefunctions read in

   number of l-projection  operators is LMAX  =           4
   number of lm-projection operators is LMMAX =           8

 -----------------------------------------------------------------------------
|                                                                             |
|               ----> ADVICE to this user running VASP <----                  |
|                                                                             |
|     You have a (more or less) 'large supercell' and for larger cells it     |
|     might be more efficient to use real-space projection operators.         |
|     Therefore, try LREAL= Auto in the INCAR file.                           |
|     Mind: For very accurate calculation, you might also keep the            |
|     reciprocal projection scheme (i.e. LREAL=.FALSE.).                      |
|                                                                             |
 -----------------------------------------------------------------------------

  PAW_PBE Na_pv 19Sep2006               :
 energy of atom  1       EATOM= -766.0439
 kinetic energy error for atom=    0.0021 (will be added to EATOM!!)
  PAW_PBE Al 04Jan2001                  :
 energy of atom  2       EATOM=  -53.5387
 kinetic energy error for atom=    0.0003 (will be added to EATOM!!)
  PAW_PBE S 06Sep2000                   :
 energy of atom  3       EATOM= -276.8230
 kinetic energy error for atom=    0.0020 (will be added to EATOM!!)


 POSCAR: Na5AlS4 bottleneck ep10
  positions in direct lattice
  No initial velocities read in
 exchange correlation table for  LEXCH =        8
   RHO(1)=    0.500       N(1)  =     2000
   RHO(2)=  100.500       N(2)  =     4000



--------------------------------------------------------------------------------------------------------


 ion  position               nearest neighbor table
   1  0.352  0.909  0.500-
   2  0.648  0.409  0.000-
   3  0.148  0.091  1.000-
   4  0.148  0.409  0.500-
   5  0.352  0.591  1.000-
   6  0.648  0.091  0.500-
   7  0.852  0.591  0.500-
   8  0.852  0.909  0.000-
   9  0.287  0.554  0.366-
  10  0.713  0.054  0.134-
  11  0.213  0.054  0.366-
  12  0.287  0.946  0.866-
  13  0.713  0.446  0.634-
  14  0.787  0.946  0.634-
  15  0.787  0.554  0.134-
  16  0.556  0.565  0.434-  49 2.70  56 2.71  70 2.74
  17  0.444  0.065  0.066-  48 2.70  57 2.71  66 2.74
  18  0.944  0.435  0.934-  54 2.70  58 2.71  65 2.74
  19  0.944  0.065  0.434-  55 2.70  59 2.71  69 2.74
  20  0.556  0.935  0.934-  53 2.70  60 2.71  71 2.74
  21  0.444  0.435  0.566-  52 2.70  61 2.71  67 2.74
  22  0.056  0.935  0.566-  50 2.70  62 2.71  64 2.74
  23  0.056  0.565  0.066-  51 2.70  63 2.71  68 2.74
  24  0.586  0.381  0.251-
  25  0.414  0.881  0.249-
  26  0.914  0.619  0.751-
  27  0.914  0.881  0.251-
  28  0.586  0.119  0.751-
  29  0.414  0.619  0.749-
  30  0.086  0.119  0.749-
  31  0.086  0.381  0.249-
  32  0.837  0.107  0.830-  74 2.73  71 2.75  65 2.76
  33  0.163  0.607  0.670-  78 2.73  67 2.75  64 2.76
  34  0.663  0.893  0.330-  72 2.73  69 2.75  70 2.76
  35  0.663  0.607  0.830-  76 2.73  65 2.75  71 2.76
  36  0.837  0.393  0.330-  75 2.73  70 2.75  69 2.76
  37  0.163  0.893  0.170-  79 2.73  66 2.75  68 2.76
  38  0.337  0.393  0.170-  73 2.73  68 2.75  66 2.76
  39  0.337  0.107  0.670-  77 2.73  64 2.75  67 2.76
  40  0.040  0.830  0.875-  58 2.27  78 2.27  65 2.28  51 2.28
  41  0.960  0.330  0.625-  62 2.27  74 2.27  64 2.28  55 2.28
  42  0.460  0.170  0.375-  56 2.27  73 2.27  70 2.28  52 2.28
  43  0.460  0.330  0.875-  60 2.27  77 2.27  71 2.28  48 2.28
  44  0.040  0.670  0.375-  59 2.27  79 2.27  69 2.28  50 2.28
  45  0.960  0.170  0.125-  63 2.27  75 2.27  68 2.28  54 2.28
  46  0.540  0.670  0.125-  57 2.27  72 2.27  66 2.28  53 2.28
  47  0.540  0.830  0.625-  61 2.27  76 2.27  67 2.28  49 2.28
  48  0.370  0.205  0.957-  43 2.28  17 2.70
  49  0.630  0.705  0.543-  47 2.28  16 2.70
  50  0.130  0.795  0.457-  44 2.28  22 2.70
  51  0.130  0.705  0.957-  40 2.28  23 2.70
  52  0.370  0.295  0.457-  42 2.28  21 2.70
  53  0.630  0.795  0.043-  46 2.28  20 2.70
  54  0.870  0.295  0.043-  45 2.28  18 2.70
  55  0.870  0.205  0.543-  41 2.28  19 2.70
  56  0.447  0.851  0.378-  42 2.27  16 2.71
  57  0.553  0.351  0.122-  46 2.27  17 2.71
  58  0.053  0.149  0.878-  40 2.27  18 2.71
  59  0.053  0.351  0.378-  44 2.27  19 2.71
  60  0.447  0.649  0.878-  43 2.27  20 2.71
  61  0.553  0.149  0.622-  47 2.27  21 2.71
  62  0.947  0.649  0.622-  41 2.27  22 2.71
  63  0.947  0.851  0.122-  45 2.27  23 2.71
  64  0.141  0.245  0.624-  41 2.28  22 2.74  39 2.75  33 2.76
  65  0.859  0.745  0.876-  40 2.28  18 2.74  35 2.75  32 2.76
  66  0.359  0.755  0.124-  46 2.28  17 2.74  37 2.75  38 2.76
  67  0.359  0.745  0.624-  47 2.28  21 2.74  33 2.75  39 2.76
  68  0.141  0.255  0.124-  45 2.28  23 2.74  38 2.75  37 2.76
  69  0.859  0.755  0.376-  44 2.28  19 2.74  34 2.75  36 2.76
  70  0.641  0.255  0.376-  42 2.28  16 2.74  36 2.75  34 2.76
  71  0.641  0.245  0.876-  43 2.28  20 2.74  32 2.75  35 2.76
  72  0.630  0.761  0.213-  46 2.27  34 2.73
  73  0.370  0.261  0.287-  42 2.27  38 2.73
  74  0.870  0.239  0.713-  41 2.27  32 2.73
  75  0.870  0.261  0.213-  45 2.27  36 2.73
  76  0.630  0.739  0.713-  47 2.27  35 2.73
  77  0.370  0.239  0.787-  43 2.27  39 2.73
  78  0.130  0.739  0.787-  40 2.27  33 2.73
  79  0.130  0.761  0.287-  44 2.27  37 2.73


IMPORTANT INFORMATION: All symmetrisations will be switched off!
NOSYMM: (Re-)initialisation of all symmetry stuff for point group C_1.


----------------------------------------------------------------------------------------

                                     Primitive cell                                     

  volume of cell :    1858.8241

  direct lattice vectors                    reciprocal lattice vectors
    12.102638204 -0.000000000  0.000000000     0.082626613  0.000000000 -0.000000000
    -0.000000000  7.093817079  0.000000000     0.000000000  0.140967830 -0.000000000
     0.000000000  0.000000000 21.651014956    -0.000000000 -0.000000000  0.046187211

  length of vectors
    12.102638204  7.093817079 21.651014956     0.082626613  0.140967830  0.046187211

  position of ions in fractional coordinates (direct lattice)
     0.351501911  0.908580173  0.499874127
     0.648498089  0.408580173  0.000125873
     0.148498089  0.091419827  0.999874127
     0.148498089  0.408580173  0.499874127
     0.351501911  0.591419827  0.999874127
     0.648498089  0.091419827  0.500125873
     0.851501911  0.591419827  0.500125873
     0.851501911  0.908580173  0.000125873
     0.287037455  0.553641495  0.365704068
     0.712962545  0.053641495  0.134295932
     0.212962545  0.053641495  0.365704068
     0.287037455  0.946358505  0.865704068
     0.712962545  0.446358505  0.634295932
     0.787037455  0.946358505  0.634295932
     0.787037455  0.553641495  0.134295932
     0.556392998  0.565166083  0.434112628
     0.443607002  0.065166083  0.065887372
     0.943607002  0.434833917  0.934112628
     0.943607002  0.065166083  0.434112628
     0.556392998  0.934833917  0.934112628
     0.443607002  0.434833917  0.565887372
     0.056392998  0.934833917  0.565887372
     0.056392998  0.565166083  0.065887372
     0.586277872  0.380876536  0.250636148
     0.413722128  0.880876536  0.249363852
     0.913722128  0.619123464  0.750636148
     0.913722128  0.880876536  0.250636148
     0.586277872  0.119123464  0.750636148
     0.413722128  0.619123464  0.749363852
     0.086277872  0.119123464  0.749363852
     0.086277872  0.380876536  0.249363852
     0.837195332  0.106739277  0.829724985
     0.162804668  0.606739277  0.670275015
     0.662804668  0.893260723  0.329724985
     0.662804668  0.606739277  0.829724985
     0.837195332  0.393260723  0.329724985
     0.162804668  0.893260723  0.170275015
     0.337195332  0.393260723  0.170275015
     0.337195332  0.106739277  0.670275015
     0.040015432  0.829939837  0.874579644
     0.959984568  0.329939837  0.625420356
     0.459984568  0.170060163  0.374579644
     0.459984568  0.329939837  0.874579644
     0.040015432  0.670060163  0.374579644
     0.959984568  0.170060163  0.125420356
     0.540015432  0.670060163  0.125420356
     0.540015432  0.829939837  0.625420356
     0.370249064  0.204734029  0.957371820
     0.629750936  0.704734029  0.542628180
     0.129750936  0.795265971  0.457371820
     0.129750936  0.704734029  0.957371820
     0.370249064  0.295265971  0.457371820
     0.629750936  0.795265971  0.042628180
     0.870249064  0.295265971  0.042628180
     0.870249064  0.204734029  0.542628180
     0.446889613  0.851242122  0.378477527
     0.553110387  0.351242122  0.121522473
     0.053110387  0.148757878  0.878477527
     0.053110387  0.351242122  0.378477527
     0.446889613  0.648757878  0.878477527
     0.553110387  0.148757878  0.621522473
     0.946889613  0.648757878  0.621522473
     0.946889613  0.851242122  0.121522473
     0.141331091  0.245285831  0.624492831
     0.858668909  0.745285831  0.875507169
     0.358668909  0.754714169  0.124492831
     0.358668909  0.745285831  0.624492831
     0.141331091  0.254714169  0.124492831
     0.858668909  0.754714169  0.375507169
     0.641331091  0.254714169  0.375507169
     0.641331091  0.245285831  0.875507169
     0.630093410  0.761010605  0.212510784
     0.369906590  0.261010605  0.287489216
     0.869906590  0.238989395  0.712510784
     0.869906590  0.261010605  0.212510784
     0.630093410  0.738989395  0.712510784
     0.369906590  0.238989395  0.787489216
     0.130093410  0.738989395  0.787489216
     0.130093410  0.761010605  0.287489216

  ion indices of the primitive-cell ions
   primitive index   ion index
                 1           1
                 2           2
                 3           3
                 4           4
                 5           5
                 6           6
                 7           7
                 8           8
                 9           9
                10          10
                11          11
                12          12
                13          13
                14          14
                15          15
                16          16
                17          17
                18          18
                19          19
                20          20
                21          21
                22          22
                23          23
                24          24
                25          25
                26          26
                27          27
                28          28
                29          29
                30          30
                31          31
                32          32
                33          33
                34          34
                35          35
                36          36
                37          37
                38          38
                39          39
                40          40
                41          41
                42          42
                43          43
                44          44
                45          45
                46          46
                47          47
                48          48
                49          49
                50          50
                51          51
                52          52
                53          53
                54          54
                55          55
                56          56
                57          57
                58          58
                59          59
                60          60
                61          61
                62          62
                63          63
                64          64
                65          65
                66          66
                67          67
                68          68
                69          69
                70          70
                71          71
                72          72
                73          73
                74          74
                75          75
                76          76
                77          77
                78          78
                79          79

----------------------------------------------------------------------------------------



 KPOINTS: Gamma-point only                        

Automatic generation of k-mesh.
 Grid dimensions read from file:
 generate k-points for:    1    1    1

 Generating k-lattice:

  Cartesian coordinates                     Fractional coordinates (reciprocal lattice)
     0.082626613  0.000000000 -0.000000000     1.000000000 -0.000000000  0.000000000
     0.000000000  0.140967830 -0.000000000     0.000000000  1.000000000  0.000000000
    -0.000000000 -0.000000000  0.046187211    -0.000000000 -0.000000000  1.000000000

  Length of vectors
     0.082626613  0.140967830  0.046187211

  Shift w.r.t. Gamma in fractional coordinates (k-lattice)
     0.000000000  0.000000000  0.000000000

 
 Subroutine IBZKPT returns following result:
 ===========================================
 
 Found      1 irreducible k-points:
 
 Following reciprocal coordinates:
            Coordinates               Weight
  0.000000  0.000000  0.000000      1.000000
 
 Following cartesian coordinates:
            Coordinates               Weight
  0.000000  0.000000  0.000000      1.000000
 


--------------------------------------------------------------------------------------------------------




 Dimension of arrays:
   k-points           NKPTS =      1   k-points in BZ     NKDIM =      1   number of bands    NBANDS=    304
   number of dos      NEDOS =    301   number of ions     NIONS =     79
   non local maximal  LDIM  =      4   non local SUM 2l+1 LMDIM =      8
   total plane-waves  NPLWV = 777600
   max r-space proj   IRMAX =      1   max aug-charges    IRDMAX= 130434
   dimension x,y,z NGX =    90 NGY =   54 NGZ =  160
   dimension x,y,z NGXF=   180 NGYF=  108 NGZF=  320
   support grid    NGXF=   360 NGYF=  216 NGZF=  640
   ions per type =              39   8  32
   NGX,Y,Z   is equivalent  to a cutoff of  12.36, 12.66, 12.29 a.u.
   NGXF,Y,Z  is equivalent  to a cutoff of  24.73, 25.31, 24.57 a.u.

 SYSTEM =  endpoint_relax_bottleneck               
 POSCAR =  Na5AlS4 bottleneck ep10                 

 Startparameter for this run:
   NWRITE =      2    write-flag & timer
   PREC   = accura    normal or accurate (medium, high low for compatibility)
   ISTART =      0    job   : 0-new  1-cont  2-samecut
   ICHARG =      2    charge: 1-file 2-atom 10-const
   ISPIN  =      1    spin polarized calculation?
   LNONCOLLINEAR =      F non collinear calculations
   LSORBIT =      F    spin-orbit coupling
   INIWAV =      1    electr: 0-lowe 1-rand  2-diag
   LASPH  =      F    aspherical Exc in radial PAW
 Electronic Relaxation 1
   ENCUT  =  500.0 eV  36.75 Ry    6.06 a.u.  22.07 12.93 39.47*2*pi/ulx,y,z
   ENINI  =  500.0     initial cutoff
   ENAUG  =  368.1 eV  augmentation charge cutoff
   NELM   =     60;   NELMIN=  2; NELMDL= -5     # of ELM steps 
   EDIFF  = 0.1E-05   stopping-criterion for ELM
   LREAL  =      F    real-space projection
   NLSPLINE    = F    spline interpolate recip. space projectors
   LCOMPAT=      F    compatible to vasp.4.4
   GGA_COMPAT  = T    GGA compatible to vasp.4.4-vasp.4.6
   LMAXPAW     = -100 max onsite density
   LMAXMIX     =    2 max onsite mixed and CHGCAR
   VOSKOWN=      0    Vosko Wilk Nusair interpolation
   ROPT   =    0.00000   0.00000   0.00000
 Ionic relaxation
   EDIFFG = -.2E-01   stopping-criterion for IOM
   NSW    =    300    number of steps for IOM
   NBLOCK =      1;   KBLOCK =    300    inner block; outer block 
   IBRION =      2    ionic relax: 0-MD 1-quasi-New 2-CG
   NFREE  =      1    steps in history (QN), initial steepest desc. (CG)
   ISIF   =      2    stress and relaxation
   IWAVPR =     11    prediction:  0-non 1-charg 2-wave 3-comb
   ISYM   =      0    0-nonsym 1-usesym 2-fastsym
   LCORR  =      T    Harris-Foulkes like correction to forces

   POTIM  = 0.5000    time-step for ionic-motion
   TEIN   =    0.0    initial temperature
   TEBEG  =    0.0;   TEEND  =   0.0 temperature during run
   SMASS  =  -3.00    Nose mass-parameter (am)
   estimated Nose-frequenzy (Omega)   =  0.10E-29 period in steps = 0.13E+47 mass=  -0.335E-26a.u.
   SCALEE = 1.0000    scale energy and forces
   NPACO  =    256;   APACO  = 10.0  distance and # of slots for P.C.
   PSTRESS=    0.0 pullay stress

  Mass of Ions in am
   POMASS =  22.99 26.98 32.07
  Ionic Valenz
   ZVAL   =   7.00  3.00  6.00
  Atomic Wigner-Seitz radii
   RWIGS  =  -1.00 -1.00 -1.00
  virtual crystal weights 
   VCA    =   1.00  1.00  1.00
   NELECT =     489.0000    total number of electrons
   NUPDOWN=      -1.0000    fix difference up-down

 DOS related values:
   EMIN   =  10.00;   EMAX   =-10.00  energy-range for DOS
   EFERMI =   0.00
   ISMEAR =     1;   SIGMA  =   0.20  broadening in eV -4-tet -1-fermi 0-gaus

 Electronic relaxation 2 (details)
   IALGO  =     68    algorithm
   LDIAG  =      T    sub-space diagonalisation (order eigenvalues)
   LSUBROT=      F    optimize rotation matrix (better conditioning)
   TURBO    =      0    0=normal 1=particle mesh
   IRESTART =      0    0=no restart 2=restart with 2 vectors
   NREBOOT  =      0    no. of reboots
   NMIN     =      0    reboot dimension
   EREF     =   0.00    reference energy to select bands
   IMIX   =      4    mixing-type and parameters
     AMIX     =   0.40;   BMIX     =  1.00
     AMIX_MAG =   1.60;   BMIX_MAG =  1.00
     AMIN     =   0.10
     WC   =   100.;   INIMIX=   1;  MIXPRE=   1;  MAXMIX= -45

 Intra band minimization:
   WEIMIN = 0.0010     energy-eigenvalue tresh-hold
   EBREAK =  0.82E-09  absolut break condition
   DEPER  =   0.30     relativ break condition  

   TIME   =   0.40     timestep for ELM

  volume/ion in A,a.u.               =      23.53       158.78
  Fermi-wavevector in a.u.,A,eV,Ry     =   1.048975  1.982275 14.971143  1.100348
  Thomas-Fermi vector in A             =   2.183918

 Write flags
   LWAVE        =      T    write WAVECAR
   LDOWNSAMPLE  =      F    k-point downsampling of WAVECAR
   LCHARG       =      F    write CHGCAR
   LVTOT        =      F    write LOCPOT, total local potential
   LVHAR        =      F    write LOCPOT, Hartree potential only
   LELF         =      F    write electronic localiz. function (ELF)
   LORBIT       =      0    0 simple, 1 ext, 2 COOP (PROOUT), +10 PAW based schemes


 Dipole corrections
   LMONO  =      F    monopole corrections only (constant potential shift)
   LDIPOL =      F    correct potential (dipole corrections)
   IDIPOL =      0    1-x, 2-y, 3-z, 4-all directions 
   EPSILON=  1.0000000 bulk dielectric constant

 Exchange correlation treatment:
   GGA     =    --    GGA type
   LEXCH   =     8    internal setting for exchange type
   LIBXC   =     F    Libxc                    
   VOSKOWN =     0    Vosko Wilk Nusair interpolation
   LHFCALC =     F    Hartree Fock is set to
   LHFONE  =     F    Hartree Fock one center treatment
   AEXX    =    0.0000 exact exchange contribution

 Linear response parameters
   LEPSILON=     F    determine dielectric tensor
   LRPA    =     F    only Hartree local field effects (RPA)
   LNABLA  =     F    use nabla operator in PAW spheres
   LVEL    =     F    velocity operator in full k-point grid
   CSHIFT  =0.1000    complex shift for real part using Kramers Kronig
   OMEGAMAX=  -1.0    maximum frequency
   DEG_THRESHOLD= 0.2000000E-02 threshold for treating states as degnerate
   RTIME   =   -0.100 relaxation time in fs
  (WPLASMAI=    0.000 imaginary part of plasma frequency in eV, 0.658/RTIME)
   DFIELD  = 0.0000000 0.0000000 0.0000000 field for delta impulse in time

  Optional k-point grid parameters
   LKPOINTS_OPT  =     F    use optional k-point grid
   KPOINTS_OPT_MODE=     1    mode for optional k-point grid

 Orbital magnetization related:
   ORBITALMAG=     F  switch on orbital magnetization
   LCHIMAG   =     F  perturbation theory with respect to B field
   DQ        =  0.001000  dq finite difference perturbation B field
   LLRAUG    =     F  two centre corrections for induced B field



--------------------------------------------------------------------------------------------------------


 conjugate gradient relaxation of ions
 charge density and potential will be updated during run
 non-spin polarized calculation
 RMM-DIIS sequential band-by-band and
  variant of blocked Davidson during initial phase
 perform sub-space diagonalisation
    before iterative eigenvector-optimisation
 modified Broyden-mixing scheme, WC =      100.0
 initial mixing is a Kerker type mixing with AMIX =  0.4000 and BMIX =      1.0000
 Hartree-type preconditioning will be used
 using additional bands           59
 reciprocal scheme for non local part
 use partial core corrections
 calculate Harris-corrections to forces   (improved forces if not selfconsistent)
 use gradient corrections 
 use of overlap-Matrix (Vanderbilt PP)
 Methfessel and Paxton  Order N= 1 SIGMA  =   0.20


--------------------------------------------------------------------------------------------------------


  energy-cutoff  :      500.00
  volume of cell :     1858.82
      direct lattice vectors                 reciprocal lattice vectors
    12.102638204 -0.000000000  0.000000000     0.082626613  0.000000000 -0.000000000
    -0.000000000  7.093817079  0.000000000     0.000000000  0.140967830 -0.000000000
     0.000000000  0.000000000 21.651014956    -0.000000000 -0.000000000  0.046187211

  length of vectors
    12.102638204  7.093817079 21.651014956     0.082626613  0.140967830  0.046187211



 k-points in units of 2pi/SCALE and weight: Gamma-point only                        
   0.00000000  0.00000000  0.00000000       1.000

 k-points in reciprocal lattice and weights: Gamma-point only                        
   0.00000000  0.00000000  0.00000000       1.000

 position of ions in fractional coordinates (direct lattice) 
   0.35150191  0.90858017  0.49987413
   0.64849809  0.40858017  0.00012587
   0.14849809  0.09141983  0.99987413
   0.14849809  0.40858017  0.49987413
   0.35150191  0.59141983  0.99987413
   0.64849809  0.09141983  0.50012587
   0.85150191  0.59141983  0.50012587
   0.85150191  0.90858017  0.00012587
   0.28703745  0.55364149  0.36570407
   0.71296255  0.05364149  0.13429593
   0.21296255  0.05364149  0.36570407
   0.28703745  0.94635851  0.86570407
   0.71296255  0.44635851  0.63429593
   0.78703745  0.94635851  0.63429593
   0.78703745  0.55364149  0.13429593
   0.55639300  0.56516608  0.43411263
   0.44360700  0.06516608  0.06588737
   0.94360700  0.43483392  0.93411263
   0.94360700  0.06516608  0.43411263
   0.55639300  0.93483392  0.93411263
   0.44360700  0.43483392  0.56588737
   0.05639300  0.93483392  0.56588737
   0.05639300  0.56516608  0.06588737
   0.58627787  0.38087654  0.25063615
   0.41372213  0.88087654  0.24936385
   0.91372213  0.61912346  0.75063615
   0.91372213  0.88087654  0.25063615
   0.58627787  0.11912346  0.75063615
   0.41372213  0.61912346  0.74936385
   0.08627787  0.11912346  0.74936385
   0.08627787  0.38087654  0.24936385
   0.83719533  0.10673928  0.82972499
   0.16280467  0.60673928  0.67027501
   0.66280467  0.89326072  0.32972499
   0.66280467  0.60673928  0.82972499
   0.83719533  0.39326072  0.32972499
   0.16280467  0.89326072  0.17027501
   0.33719533  0.39326072  0.17027501
   0.33719533  0.10673928  0.67027501
   0.04001543  0.82993984  0.87457964
   0.95998457  0.32993984  0.62542036
   0.45998457  0.17006016  0.37457964
   0.45998457  0.32993984  0.87457964
   0.04001543  0.67006016  0.37457964
   0.95998457  0.17006016  0.12542036
   0.54001543  0.67006016  0.12542036
   0.54001543  0.82993984  0.62542036
   0.37024906  0.20473403  0.95737182
   0.62975094  0.70473403  0.54262818
   0.12975094  0.79526597  0.45737182
   0.12975094  0.70473403  0.95737182
   0.37024906  0.29526597  0.45737182
   0.62975094  0.79526597  0.04262818
   0.87024906  0.29526597  0.04262818
   0.87024906  0.20473403  0.54262818
   0.44688961  0.85124212  0.37847753
   0.55311039  0.35124212  0.12152247
   0.05311039  0.14875788  0.87847753
   0.05311039  0.35124212  0.37847753
   0.44688961  0.64875788  0.87847753
   0.55311039  0.14875788  0.62152247
   0.94688961  0.64875788  0.62152247
   0.94688961  0.85124212  0.12152247
   0.14133109  0.24528583  0.62449283
   0.85866891  0.74528583  0.87550717
   0.35866891  0.75471417  0.12449283
   0.35866891  0.74528583  0.62449283
   0.14133109  0.25471417  0.12449283
   0.85866891  0.75471417  0.37550717
   0.64133109  0.25471417  0.37550717
   0.64133109  0.24528583  0.87550717
   0.63009341  0.76101060  0.21251078
   0.36990659  0.26101060  0.28748922
   0.86990659  0.23898940  0.71251078
   0.86990659  0.26101060  0.21251078
   0.63009341  0.73898940  0.71251078
   0.36990659  0.23898940  0.78748922
   0.13009341  0.73898940  0.78748922
   0.13009341  0.76101060  0.28748922

 position of ions in cartesian coordinates  (Angst):
   4.25410046  6.44530155 10.82278221
   7.84853774  2.89839301  0.00272527
   1.79721864  0.64851553 21.64828968
   1.79721864  2.89839301 10.82278221
   4.25410046  4.19542407 21.64828968
   7.84853774  0.64851553 10.82823275
  10.30541956  4.19542407 10.82823275
  10.30541956  6.44530155  0.00272527
   3.47391047  3.92743149  7.91786426
   8.62872774  0.38052295  2.90764322
   2.57740864  0.38052295  7.91786426
   3.47391047  6.71329413 18.74337173
   8.62872774  3.16638559 13.73315070
   9.52522957  6.71329413 13.73315070
   9.52522957  3.92743149  2.90764322
   6.73382315  4.00918481  9.39897900
   5.36881506  0.46227627  1.42652848
  11.42013416  3.08463227 20.22448648
  11.42013416  0.46227627  9.39897900
   6.73382315  6.63154081 20.22448648
   5.36881506  3.08463227 12.25203596
   0.68250405  6.63154081 12.25203596
   0.68250405  4.00918481  1.42652848
   7.09550897  2.70186847  5.42652698
   5.00712923  6.24877701  5.39898050
  11.05844833  4.39194861 16.25203446
  11.05844833  6.24877701  5.42652698
   7.09550897  0.84504007 16.25203446
   5.00712923  4.39194861 16.22448798
   1.04418987  0.84504007 16.22448798
   1.04418987  2.70186847  5.39898050
  10.13227221  0.75718890 17.96438807
   1.97036600  4.30409744 14.51213437
   8.02168510  6.33662818  7.13888059
   8.02168510  4.30409744 17.96438807
  10.13227221  2.78971964  7.13888059
   1.97036600  6.33662818  3.68662689
   4.08095310  2.78971964  3.68662689
   4.08095310  0.75718890 14.51213437
   0.48429230  5.88744139 18.93553695
  11.61834591  2.34053285 13.54098549
   5.56702680  1.20637569  8.11002947
   5.56702680  2.34053285 18.93553695
   0.48429230  4.75328423  8.11002947
  11.61834591  1.20637569  2.71547801
   6.53561140  4.75328423  2.71547801
   6.53561140  5.88744139 13.54098549
   4.48099047  1.45234575 20.72807159
   7.62164773  4.99925429 11.74845084
   1.57032863  5.64147133  9.90256412
   1.57032863  4.99925429 20.72807159
   4.48099047  2.09456279  9.90256412
   7.62164773  5.64147133  0.92294336
  10.53230957  2.09456279  0.92294336
  10.53230957  1.45234575 11.74845084
   5.40854330  6.03855590  8.19442259
   6.69409490  2.49164737  2.63108489
   0.64277580  1.05526117 19.01993007
   0.64277580  2.49164737  8.19442259
   5.40854330  4.60216971 19.01993007
   6.69409490  1.05526117 13.45659237
  11.45986240  4.60216971 13.45659237
  11.45986240  6.03855590  2.63108489
   1.71047906  1.74001282 13.52090363
  10.39215915  5.28692136 18.95561880
   4.34084004  5.35380426  2.69539615
   4.34084004  5.28692136 13.52090363
   1.71047906  1.80689572  2.69539615
  10.39215915  5.35380426  8.13011132
   7.76179816  1.80689572  8.13011132
   7.76179816  1.74001282 18.95561880
   7.62579258  5.39847003  4.60107416
   4.47684562  1.85156149  6.22443332
  10.52816473  1.69534705 15.42658163
  10.52816473  1.85156149  4.60107416
   7.62579258  5.24225559 15.42658163
   4.47684562  1.69534705 17.04994080
   1.57447348  5.24225559 17.04994080
   1.57447348  5.39847003  6.22443332



--------------------------------------------------------------------------------------------------------


 k-point   1 :   0.0000 0.0000 0.0000  plane waves:   47083

 maximum and minimum number of plane-waves per node :     47083    47083

 maximum number of plane-waves:     47083
 maximum index in each direction: 
   IXMAX=   22   IYMAX=   12   IZMAX=   39
   IXMIN=  -22   IYMIN=  -12   IZMIN=  -39


 serial   3D FFT for wavefunctions
 parallel 3D FFT for charge:
    minimum data exchange during FFTs selected (reduces bandwidth)


 total amount of memory used by VASP MPI-rank0   232203. kBytes
=======================================================================

   base      :      30000. kBytes
   nonl-proj :      68560. kBytes
   fftplans  :      61044. kBytes
   grid      :      57848. kBytes
   one-center:        242. kBytes
   wavefun   :      14509. kBytes

     INWAV:  cpu time      0.0001: real time      0.0002
 Broyden mixing: mesh for mixing (old mesh)
   NGX = 45   NGY = 25   NGZ = 79
  (NGX  =180   NGY  =108   NGZ  =320)
  gives a total of  88875 points

 initial charge density was supplied:
 charge density of overlapping atoms calculated
 number of electron     489.0000000 magnetization 
 keeping initial charge density in first step


--------------------------------------------------------------------------------------------------------


 Maximum index for augmentation-charges         9168 (set IRDMAX)


--------------------------------------------------------------------------------------------------------


 First call to EWALD:  gamma=   0.144
 Maximum number of real-space cells 3x 4x 2
 Maximum number of reciprocal cells 3x 2x 4

    FEWALD:  cpu time      0.0051: real time      0.0051


--------------------------------------- Iteration      1(   1)  ---------------------------------------


    POTLOK:  cpu time      0.2962: real time      0.2964
    SETDIJ:  cpu time      0.2364: real time      0.2366
     EDDAV:  cpu time     13.7017: real time     13.7201
       DOS:  cpu time      0.0003: real time      0.0004
    --------------------------------------------
      LOOP:  cpu time     14.2347: real time     14.2536

 eigenvalue-minimisations  :   608
 total energy-change (2. order) : 0.4964585E+04  (-0.2217402E+05)
 number of electron     489.0000000 magnetization 
 augmentation part      489.0000000 magnetization 

 Free energy of the ion-electron system (eV)
  ---------------------------------------------------
  alpha Z        PSCENC =       656.31070834
  Ewald energy   TEWEN  =    -21520.87002723
  -Hartree energ DENC   =    -10707.77926437
  -exchange      EXHF   =         0.00000000
  -V(xc)+E(xc)   XCENC  =      1138.27619571
  PAW double counting   =     27080.65996750   -30177.27443338
  entropy T*S    EENTRO =        -0.00582693
  eigenvalues    EBANDS =      -666.94375541
  atomic energy  EATOM  =     39162.21106953
  Solvation  Ediel_sol  =         0.00000000
  ---------------------------------------------------
  free energy    TOTEN  =      4964.58463377 eV

  energy without entropy =     4964.59046070  energy(sigma->0) =     4964.58657608


--------------------------------------------------------------------------------------------------------




--------------------------------------- Iteration      1(   2)  ---------------------------------------


     EDDAV:  cpu time     14.4419: real time     14.4537
       DOS:  cpu time      0.0003: real time      0.0004
    --------------------------------------------
      LOOP:  cpu time     14.4422: real time     14.4540

 eigenvalue-minimisations  :   656
 total energy-change (2. order) :-0.4563038E+04  (-0.4377365E+04)
 number of electron     489.0000000 magnetization 
 augmentation part      489.0000000 magnetization 

 Free energy of the ion-electron system (eV)
  ---------------------------------------------------
  alpha Z        PSCENC =       656.31070834
  Ewald energy   TEWEN  =    -21520.87002723
  -Hartree energ DENC   =    -10707.77926437
  -exchange      EXHF   =         0.00000000
  -V(xc)+E(xc)   XCENC  =      1138.27619571
  PAW double counting   =     27080.65996750   -30177.27443338
  entropy T*S    EENTRO =        -0.05484640
  eigenvalues    EBANDS =     -5229.93294267
  atomic energy  EATOM  =     39162.21106953
  Solvation  Ediel_sol  =         0.00000000
  ---------------------------------------------------
  free energy    TOTEN  =       401.54642704 eV

  energy without entropy =      401.60127344  energy(sigma->0) =      401.56470917


--------------------------------------------------------------------------------------------------------




--------------------------------------- Iteration      1(   3)  ---------------------------------------


     EDDAV:  cpu time     18.6952: real time     18.7094
       DOS:  cpu time      0.0003: real time      0.0004
    --------------------------------------------
      LOOP:  cpu time     18.6955: real time     18.7098

 eigenvalue-minimisations  :   720
 total energy-change (2. order) :-0.6807234E+03  (-0.6714337E+03)
 number of electron     489.0000000 magnetization 
 augmentation part      489.0000000 magnetization 

 Free energy of the ion-electron system (eV)
  ---------------------------------------------------
  alpha Z        PSCENC =       656.31070834
  Ewald energy   TEWEN  =    -21520.87002723
  -Hartree energ DENC   =    -10707.77926437
  -exchange      EXHF   =         0.00000000
  -V(xc)+E(xc)   XCENC  =      1138.27619571
  PAW double counting   =     27080.65996750   -30177.27443338
  entropy T*S    EENTRO =         0.02293615
  eigenvalues    EBANDS =     -5910.73413151
  atomic energy  EATOM  =     39162.21106953
  Solvation  Ediel_sol  =         0.00000000
  ---------------------------------------------------
  free energy    TOTEN  =      -279.17697925 eV

  energy without entropy =     -279.19991540  energy(sigma->0) =     -279.18462463


--------------------------------------------------------------------------------------------------------




--------------------------------------- Iteration      1(   4)  ---------------------------------------


     EDDAV:  cpu time     15.3022: real time     15.3149
       DOS:  cpu time      0.0003: real time      0.0003
    --------------------------------------------
      LOOP:  cpu time     15.3025: real time     15.3152

 eigenvalue-minimisations  :   704
 total energy-change (2. order) :-0.4197419E+02  (-0.4165748E+02)
 number of electron     489.0000000 magnetization 
 augmentation part      489.0000000 magnetization 

 Free energy of the ion-electron system (eV)
  ---------------------------------------------------
  alpha Z        PSCENC =       656.31070834
  Ewald energy   TEWEN  =    -21520.87002723
  -Hartree energ DENC   =    -10707.77926437
  -exchange      EXHF   =         0.00000000
  -V(xc)+E(xc)   XCENC  =      1138.27619571
  PAW double counting   =     27080.65996750   -30177.27443338
  entropy T*S    EENTRO =         0.14545706
  eigenvalues    EBANDS =     -5952.83083751
  atomic energy  EATOM  =     39162.21106953
  Solvation  Ediel_sol  =         0.00000000
  ---------------------------------------------------
  free energy    TOTEN  =      -321.15116434 eV

  energy without entropy =     -321.29662139  energy(sigma->0) =     -321.19965002


--------------------------------------------------------------------------------------------------------




--------------------------------------- Iteration      1(   5)  ---------------------------------------


     EDDAV:  cpu time     18.3017: real time     18.3167
       DOS:  cpu time      0.0003: real time      0.0004
    CHARGE:  cpu time      0.6602: real time      0.6609
    MIXING:  cpu time      0.0087: real time      0.0087
    --------------------------------------------
      LOOP:  cpu time     18.9709: real time     18.9867

 eigenvalue-minimisations  :   880
 total energy-change (2. order) :-0.1748427E+01  (-0.1745336E+01)
 number of electron     489.0000015 magnetization 
 augmentation part      146.0361862 magnetization 

 Broyden mixing:
  rms(total) = 0.26758E+01    rms(broyden)= 0.26758E+01
  rms(prec ) = 0.28690E+01
  weight for this iteration     100.00

 Free energy of the ion-electron system (eV)
  ---------------------------------------------------
  alpha Z        PSCENC =       656.31070834
  Ewald energy   TEWEN  =    -21520.87002723
  -Hartree energ DENC   =    -10707.77926437
  -exchange      EXHF   =         0.00000000
  -V(xc)+E(xc)   XCENC  =      1138.27619571
  PAW double counting   =     27080.65996750   -30177.27443338
  entropy T*S    EENTRO =         0.14569680
  eigenvalues    EBANDS =     -5954.57950472
  atomic energy  EATOM  =     39162.21106953
  Solvation  Ediel_sol  =         0.00000000
  ---------------------------------------------------
  free energy    TOTEN  =      -322.89959181 eV

  energy without entropy =     -323.04528861  energy(sigma->0) =     -322.94815741


--------------------------------------------------------------------------------------------------------




--------------------------------------- Iteration      1(   6)  ---------------------------------------


    POTLOK:  cpu time      0.2853: real time      0.2857
    SETDIJ:  cpu time      0.2272: real time      0.2272
    EDDIAG:  cpu time      0.8644: real time      0.8651
  RMM-DIIS:  cpu time     11.2860: real time     11.2944
    ORTHCH:  cpu time      0.0825: real time      0.0825
       DOS:  cpu time      0.0004: real time      0.0006
    CHARGE:  cpu time      0.6604: real time      0.6611
    MIXING:  cpu time      0.0081: real time      0.0081
    --------------------------------------------
      LOOP:  cpu time     13.4143: real time     13.4246

 eigenvalue-minimisations  :   651
 total energy-change (2. order) : 0.1775815E+02  (-0.2944151E+01)
 number of electron     489.0000016 magnetization 
 augmentation part      147.3773700 magnetization 

 Broyden mixing:
  rms(total) = 0.17919E+01    rms(broyden)= 0.17919E+01
  rms(prec ) = 0.18612E+01
  weight for this iteration     100.00

 eigenvalues of (default mixing * dielectric matrix)
  average eigenvalue GAMMA=   1.9389
  1.9389

 Free energy of the ion-electron system (eV)
  ---------------------------------------------------
  alpha Z        PSCENC =       656.31070834
  Ewald energy   TEWEN  =    -21520.87002723
  -Hartree energ DENC   =    -10814.77365702
  -exchange      EXHF   =         0.00000000
  -V(xc)+E(xc)   XCENC  =      1152.57676806
  PAW double counting   =     30030.12488032   -33123.69906182
  entropy T*S    EENTRO =         0.12993849
  eigenvalues    EBANDS =     -5847.15205673
  atomic energy  EATOM  =     39162.21106953
  Solvation  Ediel_sol  =         0.00000000
  ---------------------------------------------------
  free energy    TOTEN  =      -305.14143806 eV

  energy without entropy =     -305.27137655  energy(sigma->0) =     -305.18475089


--------------------------------------------------------------------------------------------------------




--------------------------------------- Iteration      1(   7)  ---------------------------------------


    POTLOK:  cpu time      0.2793: real time      0.2796
    SETDIJ:  cpu time      0.2292: real time      0.2293
    EDDIAG:  cpu time      0.8702: real time      0.8708
  RMM-DIIS:  cpu time     11.7308: real time     11.7394
    ORTHCH:  cpu time      0.0845: real time      0.0845
       DOS:  cpu time      0.0004: real time      0.0007
    CHARGE:  cpu time      0.6876: real time      0.6881
    MIXING:  cpu time      0.0084: real time      0.0084
    --------------------------------------------
      LOOP:  cpu time     13.8905: real time     13.9009

 eigenvalue-minimisations  :   617
 total energy-change (2. order) : 0.1104374E+01  (-0.3284338E+01)
 number of electron     489.0000016 magnetization 
 augmentation part      148.4871334 magnetization 

 Broyden mixing:
  rms(total) = 0.10890E+01    rms(broyden)= 0.10890E+01
  rms(prec ) = 0.11174E+01
  weight for this iteration     100.00

 eigenvalues of (default mixing * dielectric matrix)
  average eigenvalue GAMMA=   1.6713
  1.0868  2.2559

 Free energy of the ion-electron system (eV)
  ---------------------------------------------------
  alpha Z        PSCENC =       656.31070834
  Ewald energy   TEWEN  =    -21520.87002723
  -Hartree energ DENC   =    -10891.47108446
  -exchange      EXHF   =         0.00000000
  -V(xc)+E(xc)   XCENC  =      1165.44876223
  PAW double counting   =     34776.97007891   -37879.60696315
  entropy T*S    EENTRO =         0.00518194
  eigenvalues    EBANDS =     -5773.03478984
  atomic energy  EATOM  =     39162.21106953
  Solvation  Ediel_sol  =         0.00000000
  ---------------------------------------------------
  free energy    TOTEN  =      -304.03706373 eV

  energy without entropy =     -304.04224566  energy(sigma->0) =     -304.03879104


--------------------------------------------------------------------------------------------------------




--------------------------------------- Iteration      1(   8)  ---------------------------------------


    POTLOK:  cpu time      0.2846: real time      0.2850
    SETDIJ:  cpu time      0.2280: real time      0.2284
    EDDIAG:  cpu time      0.8701: real time      0.8708
  RMM-DIIS:  cpu time     13.1480: real time     13.1591
    ORTHCH:  cpu time      0.0849: real time      0.0849
       DOS:  cpu time      0.0004: real time      0.0006
    CHARGE:  cpu time      0.6799: real time      0.6804
    MIXING:  cpu time      0.0081: real time      0.0081
    --------------------------------------------
      LOOP:  cpu time     15.3039: real time     15.3172

 eigenvalue-minimisations  :   746
 total energy-change (2. order) : 0.2217243E+00  (-0.2567271E+00)
 number of electron     489.0000016 magnetization 
 augmentation part      148.3941522 magnetization 

 Broyden mixing:
  rms(total) = 0.57774E+00    rms(broyden)= 0.57774E+00
  rms(prec ) = 0.60241E+00
  weight for this iteration     100.00

 eigenvalues of (default mixing * dielectric matrix)
  average eigenvalue GAMMA=   1.6980
  2.6045  1.8066  0.6828

 Free energy of the ion-electron system (eV)
  ---------------------------------------------------
  alpha Z        PSCENC =       656.31070834
  Ewald energy   TEWEN  =    -21520.87002723
  -Hartree energ DENC   =    -10874.76961796
  -exchange      EXHF   =         0.00000000
  -V(xc)+E(xc)   XCENC  =      1165.75338061
  PAW double counting   =     36896.36742762   -40003.84098557
  entropy T*S    EENTRO =         0.02826290
  eigenvalues    EBANDS =     -5785.00555765
  atomic energy  EATOM  =     39162.21106953
  Solvation  Ediel_sol  =         0.00000000
  ---------------------------------------------------
  free energy    TOTEN  =      -303.81533941 eV

  energy without entropy =     -303.84360231  energy(sigma->0) =     -303.82476038


--------------------------------------------------------------------------------------------------------




--------------------------------------- Iteration      1(   9)  ---------------------------------------


    POTLOK:  cpu time      0.2839: real time      0.2842
    SETDIJ:  cpu time      0.2313: real time      0.2314
    EDDIAG:  cpu time      0.8623: real time      0.8629
  RMM-DIIS:  cpu time     11.2934: real time     11.3022
    ORTHCH:  cpu time      0.0825: real time      0.0829
       DOS:  cpu time      0.0004: real time      0.0006
    CHARGE:  cpu time      0.6792: real time      0.6794
    MIXING:  cpu time      0.0079: real time      0.0079
    --------------------------------------------
      LOOP:  cpu time     13.4410: real time     13.4516

 eigenvalue-minimisations  :   643
 total energy-change (2. order) : 0.2864962E-01  (-0.1695333E+00)
 number of electron     489.0000016 magnetization 
 augmentation part      148.1656278 magnetization 

 Broyden mixing:
  rms(total) = 0.25674E+00    rms(broyden)= 0.25674E+00
  rms(prec ) = 0.29457E+00
  weight for this iteration     100.00

 eigenvalues of (default mixing * dielectric matrix)
  average eigenvalue GAMMA=   1.3590
  2.2667  1.7540  0.7734  0.6420

 Free energy of the ion-electron system (eV)
  ---------------------------------------------------
  alpha Z        PSCENC =       656.31070834
  Ewald energy   TEWEN  =    -21520.87002723
  -Hartree energ DENC   =    -10844.71274166
  -exchange      EXHF   =         0.00000000
  -V(xc)+E(xc)   XCENC  =      1164.57064284
  PAW double counting   =     38925.76045997   -42036.26011427
  entropy T*S    EENTRO =         0.10059505
  eigenvalues    EBANDS =     -5810.89728236
  atomic energy  EATOM  =     39162.21106953
  Solvation  Ediel_sol  =         0.00000000
  ---------------------------------------------------
  free energy    TOTEN  =      -303.78668979 eV

  energy without entropy =     -303.88728484  energy(sigma->0) =     -303.82022147


--------------------------------------------------------------------------------------------------------




--------------------------------------- Iteration      1(  10)  ---------------------------------------


    POTLOK:  cpu time      0.2843: real time      0.2850
    SETDIJ:  cpu time      0.2279: real time      0.2279
    EDDIAG:  cpu time      0.8591: real time      0.8598
  RMM-DIIS:  cpu time     12.5486: real time     12.6274
    ORTHCH:  cpu time      0.0844: real time      0.0844
       DOS:  cpu time      0.0004: real time      0.0006
    CHARGE:  cpu time      0.6828: real time      0.6834
    MIXING:  cpu time      0.0092: real time      0.0092
    --------------------------------------------
      LOOP:  cpu time     14.6966: real time     14.7776

 eigenvalue-minimisations  :   719
 total energy-change (2. order) : 0.1548825E+00  (-0.1906869E-01)
 number of electron     489.0000016 magnetization 
 augmentation part      148.1749796 magnetization 

 Broyden mixing:
  rms(total) = 0.17508E+00    rms(broyden)= 0.17508E+00
  rms(prec ) = 0.19211E+00
  weight for this iteration     100.00

 eigenvalues of (default mixing * dielectric matrix)
  average eigenvalue GAMMA=   1.1746
  2.0571  1.7449  0.8699  0.6006  0.6006

 Free energy of the ion-electron system (eV)
  ---------------------------------------------------
  alpha Z        PSCENC =       656.31070834
  Ewald energy   TEWEN  =    -21520.87002723
  -Hartree energ DENC   =    -10849.62100173
  -exchange      EXHF   =         0.00000000
  -V(xc)+E(xc)   XCENC  =      1164.92840116
  PAW double counting   =     38626.84302156   -41736.70179598
  entropy T*S    EENTRO =         0.12570430
  eigenvalues    EBANDS =     -5806.85788729
  atomic energy  EATOM  =     39162.21106953
  Solvation  Ediel_sol  =         0.00000000
  ---------------------------------------------------
  free energy    TOTEN  =      -303.63180733 eV

  energy without entropy =     -303.75751163  energy(sigma->0) =     -303.67370876


--------------------------------------------------------------------------------------------------------




--------------------------------------- Iteration      1(  11)  ---------------------------------------


    POTLOK:  cpu time      0.2849: real time      0.2851
    SETDIJ:  cpu time      0.2349: real time      0.2352
    EDDIAG:  cpu time      0.8646: real time      0.8649
  RMM-DIIS:  cpu time     14.2030: real time     14.2138
    ORTHCH:  cpu time      0.0840: real time      0.0841
       DOS:  cpu time      0.0004: real time      0.0006
    CHARGE:  cpu time      0.6791: real time      0.6797
    MIXING:  cpu time      0.0084: real time      0.0084
    --------------------------------------------
      LOOP:  cpu time     16.3593: real time     16.3719

 eigenvalue-minimisations  :   809
 total energy-change (2. order) : 0.2693485E-01  (-0.7516305E-02)
 number of electron     489.0000016 magnetization 
 augmentation part      148.1865193 magnetization 

 Broyden mixing:
  rms(total) = 0.11801E+00    rms(broyden)= 0.11801E+00
  rms(prec ) = 0.12461E+00
  weight for this iteration     100.00

 eigenvalues of (default mixing * dielectric matrix)
  average eigenvalue GAMMA=   1.2738
  2.0497  2.0497  1.5811  0.9135  0.5245  0.5245

 Free energy of the ion-electron system (eV)
  ---------------------------------------------------
  alpha Z        PSCENC =       656.31070834
  Ewald energy   TEWEN  =    -21520.87002723
  -Hartree energ DENC   =    -10852.12222984
  -exchange      EXHF   =         0.00000000
  -V(xc)+E(xc)   XCENC  =      1165.08990813
  PAW double counting   =     38437.71763463   -41547.35311889
  entropy T*S    EENTRO =         0.12416945
  eigenvalues    EBANDS =     -5804.71298660
  atomic energy  EATOM  =     39162.21106953
  Solvation  Ediel_sol  =         0.00000000
  ---------------------------------------------------
  free energy    TOTEN  =      -303.60487248 eV

  energy without entropy =     -303.72904193  energy(sigma->0) =     -303.64626230


--------------------------------------------------------------------------------------------------------




--------------------------------------- Iteration      1(  12)  ---------------------------------------


    POTLOK:  cpu time      0.2838: real time      0.2840
    SETDIJ:  cpu time      0.2272: real time      0.2276
    EDDIAG:  cpu time      0.8525: real time      0.8528
  RMM-DIIS:  cpu time     11.9840: real time     11.9937
    ORTHCH:  cpu time      0.0829: real time      0.0833
       DOS:  cpu time      0.0004: real time      0.0006
    CHARGE:  cpu time      0.6833: real time      0.6835
    MIXING:  cpu time      0.0083: real time      0.0083
    --------------------------------------------
      LOOP:  cpu time     14.1224: real time     14.1339

 eigenvalue-minimisations  :   685
 total energy-change (2. order) :-0.1235830E-01  (-0.7539146E-02)
 number of electron     489.0000016 magnetization 
 augmentation part      148.2231825 magnetization 

 Broyden mixing:
  rms(total) = 0.10247E+00    rms(broyden)= 0.10247E+00
  rms(prec ) = 0.12230E+00
  weight for this iteration     100.00

 eigenvalues of (default mixing * dielectric matrix)
  average eigenvalue GAMMA=   1.2344
  2.1574  2.1574  1.6646  0.7872  0.7872  0.6702  0.4167

 Free energy of the ion-electron system (eV)
  ---------------------------------------------------
  alpha Z        PSCENC =       656.31070834
  Ewald energy   TEWEN  =    -21520.87002723
  -Hartree energ DENC   =    -10855.65354935
  -exchange      EXHF   =         0.00000000
  -V(xc)+E(xc)   XCENC  =      1165.32098027
  PAW double counting   =     38023.49479381   -41132.89150147
  entropy T*S    EENTRO =         0.12084616
  eigenvalues    EBANDS =     -5801.66055085
  atomic energy  EATOM  =     39162.21106953
  Solvation  Ediel_sol  =         0.00000000
  ---------------------------------------------------
  free energy    TOTEN  =      -303.61723078 eV

  energy without entropy =     -303.73807695  energy(sigma->0) =     -303.65751284


--------------------------------------------------------------------------------------------------------




--------------------------------------- Iteration      1(  13)  ---------------------------------------


    POTLOK:  cpu time      0.2872: real time      0.2875
    SETDIJ:  cpu time      0.2288: real time      0.2292
    EDDIAG:  cpu time      0.8696: real time      0.8704
  RMM-DIIS:  cpu time     12.4612: real time     12.4708
    ORTHCH:  cpu time      0.0845: real time      0.0845
       DOS:  cpu time      0.0004: real time      0.0006
    CHARGE:  cpu time      0.6819: real time      0.6823
    MIXING:  cpu time      0.0087: real time      0.0087
    --------------------------------------------
      LOOP:  cpu time     14.6223: real time     14.6341

 eigenvalue-minimisations  :   710
 total energy-change (2. order) : 0.7909893E-02  (-0.2019765E-02)
 number of electron     489.0000016 magnetization 
 augmentation part      148.2218399 magnetization 

 Broyden mixing:
  rms(total) = 0.61760E-01    rms(broyden)= 0.61760E-01
  rms(prec ) = 0.69687E-01
  weight for this iteration     100.00

 eigenvalues of (default mixing * dielectric matrix)
  average eigenvalue GAMMA=   1.2321
  2.4446  2.4446  1.3908  1.0279  1.0279  0.5646  0.5646  0.3919

 Free energy of the ion-electron system (eV)
  ---------------------------------------------------
  alpha Z        PSCENC =       656.31070834
  Ewald energy   TEWEN  =    -21520.87002723
  -Hartree energ DENC   =    -10855.37639434
  -exchange      EXHF   =         0.00000000
  -V(xc)+E(xc)   XCENC  =      1165.39203550
  PAW double counting   =     38096.90541933   -41206.52135102
  entropy T*S    EENTRO =         0.13506642
  eigenvalues    EBANDS =     -5801.79584741
  atomic energy  EATOM  =     39162.21106953
  Solvation  Ediel_sol  =         0.00000000
  ---------------------------------------------------
  free energy    TOTEN  =      -303.60932089 eV

  energy without entropy =     -303.74438731  energy(sigma->0) =     -303.65434303


--------------------------------------------------------------------------------------------------------




--------------------------------------- Iteration      1(  14)  ---------------------------------------


    POTLOK:  cpu time      0.2824: real time      0.2828
    SETDIJ:  cpu time      0.2331: real time      0.2332
    EDDIAG:  cpu time      0.8660: real time      0.8667
  RMM-DIIS:  cpu time     11.7835: real time     11.7930
    ORTHCH:  cpu time      0.0828: real time      0.0828
       DOS:  cpu time      0.0004: real time      0.0007
    CHARGE:  cpu time      0.6809: real time      0.6812
    MIXING:  cpu time      0.0087: real time      0.0087
    --------------------------------------------
      LOOP:  cpu time     13.9378: real time     13.9491

 eigenvalue-minimisations  :   668
 total energy-change (2. order) :-0.3192873E-02  (-0.1682611E-02)
 number of electron     489.0000016 magnetization 
 augmentation part      148.2003103 magnetization 

 Broyden mixing:
  rms(total) = 0.39220E-01    rms(broyden)= 0.39220E-01
  rms(prec ) = 0.49165E-01
  weight for this iteration     100.00

 eigenvalues of (default mixing * dielectric matrix)
  average eigenvalue GAMMA=   1.1989
  2.5380  2.5380  1.3337  1.3337  0.7431  0.7431  0.5813  0.5813  0.3977

 Free energy of the ion-electron system (eV)
  ---------------------------------------------------
  alpha Z        PSCENC =       656.31070834
  Ewald energy   TEWEN  =    -21520.87002723
  -Hartree energ DENC   =    -10853.09827887
  -exchange      EXHF   =         0.00000000
  -V(xc)+E(xc)   XCENC  =      1165.39161484
  PAW double counting   =     38254.73976980   -41364.79650721
  entropy T*S    EENTRO =         0.12898349
  eigenvalues    EBANDS =     -5803.62984645
  atomic energy  EATOM  =     39162.21106953
  Solvation  Ediel_sol  =         0.00000000
  ---------------------------------------------------
  free energy    TOTEN  =      -303.61251376 eV

  energy without entropy =     -303.74149725  energy(sigma->0) =     -303.65550826


--------------------------------------------------------------------------------------------------------




--------------------------------------- Iteration      1(  15)  ---------------------------------------


    POTLOK:  cpu time      0.2842: real time      0.2847
    SETDIJ:  cpu time      0.2257: real time      0.2257
    EDDIAG:  cpu time      0.8513: real time      0.8519
  RMM-DIIS:  cpu time     12.6478: real time     12.6581
    ORTHCH:  cpu time      0.0836: real time      0.0837
       DOS:  cpu time      0.0004: real time      0.0006
    CHARGE:  cpu time      0.6737: real time      0.6744
    MIXING:  cpu time      0.0089: real time      0.0089
    --------------------------------------------
      LOOP:  cpu time     14.7757: real time     14.7879

 eigenvalue-minimisations  :   722
 total energy-change (2. order) : 0.2596431E-02  (-0.4217469E-03)
 number of electron     489.0000016 magnetization 
 augmentation part      148.1952080 magnetization 

 Broyden mixing:
  rms(total) = 0.28167E-01    rms(broyden)= 0.28167E-01
  rms(prec ) = 0.32292E-01
  weight for this iteration     100.00

 eigenvalues of (default mixing * dielectric matrix)
  average eigenvalue GAMMA=   1.1774
  2.5296  2.5296  1.6840  1.0926  1.0926  0.6818  0.6818  0.5445  0.5445  0.3931

 Free energy of the ion-electron system (eV)
  ---------------------------------------------------
  alpha Z        PSCENC =       656.31070834
  Ewald energy   TEWEN  =    -21520.87002723
  -Hartree energ DENC   =    -10852.93428000
  -exchange      EXHF   =         0.00000000
  -V(xc)+E(xc)   XCENC  =      1165.40289083
  PAW double counting   =     38227.14802577   -41337.26709883
  entropy T*S    EENTRO =         0.12565632
  eigenvalues    EBANDS =     -5803.73686207
  atomic energy  EATOM  =     39162.21106953
  Solvation  Ediel_sol  =         0.00000000
  ---------------------------------------------------
  free energy    TOTEN  =      -303.60991733 eV

  energy without entropy =     -303.73557365  energy(sigma->0) =     -303.65180277


--------------------------------------------------------------------------------------------------------




--------------------------------------- Iteration      1(  16)  ---------------------------------------


    POTLOK:  cpu time      0.2839: real time      0.2841
    SETDIJ:  cpu time      0.2270: real time      0.2272
    EDDIAG:  cpu time      0.8708: real time      0.8713
  RMM-DIIS:  cpu time     12.5316: real time     12.5418
    ORTHCH:  cpu time      0.0856: real time      0.0856
       DOS:  cpu time      0.0004: real time      0.0006
    CHARGE:  cpu time      0.6809: real time      0.6813
    MIXING:  cpu time      0.0098: real time      0.0098
    --------------------------------------------
      LOOP:  cpu time     14.6898: real time     14.7018

 eigenvalue-minimisations  :   699
 total energy-change (2. order) : 0.9130978E-03  (-0.2107739E-03)
 number of electron     489.0000016 magnetization 
 augmentation part      148.2026805 magnetization 

 Broyden mixing:
  rms(total) = 0.12030E-01    rms(broyden)= 0.12030E-01
  rms(prec ) = 0.13701E-01
  weight for this iteration     100.00

 eigenvalues of (default mixing * dielectric matrix)
  average eigenvalue GAMMA=   1.2252
  2.7958  2.7958  1.8106  1.2737  1.2737  0.7388  0.7388  0.5896  0.5896  0.3896
  0.4809

 Free energy of the ion-electron system (eV)
  ---------------------------------------------------
  alpha Z        PSCENC =       656.31070834
  Ewald energy   TEWEN  =    -21520.87002723
  -Hartree energ DENC   =    -10853.99442864
  -exchange      EXHF   =         0.00000000
  -V(xc)+E(xc)   XCENC  =      1165.47354894
  PAW double counting   =     38172.68129362   -41282.74028412
  entropy T*S    EENTRO =         0.12878533
  eigenvalues    EBANDS =     -5802.80967001
  atomic energy  EATOM  =     39162.21106953
  Solvation  Ediel_sol  =         0.00000000
  ---------------------------------------------------
  free energy    TOTEN  =      -303.60900423 eV

  energy without entropy =     -303.73778957  energy(sigma->0) =     -303.65193268


--------------------------------------------------------------------------------------------------------




--------------------------------------- Iteration      1(  17)  ---------------------------------------


    POTLOK:  cpu time      0.2791: real time      0.2799
    SETDIJ:  cpu time      0.2346: real time      0.2347
    EDDIAG:  cpu time      0.8666: real time      0.8673
  RMM-DIIS:  cpu time     11.7821: real time     11.7908
    ORTHCH:  cpu time      0.0847: real time      0.0849
       DOS:  cpu time      0.0004: real time      0.0006
    CHARGE:  cpu time      0.6788: real time      0.6792
    MIXING:  cpu time      0.0098: real time      0.0098
    --------------------------------------------
      LOOP:  cpu time     13.9361: real time     13.9472

 eigenvalue-minimisations  :   667
 total energy-change (2. order) :-0.2539338E-03  (-0.1056374E-03)
 number of electron     489.0000016 magnetization 
 augmentation part      148.2055544 magnetization 

 Broyden mixing:
  rms(total) = 0.75815E-02    rms(broyden)= 0.75813E-02
  rms(prec ) = 0.93592E-02
  weight for this iteration     100.00

 eigenvalues of (default mixing * dielectric matrix)
  average eigenvalue GAMMA=   1.2283
  2.9692  2.7875  1.6632  1.6632  1.0911  1.0911  0.7105  0.7105  0.3909  0.5565
  0.5565  0.5500

 Free energy of the ion-electron system (eV)
  ---------------------------------------------------
  alpha Z        PSCENC =       656.31070834
  Ewald energy   TEWEN  =    -21520.87002723
  -Hartree energ DENC   =    -10854.36962531
  -exchange      EXHF   =         0.00000000
  -V(xc)+E(xc)   XCENC  =      1165.51134592
  PAW double counting   =     38143.19970392   -41253.30348713
  entropy T*S    EENTRO =         0.12824074
  eigenvalues    EBANDS =     -5802.42718695
  atomic energy  EATOM  =     39162.21106953
  Solvation  Ediel_sol  =         0.00000000
  ---------------------------------------------------
  free energy    TOTEN  =      -303.60925817 eV

  energy without entropy =     -303.73749890  energy(sigma->0) =     -303.65200508


--------------------------------------------------------------------------------------------------------




--------------------------------------- Iteration      1(  18)  ---------------------------------------


    POTLOK:  cpu time      0.2840: real time      0.2843
    SETDIJ:  cpu time      0.2299: real time      0.2303
    EDDIAG:  cpu time      0.8550: real time      0.8554
  RMM-DIIS:  cpu time     12.6942: real time     12.7041
    ORTHCH:  cpu time      0.0848: real time      0.0849
       DOS:  cpu time      0.0004: real time      0.0006
    CHARGE:  cpu time      0.6769: real time      0.6776
    MIXING:  cpu time      0.0098: real time      0.0098
    --------------------------------------------
      LOOP:  cpu time     14.8349: real time     14.8469

 eigenvalue-minimisations  :   683
 total energy-change (2. order) : 0.2483735E-04  (-0.2557415E-04)
 number of electron     489.0000016 magnetization 
 augmentation part      148.2036247 magnetization 

 Broyden mixing:
  rms(total) = 0.33218E-02    rms(broyden)= 0.33213E-02
  rms(prec ) = 0.37920E-02
  weight for this iteration     100.00

 eigenvalues of (default mixing * dielectric matrix)
  average eigenvalue GAMMA=   1.1936
  2.8106  2.6297  1.7574  1.7574  1.0715  1.0715  1.0421  0.6947  0.6947  0.5442
  0.5442  0.5088  0.3903

 Free energy of the ion-electron system (eV)
  ---------------------------------------------------
  alpha Z        PSCENC =       656.31070834
[...]
   0.324E+01 0.244E+01 -.522E+02   -.382E+01 -.176E+01 0.505E+02   0.582E+00 -.678E+00 0.169E+01   0.241E-03 0.633E-03 0.254E-03
   -.992E+00 0.339E+01 0.541E+02   0.125E+01 -.256E+01 -.527E+02   -.257E+00 -.839E+00 -.141E+01   0.608E-03 0.464E-02 0.128E-02
   -.148E+02 -.172E+02 0.231E+01   0.154E+02 0.160E+02 -.420E+01   -.615E+00 0.118E+01 0.190E+01   -.163E-03 -.361E-02 -.365E-02
   -.144E+01 0.301E+01 -.528E+02   0.201E+01 -.229E+01 0.511E+02   -.574E+00 -.712E+00 0.162E+01   -.171E-02 0.541E-03 -.519E-03
   0.163E+02 0.544E+01 0.432E+01   -.168E+02 -.626E+01 -.692E+01   0.508E+00 0.812E+00 0.260E+01   -.939E-03 0.209E-02 0.126E-02
   -.367E+01 -.289E+01 0.271E+02   0.420E+01 0.215E+01 -.253E+02   -.533E+00 0.734E+00 -.177E+01   0.682E-04 0.100E-02 -.188E-02
   0.166E+01 -.225E+01 0.267E+02   -.223E+01 0.161E+01 -.249E+02   0.575E+00 0.640E+00 -.180E+01   0.724E-03 0.368E-03 -.200E-02
   0.679E+01 -.725E+00 0.563E+02   -.699E+01 0.140E+01 -.547E+02   0.197E+00 -.676E+00 -.153E+01   -.184E-02 0.120E-02 -.239E-02
   -.143E+02 -.702E+01 0.122E+02   0.146E+02 0.640E+01 -.130E+02   -.384E+00 0.622E+00 0.851E+00   -.104E-02 0.173E-02 -.639E-03
   0.155E+02 -.938E+01 0.587E+01   -.159E+02 0.863E+01 -.520E+01   0.390E+00 0.749E+00 -.684E+00   -.973E-03 0.239E-02 -.404E-03
   0.148E+02 -.696E+01 0.116E+02   -.152E+02 0.632E+01 -.125E+02   0.364E+00 0.643E+00 0.846E+00   -.497E-03 0.365E-03 -.169E-02
   0.263E+01 0.966E+01 0.127E+02   -.234E+01 -.913E+01 -.135E+02   -.283E+00 -.534E+00 0.870E+00   -.240E-02 -.488E-03 -.537E-05
   0.145E+02 0.802E+01 -.329E+02   -.148E+02 -.729E+01 0.337E+02   0.371E+00 -.728E+00 -.818E+00   0.627E-03 0.802E-05 -.306E-03
   -.190E+02 0.535E+01 -.343E+02   0.193E+02 -.477E+01 0.350E+02   -.338E+00 -.571E+00 -.697E+00   0.973E-03 -.248E-02 -.200E-02
   -.152E+02 -.466E+01 0.534E+01   0.153E+02 0.409E+01 -.461E+01   -.113E+00 0.574E+00 -.725E+00   0.180E-04 0.673E-03 -.179E-02
   -.352E+02 -.841E+01 0.295E+01   0.346E+02 0.845E+01 -.274E+01   0.631E+00 -.400E-01 -.209E+00   0.157E-02 0.109E-02 -.175E-02
   0.402E+02 -.753E+01 0.139E+02   -.397E+02 0.757E+01 -.144E+02   -.433E+00 -.603E-01 0.456E+00   -.342E-02 0.378E-02 0.914E-03
   -.271E+01 0.112E+02 0.413E+02   0.344E+01 -.111E+02 -.415E+02   -.733E+00 -.930E-01 0.126E+00   0.541E-02 -.283E-02 0.970E-03
   0.349E+02 -.918E+01 0.177E+01   -.342E+02 0.920E+01 -.163E+01   -.653E+00 -.234E-01 -.137E+00   -.305E-03 -.315E-03 -.263E-02
   -.238E+02 0.109E+02 0.212E+02   0.229E+02 -.108E+02 -.213E+02   0.915E+00 -.917E-01 0.134E+00   -.416E-02 -.160E-02 0.753E-03
   0.356E+02 0.832E+01 -.304E+02   -.350E+02 -.830E+01 0.303E+02   -.610E+00 -.231E-01 0.172E+00   0.304E-02 -.315E-03 0.128E-02
   -.351E+02 0.729E+01 -.324E+02   0.344E+02 -.729E+01 0.323E+02   0.721E+00 0.101E-01 0.179E+00   -.143E-02 -.410E-02 0.711E-03
   -.436E+02 -.450E+01 0.184E+02   0.429E+02 0.459E+01 -.189E+02   0.720E+00 -.972E-01 0.424E+00   0.639E-03 0.279E-02 -.334E-02
   -.164E+02 0.737E+01 -.116E+02   0.145E+02 -.646E+01 0.107E+02   0.187E+01 -.910E+00 0.849E+00   -.179E-03 0.265E-03 0.144E-02
   0.180E+02 0.731E+01 0.322E+02   -.161E+02 -.646E+01 -.314E+02   -.197E+01 -.856E+00 -.810E+00   -.608E-03 0.138E-02 0.945E-03
   -.547E+01 -.587E+01 -.423E+02   0.712E+01 0.505E+01 0.418E+02   -.165E+01 0.821E+00 0.472E+00   -.184E-02 -.312E-02 0.109E-02
   0.170E+02 0.608E+01 -.129E+02   -.151E+02 -.537E+01 0.121E+02   -.195E+01 -.706E+00 0.847E+00   -.436E-03 -.133E-02 -.355E-02
   -.854E+01 -.877E+01 -.351E+02   0.669E+01 0.803E+01 0.348E+02   0.184E+01 0.721E+00 0.331E+00   0.581E-02 0.136E-02 -.716E-03
   0.415E+02 0.868E+00 -.147E+02   -.398E+02 -.212E+01 0.160E+02   -.166E+01 0.125E+01 -.132E+01   0.387E-02 0.118E-02 0.572E-03
   -.260E+02 -.250E+02 -.176E+02   0.243E+02 0.236E+02 0.188E+02   0.170E+01 0.136E+01 -.122E+01   -.794E-02 -.452E-02 0.156E-02
   -.171E+02 0.741E+01 0.303E+02   0.153E+02 -.647E+01 -.295E+02   0.179E+01 -.946E+00 -.781E+00   -.289E-02 -.950E-03 -.222E-02
   0.130E+02 -.111E+02 -.678E+01   -.116E+02 0.103E+02 0.716E+01   -.138E+01 0.805E+00 -.384E+00   0.470E-02 -.399E-02 0.215E-02
   -.275E+02 -.644E+01 -.385E+02   0.264E+02 0.561E+01 0.380E+02   0.117E+01 0.832E+00 0.436E+00   -.150E-02 -.327E-02 0.231E-02
   -.272E+02 0.697E+01 -.672E+00   0.259E+02 -.610E+01 0.109E+01   0.129E+01 -.882E+00 -.427E+00   0.138E-02 0.232E-02 0.125E-02
   -.219E+02 -.571E+01 -.644E+01   0.204E+02 0.475E+01 0.707E+01   0.149E+01 0.969E+00 -.649E+00   0.329E-02 0.133E-02 0.277E-02
   0.266E+02 0.775E+01 -.877E+00   -.253E+02 -.686E+01 0.137E+01   -.127E+01 -.901E+00 -.496E+00   0.111E-03 0.529E-03 -.103E-02
   -.299E+02 0.759E+01 0.210E+02   0.287E+02 -.661E+01 -.214E+02   0.125E+01 -.989E+00 0.404E+00   -.261E-02 0.136E-02 -.328E-02
   0.262E+02 0.656E+01 0.242E+02   -.250E+02 -.550E+01 -.246E+02   -.119E+01 -.106E+01 0.428E+00   -.367E-02 0.983E-03 0.522E-04
   0.317E+02 -.923E+01 -.260E+02   -.306E+02 0.836E+01 0.258E+02   -.116E+01 0.870E+00 0.271E+00   -.733E-03 0.472E-04 0.599E-02
   -.645E+01 0.166E+02 0.576E+01   0.677E+01 -.152E+02 -.572E+01   -.327E+00 -.144E+01 -.576E-01   0.236E-03 0.723E-03 0.124E-02
   -.121E+02 0.512E+01 -.791E+01   0.118E+02 -.459E+01 0.823E+01   0.253E+00 -.526E+00 -.323E+00   -.711E-03 0.219E-03 0.112E-02
   -.102E+02 -.371E+01 -.329E+01   0.990E+01 0.315E+01 0.313E+01   0.268E+00 0.552E+00 0.159E+00   0.316E-03 0.825E-04 -.538E-03
   0.184E+02 -.264E+01 0.777E+00   -.185E+02 0.322E+01 -.871E+00   0.555E-01 -.561E+00 0.897E-01   -.290E-03 -.438E-03 0.118E-02
   0.101E+02 -.363E+01 -.376E+01   -.986E+01 0.307E+01 0.360E+01   -.244E+00 0.559E+00 0.151E+00   -.362E-03 0.182E-03 -.532E-03
   -.107E+02 -.381E+01 0.112E+02   0.104E+02 0.330E+01 -.111E+02   0.243E+00 0.515E+00 -.131E+00   0.806E-03 -.218E-03 -.752E-03
   0.138E+02 -.297E+01 0.133E+02   -.136E+02 0.243E+01 -.132E+02   -.253E+00 0.542E+00 -.108E+00   0.380E-04 0.175E-04 -.918E-03
   0.114E+02 0.453E+01 -.630E+01   -.111E+02 -.405E+01 0.661E+01   -.323E+00 -.476E+00 -.317E+00   0.776E-03 -.142E-03 0.992E-03
   0.327E+02 -.208E+02 0.775E+01   -.332E+02 0.206E+02 -.668E+01   0.569E+00 0.177E+00 -.108E+01   -.283E-02 -.118E-02 0.111E-03
   -.102E+02 -.267E+01 0.169E+02   0.108E+02 0.255E+01 -.180E+02   -.643E+00 0.120E+00 0.104E+01   -.324E-03 -.298E-03 0.607E-03
   -.892E+01 0.264E+01 -.396E+02   0.954E+01 -.251E+01 0.406E+02   -.623E+00 -.134E+00 -.106E+01   -.125E-02 -.149E-02 -.213E-02
   -.352E+02 0.211E+02 0.224E+02   0.358E+02 -.210E+02 -.214E+02   -.595E+00 -.113E+00 -.935E+00   -.509E-02 0.140E-02 -.812E-03
   0.998E+01 0.311E+01 -.389E+02   -.106E+02 -.298E+01 0.400E+02   0.630E+00 -.134E+00 -.108E+01   0.381E-03 -.249E-02 -.398E-02
   -.498E+01 0.290E+01 0.522E+02   0.565E+01 -.278E+01 -.533E+02   -.673E+00 -.119E+00 0.106E+01   0.149E-02 -.367E-02 -.186E-02
   0.116E+02 0.196E+01 0.551E+02   -.122E+02 -.182E+01 -.562E+02   0.662E+00 -.152E+00 0.110E+01   0.517E-02 -.236E-02 -.107E-02
   0.795E+01 -.229E+01 0.165E+02   -.859E+01 0.216E+01 -.175E+02   0.638E+00 0.132E+00 0.104E+01   0.973E-03 0.167E-02 0.151E-02
   -.104E+02 0.172E+02 -.624E+01   0.104E+02 -.180E+02 0.587E+01   -.724E-02 0.752E+00 0.369E+00   -.221E-02 -.957E-03 -.290E-02
   0.141E+02 0.162E+02 0.251E+02   -.141E+02 -.169E+02 -.247E+02   0.205E-01 0.743E+00 -.320E+00   0.370E-02 -.196E-02 -.245E-02
   -.286E+02 -.500E+02 0.730E+01   0.292E+02 0.506E+02 -.748E+01   -.602E+00 -.525E+00 0.179E+00   -.331E-02 -.147E-03 0.251E-02
   0.113E+02 0.176E+02 -.756E+01   -.113E+02 -.184E+02 0.719E+01   0.460E-02 0.764E+00 0.370E+00   0.108E-02 0.144E-03 -.214E-02
   0.322E+02 -.110E+01 0.741E+00   -.323E+02 0.194E+01 -.111E+01   0.892E-01 -.846E+00 0.370E+00   -.328E-02 0.495E-02 0.252E-02
   0.119E+02 -.187E+02 -.128E+02   -.119E+02 0.194E+02 0.131E+02   0.271E-01 -.729E+00 -.344E+00   0.211E-02 0.457E-03 0.181E-02
   -.142E+02 -.180E+02 -.144E+02   0.143E+02 0.188E+02 0.148E+02   -.940E-02 -.717E+00 -.348E+00   -.121E-02 0.189E-02 0.298E-02
   -.117E+02 0.170E+02 0.188E+02   0.117E+02 -.177E+02 -.184E+02   0.340E-01 0.733E+00 -.314E+00   0.292E-02 -.443E-03 0.768E-03
   -.363E+02 0.651E+01 -.152E+02   0.369E+02 -.667E+01 0.149E+02   -.684E+00 0.168E+00 0.260E+00   0.188E-02 0.391E-02 -.664E-03
   0.260E+02 0.106E+02 -.492E+01   -.267E+02 -.107E+02 0.523E+01   0.678E+00 0.180E+00 -.306E+00   -.101E-02 0.355E-02 -.123E-02
   0.391E+02 -.165E+01 0.362E+02   -.398E+02 0.179E+01 -.365E+02   0.731E+00 -.137E+00 0.366E+00   -.697E-03 0.139E-03 -.432E-02
   0.401E+02 0.829E+01 -.139E+02   -.407E+02 -.851E+01 0.136E+02   0.674E+00 0.222E+00 0.296E+00   -.171E-02 0.578E-03 -.163E-03
   -.417E+02 -.474E+01 0.293E+02   0.424E+02 0.491E+01 -.296E+02   -.701E+00 -.163E+00 0.284E+00   -.785E-03 -.264E-02 0.147E-02
   0.382E+02 -.547E+01 -.123E+02   -.389E+02 0.564E+01 0.126E+02   0.709E+00 -.168E+00 -.298E+00   0.948E-03 0.641E-04 0.392E-03
   -.391E+02 -.524E+01 -.117E+02   0.398E+02 0.541E+01 0.120E+02   -.708E+00 -.163E+00 -.308E+00   -.495E-04 -.157E-02 -.104E-02
   -.307E+02 0.446E+01 -.784E+01   0.313E+02 -.454E+01 0.808E+01   -.560E+00 0.751E-01 -.238E+00   -.138E-02 -.789E-03 0.829E-03
   -.120E+02 -.115E+02 -.219E+02   0.125E+02 0.115E+02 0.227E+02   -.557E+00 -.560E-01 -.786E+00   0.104E-02 -.970E-03 -.151E-02
   0.131E+02 -.114E+02 0.386E+02   -.137E+02 0.115E+02 -.394E+02   0.593E+00 -.663E-01 0.814E+00   -.850E-03 -.147E-02 -.152E-02
   0.516E+00 0.155E+02 -.518E+02   -.104E+01 -.156E+02 0.526E+02   0.521E+00 0.106E+00 -.877E+00   0.616E-02 0.392E-02 0.208E-02
   0.126E+02 -.126E+02 -.229E+02   -.132E+02 0.126E+02 0.236E+02   0.603E+00 -.690E-01 -.758E+00   0.758E-03 -.414E-03 0.900E-03
   -.582E+01 0.140E+02 -.479E+02   0.634E+01 -.141E+02 0.488E+02   -.519E+00 0.725E-01 -.882E+00   -.378E-02 -.248E-03 0.697E-03
   0.489E+02 -.155E+02 -.128E+02   -.495E+02 0.154E+02 0.120E+02   0.602E+00 0.611E-01 0.806E+00   -.888E-02 -.882E-03 0.253E-03
   -.321E+02 0.443E+02 -.885E+01   0.327E+02 -.444E+02 0.816E+01   -.635E+00 0.819E-01 0.680E+00   0.651E-03 0.423E-02 0.271E-02
   -.132E+02 -.116E+02 0.382E+02   0.138E+02 0.117E+02 -.390E+02   -.562E+00 -.711E-01 0.830E+00   0.301E-03 -.325E-03 0.526E-03
 -----------------------------------------------------------------------------------------------
   0.259E-01 -.383E+00 0.580E+00   -.160E-13 -.551E-13 0.355E-13   -.103E-01 0.378E+00 -.569E+00   -.165E-01 0.416E-02 -.116E-01


 POSITION                                       TOTAL-FORCE (eV/Angst)
 -----------------------------------------------------------------------------------
      4.21376      6.43499     10.79410         0.000603     -0.001611     -0.000679
      7.86404      2.89980     -0.04662        -0.002399     -0.003313      0.003070
      1.88425      0.73561     21.61383         0.000393      0.004331      0.000312
      1.84438      2.90028     10.80034         0.000461     -0.000474     -0.000470
      4.04614      4.15353     21.47747        -0.000070      0.003133     -0.000974
      7.88915      0.64351     10.85059         0.000489      0.000166     -0.002613
     10.26197      4.19324     10.85138        -0.000028      0.001593     -0.000062
     10.38137      6.41401     -0.00708        -0.001818     -0.002979     -0.002755
      3.48282      3.90663      7.85085         0.004599     -0.000081      0.003369
      8.64411      0.34295      2.95691        -0.006945      0.000459     -0.007918
      2.56686      0.36321      7.85519        -0.002606      0.001269      0.005885
      3.46344      6.72618     18.73265        -0.001590     -0.005941      0.009141
      8.62158      3.17515     13.80516        -0.003273      0.002457     -0.000859
      9.53093      6.73087     13.81715         0.005916      0.006009      0.000097
      9.51690      3.90177      2.92146         0.008945      0.006122     -0.000220
      6.68656      3.97952      9.40817        -0.000201     -0.002918      0.001243
      5.45641      0.40573      1.42559         0.001381     -0.014066      0.004640
     11.61385      3.13837     20.21455        -0.005477      0.007921      0.007589
     11.46430      0.43688      9.42107        -0.001540      0.000506      0.002102
      6.71207      6.64714     20.24932         0.004575      0.002673     -0.001568
      5.40561      3.09753     12.24677         0.000022     -0.001599     -0.000839
      0.65225      6.65515     12.26196        -0.002521      0.008726      0.000548
      0.63676      3.98409      1.46810        -0.002558     -0.004117     -0.006846
      7.06499      2.72111      5.47100         0.006948     -0.003586     -0.007397
      5.03764      6.26325      5.33798        -0.005905     -0.003269      0.000561
     11.07968      4.40477     16.29276         0.003459      0.002448     -0.004961
     11.08885      6.28069      5.48368         0.000570     -0.000004     -0.001304
      7.02349      0.80291     16.30233         0.000912     -0.008281      0.004476
      4.93481      4.38796     16.23693        -0.007166     -0.001834      0.004627
      1.17713      1.05404     16.30331         0.007569      0.008905      0.005052
      1.02658      2.72469      5.35186         0.006100     -0.001245      0.007347
     10.09842      0.75232     18.00260        -0.011059     -0.002677     -0.000754
      1.97198      4.33278     14.50000         0.004246      0.001385      0.009488
      8.03268      6.32903      7.15636         0.001672     -0.003655     -0.006545
      8.01591      4.27195     17.97158        -0.008855      0.008709     -0.012258
     10.11521      2.79362      7.15034        -0.000356     -0.003153     -0.003975
      2.00227      6.32941      3.65292         0.005929     -0.003853      0.008652
      4.09095      2.76921      3.64090         0.002117     -0.001429      0.003263
      4.05767      0.74388     14.47298         0.001881      0.002764     -0.004940
      0.47387      5.88415     18.93180        -0.005727     -0.006723     -0.011997
     11.61526      2.35893     13.55506         0.001263      0.002582     -0.001051
      5.55472      1.18106      8.09919        -0.004328     -0.002764     -0.005899
      5.44625      2.37482     18.92021        -0.003996      0.013764     -0.003230
      0.49471      4.73122      8.10531         0.004805     -0.002090     -0.002378
     11.61931      1.18652      2.70930        -0.002297      0.001049      0.007643
      6.55670      4.71380      2.69907         0.002456      0.000549      0.000793
      6.53890      5.89342     13.54562        -0.003807     -0.000153     -0.001934
      4.51737      1.43272     20.77419        -0.003531      0.007372     -0.008177
      7.63040      5.01277     11.74036        -0.001678      0.003846      0.003854
      1.57823      5.61974      9.91103        -0.000498     -0.003406     -0.003664
      1.47922      5.13794     20.82770         0.004473     -0.006812     -0.001333
      4.46973      2.06723      9.90480         0.000076     -0.006067     -0.008162
      7.69465      5.59960      0.92651        -0.001486     -0.002433     -0.003952
     10.55982      2.06487      0.88503         0.009140     -0.008110      0.000438
     10.51643      1.46680     11.75897         0.000405      0.008292      0.000520
      5.41379      6.01933      8.15592        -0.003231     -0.000623     -0.001349
      6.72230      2.46066      2.65550         0.000148     -0.003034      0.002518
      0.60705      1.02001     19.03438        -0.008348      0.005993      0.006867
      0.63073      2.47548      8.16215         0.002830      0.002425     -0.000935
      5.43491      4.62677     19.00585        -0.004970     -0.006450     -0.000812
      6.68958      1.05654     13.48679         0.002179      0.003032     -0.000267
     11.45591      4.61376     13.48457         0.002789      0.007118      0.003265
     11.46297      6.02765      2.68665         0.000149     -0.006019     -0.000682
      1.70343      1.76030     13.50005         0.001267      0.007129     -0.007482
     10.39551      5.22966     18.93849        -0.010403      0.006781     -0.000629
      4.36953      5.32826      2.65265         0.003945      0.002574     -0.001242
      4.34945      5.27731     13.49493        -0.000712      0.001486      0.000987
      1.70293      1.80690      2.69268        -0.000692     -0.000641      0.007199
     10.40983      5.35867      8.14420        -0.001550      0.001269      0.001628
      7.74365      1.80485      8.14046         0.003568     -0.001041     -0.002280
      7.66361      1.72249     18.91375         0.011231     -0.006587     -0.003977
      7.63259      5.36570      4.61437         0.002494     -0.003161     -0.002162
      4.46585      1.82385      6.19647         0.002223     -0.001550      0.003388
     10.55630      1.72771     15.46793         0.004931      0.003886      0.000576
     10.51958      1.84195      4.60091         0.000400     -0.004600      0.004777
      7.61053      5.25189     15.44648        -0.001421     -0.005376     -0.001121
      4.41904      1.69859     17.00576        -0.003122      0.000672      0.011495
      1.58183      5.35829     17.02279        -0.001196     -0.002440     -0.000818
      1.58393      5.37634      6.20288        -0.002199      0.000771      0.006063
 -----------------------------------------------------------------------------------
    total drift:                               -0.000906     -0.000171     -0.000999


--------------------------------------------------------------------------------------------------------



  FREE ENERGIE OF THE ION-ELECTRON SYSTEM (eV)
  ---------------------------------------------------
  free  energy   TOTEN  =      -303.82212322 eV

  energy  without entropy=     -303.96715850  energy(sigma->0) =     -303.87046832

 d Force = 0.8680318E-03[ 0.564E-03, 0.117E-02]  d Energy = 0.8602174E-03 0.781E-05
 d Force = 0.3135459E+00[ 0.306E+00, 0.321E+00]  d Ewald  = 0.3135503E+00-0.432E-05


--------------------------------------------------------------------------------------------------------


    POTLOK:  cpu time      0.4777: real time      0.5206


--------------------------------------------------------------------------------------------------------


 Conjugate gradient step on ions:
 trial-energy change:   -0.000860  1 .order   -0.000868   -0.001172   -0.000564
  (g-gl).g = 0.408E-03      g.g   = 0.527E-03  gl.gl    = 0.693E-03
 g(Force)  = 0.527E-03   g(Stress)= 0.000E+00 ortho     = 0.670E-04
 gamma     =   0.58861
 trial     =   2.07020
 opt step  =   4.36174  (harmonic =   3.98956) maximal distance =0.01240648
 next E    =  -303.822425   (d E  =  -0.00116)


--------------------------------------------------------------------------------------------------------


  
 reached required accuracy - stopping structural energy minimisation
 writing wavefunctions
     LOOP+:  cpu time    136.0290: real time    136.2295
    4ORBIT:  cpu time      0.0000: real time      0.0000

 total amount of memory used by VASP MPI-rank0   232203. kBytes
=======================================================================

   base      :      30000. kBytes
   nonl-proj :      68560. kBytes
   fftplans  :      61044. kBytes
   grid      :      57848. kBytes
   one-center:        242. kBytes
   wavefun   :      14509. kBytes

  
  
 General timing and accounting informations for this job:
 ========================================================
  
                  Total CPU time used (sec):     5213.295
                            User time (sec):     5134.032
                          System time (sec):       79.263
                         Elapsed time (sec):     5230.283
  
                   Maximum memory used (kb):      487076.
                   Average memory used (kb):          N/A
  
                          Minor page faults:      3065282
                          Major page faults:          174
                 Voluntary context switches:         1783
