  19  19   0   0
  0.2504161E+02  0.6834254E-09  0.8835925E-09  0.7880486E-09  0.0000000E+00
   1.0000000000000000E-004
  CAR 
 NEB_bottleneck                          
     10.93266481    -68.82994596  301      1.39228753      1.00000000
    -68.830  0.0000E+00  0.0000E+00
    -68.564  0.0000E+00  0.0000E+00
    -68.298  0.0000E+00  0.0000E+00
    -68.032  0.0000E+00  0.0000E+00
    -67.766  0.0000E+00  0.0000E+00
    -67.501  0.0000E+00  0.0000E+00
    -67.235  0.0000E+00  0.0000E+00
    -66.969 -0.2954E-35 -0.7855E-36
    -66.703 -0.6590E-26 -0.1752E-26
    -66.437 -0.4153E-18 -0.1104E-18
    -66.171 -0.6977E-12 -0.1855E-12
    -65.905 -0.3173E-07 -0.8436E-08
    -65.639 -0.3275E-04 -0.8715E-05
    -65.374  0.2608E-04 -0.1781E-05
    -65.108  0.6482E-02  0.1722E-02
    -64.842  0.1152E-02  0.2028E-02
    -64.576 -0.1046E-03  0.2000E-02
    -64.310 -0.3104E-06  0.2000E-02
    -64.044 -0.1870E-10  0.2000E-02
    -63.778 -0.2839E-16  0.2000E-02
    -63.512  0.0000E+00  0.2000E-02
    -63.247 -0.2239E-36  0.2000E-02
    -62.981 -0.7382E-27  0.2000E-02
    -62.715 -0.6887E-19  0.2000E-02
    -62.449 -0.1720E-12  0.2000E-02
    -62.183 -0.1171E-07  0.2000E-02
    -61.917 -0.1863E-04  0.1995E-02
    -61.651 -0.1654E-03  0.1951E-02
    -61.385  0.5768E-02  0.3485E-02
    -61.120  0.4572E-02  0.4700E-02
    -60.854  0.5143E-02  0.6068E-02
    -60.588 -0.2433E-03  0.6003E-02
    -60.322 -0.1070E-04  0.6000E-02
    -60.056 -0.4571E-08  0.6000E-02
    -59.790 -0.4671E-13  0.6000E-02
    -59.524  0.0000E+00  0.6000E-02
    -59.258  0.0000E+00  0.6000E-02
    -58.993  0.0000E+00  0.6000E-02
    -58.727  0.0000E+00  0.6000E-02
    -58.461  0.0000E+00  0.6000E-02
    -58.195  0.0000E+00  0.6000E-02
    -57.929  0.0000E+00  0.6000E-02
    -57.663  0.0000E+00  0.6000E-02
    -57.397  0.0000E+00  0.6000E-02
    -57.131  0.0000E+00  0.6000E-02
    -56.866  0.0000E+00  0.6000E-02
    -56.600  0.0000E+00  0.6000E-02
    -56.334  0.0000E+00  0.6000E-02
    -56.068  0.0000E+00  0.6000E-02
    -55.802  0.0000E+00  0.6000E-02
    -55.536  0.0000E+00  0.6000E-02
    -55.270  0.0000E+00  0.6000E-02
    -55.004  0.0000E+00  0.6000E-02
    -54.739  0.0000E+00  0.6000E-02
    -54.473  0.0000E+00  0.6000E-02
    -54.207  0.0000E+00  0.6000E-02
    -53.941  0.0000E+00  0.6000E-02
    -53.675  0.0000E+00  0.6000E-02
    -53.409  0.0000E+00  0.6000E-02
    -53.143  0.0000E+00  0.6000E-02
    -52.877  0.0000E+00  0.6000E-02
    -52.612  0.0000E+00  0.6000E-02
    -52.346  0.0000E+00  0.6000E-02
    -52.080  0.0000E+00  0.6000E-02
    -51.814  0.0000E+00  0.6000E-02
    -51.548  0.0000E+00  0.6000E-02
    -51.282  0.0000E+00  0.6000E-02
    -51.016  0.0000E+00  0.6000E-02
    -50.750  0.0000E+00  0.6000E-02
    -50.485  0.0000E+00  0.6000E-02
    -50.219  0.0000E+00  0.6000E-02
    -49.953  0.0000E+00  0.6000E-02
    -49.687  0.0000E+00  0.6000E-02
    -49.421  0.0000E+00  0.6000E-02
    -49.155  0.0000E+00  0.6000E-02
    -48.889  0.0000E+00  0.6000E-02
    -48.623  0.0000E+00  0.6000E-02
    -48.358  0.0000E+00  0.6000E-02
    -48.092  0.0000E+00  0.6000E-02
    -47.826  0.0000E+00  0.6000E-02
    -47.560  0.0000E+00  0.6000E-02
    -47.294  0.0000E+00  0.6000E-02
    -47.028  0.0000E+00  0.6000E-02
    -46.762  0.0000E+00  0.6000E-02
    -46.496  0.0000E+00  0.6000E-02
    -46.231  0.0000E+00  0.6000E-02
    -45.965  0.0000E+00  0.6000E-02
    -45.699  0.0000E+00  0.6000E-02
    -45.433  0.0000E+00  0.6000E-02
    -45.167  0.0000E+00  0.6000E-02
    -44.901  0.0000E+00  0.6000E-02
    -44.635  0.0000E+00  0.6000E-02
    -44.369  0.0000E+00  0.6000E-02
    -44.104  0.0000E+00  0.6000E-02
    -43.838  0.0000E+00  0.6000E-02
    -43.572  0.0000E+00  0.6000E-02
    -43.306  0.0000E+00  0.6000E-02
    -43.040  0.0000E+00  0.6000E-02
    -42.774  0.0000E+00  0.6000E-02
    -42.508  0.0000E+00  0.6000E-02
    -42.242  0.0000E+00  0.6000E-02
    -41.977  0.0000E+00  0.6000E-02
    -41.711  0.0000E+00  0.6000E-02
    -41.445  0.0000E+00  0.6000E-02
    -41.179  0.0000E+00  0.6000E-02
    -40.913  0.0000E+00  0.6000E-02
    -40.647  0.0000E+00  0.6000E-02
    -40.381  0.0000E+00  0.6000E-02
    -40.115  0.0000E+00  0.6000E-02
    -39.850  0.0000E+00  0.6000E-02
    -39.584  0.0000E+00  0.6000E-02
    -39.318  0.0000E+00  0.6000E-02
    -39.052  0.0000E+00  0.6000E-02
    -38.786  0.0000E+00  0.6000E-02
    -38.520  0.0000E+00  0.6000E-02
    -38.254  0.0000E+00  0.6000E-02
    -37.988  0.0000E+00  0.6000E-02
    -37.723  0.0000E+00  0.6000E-02
    -37.457  0.0000E+00  0.6000E-02
    -37.191  0.0000E+00  0.6000E-02
    -36.925  0.0000E+00  0.6000E-02
    -36.659  0.0000E+00  0.6000E-02
    -36.393  0.0000E+00  0.6000E-02
    -36.127  0.0000E+00  0.6000E-02
    -35.861  0.0000E+00  0.6000E-02
    -35.596  0.0000E+00  0.6000E-02
    -35.330  0.0000E+00  0.6000E-02
    -35.064  0.0000E+00  0.6000E-02
    -34.798  0.0000E+00  0.6000E-02
    -34.532  0.0000E+00  0.6000E-02
    -34.266  0.0000E+00  0.6000E-02
    -34.000  0.0000E+00  0.6000E-02
    -33.734  0.0000E+00  0.6000E-02
    -33.469  0.0000E+00  0.6000E-02
    -33.203  0.0000E+00  0.6000E-02
    -32.937  0.0000E+00  0.6000E-02
    -32.671  0.0000E+00  0.6000E-02
    -32.405  0.0000E+00  0.6000E-02
    -32.139  0.0000E+00  0.6000E-02
    -31.873  0.0000E+00  0.6000E-02
    -31.607  0.0000E+00  0.6000E-02
    -31.342  0.0000E+00  0.6000E-02
    -31.076  0.0000E+00  0.6000E-02
    -30.810  0.0000E+00  0.6000E-02
    -30.544  0.0000E+00  0.6000E-02
    -30.278  0.0000E+00  0.6000E-02
    -30.012  0.0000E+00  0.6000E-02
    -29.746  0.0000E+00  0.6000E-02
    -29.480  0.0000E+00  0.6000E-02
    -29.215 -0.2916E-30  0.6000E-02
    -28.949 -0.1043E-21  0.6000E-02
    -28.683 -0.1013E-14  0.6000E-02
    -28.417 -0.2724E-09  0.6000E-02
    -28.151 -0.1836E-05  0.6000E-02
    -27.885 -0.2103E-03  0.5944E-02
    -27.619  0.2746E-02  0.6674E-02
    -27.353  0.7866E-02  0.8765E-02
    -27.088  0.4911E-02  0.1007E-01
    -26.822 -0.4875E-03  0.9941E-02
    -26.556  0.2955E-02  0.1073E-01
    -26.290  0.9638E-02  0.1329E-01
    -26.024  0.2902E-02  0.1406E-01
    -25.758 -0.2264E-03  0.1400E-01
    -25.492 -0.2496E-05  0.1400E-01
    -25.226 -0.1352E-03  0.1396E-01
    -24.961  0.1139E-02  0.1427E-01
    -24.695  0.1305E-01  0.1774E-01
    -24.429  0.7000E-03  0.1792E-01
    -24.163  0.6196E-02  0.1957E-01
    -23.897  0.1020E-01  0.2228E-01
    -23.631  0.1880E-01  0.2728E-01
    -23.365  0.2715E-02  0.2800E-01
    -23.099  0.4195E-02  0.2912E-01
    -22.834  0.3546E-02  0.3006E-01
    -22.568 -0.4730E-03  0.2994E-01
    -22.302  0.2554E-02  0.3062E-01
    -22.036  0.1570E-01  0.3479E-01
    -21.770  0.4847E-02  0.3608E-01
    -21.504 -0.1071E-02  0.3580E-01
    -21.238  0.2136E-01  0.4148E-01
    -20.972  0.4343E-01  0.5302E-01
    -20.707  0.4153E-02  0.5413E-01
    -20.441 -0.4783E-03  0.5400E-01
    -20.175 -0.1703E-05  0.5400E-01
    -19.909 -0.1377E-09  0.5400E-01
    -19.643 -0.3023E-15  0.5400E-01
    -19.377  0.0000E+00  0.5400E-01
    -19.111  0.0000E+00  0.5400E-01
    -18.845  0.0000E+00  0.5400E-01
    -18.580  0.0000E+00  0.5400E-01
    -18.314  0.0000E+00  0.5400E-01
    -18.048  0.0000E+00  0.5400E-01
    -17.782  0.0000E+00  0.5400E-01
    -17.516  0.0000E+00  0.5400E-01
    -17.250  0.0000E+00  0.5400E-01
    -16.984  0.0000E+00  0.5400E-01
    -16.718  0.0000E+00  0.5400E-01
    -16.452  0.0000E+00  0.5400E-01
    -16.187  0.0000E+00  0.5400E-01
    -15.921  0.0000E+00  0.5400E-01
    -15.655  0.0000E+00  0.5400E-01
    -15.389  0.0000E+00  0.5400E-01
    -15.123  0.0000E+00  0.5400E-01
    -14.857  0.0000E+00  0.5400E-01
    -14.591 -0.2635E-31  0.5400E-01
    -14.325 -0.1400E-22  0.5400E-01
    -14.060 -0.2024E-15  0.5400E-01
    -13.794 -0.8157E-10  0.5400E-01
    -13.528 -0.8423E-06  0.5400E-01
    -13.262 -0.1791E-03  0.5395E-01
    -12.996  0.1506E-02  0.5435E-01
    -12.730  0.1539E-01  0.5844E-01
    -12.464  0.2731E-01  0.6571E-01
    -12.198  0.2410E-01  0.7211E-01
    -11.933  0.7646E-02  0.7415E-01
    -11.667 -0.5439E-03  0.7400E-01
    -11.401 -0.9966E-05  0.7400E-01
    -11.135 -0.1208E-05  0.7400E-01
    -10.869 -0.1821E-03  0.7395E-01
    -10.603  0.2385E-02  0.7459E-01
    -10.337  0.5997E-02  0.7618E-01
    -10.071  0.6412E-02  0.7788E-01
     -9.806  0.7439E-03  0.7808E-01
     -9.540  0.1221E-01  0.8133E-01
     -9.274  0.9120E-02  0.8375E-01
     -9.008  0.8908E-02  0.8612E-01
     -8.742  0.1371E-01  0.8977E-01
     -8.476  0.1011E-02  0.9004E-01
     -8.210 -0.1322E-03  0.9000E-01
     -7.944 -0.2761E-06  0.9000E-01
     -7.679 -0.1310E-10  0.9000E-01
     -7.413 -0.1837E-16  0.9000E-01
     -7.147  0.0000E+00  0.9000E-01
     -6.881  0.0000E+00  0.9000E-01
     -6.615  0.0000E+00  0.9000E-01
     -6.349  0.0000E+00  0.9000E-01
     -6.083  0.0000E+00  0.9000E-01
     -5.817 -0.1679E-32  0.9000E-01
     -5.552 -0.1391E-23  0.9000E-01
     -5.286 -0.3160E-16  0.9000E-01
     -5.020 -0.1989E-10  0.9000E-01
     -4.754 -0.3236E-06  0.9000E-01
     -4.488 -0.1066E-03  0.8997E-01
     -4.222  0.1184E-02  0.9029E-01
     -3.956  0.6463E-02  0.9200E-01
     -3.690 -0.1855E-04  0.9200E-01
     -3.425 -0.1050E-04  0.9200E-01
     -3.159  0.6475E-02  0.9372E-01
     -2.893  0.1164E-02  0.9403E-01
     -2.627 -0.1138E-03  0.9400E-01
     -2.361 -0.2565E-03  0.9393E-01
     -2.095  0.4825E-02  0.9521E-01
     -1.829  0.5034E-02  0.9655E-01
     -1.563  0.6021E-02  0.9815E-01
     -1.298  0.9393E-02  0.1006E+00
     -1.032  0.1146E-01  0.1037E+00
     -0.766  0.8891E-02  0.1061E+00
     -0.500  0.4602E-02  0.1073E+00
     -0.234  0.1186E-01  0.1104E+00
      0.032  0.1832E-01  0.1153E+00
      0.298  0.1169E-01  0.1184E+00
      0.564  0.1444E-01  0.1223E+00
      0.829  0.1657E-01  0.1267E+00
      1.095  0.2049E-01  0.1321E+00
      1.361  0.1693E-01  0.1366E+00
      1.627  0.5581E-02  0.1381E+00
      1.893 -0.3804E-03  0.1380E+00
      2.159 -0.9694E-04  0.1380E+00
      2.425  0.6246E-02  0.1396E+00
      2.691  0.1328E-02  0.1400E+00
      2.956  0.1906E-02  0.1405E+00
      3.222  0.1182E-01  0.1436E+00
      3.488  0.1531E-02  0.1440E+00
      3.754 -0.3524E-03  0.1439E+00
      4.020  0.2720E-02  0.1447E+00
      4.286  0.5246E-02  0.1461E+00
      4.552 -0.6883E-03  0.1459E+00
      4.818  0.7515E-02  0.1479E+00
      5.083  0.8404E-02  0.1501E+00
      5.349 -0.5099E-03  0.1500E+00
      5.615  0.6436E-02  0.1517E+00
      5.881  0.1027E-01  0.1544E+00
      6.147  0.1184E-01  0.1576E+00
      6.413  0.9339E-02  0.1601E+00
      6.679  0.4230E-02  0.1612E+00
      6.945  0.1114E-01  0.1641E+00
      7.210  0.8049E-02  0.1663E+00
      7.476  0.6512E-02  0.1680E+00
      7.742 -0.1183E-04  0.1680E+00
      8.008 -0.3279E-04  0.1680E+00
      8.274 -0.3173E-07  0.1680E+00
      8.540 -0.6977E-12  0.1680E+00
      8.806  0.0000E+00  0.1680E+00
      9.072  0.0000E+00  0.1680E+00
      9.337  0.0000E+00  0.1680E+00
      9.603  0.0000E+00  0.1680E+00
      9.869  0.0000E+00  0.1680E+00
     10.135  0.0000E+00  0.1680E+00
     10.401  0.0000E+00  0.1680E+00
     10.667  0.0000E+00  0.1680E+00
     10.933  0.0000E+00  0.1680E+00
