  19  19   0   0
  0.2504161E+02  0.6834254E-09  0.8835925E-09  0.7880486E-09  0.0000000E+00
   1.0000000000000000E-004
  CAR 
 NEB_bottleneck                          
      9.65029238    -24.87777645  301      1.03559826      1.00000000
    -24.878  0.0000E+00  0.0000E+00
    -24.763  0.0000E+00  0.0000E+00
    -24.648  0.0000E+00  0.0000E+00
    -24.532 -0.7578E-31 -0.8722E-32
    -24.417 -0.6935E-27 -0.7983E-28
    -24.302 -0.3251E-23 -0.3742E-24
    -24.187 -0.7812E-20 -0.8995E-21
    -24.072 -0.9618E-17 -0.1108E-17
    -23.957 -0.5857E-14 -0.6752E-15
    -23.842 -0.1871E-11 -0.2160E-12
    -23.727 -0.3042E-09 -0.3523E-10
    -23.612 -0.2506E-07 -0.2920E-08
    -23.497 -0.1038E-05 -0.1224E-06
    -23.382 -0.2127E-04 -0.2571E-05
    -23.266 -0.2062E-03 -0.2631E-04
    -23.151 -0.8046E-03 -0.1189E-03
    -23.036  0.4827E-04 -0.1134E-03
    -22.921  0.8260E-02  0.8373E-03
    -22.806  0.2052E-01  0.3199E-02
    -22.691  0.1930E-01  0.5421E-02
    -22.576  0.6434E-02  0.6162E-02
    -22.461 -0.5215E-03  0.6102E-02
    -22.346 -0.7307E-03  0.6017E-02
    -22.231 -0.2586E-03  0.5988E-02
    -22.116 -0.8989E-03  0.5884E-02
    -22.000 -0.2564E-02  0.5589E-02
    -21.885  0.2100E-02  0.5831E-02
    -21.770  0.2618E-01  0.8844E-02
    -21.655  0.6340E-01  0.1614E-01
    -21.540  0.9857E-01  0.2749E-01
    -21.425  0.1117E+00  0.4034E-01
    -21.310  0.8187E-01  0.4976E-01
    -21.195  0.3522E-01  0.5382E-01
    -21.080  0.5519E-02  0.5445E-01
    -20.965 -0.2393E-02  0.5418E-01
    -20.850 -0.1291E-02  0.5403E-01
    -20.734 -0.2257E-03  0.5400E-01
    -20.619 -0.1785E-04  0.5400E-01
    -20.504 -0.6863E-06  0.5400E-01
    -20.389 -0.1317E-07  0.5400E-01
    -20.274 -0.1279E-09  0.5400E-01
    -20.159 -0.6329E-12  0.5400E-01
    -20.044 -0.1609E-14  0.5400E-01
    -19.929  0.0000E+00  0.5400E-01
    -19.814  0.0000E+00  0.5400E-01
    -19.699  0.0000E+00  0.5400E-01
    -19.583  0.0000E+00  0.5400E-01
    -19.468  0.0000E+00  0.5400E-01
    -19.353  0.0000E+00  0.5400E-01
    -19.238  0.0000E+00  0.5400E-01
    -19.123  0.0000E+00  0.5400E-01
    -19.008  0.0000E+00  0.5400E-01
    -18.893  0.0000E+00  0.5400E-01
    -18.778  0.0000E+00  0.5400E-01
    -18.663  0.0000E+00  0.5400E-01
    -18.548  0.0000E+00  0.5400E-01
    -18.433  0.0000E+00  0.5400E-01
    -18.317  0.0000E+00  0.5400E-01
    -18.202  0.0000E+00  0.5400E-01
    -18.087  0.0000E+00  0.5400E-01
    -17.972  0.0000E+00  0.5400E-01
    -17.857  0.0000E+00  0.5400E-01
    -17.742  0.0000E+00  0.5400E-01
    -17.627  0.0000E+00  0.5400E-01
    -17.512  0.0000E+00  0.5400E-01
    -17.397  0.0000E+00  0.5400E-01
    -17.282  0.0000E+00  0.5400E-01
    -17.167  0.0000E+00  0.5400E-01
    -17.051  0.0000E+00  0.5400E-01
    -16.936  0.0000E+00  0.5400E-01
    -16.821  0.0000E+00  0.5400E-01
    -16.706  0.0000E+00  0.5400E-01
    -16.591  0.0000E+00  0.5400E-01
    -16.476  0.0000E+00  0.5400E-01
    -16.361  0.0000E+00  0.5400E-01
    -16.246  0.0000E+00  0.5400E-01
    -16.131  0.0000E+00  0.5400E-01
    -16.016  0.0000E+00  0.5400E-01
    -15.900  0.0000E+00  0.5400E-01
    -15.785  0.0000E+00  0.5400E-01
    -15.670  0.0000E+00  0.5400E-01
    -15.555  0.0000E+00  0.5400E-01
    -15.440  0.0000E+00  0.5400E-01
    -15.325  0.0000E+00  0.5400E-01
    -15.210  0.0000E+00  0.5400E-01
    -15.095  0.0000E+00  0.5400E-01
    -14.980  0.0000E+00  0.5400E-01
    -14.865  0.0000E+00  0.5400E-01
    -14.750  0.0000E+00  0.5400E-01
    -14.634 -0.4862E-29  0.5400E-01
    -14.519 -0.3292E-25  0.5400E-01
    -14.404 -0.1142E-21  0.5400E-01
    -14.289 -0.2029E-18  0.5400E-01
    -14.174 -0.1785E-15  0.5400E-01
    -14.059 -0.8223E-13  0.5400E-01
    -13.944 -0.1918E-10  0.5400E-01
    -13.829 -0.2255E-08  0.5400E-01
    -13.714 -0.1322E-06  0.5400E-01
    -13.599 -0.3787E-05  0.5400E-01
    -13.484 -0.5068E-04  0.5399E-01
    -13.368 -0.2783E-03  0.5396E-01
    -13.253 -0.2429E-03  0.5393E-01
    -13.138  0.2502E-02  0.5422E-01
    -13.023  0.7244E-02  0.5506E-01
    -12.908  0.6074E-02  0.5575E-01
    -12.793 -0.2671E-04  0.5575E-01
    -12.678  0.2752E-02  0.5607E-01
    -12.563  0.2483E-01  0.5893E-01
    -12.448  0.4866E-01  0.6453E-01
    -12.333  0.4469E-01  0.6967E-01
    -12.217  0.2574E-01  0.7263E-01
    -12.102  0.1144E-01  0.7395E-01
    -11.987  0.1923E-02  0.7417E-01
    -11.872 -0.9667E-03  0.7406E-01
    -11.757 -0.4510E-03  0.7401E-01
    -11.642 -0.6577E-04  0.7400E-01
    -11.527 -0.4205E-05  0.7400E-01
    -11.412 -0.1280E-06  0.7400E-01
    -11.297 -0.1922E-08  0.7400E-01
    -11.182 -0.2344E-09  0.7400E-01
    -11.067 -0.1837E-07  0.7400E-01
    -10.951 -0.7592E-06  0.7400E-01
    -10.836 -0.1508E-04  0.7400E-01
    -10.721 -0.1343E-03  0.7398E-01
    -10.606 -0.4178E-03  0.7393E-01
    -10.491  0.4706E-03  0.7399E-01
    -10.376  0.4658E-02  0.7452E-01
    -10.261  0.8765E-02  0.7553E-01
    -10.146  0.9603E-02  0.7664E-01
    -10.031  0.8312E-02  0.7760E-01
     -9.916  0.3555E-02  0.7800E-01
     -9.801 -0.5503E-03  0.7794E-01
     -9.685  0.7726E-03  0.7803E-01
     -9.570  0.7995E-02  0.7895E-01
     -9.455  0.1624E-01  0.8082E-01
     -9.340  0.2425E-01  0.8361E-01
     -9.225  0.3011E-01  0.8708E-01
     -9.110  0.2139E-01  0.8954E-01
     -8.995  0.5767E-02  0.9020E-01
     -8.880 -0.8223E-03  0.9011E-01
     -8.765 -0.7593E-03  0.9002E-01
     -8.650 -0.1518E-03  0.9000E-01
     -8.534 -0.1332E-04  0.9000E-01
     -8.419 -0.5672E-06  0.9000E-01
     -8.304 -0.1207E-07  0.9000E-01
     -8.189 -0.1297E-09  0.9000E-01
     -8.074 -0.7074E-12  0.9000E-01
     -7.959 -0.1964E-14  0.9000E-01
     -7.844 -0.3859E-17  0.9000E-01
     -7.729  0.0000E+00  0.9000E-01
     -7.614  0.0000E+00  0.9000E-01
     -7.499  0.0000E+00  0.9000E-01
     -7.384  0.0000E+00  0.9000E-01
     -7.268  0.0000E+00  0.9000E-01
     -7.153  0.0000E+00  0.9000E-01
     -7.038  0.0000E+00  0.9000E-01
     -6.923  0.0000E+00  0.9000E-01
     -6.808  0.0000E+00  0.9000E-01
     -6.693  0.0000E+00  0.9000E-01
     -6.578  0.0000E+00  0.9000E-01
     -6.463  0.0000E+00  0.9000E-01
     -6.348  0.0000E+00  0.9000E-01
     -6.233  0.0000E+00  0.9000E-01
     -6.118  0.0000E+00  0.9000E-01
     -6.002  0.0000E+00  0.9000E-01
     -5.887  0.0000E+00  0.9000E-01
     -5.772  0.0000E+00  0.9000E-01
     -5.657  0.0000E+00  0.9000E-01
     -5.542  0.0000E+00  0.9000E-01
     -5.427  0.0000E+00  0.9000E-01
     -5.312  0.0000E+00  0.9000E-01
     -5.197  0.0000E+00  0.9000E-01
     -5.082 -0.3825E-32  0.9000E-01
     -4.967 -0.4301E-28  0.9000E-01
     -4.851 -0.2480E-24  0.9000E-01
     -4.736 -0.7329E-21  0.9000E-01
     -4.621 -0.1108E-17  0.9000E-01
     -4.506 -0.8296E-15  0.9000E-01
     -4.391 -0.3243E-12  0.9000E-01
     -4.276 -0.6421E-10  0.9000E-01
     -4.161 -0.6395E-08  0.9000E-01
     -4.046 -0.3164E-06  0.9000E-01
     -3.931 -0.7591E-05  0.9000E-01
     -3.816 -0.8360E-04  0.8999E-01
     -3.701 -0.3539E-03  0.8995E-01
     -3.585  0.2227E-04  0.8995E-01
     -3.470  0.3476E-02  0.9035E-01
     -3.355  0.7605E-02  0.9123E-01
     -3.240  0.7645E-02  0.9211E-01
     -3.125  0.7858E-02  0.9301E-01
     -3.010  0.6906E-02  0.9381E-01
     -2.895  0.2290E-02  0.9407E-01
     -2.780 -0.2733E-03  0.9404E-01
     -2.665 -0.2758E-03  0.9401E-01
     -2.550 -0.4946E-04  0.9400E-01
     -2.435 -0.3661E-05  0.9400E-01
     -2.319 -0.2113E-06  0.9400E-01
     -2.204 -0.2645E-05  0.9400E-01
     -2.089 -0.3891E-04  0.9400E-01
     -1.974 -0.2426E-03  0.9397E-01
     -1.859 -0.3603E-03  0.9393E-01
     -1.744  0.1728E-02  0.9412E-01
     -1.629  0.6241E-02  0.9484E-01
     -1.514  0.8014E-02  0.9577E-01
     -1.399  0.1042E-01  0.9696E-01
     -1.284  0.1780E-01  0.9901E-01
     -1.169  0.1830E-01  0.1011E+00
     -1.053  0.9990E-02  0.1023E+00
     -0.938  0.6797E-02  0.1031E+00
     -0.823  0.7092E-02  0.1039E+00
     -0.708  0.7124E-02  0.1047E+00
     -0.593  0.7694E-02  0.1056E+00
     -0.478  0.7719E-02  0.1065E+00
     -0.363  0.1028E-01  0.1076E+00
     -0.248  0.1374E-01  0.1092E+00
     -0.133  0.1989E-01  0.1115E+00
     -0.018  0.2775E-01  0.1147E+00
      0.098  0.2562E-01  0.1177E+00
      0.213  0.1923E-01  0.1199E+00
      0.328  0.2038E-01  0.1222E+00
      0.443  0.2255E-01  0.1248E+00
      0.558  0.2118E-01  0.1273E+00
      0.673  0.1879E-01  0.1294E+00
      0.788  0.2036E-01  0.1318E+00
      0.903  0.2428E-01  0.1346E+00
      1.018  0.1926E-01  0.1368E+00
      1.133  0.9381E-02  0.1378E+00
      1.248  0.2227E-02  0.1381E+00
      1.364 -0.4415E-03  0.1381E+00
      1.479 -0.3758E-03  0.1380E+00
      1.594 -0.7404E-04  0.1380E+00
      1.709 -0.6158E-05  0.1380E+00
      1.824 -0.2404E-06  0.1380E+00
      1.939 -0.4587E-08  0.1380E+00
      2.054 -0.4364E-10  0.1380E+00
      2.169 -0.1124E-10  0.1380E+00
      2.284 -0.1397E-08  0.1380E+00
      2.399 -0.8832E-07  0.1380E+00
      2.514 -0.2736E-05  0.1380E+00
      2.630 -0.3988E-04  0.1380E+00
      2.745 -0.2442E-03  0.1380E+00
      2.860 -0.3213E-03  0.1379E+00
      2.975  0.2022E-02  0.1382E+00
      3.090  0.6959E-02  0.1390E+00
      3.205  0.7237E-02  0.1398E+00
      3.320  0.2356E-02  0.1401E+00
      3.435 -0.2700E-03  0.1400E+00
      3.550 -0.2679E-03  0.1400E+00
      3.665 -0.4728E-04  0.1400E+00
      3.781 -0.7111E-05  0.1400E+00
      3.896 -0.4974E-04  0.1400E+00
      4.011 -0.2752E-03  0.1400E+00
      4.126 -0.2511E-03  0.1399E+00
      4.241  0.2463E-02  0.1402E+00
      4.356  0.7316E-02  0.1411E+00
      4.471  0.6866E-02  0.1418E+00
      4.586  0.1916E-02  0.1421E+00
      4.701 -0.4089E-03  0.1420E+00
      4.816 -0.5741E-03  0.1420E+00
      4.931 -0.1005E-03  0.1419E+00
      5.047  0.3194E-02  0.1423E+00
      5.162  0.7469E-02  0.1432E+00
      5.277  0.7612E-02  0.1440E+00
      5.392  0.7498E-02  0.1449E+00
      5.507  0.6778E-02  0.1457E+00
      5.622  0.4592E-02  0.1462E+00
      5.737  0.6656E-02  0.1470E+00
      5.852  0.9665E-02  0.1481E+00
      5.967  0.1275E-01  0.1496E+00
      6.082  0.1586E-01  0.1514E+00
      6.197  0.1422E-01  0.1530E+00
      6.313  0.7290E-02  0.1539E+00
      6.428  0.1973E-02  0.1541E+00
      6.543  0.4703E-02  0.1546E+00
      6.658  0.1000E-01  0.1558E+00
      6.773  0.1057E-01  0.1570E+00
      6.888  0.6454E-02  0.1577E+00
      7.003  0.5808E-02  0.1584E+00
      7.118  0.1533E-01  0.1602E+00
      7.233  0.2377E-01  0.1629E+00
      7.348  0.1923E-01  0.1651E+00
      7.464  0.7971E-02  0.1660E+00
      7.579  0.4409E-02  0.1666E+00
      7.694  0.7269E-02  0.1674E+00
      7.809  0.5142E-02  0.1680E+00
      7.924  0.7508E-03  0.1681E+00
      8.039 -0.4067E-03  0.1680E+00
      8.154 -0.1476E-03  0.1680E+00
      8.269 -0.1754E-04  0.1680E+00
      8.384 -0.9245E-06  0.1680E+00
      8.499 -0.2335E-07  0.1680E+00
      8.614 -0.2912E-09  0.1680E+00
      8.730 -0.1821E-11  0.1680E+00
      8.845 -0.5761E-14  0.1680E+00
      8.960 -0.7717E-17  0.1680E+00
      9.075  0.0000E+00  0.1680E+00
      9.190  0.0000E+00  0.1680E+00
      9.305  0.0000E+00  0.1680E+00
      9.420  0.0000E+00  0.1680E+00
      9.535  0.0000E+00  0.1680E+00
      9.650  0.0000E+00  0.1680E+00
