  39  39   0   0
  0.2439952E+02  0.6834254E-09  0.1767185E-08  0.7880486E-09  0.0000000E+00
   1.0000000000000000E-004
  CAR 
 NEB_refined                             
      9.50928575    -23.80607855  301      1.06497579      1.00000000
    -23.806  0.0000E+00  0.0000E+00
    -23.695  0.0000E+00  0.0000E+00
    -23.584  0.0000E+00  0.0000E+00
    -23.473 -0.8742E-31 -0.9708E-32
    -23.362 -0.6425E-27 -0.7136E-28
    -23.251 -0.2541E-23 -0.2823E-24
    -23.140 -0.5404E-20 -0.6004E-21
    -23.029 -0.6176E-17 -0.6865E-18
    -22.918 -0.3669E-14 -0.4082E-15
    -22.807 -0.1198E-11 -0.1335E-12
    -22.696 -0.2088E-09 -0.2332E-10
    -22.585 -0.1935E-07 -0.2172E-08
    -22.473 -0.9471E-06 -0.1074E-06
    -22.362 -0.2424E-04 -0.2800E-05
    -22.251 -0.3179E-03 -0.3811E-04
    -22.140 -0.2029E-02 -0.2634E-03
    -22.029 -0.5105E-02 -0.8304E-03
    -21.918  0.4410E-02 -0.3406E-03
    -21.807  0.5392E-01  0.5648E-02
    -21.696  0.1280E+00  0.1986E-01
    -21.585  0.1560E+00  0.3719E-01
    -21.474  0.1623E+00  0.5521E-01
    -21.363  0.2708E+00  0.8528E-01
    -21.252  0.4467E+00  0.1349E+00
    -21.141  0.4859E+00  0.1889E+00
    -21.030  0.3028E+00  0.2225E+00
    -20.919  0.7776E-01  0.2311E+00
    -20.808 -0.1304E-01  0.2297E+00
    -20.697 -0.1210E-01  0.2283E+00
    -20.586 -0.2630E-02  0.2280E+00
    -20.475 -0.2588E-03  0.2280E+00
    -20.363 -0.1281E-04  0.2280E+00
    -20.252 -0.3302E-06  0.2280E+00
    -20.141 -0.4511E-08  0.2280E+00
    -20.030 -0.3292E-10  0.2280E+00
    -19.919 -0.1290E-12  0.2280E+00
    -19.808 -0.2719E-15  0.2280E+00
    -19.697  0.0000E+00  0.2280E+00
    -19.586  0.0000E+00  0.2280E+00
    -19.475  0.0000E+00  0.2280E+00
    -19.364  0.0000E+00  0.2280E+00
    -19.253  0.0000E+00  0.2280E+00
    -19.142  0.0000E+00  0.2280E+00
    -19.031  0.0000E+00  0.2280E+00
    -18.920  0.0000E+00  0.2280E+00
    -18.809  0.0000E+00  0.2280E+00
    -18.698  0.0000E+00  0.2280E+00
    -18.587  0.0000E+00  0.2280E+00
    -18.476  0.0000E+00  0.2280E+00
    -18.365  0.0000E+00  0.2280E+00
    -18.254  0.0000E+00  0.2280E+00
    -18.142  0.0000E+00  0.2280E+00
    -18.031  0.0000E+00  0.2280E+00
    -17.920  0.0000E+00  0.2280E+00
    -17.809  0.0000E+00  0.2280E+00
    -17.698  0.0000E+00  0.2280E+00
    -17.587  0.0000E+00  0.2280E+00
    -17.476  0.0000E+00  0.2280E+00
    -17.365  0.0000E+00  0.2280E+00
    -17.254  0.0000E+00  0.2280E+00
    -17.143  0.0000E+00  0.2280E+00
    -17.032  0.0000E+00  0.2280E+00
    -16.921  0.0000E+00  0.2280E+00
    -16.810  0.0000E+00  0.2280E+00
    -16.699  0.0000E+00  0.2280E+00
    -16.588  0.0000E+00  0.2280E+00
    -16.477  0.0000E+00  0.2280E+00
    -16.366  0.0000E+00  0.2280E+00
    -16.255  0.0000E+00  0.2280E+00
    -16.144  0.0000E+00  0.2280E+00
    -16.032  0.0000E+00  0.2280E+00
    -15.921  0.0000E+00  0.2280E+00
    -15.810  0.0000E+00  0.2280E+00
    -15.699  0.0000E+00  0.2280E+00
    -15.588  0.0000E+00  0.2280E+00
    -15.477  0.0000E+00  0.2280E+00
    -15.366  0.0000E+00  0.2280E+00
    -15.255  0.0000E+00  0.2280E+00
    -15.144  0.0000E+00  0.2280E+00
    -15.033  0.0000E+00  0.2280E+00
    -14.922  0.0000E+00  0.2280E+00
    -14.811  0.0000E+00  0.2280E+00
    -14.700  0.0000E+00  0.2280E+00
    -14.589  0.0000E+00  0.2280E+00
    -14.478  0.0000E+00  0.2280E+00
    -14.367  0.0000E+00  0.2280E+00
    -14.256  0.0000E+00  0.2280E+00
    -14.145 -0.1617E-29  0.2280E+00
    -14.034 -0.9813E-26  0.2280E+00
    -13.923 -0.3205E-22  0.2280E+00
    -13.811 -0.5642E-19  0.2280E+00
    -13.700 -0.5351E-16  0.2280E+00
    -13.589 -0.2644E-13  0.2280E+00
    -13.478 -0.7220E-11  0.2280E+00
    -13.367 -0.1059E-08  0.2280E+00
    -13.256 -0.8315E-07  0.2280E+00
    -13.145 -0.3478E-05  0.2280E+00
    -13.034 -0.7651E-04  0.2280E+00
    -12.923 -0.8589E-03  0.2279E+00
    -12.812 -0.4503E-02  0.2274E+00
    -12.701 -0.6937E-02  0.2266E+00
    -12.590  0.2495E-01  0.2294E+00
    -12.479  0.1170E+00  0.2424E+00
    -12.368  0.1995E+00  0.2645E+00
    -12.257  0.1985E+00  0.2866E+00
    -12.146  0.1357E+00  0.3017E+00
    -12.035  0.5767E-01  0.3081E+00
    -11.924  0.7071E-02  0.3089E+00
    -11.813 -0.4937E-02  0.3083E+00
    -11.701 -0.2305E-02  0.3080E+00
    -11.590 -0.4007E-03  0.3080E+00
    -11.479 -0.3376E-04  0.3080E+00
    -11.368 -0.1462E-05  0.3080E+00
    -11.257 -0.3319E-07  0.3080E+00
    -11.146 -0.3999E-09  0.3080E+00
    -11.035 -0.1646E-09  0.3080E+00
    -10.924 -0.1359E-07  0.3080E+00
    -10.813 -0.5969E-06  0.3080E+00
    -10.702 -0.1354E-04  0.3080E+00
    -10.591 -0.1541E-03  0.3080E+00
    -10.480 -0.8139E-03  0.3079E+00
    -10.369 -0.1360E-02  0.3077E+00
    -10.258  0.3842E-02  0.3082E+00
    -10.147  0.2108E-01  0.3105E+00
    -10.036  0.4145E-01  0.3151E+00
     -9.925  0.4497E-01  0.3201E+00
     -9.814  0.2773E-01  0.3232E+00
     -9.703  0.5344E-02  0.3238E+00
     -9.592 -0.5699E-02  0.3231E+00
     -9.480  0.1747E-01  0.3251E+00
     -9.369  0.8950E-01  0.3350E+00
     -9.258  0.1488E+00  0.3515E+00
     -9.147  0.1242E+00  0.3653E+00
     -9.036  0.5551E-01  0.3715E+00
     -8.925  0.1001E-01  0.3726E+00
     -8.814 -0.2856E-02  0.3723E+00
     -8.703 -0.2130E-02  0.3721E+00
     -8.592 -0.5040E-03  0.3720E+00
     -8.481 -0.5721E-04  0.3720E+00
     -8.370 -0.3327E-05  0.3720E+00
     -8.259 -0.1012E-06  0.3720E+00
     -8.148 -0.1624E-08  0.3720E+00
     -8.037 -0.1384E-10  0.3720E+00
     -7.926 -0.6280E-13  0.3720E+00
     -7.815 -0.1520E-15  0.3720E+00
     -7.704  0.0000E+00  0.3720E+00
     -7.593  0.0000E+00  0.3720E+00
     -7.482  0.0000E+00  0.3720E+00
     -7.370  0.0000E+00  0.3720E+00
     -7.259  0.0000E+00  0.3720E+00
     -7.148  0.0000E+00  0.3720E+00
     -7.037  0.0000E+00  0.3720E+00
     -6.926  0.0000E+00  0.3720E+00
     -6.815  0.0000E+00  0.3720E+00
     -6.704  0.0000E+00  0.3720E+00
     -6.593  0.0000E+00  0.3720E+00
     -6.482  0.0000E+00  0.3720E+00
     -6.371  0.0000E+00  0.3720E+00
     -6.260  0.0000E+00  0.3720E+00
     -6.149  0.0000E+00  0.3720E+00
     -6.038  0.0000E+00  0.3720E+00
     -5.927  0.0000E+00  0.3720E+00
     -5.816  0.0000E+00  0.3720E+00
     -5.705  0.0000E+00  0.3720E+00
     -5.594  0.0000E+00  0.3720E+00
     -5.483  0.0000E+00  0.3720E+00
     -5.372  0.0000E+00  0.3720E+00
     -5.261  0.0000E+00  0.3720E+00
     -5.149  0.0000E+00  0.3720E+00
     -5.038  0.0000E+00  0.3720E+00
     -4.927 -0.4589E-30  0.3720E+00
     -4.816 -0.2858E-26  0.3720E+00
     -4.705 -0.9555E-23  0.3720E+00
     -4.594 -0.1714E-19  0.3720E+00
     -4.483 -0.1647E-16  0.3720E+00
     -4.372 -0.8181E-14  0.3720E+00
     -4.261 -0.2226E-11  0.3720E+00
     -4.150 -0.3213E-09  0.3720E+00
     -4.039 -0.2443E-07  0.3720E+00
     -3.928 -0.9676E-06  0.3720E+00
     -3.817 -0.1959E-04  0.3720E+00
     -3.706 -0.1945E-03  0.3720E+00
     -3.595 -0.8483E-03  0.3719E+00
     -3.484 -0.8088E-03  0.3718E+00
     -3.373  0.5046E-02  0.3724E+00
     -3.262  0.1979E-01  0.3746E+00
     -3.151  0.3767E-01  0.3787E+00
     -3.040  0.4467E-01  0.3837E+00
     -2.928  0.3083E-01  0.3871E+00
     -2.817  0.9948E-02  0.3882E+00
     -2.706 -0.3698E-03  0.3882E+00
     -2.595 -0.1245E-02  0.3880E+00
     -2.484 -0.3475E-03  0.3880E+00
     -2.373 -0.4159E-04  0.3880E+00
     -2.262 -0.2445E-05  0.3880E+00
     -2.151 -0.1782E-06  0.3880E+00
     -2.040 -0.3244E-05  0.3880E+00
     -1.929 -0.5087E-04  0.3880E+00
     -1.818 -0.3842E-03  0.3880E+00
     -1.707 -0.1198E-02  0.3878E+00
     -1.596 -0.1428E-03  0.3878E+00
     -1.485  0.8194E-02  0.3887E+00
     -1.374  0.2702E-01  0.3917E+00
     -1.263  0.5680E-01  0.3980E+00
     -1.152  0.8382E-01  0.4073E+00
     -1.041  0.8261E-01  0.4165E+00
     -0.930  0.5072E-01  0.4221E+00
     -0.818  0.2242E-01  0.4246E+00
     -0.707  0.2905E-01  0.4279E+00
     -0.596  0.4216E-01  0.4325E+00
     -0.485  0.2514E-01  0.4353E+00
     -0.374  0.4991E-02  0.4359E+00
     -0.263  0.2011E-01  0.4381E+00
     -0.152  0.6289E-01  0.4451E+00
     -0.041  0.1007E+00  0.4563E+00
      0.070  0.1236E+00  0.4700E+00
      0.181  0.1273E+00  0.4841E+00
      0.292  0.1127E+00  0.4967E+00
      0.403  0.1067E+00  0.5085E+00
      0.514  0.1056E+00  0.5202E+00
      0.625  0.8731E-01  0.5299E+00
      0.736  0.7409E-01  0.5382E+00
      0.847  0.8337E-01  0.5474E+00
      0.958  0.8231E-01  0.5566E+00
      1.069  0.5032E-01  0.5621E+00
      1.180  0.1735E-01  0.5641E+00
      1.291  0.1878E-02  0.5643E+00
      1.403 -0.1533E-02  0.5641E+00
      1.514 -0.7907E-03  0.5640E+00
      1.625 -0.1501E-03  0.5640E+00
      1.736 -0.1337E-04  0.5640E+00
      1.847 -0.5954E-06  0.5640E+00
      1.958 -0.1364E-07  0.5640E+00
      2.069 -0.1635E-09  0.5640E+00
      2.180 -0.6748E-11  0.5640E+00
      2.291 -0.7347E-09  0.5640E+00
      2.402 -0.4963E-07  0.5640E+00
      2.513 -0.1737E-05  0.5640E+00
      2.624 -0.3066E-04  0.5640E+00
      2.735 -0.2554E-03  0.5640E+00
      2.846 -0.7936E-03  0.5639E+00
      2.957  0.7369E-03  0.5640E+00
      3.068  0.8765E-02  0.5649E+00
      3.179  0.1614E-01  0.5667E+00
      3.290  0.1087E-01  0.5679E+00
      3.401  0.1811E-02  0.5681E+00
      3.513 -0.8165E-03  0.5680E+00
      3.624 -0.3910E-03  0.5680E+00
      3.735 -0.4063E-03  0.5680E+00
      3.846 -0.1454E-02  0.5678E+00
      3.957 -0.5083E-03  0.5677E+00
      4.068  0.1225E-01  0.5691E+00
      4.179  0.3392E-01  0.5729E+00
      4.290  0.3903E-01  0.5772E+00
      4.401  0.2235E-01  0.5797E+00
      4.512  0.5025E-02  0.5802E+00
      4.623 -0.1101E-02  0.5801E+00
      4.734 -0.8625E-03  0.5800E+00
      4.845 -0.1835E-03  0.5800E+00
      4.956 -0.7897E-04  0.5800E+00
      5.067 -0.4742E-03  0.5799E+00
      5.178 -0.1480E-02  0.5798E+00
      5.289  0.4091E-03  0.5798E+00
      5.400  0.1377E-01  0.5813E+00
      5.511  0.3517E-01  0.5853E+00
      5.622  0.4325E-01  0.5901E+00
      5.734  0.3535E-01  0.5940E+00
      5.845  0.3687E-01  0.5981E+00
      5.956  0.5336E-01  0.6040E+00
      6.067  0.6152E-01  0.6108E+00
      6.178  0.5090E-01  0.6165E+00
      6.289  0.2623E-01  0.6194E+00
      6.400  0.6760E-02  0.6202E+00
      6.511  0.1350E-01  0.6217E+00
      6.622  0.3328E-01  0.6253E+00
      6.733  0.3981E-01  0.6298E+00
      6.844  0.4069E-01  0.6343E+00
      6.955  0.4657E-01  0.6395E+00
      7.066  0.4721E-01  0.6447E+00
      7.177  0.4401E-01  0.6496E+00
      7.288  0.4633E-01  0.6547E+00
      7.399  0.5775E-01  0.6611E+00
      7.510  0.6029E-01  0.6678E+00
      7.621  0.3506E-01  0.6717E+00
      7.732  0.6392E-02  0.6724E+00
      7.844 -0.2488E-02  0.6722E+00
      7.955 -0.1304E-02  0.6720E+00
      8.066 -0.2192E-03  0.6720E+00
      8.177 -0.1714E-04  0.6720E+00
      8.288 -0.6765E-06  0.6720E+00
      8.399 -0.1389E-07  0.6720E+00
      8.510 -0.1504E-09  0.6720E+00
      8.621 -0.8663E-12  0.6720E+00
      8.732 -0.2671E-14  0.6720E+00
      8.843  0.0000E+00  0.6720E+00
      8.954  0.0000E+00  0.6720E+00
      9.065  0.0000E+00  0.6720E+00
      9.176  0.0000E+00  0.6720E+00
      9.287  0.0000E+00  0.6720E+00
      9.398  0.0000E+00  0.6720E+00
      9.509  0.0000E+00  0.6720E+00
