 vasp.6.3.2 27Jun22 (build Mar 25 2024 10:42:18) complex                         
 executed on             LinuxGNU date 2024.03.31  09:51:17
 running on   32 total cores
 distrk:  each k-point on   32 cores,    1 groups
 distr:  one band on NCORE=   1 cores,   32 groups


--------------------------------------------------------------------------------------------------------


 INCAR:
   ISTART = 0
   ICHARG = 2
   PREC = Accurate
   IBRION = -1
   EDIFF = 0.000000001
   EDIFFG = -0.0005
   NSW = 0
   NELM = 100
   ENCUT = 520
   ISMEAR = -5
   SIGMA = 0.05
   ISPIN = 2
   ISYM = 0
   LWAVE = False
   LCHARG = False
   LASPH = True
   LORBIT = 11
   ADDGRID = TRUE

 POTCAR:    PAW_PBE S 06Sep2000                   
 -----------------------------------------------------------------------------
|                                                                             |
|           W    W    AA    RRRRR   N    N  II  N    N   GGGG   !!!           |
|           W    W   A  A   R    R  NN   N  II  NN   N  G    G  !!!           |
|           W    W  A    A  R    R  N N  N  II  N N  N  G       !!!           |
|           W WW W  AAAAAA  RRRRR   N  N N  II  N  N N  G  GGG   !            |
|           WW  WW  A    A  R   R   N   NN  II  N   NN  G    G                |
|           W    W  A    A  R    R  N    N  II  N    N   GGGG   !!!           |
|                                                                             |
|     You use a magnetic or noncollinear calculation, but did not specify     |
|     the initial magnetic moment with the MAGMOM tag. Note that a            |
|     default of 1 will be used for all atoms. This ferromagnetic setup       |
|     may break the symmetry of the crystal, in particular it may rule        |
|     out finding an antiferromagnetic solution. Thence, we recommend         |
|     setting the initial magnetic moment manually or verifying carefully     |
|     that this magnetic setup is desired.                                    |
|                                                                             |
 -----------------------------------------------------------------------------

 -----------------------------------------------------------------------------
|                                                                             |
|           W    W    AA    RRRRR   N    N  II  N    N   GGGG   !!!           |
|           W    W   A  A   R    R  NN   N  II  NN   N  G    G  !!!           |
|           W    W  A    A  R    R  N N  N  II  N N  N  G       !!!           |
|           W WW W  AAAAAA  RRRRR   N  N N  II  N  N N  G  GGG   !            |
|           WW  WW  A    A  R   R   N   NN  II  N   NN  G    G                |
|           W    W  A    A  R    R  N    N  II  N    N   GGGG   !!!           |
|                                                                             |
|     For optimal performance we recommend to set                             |
|       NCORE = 2 up to number-of-cores-per-socket                            |
|     NCORE specifies how many cores store one orbital (NPAR=cpu/NCORE).      |
|     This setting can greatly improve the performance of VASP for DFT.       |
|     The default, NCORE=1 might be grossly inefficient on modern             |
|     multi-core architectures or massively parallel machines. Do your        |
|     own testing! More info at https://www.vasp.at/wiki/index.php/NCORE      |
|     Unfortunately you need to use the default for GW and RPA                |
|     calculations (for HF NCORE is supported but not extensively tested      |
|     yet).                                                                   |
|                                                                             |
 -----------------------------------------------------------------------------

 POTCAR:    PAW_PBE S 06Sep2000                   
   SHA256 =  0fc7481fb0695f01bdc6462160264c5c84044ae9ec85a907d398b887a2bc3132 S/POTCAR              
   COPYR  = (c) Copyright 06Sep2000 Georg Kresse                                                    
   COPYR  = This file is part of the software VASP. Any use, copying, and all other rights are regul
   COPYR  = If you do not have a valid VASP license, you may not use, copy or distribute this file. 
   VRHFIN =S : s2p4                                                                                 
   LEXCH  = PE                                                                                      
   EATOM  =   276.8230 eV,   20.3459 Ry                                                             
                                                                                                    
   TITEL  = PAW_PBE S 06Sep2000                                                                     
   LULTRA =        F    use ultrasoft PP ?                                                          
   IUNSCR =        1    unscreen: 0-lin 1-nonlin 2-no                                               
   RPACOR =    1.500    partial core radius                                                         
   POMASS =   32.066; ZVAL   =    6.000    mass and valenz                                          
   RCORE  =    1.900    outmost cutoff radius                                                       
   RWIGS  =    2.200; RWIGS  =    1.164    wigner-seitz radius (au A)                               
   ENMAX  =  258.689; ENMIN  =  194.016 eV                                                          
   ICORE  =        2    local potential                                                             
   LCOR   =        T    correct aug charges                                                         
   LPAW   =        T    paw PP                                                                      
   EAUG   =  335.092                                                                                
   DEXC   =    0.000                                                                                
   RMAX   =    1.942    core radius for proj-oper                                                   
   RAUG   =    1.300    factor for augmentation sphere                                              
   RDEP   =    1.954    radius for radial grids                                                     
   RDEPT  =    1.744    core radius for aug-charge                                                  
                                                                                                    
   Atomic configuration                                                                             
    6 entries                                                                                       
     n  l   j            E        occ.                                                              
     1  0  0.50     -2405.8406   2.0000                                                             
     2  0  0.50      -211.7007   2.0000                                                             
     2  1  1.50      -156.4958   6.0000                                                             
     3  0  0.50       -17.2562   2.0000                                                             
     3  1  0.50        -7.0085   4.0000                                                             
     3  2  1.50        -6.8029   0.0000                                                             
   Description                                                                                      
     l       E           TYP  RCUT    TYP  RCUT                                                     
     0    -17.2561641     23  1.900                                                                 
     0    -15.8743224     23  1.900                                                                 
     1     -7.0085400     23  1.900                                                                 
     1     -2.7779785     23  1.900                                                                 
     2     -6.8029130     23  1.900                                                                 
  local pseudopotential read in
  partial core-charges read in
  partial kinetic energy density read in
  atomic valenz-charges read in
  non local Contribution for L=           0  read in
    real space projection operators read in
  non local Contribution for L=           0  read in
    real space projection operators read in
  non local Contribution for L=           1  read in
    real space projection operators read in
  non local Contribution for L=           1  read in
    real space projection operators read in
    PAW grid and wavefunctions read in

   number of l-projection  operators is LMAX  =           4
   number of lm-projection operators is LMMAX =           8

 -----------------------------------------------------------------------------
|                                                                             |
|               ----> ADVICE to this user running VASP <----                  |
|                                                                             |
|     You have a (more or less) 'large supercell' and for larger cells it     |
|     might be more efficient to use real-space projection operators.         |
|     Therefore, try LREAL= Auto in the INCAR file.                           |
|     Mind: For very accurate calculation, you might also keep the            |
|     reciprocal projection scheme (i.e. LREAL=.FALSE.).                      |
|                                                                             |
 -----------------------------------------------------------------------------

  PAW_PBE S 06Sep2000                   :
 energy of atom  1       EATOM= -276.8230
 kinetic energy error for atom=    0.0016 (will be added to EATOM!!)


 POSCAR: generated by phonopy
  positions in direct lattice
  No initial velocities read in
 exchange correlation table for  LEXCH =        8
   RHO(1)=    0.500       N(1)  =     2000
   RHO(2)=  100.500       N(2)  =     4000



--------------------------------------------------------------------------------------------------------


 ion  position               nearest neighbor table
   1  0.886  0.468  0.678-  45 1.98  24 2.13
   2  0.886  0.967  0.678-  46 1.98  23 2.13
   3  0.330  0.189  0.551-  41 2.05  19 2.13
   4  0.330  0.689  0.551-  42 2.05  20 2.13
   5  0.913  0.105  0.912-  51 1.98  11 2.13
   6  0.913  0.605  0.912-  52 1.98  12 2.13
   7  0.240  0.301  0.777-  19 1.98  37 2.23
   8  0.240  0.801  0.777-  20 1.98  38 2.23
   9  0.144  0.306  0.224-  31 2.05  39 2.13
  10  0.144  0.806  0.224-  32 2.05  40 2.13
  11  0.856  0.194  0.776-  47 2.05   5 2.13
  12  0.856  0.694  0.776-  48 2.05   6 2.13
  13  0.760  0.199  0.223-  27 1.98  33 2.23
  14  0.760  0.699  0.223-  28 1.98  34 2.23
  15  0.170  0.439  0.449-  31 2.05  30 2.13
  16  0.170  0.939  0.449-  32 2.05  29 2.13
  17  0.413  0.145  0.912-  37 1.98  43 2.13
  18  0.413  0.645  0.912-  38 1.98  44 2.13
  19  0.386  0.283  0.678-   7 1.98   3 2.13
  20  0.386  0.783  0.678-   8 1.98   4 2.13
  21  0.644  0.444  0.224-  53 2.05  35 2.13
  22  0.644  0.944  0.224-  54 2.05  36 2.13
  23  0.830  0.061  0.551-  47 2.05   2 2.13
  24  0.830  0.561  0.551-  48 2.05   1 2.13
  25  0.260  0.051  0.223-  29 1.98  50 2.23
  26  0.260  0.551  0.223-  30 1.98  49 2.23
  27  0.614  0.217  0.322-  13 1.98  55 2.13
  28  0.614  0.717  0.322-  14 1.98  56 2.13
  29  0.114  0.033  0.322-  25 1.98  16 2.13
  30  0.114  0.533  0.322-  26 1.98  15 2.13
  31  0.060  0.345  0.374-   9 2.05  15 2.05
  32  0.060  0.845  0.374-  10 2.05  16 2.05
  33  0.743  0.289  0.071-  35 1.98  13 2.23
  34  0.743  0.789  0.071-  36 1.98  14 2.23
  35  0.587  0.355  0.088-  33 1.98  21 2.13
  36  0.587  0.855  0.088-  34 1.98  22 2.13
  37  0.257  0.211  0.929-  17 1.98   7 2.23
  38  0.257  0.711  0.929-  18 1.98   8 2.23
  39  0.087  0.395  0.088-  49 1.98   9 2.13
  40  0.087  0.895  0.088-  50 1.98  10 2.13
  41  0.440  0.095  0.626-  43 2.05   3 2.05
  42  0.440  0.595  0.626-  44 2.05   4 2.05
  43  0.356  0.056  0.776-  41 2.05  17 2.13
  44  0.356  0.556  0.776-  42 2.05  18 2.13
  45  0.740  0.449  0.777-   1 1.98  52 2.23
  46  0.740  0.949  0.777-   2 1.98  51 2.23
  47  0.940  0.155  0.626-  11 2.05  23 2.05
  48  0.940  0.655  0.626-  12 2.05  24 2.05
  49  0.243  0.461  0.071-  39 1.98  26 2.23
  50  0.243  0.961  0.071-  40 1.98  25 2.23
  51  0.757  0.039  0.929-   5 1.98  46 2.23
  52  0.757  0.539  0.929-   6 1.98  45 2.23
  53  0.560  0.405  0.374-  21 2.05  55 2.05
  54  0.560  0.905  0.374-  22 2.05  56 2.05
  55  0.670  0.311  0.449-  53 2.05  27 2.13
  56  0.670  0.811  0.449-  54 2.05  28 2.13


IMPORTANT INFORMATION: All symmetrisations will be switched off!
NOSYMM: (Re-)initialisation of all symmetry stuff for point group C_1.


----------------------------------------------------------------------------------------

                                     Primitive cell                                     

  volume of cell :    1863.6770

  direct lattice vectors                    reciprocal lattice vectors
     0.000000000 10.307367086 -0.372855731     0.000000000  0.096453423 -0.015606996
    16.788494411  0.000000000  0.000000000     0.059564603  0.000000000  0.000000000
     0.000000000 -1.732519801-10.707215182     0.000000000 -0.003358783 -0.092851486

  length of vectors
    10.314108670 16.788494411 10.846477853     0.097707938  0.059564603  0.092912216

  position of ions in fractional coordinates (direct lattice)
     0.886423141  0.467600397  0.678126386
     0.886423141  0.967004751  0.678126386
     0.329563264  0.188743823  0.550707721
     0.329563264  0.688743823  0.550707721
     0.912671285  0.105241885  0.911960471
     0.912671285  0.605241885  0.911960471
     0.239736405  0.300831047  0.776574189
     0.239736405  0.800831047  0.776574189
     0.144417516  0.305688762  0.224396680
     0.144417516  0.805688762  0.224396680
     0.855582484  0.194311238  0.775603320
     0.855582484  0.694311238  0.775603320
     0.760263595  0.199168953  0.223425811
     0.760263595  0.699168953  0.223425811
     0.170436736  0.438743823  0.449292279
     0.170436736  0.938743823  0.449292279
     0.412671285  0.144758115  0.911960471
     0.412671285  0.644758115  0.911960471
     0.386423141  0.282995249  0.678126386
     0.386423141  0.782995249  0.678126386
     0.644417516  0.444311238  0.224396680
     0.644417516  0.944311238  0.224396680
     0.829563264  0.061256177  0.550707721
     0.829563264  0.561256177  0.550707721
     0.260263595  0.050831047  0.223425811
     0.260263595  0.550831047  0.223425811
     0.613576859  0.217004751  0.321873614
     0.613576859  0.717004751  0.321873614
     0.113576859  0.032995249  0.321873614
     0.113576859  0.532995249  0.321873614
     0.059895700  0.345087734  0.374484367
     0.059895700  0.845087734  0.374484367
     0.743425210  0.289344343  0.071165234
     0.743425210  0.789344343  0.071165234
     0.587328715  0.355241885  0.088039529
     0.587328715  0.855241885  0.088039529
     0.256574790  0.210655657  0.928834766
     0.256574790  0.710655657  0.928834766
     0.087328715  0.394758115  0.088039529
     0.087328715  0.894758115  0.088039529
     0.440104300  0.095087734  0.625515633
     0.440104300  0.595087734  0.625515633
     0.355582484  0.055688762  0.775603320
     0.355582484  0.555688762  0.775603320
     0.739736405  0.449168953  0.776574189
     0.739736405  0.949168953  0.776574189
     0.940104300  0.154912266  0.625515633
     0.940104300  0.654912266  0.625515633
     0.243425210  0.460655657  0.071165234
     0.243425210  0.960655657  0.071165234
     0.756574790  0.039344343  0.928834766
     0.756574790  0.539344343  0.928834766
     0.559895700  0.404912266  0.374484367
     0.559895700  0.904912266  0.374484367
     0.670436736  0.311256177  0.449292279
     0.670436736  0.811256177  0.449292279

  ion indices of the primitive-cell ions
   primitive index   ion index
                 1           1
                 2           2
                 3           3
                 4           4
                 5           5
                 6           6
                 7           7
                 8           8
                 9           9
                10          10
                11          11
                12          12
                13          13
                14          14
                15          15
                16          16
                17          17
                18          18
                19          19
                20          20
                21          21
                22          22
                23          23
                24          24
                25          25
                26          26
                27          27
                28          28
                29          29
                30          30
                31          31
                32          32
                33          33
                34          34
                35          35
                36          36
                37          37
                38          38
                39          39
                40          40
                41          41
                42          42
                43          43
                44          44
                45          45
                46          46
                47          47
                48          48
                49          49
                50          50
                51          51
                52          52
                53          53
                54          54
                55          55
                56          56

----------------------------------------------------------------------------------------



 KPOINTS: pymatgen with grid density = 595 / numbe

Automatic generation of k-mesh.
 Grid dimensions read from file:
 generate k-points for:    2    2    2

 Generating k-lattice:

  Cartesian coordinates                     Fractional coordinates (reciprocal lattice)
     0.000000000  0.048226712 -0.007803498     0.500000000  0.000000000 -0.000000000
     0.029782301  0.000000000  0.000000000     0.000000000  0.500000000  0.000000000
     0.000000000 -0.001679391 -0.046425743    -0.000000000  0.000000000  0.500000000

  Length of vectors
     0.048853969  0.029782301  0.046456108

  Shift w.r.t. Gamma in fractional coordinates (k-lattice)
     0.000000000  0.000000000  0.000000000

 TETIRR: Found     24 inequivalent tetrahedra from       48
 
 Subroutine IBZKPT returns following result:
 ===========================================
 
 Found      8 irreducible k-points:
 
 Following reciprocal coordinates:
            Coordinates               Weight
  0.000000  0.000000  0.000000      1.000000
  0.500000  0.000000  0.000000      1.000000
  0.000000  0.500000  0.000000      1.000000
  0.500000  0.500000  0.000000      1.000000
  0.000000  0.000000  0.500000      1.000000
  0.500000  0.000000  0.500000      1.000000
  0.000000  0.500000  0.500000      1.000000
  0.500000  0.500000  0.500000      1.000000
 
 Following cartesian coordinates:
            Coordinates               Weight
  0.000000  0.000000 -0.000000      1.000000
  0.000000  0.048227 -0.007803      1.000000
  0.029782  0.000000 -0.000000      1.000000
  0.029782  0.048227 -0.007803      1.000000
  0.000000 -0.001679 -0.046426      1.000000
  0.000000  0.046547 -0.054229      1.000000
  0.029782 -0.001679 -0.046426      1.000000
  0.029782  0.046547 -0.054229      1.000000
 


--------------------------------------------------------------------------------------------------------




 Dimension of arrays:
   k-points           NKPTS =      8   k-points in BZ     NKDIM =      8   number of bands    NBANDS=    256
   number of dos      NEDOS =    301   number of ions     NIONS =     56
   non local maximal  LDIM  =      4   non local SUM 2l+1 LMDIM =      8
   total plane-waves  NPLWV = 846720
   max r-space proj   IRMAX =      1   max aug-charges    IRDMAX= 114695
   dimension x,y,z NGX =    80 NGY =  126 NGZ =   84
   dimension x,y,z NGXF=   160 NGYF=  252 NGZF=  168
   support grid    NGXF=   320 NGYF=  504 NGZF=  336
   ions per type =              56
   NGX,Y,Z   is equivalent  to a cutoff of  12.89, 12.48, 12.87 a.u.
   NGXF,Y,Z  is equivalent  to a cutoff of  25.79, 24.95, 25.75 a.u.

 SYSTEM =  unknown system                          
 POSCAR =  generated by phonopy                    

 Startparameter for this run:
   NWRITE =      2    write-flag & timer
   PREC   = accura    normal or accurate (medium, high low for compatibility)
   ISTART =      0    job   : 0-new  1-cont  2-samecut
   ICHARG =      2    charge: 1-file 2-atom 10-const
   ISPIN  =      2    spin polarized calculation?
   LNONCOLLINEAR =      F non collinear calculations
   LSORBIT =      F    spin-orbit coupling
   INIWAV =      1    electr: 0-lowe 1-rand  2-diag
   LASPH  =      T    aspherical Exc in radial PAW
 Electronic Relaxation 1
   ENCUT  =  520.0 eV  38.22 Ry    6.18 a.u.  19.18 31.22 20.17*2*pi/ulx,y,z
   ENINI  =  520.0     initial cutoff
   ENAUG  =  335.1 eV  augmentation charge cutoff
   NELM   =    100;   NELMIN=  2; NELMDL= -5     # of ELM steps 
   EDIFF  = 0.1E-08   stopping-criterion for ELM
   LREAL  =      F    real-space projection
   NLSPLINE    = F    spline interpolate recip. space projectors
   LCOMPAT=      F    compatible to vasp.4.4
   GGA_COMPAT  = T    GGA compatible to vasp.4.4-vasp.4.6
   LMAXPAW     = -100 max onsite density
   LMAXMIX     =    2 max onsite mixed and CHGCAR
   VOSKOWN=      0    Vosko Wilk Nusair interpolation
   ROPT   =    0.00000
 Ionic relaxation
   EDIFFG = -.5E-03   stopping-criterion for IOM
   NSW    =      0    number of steps for IOM
   NBLOCK =      1;   KBLOCK =      1    inner block; outer block 
   IBRION =     -1    ionic relax: 0-MD 1-quasi-New 2-CG
   NFREE  =      0    steps in history (QN), initial steepest desc. (CG)
   ISIF   =      2    stress and relaxation
   IWAVPR =     10    prediction:  0-non 1-charg 2-wave 3-comb
   ISYM   =      0    0-nonsym 1-usesym 2-fastsym
   LCORR  =      T    Harris-Foulkes like correction to forces

   POTIM  = 0.5000    time-step for ionic-motion
   TEIN   =    0.0    initial temperature
   TEBEG  =    0.0;   TEEND  =   0.0 temperature during run
   SMASS  =  -3.00    Nose mass-parameter (am)
   estimated Nose-frequenzy (Omega)   =  0.10E-29 period in steps = 0.13E+47 mass=  -0.243E-26a.u.
   SCALEE = 1.0000    scale energy and forces
   NPACO  =    256;   APACO  = 10.0  distance and # of slots for P.C.
   PSTRESS=    0.0 pullay stress

  Mass of Ions in am
   POMASS =  32.07
  Ionic Valenz
   ZVAL   =   6.00
  Atomic Wigner-Seitz radii
   RWIGS  =  -1.00
  virtual crystal weights 
   VCA    =   1.00
   NELECT =     336.0000    total number of electrons
   NUPDOWN=      -1.0000    fix difference up-down

 DOS related values:
   EMIN   =  10.00;   EMAX   =-10.00  energy-range for DOS
   EFERMI =   0.00
   ISMEAR =    -5;   SIGMA  =   0.05  broadening in eV -4-tet -1-fermi 0-gaus

 Electronic relaxation 2 (details)
   IALGO  =     38    algorithm
   LDIAG  =      T    sub-space diagonalisation (order eigenvalues)
   LSUBROT=      F    optimize rotation matrix (better conditioning)
   TURBO    =      0    0=normal 1=particle mesh
   IRESTART =      0    0=no restart 2=restart with 2 vectors
   NREBOOT  =      0    no. of reboots
   NMIN     =      0    reboot dimension
   EREF     =   0.00    reference energy to select bands
   IMIX   =      4    mixing-type and parameters
     AMIX     =   0.40;   BMIX     =  1.00
     AMIX_MAG =   1.60;   BMIX_MAG =  1.00
     AMIN     =   0.10
     WC   =   100.;   INIMIX=   1;  MIXPRE=   1;  MAXMIX= -45

 Intra band minimization:
   WEIMIN = 0.0000     energy-eigenvalue tresh-hold
   EBREAK =  0.98E-12  absolut break condition
   DEPER  =   0.30     relativ break condition  

   TIME   =   0.40     timestep for ELM

  volume/ion in A,a.u.               =      33.28       224.58
  Fermi-wavevector in a.u.,A,eV,Ry     =   0.924835  1.747685 11.637339  0.855320
  Thomas-Fermi vector in A             =   2.050624

 Write flags
   LWAVE        =      F    write WAVECAR
   LDOWNSAMPLE  =      F    k-point downsampling of WAVECAR
   LCHARG       =      F    write CHGCAR
   LVTOT        =      F    write LOCPOT, total local potential
   LVHAR        =      F    write LOCPOT, Hartree potential only
   LELF         =      F    write electronic localiz. function (ELF)
   LORBIT       =     11    0 simple, 1 ext, 2 COOP (PROOUT), +10 PAW based schemes


 Dipole corrections
   LMONO  =      F    monopole corrections only (constant potential shift)
   LDIPOL =      F    correct potential (dipole corrections)
   IDIPOL =      0    1-x, 2-y, 3-z, 4-all directions 
   EPSILON=  1.0000000 bulk dielectric constant

 Exchange correlation treatment:
   GGA     =    --    GGA type
   LEXCH   =     8    internal setting for exchange type
   LIBXC   =     F    Libxc                    
   VOSKOWN =     0    Vosko Wilk Nusair interpolation
   LHFCALC =     F    Hartree Fock is set to
   LHFONE  =     F    Hartree Fock one center treatment
   AEXX    =    0.0000 exact exchange contribution

 Linear response parameters
   LEPSILON=     F    determine dielectric tensor
   LRPA    =     F    only Hartree local field effects (RPA)
   LNABLA  =     F    use nabla operator in PAW spheres
   LVEL    =     F    velocity operator in full k-point grid
   CSHIFT  =0.1000    complex shift for real part using Kramers Kronig
   OMEGAMAX=  -1.0    maximum frequency
   DEG_THRESHOLD= 0.2000000E-02 threshold for treating states as degnerate
   RTIME   =   -0.100 relaxation time in fs
  (WPLASMAI=    0.000 imaginary part of plasma frequency in eV, 0.658/RTIME)
   DFIELD  = 0.0000000 0.0000000 0.0000000 field for delta impulse in time

  Optional k-point grid parameters
   LKPOINTS_OPT  =     F    use optional k-point grid
   KPOINTS_OPT_MODE=     1    mode for optional k-point grid

 Orbital magnetization related:
   ORBITALMAG=     F  switch on orbital magnetization
   LCHIMAG   =     F  perturbation theory with respect to B field
   DQ        =  0.001000  dq finite difference perturbation B field
   LLRAUG    =     F  two centre corrections for induced B field



--------------------------------------------------------------------------------------------------------


 Static calculation
 charge density and potential will be updated during run
 spin polarized calculation
 Variant of blocked Davidson
 Davidson routine will perform the subspace rotation
 perform sub-space diagonalisation
    after iterative eigenvector-optimisation
 modified Broyden-mixing scheme, WC =      100.0
 initial mixing is a Kerker type mixing with AMIX =  0.4000 and BMIX =      1.0000
 Hartree-type preconditioning will be used
 using additional bands           88
 reciprocal scheme for non local part
 use partial core corrections
 calculate Harris-corrections to forces   (improved forces if not selfconsistent)
 use gradient corrections 
 use of overlap-Matrix (Vanderbilt PP)
 Fermi weights with tetrahedron method with Bloechl corrections


--------------------------------------------------------------------------------------------------------


  energy-cutoff  :      520.00
  volume of cell :     1863.68
      direct lattice vectors                 reciprocal lattice vectors
     0.000000000 10.307367086 -0.372855731     0.000000000  0.096453423 -0.015606996
    16.788494411  0.000000000  0.000000000     0.059564603  0.000000000  0.000000000
     0.000000000 -1.732519801-10.707215182     0.000000000 -0.003358783 -0.092851486

  length of vectors
    10.314108670 16.788494411 10.846477853     0.097707938  0.059564603  0.092912216



 k-points in units of 2pi/SCALE and weight: pymatgen with grid density = 595 / numbe
   0.00000000  0.00000000 -0.00000000       0.125
   0.00000000  0.04822671 -0.00780350       0.125
   0.02978230  0.00000000 -0.00000000       0.125
   0.02978230  0.04822671 -0.00780350       0.125
   0.00000000 -0.00167939 -0.04642574       0.125
   0.00000000  0.04654732 -0.05422924       0.125
   0.02978230 -0.00167939 -0.04642574       0.125
   0.02978230  0.04654732 -0.05422924       0.125

 k-points in reciprocal lattice and weights: pymatgen with grid density = 595 / numbe
   0.00000000  0.00000000  0.00000000       0.125
   0.50000000  0.00000000  0.00000000       0.125
   0.00000000  0.50000000  0.00000000       0.125
   0.50000000  0.50000000  0.00000000       0.125
   0.00000000  0.00000000  0.50000000       0.125
   0.50000000  0.00000000  0.50000000       0.125
   0.00000000  0.50000000  0.50000000       0.125
   0.50000000  0.50000000  0.50000000       0.125

 position of ions in fractional coordinates (direct lattice) 
   0.88642314  0.46760040  0.67812639
   0.88642314  0.96700475  0.67812639
   0.32956326  0.18874382  0.55070772
   0.32956326  0.68874382  0.55070772
   0.91267129  0.10524188  0.91196047
   0.91267129  0.60524188  0.91196047
   0.23973640  0.30083105  0.77657419
   0.23973640  0.80083105  0.77657419
   0.14441752  0.30568876  0.22439668
   0.14441752  0.80568876  0.22439668
   0.85558248  0.19431124  0.77560332
   0.85558248  0.69431124  0.77560332
   0.76026360  0.19916895  0.22342581
   0.76026360  0.69916895  0.22342581
   0.17043674  0.43874382  0.44929228
   0.17043674  0.93874382  0.44929228
   0.41267129  0.14475812  0.91196047
   0.41267129  0.64475812  0.91196047
   0.38642314  0.28299525  0.67812639
   0.38642314  0.78299525  0.67812639
   0.64441752  0.44431124  0.22439668
   0.64441752  0.94431124  0.22439668
   0.82956326  0.06125618  0.55070772
   0.82956326  0.56125618  0.55070772
   0.26026360  0.05083105  0.22342581
   0.26026360  0.55083105  0.22342581
   0.61357686  0.21700475  0.32187361
   0.61357686  0.71700475  0.32187361
   0.11357686  0.03299525  0.32187361
   0.11357686  0.53299525  0.32187361
   0.05989570  0.34508773  0.37448437
   0.05989570  0.84508773  0.37448437
   0.74342521  0.28934434  0.07116523
   0.74342521  0.78934434  0.07116523
   0.58732871  0.35524188  0.08803953
   0.58732871  0.85524188  0.08803953
   0.25657479  0.21065566  0.92883477
   0.25657479  0.71065566  0.92883477
   0.08732871  0.39475812  0.08803953
   0.08732871  0.89475812  0.08803953
   0.44010430  0.09508773  0.62551563
   0.44010430  0.59508773  0.62551563
   0.35558248  0.05568876  0.77560332
   0.35558248  0.55568876  0.77560332
   0.73973640  0.44916895  0.77657419
   0.73973640  0.94916895  0.77657419
   0.94010430  0.15491227  0.62551563
   0.94010430  0.65491227  0.62551563
   0.24342521  0.46065566  0.07116523
   0.24342521  0.96065566  0.07116523
   0.75657479  0.03934434  0.92883477
   0.75657479  0.53934434  0.92883477
   0.55989570  0.40491227  0.37448437
   0.55989570  0.90491227  0.37448437
   0.67043674  0.31125618  0.44929228
   0.67043674  0.81125618  0.44929228

 position of ions in cartesian coordinates  (Angst):
   7.85030666  7.96182132 -7.59135308
  16.23455387  7.96182132 -7.59135308
   3.16872461  2.44281751 -6.01942562
  11.56297182  2.44281751 -6.01942562
   1.76685280  7.82724839-10.10485172
  10.16110000  7.82724839-10.10485172
   5.05050035  1.12562097 -8.40433404
  13.44474755  1.12562097 -8.40433404
   5.13205407  1.09979266 -2.45651044
  13.52630128  1.09979266 -2.45651044
   3.26219313  7.47505463 -8.62356047
  11.65644034  7.47505463 -8.62356047
   3.34374686  7.44922632 -2.67573688
  11.73799406  7.44922632 -2.67573688
   7.36584822  0.97834624 -4.87421742
  15.76009542  0.97834624 -4.87421742
   2.43027081  2.67356485 -9.91842386
  10.82451801  2.67356485 -9.91842386
   4.75106415  2.80813777 -7.40492521
  13.14531135  2.80813777 -7.40492521
   7.45931673  6.25347620 -2.64293831
  15.85356394  6.25347620 -2.64293831
   1.02839899  7.59650105 -6.20585349
   9.42264619  7.59650105 -6.20585349
   0.85337674  2.29554277 -2.48930901
   9.24762395  2.29554277 -2.48930901
   3.64318306  5.76670951 -3.67514570
  12.03743026  5.76670951 -3.67514570
   0.55394055  0.61302597 -3.48871783
   8.94818775  0.61302597 -3.48871783
   5.79350349 -0.03143461 -4.03201715
  14.18775070 -0.03143461 -4.03201715
   4.85765589  7.53946136 -1.03917182
  13.25190310  7.53946136 -1.03917182
   5.96397640  5.90128244 -1.16164705
  14.35822361  5.90128244 -1.16164705
   3.53659131  1.03538593-10.04089909
  11.93083852  1.03538593-10.04089909
   6.62739441  0.74759889 -0.97521919
  15.02164161  0.74759889 -0.97521919
   1.59637989  3.45259836 -6.86162589
   9.99062710  3.45259836 -6.86162589
   0.93493047  2.32137108 -8.43713261
   9.32917768  2.32137108 -8.43713261
   7.54087046  6.27930451 -8.59076190
  15.93511767  6.27930451 -8.59076190
   2.60074371  8.60628190 -7.04805376
  10.99499092  8.60628190 -7.04805376
   7.73371492  2.38577782 -0.85274396
  16.12796212  2.38577782 -0.85274396
   0.66053229  6.18906947-10.22732695
   9.05477950  6.18906947-10.22732695
   6.79786731  5.12224893 -4.21844502
  15.19211452  5.12224893 -4.21844502
   5.22552259  6.13202978 -5.06064529
  13.61976980  6.13202978 -5.06064529



--------------------------------------------------------------------------------------------------------


 k-point   1 :   0.0000 0.0000 0.0000  plane waves:   50179
 k-point   2 :   0.5000 0.0000 0.0000  plane waves:   50160
 k-point   3 :   0.0000 0.5000 0.0000  plane waves:   50162
 k-point   4 :   0.5000 0.5000 0.0000  plane waves:   50192
 k-point   5 :   0.0000 0.0000 0.5000  plane waves:   50190
 k-point   6 :   0.5000 0.0000 0.5000  plane waves:   50190
 k-point   7 :   0.0000 0.5000 0.5000  plane waves:   50172
 k-point   8 :   0.5000 0.5000 0.5000  plane waves:   50200

 maximum and minimum number of plane-waves per node :     50200    50160

 maximum number of plane-waves:     50200
 maximum index in each direction: 
   IXMAX=   19   IYMAX=   31   IZMAX=   20
   IXMIN=  -19   IYMIN=  -31   IZMIN=  -20


 serial   3D FFT for wavefunctions
 parallel 3D FFT for charge:
    minimum data exchange during FFTs selected (reduces bandwidth)


 total amount of memory used by VASP MPI-rank0   322725. kBytes
=======================================================================

   base      :      30000. kBytes
   nonl-proj :      70692. kBytes
   fftplans  :      34504. kBytes
   grid      :      83442. kBytes
   one-center:        344. kBytes
   wavefun   :     103743. kBytes

     INWAV:  cpu time      0.0000: real time      0.0002
 Broyden mixing: mesh for mixing (old mesh)
   NGX = 39   NGY = 63   NGZ = 41
  (NGX  =160   NGY  =252   NGZ  =168)
  gives a total of 100737 points

 initial charge density was supplied:
 charge density of overlapping atoms calculated
 number of electron     336.0000000 magnetization      56.0000000
 keeping initial charge density in first step


--------------------------------------------------------------------------------------------------------


 Maximum index for augmentation-charges         3947 (set IRDMAX)


--------------------------------------------------------------------------------------------------------


 First call to EWALD:  gamma=   0.144
 Maximum number of real-space cells 3x 2x 3
 Maximum number of reciprocal cells 2x 4x 2

    FEWALD:  cpu time      0.0022: real time      0.0022


--------------------------------------- Iteration      1(   1)  ---------------------------------------


    POTLOK:  cpu time      0.4963: real time      0.5057
    SETDIJ:  cpu time     21.5600: real time     21.5624
     EDDAV:  cpu time     50.8978: real time     50.9082
 BZINTS: Fermi energy:   10.166269;  336.000000 electrons
         Band energy: 0.225118E+03;  BLOECHL correction:   -0.009007
       DOS:  cpu time      0.0499: real time      0.0500
    --------------------------------------------
      LOOP:  cpu time     73.0041: real time     73.0264

 eigenvalue-minimisations  :  8192
 total energy-change (2. order) : 0.2106261E+04  (-0.1333798E+05)
 number of electron     336.0000000 magnetization      56.0000000
 augmentation part      336.0000000 magnetization      56.0000000

 Free energy of the ion-electron system (eV)
  ---------------------------------------------------
  alpha Z        PSCENC =       253.99581917
  Ewald energy   TEWEN  =     -9969.89693429
  -Hartree energ DENC   =     -4766.72677564
  -exchange      EXHF   =         0.00000000
  -V(xc)+E(xc)   XCENC  =       682.52405960
  PAW double counting   =     12174.71095765   -11995.46358648
  entropy T*S    EENTRO =         0.00000000
  eigenvalues    EBANDS =       225.11779190
  atomic energy  EATOM  =     15501.99929693
  Solvation  Ediel_sol  =         0.00000000
  ---------------------------------------------------
  free energy    TOTEN  =      2106.26062885 eV

  energy without entropy =     2106.26062885  energy(sigma->0) =     2106.26062885


--------------------------------------------------------------------------------------------------------




--------------------------------------- Iteration      1(   2)  ---------------------------------------


     EDDAV:  cpu time     60.6958: real time     60.7085
 BZINTS: Fermi energy:    1.452379;  336.000000 electrons
         Band energy:-0.187486E+04;  BLOECHL correction:    0.000000
       DOS:  cpu time      0.0273: real time      0.0274
    --------------------------------------------
      LOOP:  cpu time     60.7231: real time     60.7359

 eigenvalue-minimisations  : 10272
 total energy-change (2. order) :-0.2099981E+04  (-0.2021783E+04)
 number of electron     336.0000000 magnetization      56.0000000
 augmentation part      336.0000000 magnetization      56.0000000

 Free energy of the ion-electron system (eV)
  ---------------------------------------------------
  alpha Z        PSCENC =       253.99581917
  Ewald energy   TEWEN  =     -9969.89693429
  -Hartree energ DENC   =     -4766.72677564
  -exchange      EXHF   =         0.00000000
  -V(xc)+E(xc)   XCENC  =       682.52405960
  PAW double counting   =     12174.71095765   -11995.46358648
  entropy T*S    EENTRO =         0.00000000
  eigenvalues    EBANDS =     -1874.86331371
  atomic energy  EATOM  =     15501.99929693
  Solvation  Ediel_sol  =         0.00000000
  ---------------------------------------------------
  free energy    TOTEN  =         6.27952324 eV

  energy without entropy =        6.27952324  energy(sigma->0) =        6.27952324


--------------------------------------------------------------------------------------------------------




--------------------------------------- Iteration      1(   3)  ---------------------------------------


     EDDAV:  cpu time     72.6861: real time     72.6995
 BZINTS: Fermi energy:    0.220301;  336.000000 electrons
         Band energy:-0.209472E+04;  BLOECHL correction:    0.000000
       DOS:  cpu time      0.0275: real time      0.0275
    --------------------------------------------
      LOOP:  cpu time     72.7136: real time     72.7270

 eigenvalue-minimisations  : 10240
 total energy-change (2. order) :-0.2198580E+03  (-0.2171718E+03)
 number of electron     336.0000000 magnetization      56.0000000
 augmentation part      336.0000000 magnetization      56.0000000

 Free energy of the ion-electron system (eV)
  ---------------------------------------------------
  alpha Z        PSCENC =       253.99581917
  Ewald energy   TEWEN  =     -9969.89693429
  -Hartree energ DENC   =     -4766.72677564
  -exchange      EXHF   =         0.00000000
  -V(xc)+E(xc)   XCENC  =       682.52405960
  PAW double counting   =     12174.71095765   -11995.46358648
  entropy T*S    EENTRO =         0.00000000
  eigenvalues    EBANDS =     -2094.72130371
  atomic energy  EATOM  =     15501.99929693
  Solvation  Ediel_sol  =         0.00000000
  ---------------------------------------------------
  free energy    TOTEN  =      -213.57846675 eV

  energy without entropy =     -213.57846675  energy(sigma->0) =     -213.57846675


--------------------------------------------------------------------------------------------------------




--------------------------------------- Iteration      1(   4)  ---------------------------------------


     EDDAV:  cpu time     62.8427: real time     62.8569
 BZINTS: Fermi energy:    0.192247;  336.000000 electrons
         Band energy:-0.209962E+04;  BLOECHL correction:    0.000000
       DOS:  cpu time      0.0266: real time      0.0267
    --------------------------------------------
      LOOP:  cpu time     62.8694: real time     62.8836

 eigenvalue-minimisations  : 10336
 total energy-change (2. order) :-0.4898630E+01  (-0.4880289E+01)
 number of electron     336.0000000 magnetization      56.0000000
 augmentation part      336.0000000 magnetization      56.0000000

 Free energy of the ion-electron system (eV)
  ---------------------------------------------------
  alpha Z        PSCENC =       253.99581917
  Ewald energy   TEWEN  =     -9969.89693429
  -Hartree energ DENC   =     -4766.72677564
  -exchange      EXHF   =         0.00000000
  -V(xc)+E(xc)   XCENC  =       682.52405960
  PAW double counting   =     12174.71095765   -11995.46358648
  entropy T*S    EENTRO =         0.00000000
  eigenvalues    EBANDS =     -2099.61993415
  atomic energy  EATOM  =     15501.99929693
  Solvation  Ediel_sol  =         0.00000000
  ---------------------------------------------------
  free energy    TOTEN  =      -218.47709720 eV

  energy without entropy =     -218.47709720  energy(sigma->0) =     -218.47709720


--------------------------------------------------------------------------------------------------------




--------------------------------------- Iteration      1(   5)  ---------------------------------------


     EDDAV:  cpu time     62.5350: real time     62.5479
 BZINTS: Fermi energy:    0.192032;  336.000000 electrons
         Band energy:-0.209976E+04;  BLOECHL correction:    0.000000
       DOS:  cpu time      0.0271: real time      0.0272
    CHARGE:  cpu time     21.6785: real time     21.6823
    MIXING:  cpu time      0.0142: real time      0.0142
    --------------------------------------------
      LOOP:  cpu time     84.2548: real time     84.2716

 eigenvalue-minimisations  : 10080
 total energy-change (2. order) :-0.1351110E+00  (-0.1350448E+00)
 number of electron     335.9999997 magnetization      44.9918631
 augmentation part      -47.3225579 magnetization      44.8832644

 Broyden mixing:
  rms(total) = 0.82901E+01    rms(broyden)= 0.82901E+01
  rms(prec ) = 0.83100E+01
  weight for this iteration     100.00

 Free energy of the ion-electron system (eV)
  ---------------------------------------------------
  alpha Z        PSCENC =       253.99581917
  Ewald energy   TEWEN  =     -9969.89693429
  -Hartree energ DENC   =     -4766.72677564
  -exchange      EXHF   =         0.00000000
  -V(xc)+E(xc)   XCENC  =       682.52405960
  PAW double counting   =     12174.71095765   -11995.46358648
  entropy T*S    EENTRO =         0.00000000
  eigenvalues    EBANDS =     -2099.75504519
  atomic energy  EATOM  =     15501.99929693
  Solvation  Ediel_sol  =         0.00000000
  ---------------------------------------------------
  free energy    TOTEN  =      -218.61220824 eV

  energy without entropy =     -218.61220824  energy(sigma->0) =     -218.61220824


--------------------------------------------------------------------------------------------------------




--------------------------------------- Iteration      1(   6)  ---------------------------------------


    POTLOK:  cpu time      0.4436: real time      0.4492
    SETDIJ:  cpu time     23.8032: real time     23.8060
     EDDAV:  cpu time     62.8564: real time     62.8687
 BZINTS: Fermi energy:    0.409736;  336.000000 electrons
         Band energy:-0.201425E+04;  BLOECHL correction:    0.000000
       DOS:  cpu time      0.0266: real time      0.0266
    CHARGE:  cpu time     19.9446: real time     19.9466
    MIXING:  cpu time      0.0196: real time      0.0196
    --------------------------------------------
      LOOP:  cpu time    107.0940: real time    107.1167

 eigenvalue-minimisations  :  9632
 total energy-change (2. order) : 0.1022861E+03  (-0.2667718E+02)
 number of electron     335.9999997 magnetization      26.4798304
 augmentation part      -47.6486938 magnetization      27.5380123

 Broyden mixing:
  rms(total) = 0.49376E+01    rms(broyden)= 0.49376E+01
  rms(prec ) = 0.49599E+01
  weight for this iteration     100.00

 eigenvalues of (default mixing * dielectric matrix)
  average eigenvalue GAMMA=   1.6678
  1.6678

 Free energy of the ion-electron system (eV)
  ---------------------------------------------------
  alpha Z        PSCENC =       253.99581917
  Ewald energy   TEWEN  =     -9969.89693429
  -Hartree energ DENC   =     -4811.06277745
  -exchange      EXHF   =         0.00000000
  -V(xc)+E(xc)   XCENC  =       746.11422394
  PAW double counting   =     20732.84649988   -20556.06860018
  entropy T*S    EENTRO =         0.00000000
  eigenvalues    EBANDS =     -2014.25360943
  atomic energy  EATOM  =     15501.99929693
  Solvation  Ediel_sol  =         0.00000000
  ---------------------------------------------------
  free energy    TOTEN  =      -116.32608143 eV

  energy without entropy =     -116.32608143  energy(sigma->0) =     -116.32608143


--------------------------------------------------------------------------------------------------------




--------------------------------------- Iteration      1(   7)  ---------------------------------------


    POTLOK:  cpu time      0.4637: real time      0.4670
    SETDIJ:  cpu time     18.0233: real time     18.0262
     EDDAV:  cpu time     61.2331: real time     61.2447
 BZINTS: Fermi energy:    0.738663;  336.000000 electrons
         Band energy:-0.186776E+04;  BLOECHL correction:    0.000000
       DOS:  cpu time      0.0267: real time      0.0268
    CHARGE:  cpu time     26.6173: real time     26.6195
    MIXING:  cpu time      0.0203: real time      0.0203
    --------------------------------------------
      LOOP:  cpu time    106.3845: real time    106.4043

 eigenvalue-minimisations  : 10144
 total energy-change (2. order) :-0.1114908E+02  (-0.2697746E+01)
 number of electron     335.9999997 magnetization      19.7290625
 augmentation part      -47.3160053 magnetization      20.9345010

 Broyden mixing:
  rms(total) = 0.14020E+01    rms(broyden)= 0.14020E+01
  rms(prec ) = 0.14057E+01
  weight for this iteration     100.00

 eigenvalues of (default mixing * dielectric matrix)
  average eigenvalue GAMMA=   1.4836
  0.7881  2.1791

 Free energy of the ion-electron system (eV)
  ---------------------------------------------------
  alpha Z        PSCENC =       253.99581917
  Ewald energy   TEWEN  =     -9969.89693429
  -Hartree energ DENC   =     -4970.63165308
  -exchange      EXHF   =         0.00000000
  -V(xc)+E(xc)   XCENC  =       751.45582469
  PAW double counting   =     37053.00708442   -36879.64368894
  entropy T*S    EENTRO =         0.00000000
  eigenvalues    EBANDS =     -1867.76090602
  atomic energy  EATOM  =     15501.99929693
  Solvation  Ediel_sol  =         0.00000000
  ---------------------------------------------------
  free energy    TOTEN  =      -127.47515712 eV

  energy without entropy =     -127.47515712  energy(sigma->0) =     -127.47515712


--------------------------------------------------------------------------------------------------------




--------------------------------------- Iteration      1(   8)  ---------------------------------------


    POTLOK:  cpu time      0.4567: real time      0.4574
    SETDIJ:  cpu time     27.5979: real time     27.6105
     EDDAV:  cpu time     61.5950: real time     61.6067
 BZINTS: Fermi energy:    0.706763;  336.000000 electrons
         Band energy:-0.185533E+04;  BLOECHL correction:    0.000000
       DOS:  cpu time      0.0257: real time      0.0257
    CHARGE:  cpu time     18.9920: real time     18.9940
    MIXING:  cpu time      0.0176: real time      0.0176
    --------------------------------------------
      LOOP:  cpu time    108.6849: real time    108.7120

 eigenvalue-minimisations  :  9312
 total energy-change (2. order) :-0.4266892E+02  (-0.1971059E+01)
 number of electron     335.9999997 magnetization      16.0571236
 augmentation part      -47.0121816 magnetization      17.1017465

 Broyden mixing:
  rms(total) = 0.78378E+00    rms(broyden)= 0.78378E+00
  rms(prec ) = 0.78890E+00
  weight for this iteration     100.00

 eigenvalues of (default mixing * dielectric matrix)
  average eigenvalue GAMMA=   1.3390
  2.4912  0.9433  0.5825

 Free energy of the ion-electron system (eV)
  ---------------------------------------------------
  alpha Z        PSCENC =       253.99581917
  Ewald energy   TEWEN  =     -9969.89693429
  -Hartree energ DENC   =     -5000.10352955
  -exchange      EXHF   =         0.00000000
  -V(xc)+E(xc)   XCENC  =       726.59851543
  PAW double counting   =     40186.28141859   -40013.68483889
  entropy T*S    EENTRO =         0.00000000
  eigenvalues    EBANDS =     -1855.33382145
  atomic energy  EATOM  =     15501.99929693
  Solvation  Ediel_sol  =         0.00000000
  ---------------------------------------------------
  free energy    TOTEN  =      -170.14407406 eV

  energy without entropy =     -170.14407406  energy(sigma->0) =     -170.14407406


--------------------------------------------------------------------------------------------------------




--------------------------------------- Iteration      1(   9)  ---------------------------------------


    POTLOK:  cpu time      0.4262: real time      0.4271
    SETDIJ:  cpu time     18.0746: real time     18.0767
     EDDAV:  cpu time     65.9094: real time     65.9228
 BZINTS: Fermi energy:    0.628840;  336.000000 electrons
         Band energy:-0.186657E+04;  BLOECHL correction:    0.000000
       DOS:  cpu time      0.0258: real time      0.0258
    CHARGE:  cpu time     23.5296: real time     23.5343
    MIXING:  cpu time      0.0159: real time      0.0159
    --------------------------------------------
      LOOP:  cpu time    107.9814: real time    108.0027

 eigenvalue-minimisations  : 10240
 total energy-change (2. order) :-0.1683065E+02  (-0.6459228E+00)
 number of electron     335.9999997 magnetization      11.5296051
 augmentation part      -46.9151809 magnetization      12.3672597

 Broyden mixing:
  rms(total) = 0.43645E+00    rms(broyden)= 0.43645E+00
  rms(prec ) = 0.44852E+00
  weight for this iteration     100.00

 eigenvalues of (default mixing * dielectric matrix)
  average eigenvalue GAMMA=   1.3243
  2.5747  1.3004  0.7110  0.7110

 Free energy of the ion-electron system (eV)
  ---------------------------------------------------
  alpha Z        PSCENC =       253.99581917
  Ewald energy   TEWEN  =     -9969.89693429
  -Hartree energ DENC   =     -4996.35003665
  -exchange      EXHF   =         0.00000000
  -V(xc)+E(xc)   XCENC  =       717.23098086
  PAW double counting   =     40971.21078734   -40798.59441312
  entropy T*S    EENTRO =         0.00000000
  eigenvalues    EBANDS =     -1866.57022867
  atomic energy  EATOM  =     15501.99929693
  Solvation  Ediel_sol  =         0.00000000
  ---------------------------------------------------
  free energy    TOTEN  =      -186.97472843 eV

  energy without entropy =     -186.97472843  energy(sigma->0) =     -186.97472843


--------------------------------------------------------------------------------------------------------




--------------------------------------- Iteration      1(  10)  ---------------------------------------


    POTLOK:  cpu time      0.4498: real time      0.4509
    SETDIJ:  cpu time     17.8522: real time     17.8544
     EDDAV:  cpu time     59.5200: real time     59.5367
 BZINTS: Fermi energy:    0.475461;  336.000000 electrons
         Band energy:-0.190111E+04;  BLOECHL correction:    0.000000
       DOS:  cpu time      0.0259: real time      0.0259
    CHARGE:  cpu time     22.6537: real time     22.6565
    MIXING:  cpu time      0.0181: real time      0.0181
    --------------------------------------------
      LOOP:  cpu time    100.5196: real time    100.5425

 eigenvalue-minimisations  :  9984
 total energy-change (2. order) :-0.2005780E+02  (-0.1302429E+01)
 number of electron     335.9999997 magnetization       5.3083391
 augmentation part      -46.8734767 magnetization       5.8427788

 Broyden mixing:
  rms(total) = 0.32402E+00    rms(broyden)= 0.32402E+00
  rms(prec ) = 0.33699E+00
  weight for this iteration     100.00

 eigenvalues of (default mixing * dielectric matrix)
  average eigenvalue GAMMA=   1.4491
  2.4865  2.4865  0.9412  0.7292  0.6020

 Free energy of the ion-electron system (eV)
  ---------------------------------------------------
  alpha Z        PSCENC =       253.99581917
  Ewald energy   TEWEN  =     -9969.89693429
  -Hartree energ DENC   =     -4970.94639969
  -exchange      EXHF   =         0.00000000
  -V(xc)+E(xc)   XCENC  =       705.65505906
  PAW double counting   =     40978.63377786   -40805.36256569
  entropy T*S    EENTRO =         0.00000000
  eigenvalues    EBANDS =     -1901.11058567
  atomic energy  EATOM  =     15501.99929693
  Solvation  Ediel_sol  =         0.00000000
  ---------------------------------------------------
  free energy    TOTEN  =      -207.03253231 eV

  energy without entropy =     -207.03253231  energy(sigma->0) =     -207.03253231


--------------------------------------------------------------------------------------------------------




--------------------------------------- Iteration      1(  11)  ---------------------------------------


    POTLOK:  cpu time      0.4338: real time      0.4347
    SETDIJ:  cpu time     20.6447: real time     20.6466
     EDDAV:  cpu time     58.7142: real time     58.7259
 BZINTS: Fermi energy:    0.257762;  336.000000 electrons
         Band energy:-0.195847E+04;  BLOECHL correction:    0.000000
       DOS:  cpu time      0.0281: real time      0.0281
    CHARGE:  cpu time     22.2947: real time     22.2972
    MIXING:  cpu time      0.0150: real time      0.0150
    --------------------------------------------
      LOOP:  cpu time    102.1304: real time    102.1475

 eigenvalue-minimisations  :  9952
 total energy-change (2. order) :-0.1784090E+02  (-0.2163417E+01)
 number of electron     335.9999997 magnetization       3.5722308
 augmentation part      -46.9051271 magnetization       3.7555834

 Broyden mixing:
  rms(total) = 0.18649E+00    rms(broyden)= 0.18649E+00
  rms(prec ) = 0.20019E+00
  weight for this iteration     100.00

 eigenvalues of (default mixing * dielectric matrix)
  average eigenvalue GAMMA=   1.4667
  2.7972  2.7972  1.0274  0.8889  0.6995  0.5902

 Free energy of the ion-electron system (eV)
  ---------------------------------------------------
  alpha Z        PSCENC =       253.99581917
  Ewald energy   TEWEN  =     -9969.89693429
  -Hartree energ DENC   =     -4921.38395669
  -exchange      EXHF   =         0.00000000
  -V(xc)+E(xc)   XCENC  =       694.54875374
  PAW double counting   =     40406.13366328   -40231.80347965
  entropy T*S    EENTRO =         0.00000000
  eigenvalues    EBANDS =     -1958.46659631
  atomic energy  EATOM  =     15501.99929693
  Solvation  Ediel_sol  =         0.00000000
  ---------------------------------------------------
  free energy    TOTEN  =      -224.87343380 eV

  energy without entropy =     -224.87343380  energy(sigma->0) =     -224.87343380


--------------------------------------------------------------------------------------------------------




--------------------------------------- Iteration      1(  12)  ---------------------------------------


    POTLOK:  cpu time      0.4517: real time      0.4528
    SETDIJ:  cpu time     17.6620: real time     17.6643
     EDDAV:  cpu time     58.0746: real time     58.0899
 BZINTS: Fermi energy:    0.184446;  336.000000 electrons
         Band energy:-0.197914E+04;  BLOECHL correction:    0.000000
       DOS:  cpu time      0.0256: real time      0.0257
    CHARGE:  cpu time     28.5972: real time     28.6000
    MIXING:  cpu time      0.0171: real time      0.0171
    --------------------------------------------
      LOOP:  cpu time    104.8283: real time    104.8498

 eigenvalue-minimisations  : 10048
 total energy-change (2. order) :-0.3389266E+01  (-0.3881858E+00)
 number of electron     335.9999997 magnetization       2.3908092
 augmentation part      -46.9152792 magnetization       2.4739223

 Broyden mixing:
  rms(total) = 0.15961E+00    rms(broyden)= 0.15961E+00
  rms(prec ) = 0.17215E+00
  weight for this iteration     100.00

 eigenvalues of (default mixing * dielectric matrix)
  average eigenvalue GAMMA=   1.4919
  3.1009  3.1009  1.0557  1.0557  0.7810  0.7810  0.5684

 Free energy of the ion-electron system (eV)
  ---------------------------------------------------
  alpha Z        PSCENC =       253.99581917
  Ewald energy   TEWEN  =     -9969.89693429
  -Hartree energ DENC   =     -4901.88582825
  -exchange      EXHF   =         0.00000000
  -V(xc)+E(xc)   XCENC  =       692.09378696
  PAW double counting   =     39973.69274495   -39799.12560095
  entropy T*S    EENTRO =         0.00000000
  eigenvalues    EBANDS =     -1979.13598437
  atomic energy  EATOM  =     15501.99929693
  Solvation  Ediel_sol  =         0.00000000
  ---------------------------------------------------
  free energy    TOTEN  =      -228.26269984 eV

  energy without entropy =     -228.26269984  energy(sigma->0) =     -228.26269984


--------------------------------------------------------------------------------------------------------




--------------------------------------- Iteration      1(  13)  ---------------------------------------


    POTLOK:  cpu time      0.4465: real time      0.4479
    SETDIJ:  cpu time     18.9424: real time     18.9448
     EDDAV:  cpu time     57.2778: real time     57.2884
 BZINTS: Fermi energy:    0.116455;  336.000000 electrons
         Band energy:-0.200158E+04;  BLOECHL correction:    0.000000
       DOS:  cpu time      0.0272: real time      0.0272
    CHARGE:  cpu time     24.3157: real time     24.3191
    MIXING:  cpu time      0.0160: real time      0.0160
    --------------------------------------------
      LOOP:  cpu time    101.0256: real time    101.0433

 eigenvalue-minimisations  :  9472
 total energy-change (2. order) :-0.1052933E+01  (-0.1336125E+00)
 number of electron     335.9999997 magnetization       0.8884852
 augmentation part      -46.9735856 magnetization       0.9145798

 Broyden mixing:
  rms(total) = 0.93027E-01    rms(broyden)= 0.93027E-01
  rms(prec ) = 0.99831E-01
  weight for this iteration     100.00

 eigenvalues of (default mixing * dielectric matrix)
  average eigenvalue GAMMA=   1.5516
  3.3222  3.3222  1.5851  1.2832  0.9279  0.6997  0.6997  0.5727

 Free energy of the ion-electron system (eV)
  ---------------------------------------------------
  alpha Z        PSCENC =       253.99581917
  Ewald energy   TEWEN  =     -9969.89693429
  -Hartree energ DENC   =     -4878.75064988
  -exchange      EXHF   =         0.00000000
  -V(xc)+E(xc)   XCENC  =       690.11104843
  PAW double counting   =     39153.20051226   -38978.39398647
  entropy T*S    EENTRO =         0.00000000
  eigenvalues    EBANDS =     -2001.58073850
  atomic energy  EATOM  =     15501.99929693
  Solvation  Ediel_sol  =         0.00000000
  ---------------------------------------------------
  free energy    TOTEN  =      -229.31563234 eV

  energy without entropy =     -229.31563234  energy(sigma->0) =     -229.31563234


--------------------------------------------------------------------------------------------------------




--------------------------------------- Iteration      1(  14)  ---------------------------------------


    POTLOK:  cpu time      0.4261: real time      0.4272
    SETDIJ:  cpu time     17.4976: real time     17.4995
     EDDAV:  cpu time     52.1208: real time     52.1357
 BZINTS: Fermi energy:    0.080964;  336.000000 electrons
         Band energy:-0.201202E+04;  BLOECHL correction:    0.000000
       DOS:  cpu time      0.0264: real time      0.0265
    CHARGE:  cpu time     26.0505: real time     26.0539
    MIXING:  cpu time      0.0209: real time      0.0209
    --------------------------------------------
      LOOP:  cpu time     96.1423: real time     96.1636

 eigenvalue-minimisations  :  9024
 total energy-change (2. order) :-0.6441119E-01  (-0.1620282E-01)
 number of electron     335.9999997 magnetization       0.4167760
 augmentation part      -47.0004809 magnetization       0.4238229

 Broyden mixing:
  rms(total) = 0.43616E-01    rms(broyden)= 0.43616E-01
  rms(prec ) = 0.46319E-01
  weight for this iteration     100.00

 eigenvalues of (default mixing * dielectric matrix)
  average eigenvalue GAMMA=   1.5786
  4.1312  2.5564  2.5564  1.0966  1.0966  0.7711  0.7711  0.5753  0.6523

 Free energy of the ion-electron system (eV)
  ---------------------------------------------------
  alpha Z        PSCENC =       253.99581917
  Ewald energy   TEWEN  =     -9969.89693429
  -Hartree energ DENC   =     -4867.41625338
  -exchange      EXHF   =         0.00000000
  -V(xc)+E(xc)   XCENC  =       689.20042665
  PAW double counting   =     39092.65915855   -38917.89830039
  entropy T*S    EENTRO =         0.00000000
  eigenvalues    EBANDS =     -2012.02325677
  atomic energy  EATOM  =     15501.99929693
  Solvation  Ediel_sol  =         0.00000000
  ---------------------------------------------------
  free energy    TOTEN  =      -229.38004353 eV

  energy without entropy =     -229.38004353  energy(sigma->0) =     -229.38004353


--------------------------------------------------------------------------------------------------------




--------------------------------------- Iteration      1(  15)  ---------------------------------------


    POTLOK:  cpu time      0.4444: real time      0.4453
    SETDIJ:  cpu time     23.6023: real time     23.6050
     EDDAV:  cpu time     55.2095: real time     55.2355
 BZINTS: Fermi energy:    0.079085;  336.000000 electrons
         Band energy:-0.201174E+04;  BLOECHL correction:    0.000000
       DOS:  cpu time      0.0281: real time      0.0282
    CHARGE:  cpu time     26.2558: real time     26.2592
    MIXING:  cpu time      0.0135: real time      0.0135
    --------------------------------------------
      LOOP:  cpu time    105.5536: real time    105.5866

 eigenvalue-minimisations  :  9664
 total energy-change (2. order) : 0.1265015E-02  (-0.2079346E-02)
 number of electron     335.9999997 magnetization       0.1720927
 augmentation part      -46.9944189 magnetization       0.1763882

 Broyden mixing:
  rms(total) = 0.20184E-01    rms(broyden)= 0.20183E-01
  rms(prec ) = 0.21760E-01
  weight for this iteration     100.00

 eigenvalues of (default mixing * dielectric matrix)
  average eigenvalue GAMMA=   1.5648
  4.5540  2.5275  2.5275  1.3344  0.9972  0.9972  0.7583  0.7583  0.6239  0.5697

 Free energy of the ion-electron system (eV)
  ---------------------------------------------------
  alpha Z        PSCENC =       253.99581917
  Ewald energy   TEWEN  =     -9969.89693429
  -Hartree energ DENC   =     -4867.57054927
  -exchange      EXHF   =         0.00000000
  -V(xc)+E(xc)   XCENC  =       689.16110577
  PAW double counting   =     39177.83775521   -39003.16370207
  entropy T*S    EENTRO =         0.00000000
  eigenvalues    EBANDS =     -2011.74156997
  atomic energy  EATOM  =     15501.99929693
  Solvation  Ediel_sol  =         0.00000000
  ---------------------------------------------------
  free energy    TOTEN  =      -229.37877852 eV

  energy without entropy =     -229.37877852  energy(sigma->0) =     -229.37877852


--------------------------------------------------------------------------------------------------------




--------------------------------------- Iteration      1(  16)  ---------------------------------------


    POTLOK:  cpu time      0.4459: real time      0.4468
    SETDIJ:  cpu time     22.9646: real time     22.9710
     EDDAV:  cpu time     54.9282: real time     54.9391
 BZINTS: Fermi energy:    0.077389;  336.000000 electrons
         Band energy:-0.201220E+04;  BLOECHL correction:    0.000000
       DOS:  cpu time      0.0258: real time      0.0259
    CHARGE:  cpu time     19.6931: real time     19.6962
    MIXING:  cpu time      0.0181: real time      0.0181
    --------------------------------------------
      LOOP:  cpu time     98.0757: real time     98.0971

 eigenvalue-minimisations  :  9152
 total energy-change (2. order) : 0.3122395E-02  (-0.5497435E-03)
 number of electron     335.9999997 magnetization       0.0694370
 augmentation part      -46.9932567 magnetization       0.0702471

 Broyden mixing:
  rms(total) = 0.12271E-01    rms(broyden)= 0.12271E-01
  rms(prec ) = 0.13284E-01
  weight for this iteration     100.00

 eigenvalues of (default mixing * dielectric matrix)
  average eigenvalue GAMMA=   1.5469
  4.7583  2.4279  2.4279  1.8420  0.9960  0.9960  0.9235  0.7281  0.7281  0.5811
  0.6067

 Free energy of the ion-electron system (eV)
  ---------------------------------------------------
  alpha Z        PSCENC =       253.99581917
  Ewald energy   TEWEN  =     -9969.89693429
  -Hartree energ DENC   =     -4867.01743723
  -exchange      EXHF   =         0.00000000
  -V(xc)+E(xc)   XCENC  =       689.09353629
  PAW double counting   =     39148.41179626   -38973.76160040
  entropy T*S    EENTRO =         0.00000000
  eigenvalues    EBANDS =     -2012.20013286
  atomic energy  EATOM  =     15501.99929693
  Solvation  Ediel_sol  =         0.00000000
  ---------------------------------------------------
  free energy    TOTEN  =      -229.37565612 eV

  energy without entropy =     -229.37565612  energy(sigma->0) =     -229.37565612


--------------------------------------------------------------------------------------------------------




--------------------------------------- Iteration      1(  17)  ---------------------------------------


    POTLOK:  cpu time      0.4249: real time      0.4264
    SETDIJ:  cpu time     25.2176: real time     25.2204
     EDDAV:  cpu time     54.0974: real time     54.1077
 BZINTS: Fermi energy:    0.079063;  336.000000 electrons
         Band energy:-0.201128E+04;  BLOECHL correction:    0.000000
       DOS:  cpu time      0.0266: real time      0.0266
    CHARGE:  cpu time     17.9102: real time     17.9126
    MIXING:  cpu time      0.0212: real time      0.0212
    --------------------------------------------
      LOOP:  cpu time     97.6979: real time     97.7149

 eigenvalue-minimisations  :  9536
 total energy-change (2. order) :-0.5082522E-03  (-0.1192634E-03)
 number of electron     335.9999997 magnetization       0.0177153
 augmentation part      -46.9882076 magnetization       0.0181118

 Broyden mixing:
  rms(total) = 0.49225E-02    rms(broyden)= 0.49225E-02
  rms(prec ) = 0.55220E-02
  weight for this iteration     100.00

 eigenvalues of (default mixing * dielectric matrix)
  average eigenvalue GAMMA=   1.5762
  4.9481  2.6018  2.6018  2.2028  1.1771  0.9965  0.9965  0.7616  0.7616  0.6818
  0.5886  0.5965

 Free energy of the ion-electron system (eV)
  ---------------------------------------------------
  alpha Z        PSCENC =       253.99581917
  Ewald energy   TEWEN  =     -9969.89693429
  -Hartree energ DENC   =     -4867.97340596
  -exchange      EXHF   =         0.00000000
  -V(xc)+E(xc)   XCENC  =       689.15303215
  PAW double counting   =     39189.17215495   -39014.54612237
  entropy T*S    EENTRO =         0.00000000
  eigenvalues    EBANDS =     -2011.28000496
  atomic energy  EATOM  =     15501.99929693
  Solvation  Ediel_sol  =         0.00000000
  ---------------------------------------------------
  free energy    TOTEN  =      -229.37616438 eV

  energy without entropy =     -229.37616438  energy(sigma->0) =     -229.37616438


--------------------------------------------------------------------------------------------------------




--------------------------------------- Iteration      1(  18)  ---------------------------------------


    POTLOK:  cpu time      0.4428: real time      0.4472
    SETDIJ:  cpu time     25.8248: real time     25.8275
     EDDAV:  cpu time     59.3506: real time     59.3621
 BZINTS: Fermi energy:    0.080372;  336.000000 electrons
         Band energy:-0.201076E+04;  BLOECHL correction:    0.000000
       DOS:  cpu time      0.0258: real time      0.0258
    CHARGE:  cpu time     12.7159: real time     12.7172
    MIXING:  cpu time      0.0197: real time      0.0197
    --------------------------------------------
      LOOP:  cpu time     98.3796: real time     98.3996

 eigenvalue-minimisations  :  9472
 total energy-change (2. order) :-0.1152920E-03  (-0.3931007E-04)
 number of electron     335.9999997 magnetization       0.0051007
 augmentation part      -46.9848914 magnetization       0.0056382

 Broyden mixing:
  rms(total) = 0.44458E-02    rms(broyden)= 0.44457E-02
  rms(prec ) = 0.46980E-02
  weight for this iteration     100.00

 eigenvalues of (default mixing * dielectric matrix)
  average eigenvalue GAMMA=   1.5447
  5.0023  2.6458  2.6458  2.2654  1.1304  1.1304  0.9909  0.9909  0.7251  0.7251
  0.5789  0.6449  0.6061

 Free energy of the ion-electron system (eV)
  ---------------------------------------------------
  alpha Z        PSCENC =       253.99581917
  Ewald energy   TEWEN  =     -9969.89693429
  -Hartree energ DENC   =     -4868.51380717
  -exchange      EXHF   =         0.00000000
  -V(xc)+E(xc)   XCENC  =       689.18812913
  PAW double counting   =     39217.85243172   -39043.24113965
  entropy T*S    EENTRO =         0.00000000
  eigenvalues    EBANDS =     -2010.76007551
  atomic energy  EATOM  =     15501.99929693
  Solvation  Ediel_sol  =         0.00000000
  ---------------------------------------------------
  free energy    TOTEN  =      -229.37627967 eV

  energy without entropy =     -229.37627967  energy(sigma->0) =     -229.37627967


--------------------------------------------------------------------------------------------------------




--------------------------------------- Iteration      1(  19)  ---------------------------------------


    POTLOK:  cpu time      0.4677: real time      0.4686
    SETDIJ:  cpu time     24.0387: real time     24.0418
     EDDAV:  cpu time     57.9499: real time     57.9611
 BZINTS: Fermi energy:    0.079466;  336.000000 electrons
         Band energy:-0.201102E+04;  BLOECHL correction:    0.000000
       DOS:  cpu time      0.0281: real time      0.0282
    CHARGE:  cpu time     21.6331: real time     21.6356
    MIXING:  cpu time      1.3247: real time      1.3248
    --------------------------------------------
      LOOP:  cpu time    105.4421: real time    105.4601

 eigenvalue-minimisations  :  9792
 total energy-change (2. order) :-0.6049700E-05  (-0.6176482E-05)
 number of electron     335.9999997 magnetization      -0.0005533
 augmentation part      -46.9857206 magnetization      -0.0003121

 Broyden mixing:
  rms(total) = 0.20182E-02    rms(broyden)= 0.20181E-02
  rms(prec ) = 0.21929E-02
  weight for this iteration     100.00

 eigenvalues of (default mixing * dielectric matrix)
  average eigenvalue GAMMA=   1.5457
  5.0455  2.7072  2.7072  2.1104  1.4088  1.4088  1.0331  1.0331  0.8572  0.7536
  0.7536  0.5804  0.6087  0.6314

 Free energy of the ion-electron system (eV)
  ---------------------------------------------------
  alpha Z        PSCENC =       253.99581917
  Ewald energy   TEWEN  =     -9969.89693429
  -Hartree energ DENC   =     -4868.24065512
  -exchange      EXHF   =         0.00000000
  -V(xc)+E(xc)   XCENC  =       689.17129462
  PAW double counting   =     39216.49287247   -39041.87845623
  entropy T*S    EENTRO =         0.00000000
  eigenvalues    EBANDS =     -2011.01952327
  atomic energy  EATOM  =     15501.99929693
  Solvation  Ediel_sol  =         0.00000000
  ---------------------------------------------------
  free energy    TOTEN  =      -229.37628572 eV

  energy without entropy =     -229.37628572  energy(sigma->0) =     -229.37628572


--------------------------------------------------------------------------------------------------------




--------------------------------------- Iteration      1(  20)  ---------------------------------------


    POTLOK:  cpu time      0.4112: real time      0.4255
    SETDIJ:  cpu time     25.6302: real time     25.6334
     EDDAV:  cpu time     58.2932: real time     58.3044
 BZINTS: Fermi energy:    0.079097;  336.000000 electrons
         Band energy:-0.201116E+04;  BLOECHL correction:    0.000000
       DOS:  cpu time      0.0281: real time      0.0281
    CHARGE:  cpu time     24.8757: real time     24.8783
    MIXING:  cpu time      0.0191: real time      0.0191
    --------------------------------------------
      LOOP:  cpu time    109.2573: real time    109.2887

 eigenvalue-minimisations  :  9184
 total energy-change (2. order) :-0.1036155E-04  (-0.3442572E-05)
 number of electron     335.9999997 magnetization      -0.0016284
 augmentation part      -46.9862502 magnetization      -0.0015503

 Broyden mixing:
  rms(total) = 0.94834E-03    rms(broyden)= 0.94822E-03
  rms(prec ) = 0.10076E-02
  weight for this iteration     100.00

 eigenvalues of (default mixing * dielectric matrix)
  average eigenvalue GAMMA=   1.5472
  5.0951  2.7079  2.7079  2.1003  2.1003  1.2302  1.2302  0.9907  0.9907  0.7798
  0.7328  0.7328  0.5783  0.6157  0.6157

 Free energy of the ion-electron system (eV)
  ---------------------------------------------------
  alpha Z        PSCENC =       253.99581917
  Ewald energy   TEWEN  =     -9969.89693429
  -Hartree energ DENC   =     -4868.09761091
  -exchange      EXHF   =         0.00000000
  -V(xc)+E(xc)   XCENC  =       689.16425675
  PAW double counting   =     39221.60858819   -39046.99226058
  entropy T*S    EENTRO =         0.00000000
  eigenvalues    EBANDS =     -2011.15745134
  atomic energy  EATOM  =     15501.99929693
  Solvation  Ediel_sol  =         0.00000000
  ---------------------------------------------------
  free energy    TOTEN  =      -229.37629608 eV

  energy without entropy =     -229.37629608  energy(sigma->0) =     -229.37629608


--------------------------------------------------------------------------------------------------------




--------------------------------------- Iteration      1(  21)  ---------------------------------------


    POTLOK:  cpu time      0.4182: real time      0.4191
    SETDIJ:  cpu time     26.2306: real time     26.2335
     EDDAV:  cpu time     54.8086: real time     54.8187
 BZINTS: Fermi energy:    0.079073;  336.000000 electrons
         Band energy:-0.201121E+04;  BLOECHL correction:    0.000000
       DOS:  cpu time      0.0266: real time      0.0266
    CHARGE:  cpu time     21.8003: real time     21.8031
    MIXING:  cpu time      0.0134: real time      0.0134
    --------------------------------------------
      LOOP:  cpu time    103.2976: real time    103.3145

 eigenvalue-minimisations  :  9216
 total energy-change (2. order) : 0.1122655E-05  (-0.8816280E-06)
 number of electron     335.9999997 magnetization      -0.0013502
 augmentation part      -46.9864467 magnetization      -0.0013542

 Broyden mixing:
  rms(total) = 0.42271E-03    rms(broyden)= 0.42243E-03
  rms(prec ) = 0.44488E-03
  weight for this iteration     100.00

 eigenvalues of (default mixing * dielectric matrix)
  average eigenvalue GAMMA=   1.5120
  5.0970  2.6681  2.6681  2.5692  1.6181  1.4005  1.1539  1.1539  0.9283  0.9283
  0.7392  0.7392  0.7253  0.5780  0.6125  0.6125

 Free energy of the ion-electron system (eV)
  ---------------------------------------------------
  alpha Z        PSCENC =       253.99581917
  Ewald energy   TEWEN  =     -9969.89693429
  -Hartree energ DENC   =     -4868.03821491
  -exchange      EXHF   =         0.00000000
  -V(xc)+E(xc)   XCENC  =       689.16062123
  PAW double counting   =     39221.03856793   -39046.42141815
  entropy T*S    EENTRO =         0.00000000
  eigenvalues    EBANDS =     -2011.21403288
  atomic energy  EATOM  =     15501.99929693
  Solvation  Ediel_sol  =         0.00000000
  ---------------------------------------------------
  free energy    TOTEN  =      -229.37629496 eV

  energy without entropy =     -229.37629496  energy(sigma->0) =     -229.37629496


--------------------------------------------------------------------------------------------------------




--------------------------------------- Iteration      1(  22)  ---------------------------------------


    POTLOK:  cpu time      0.4132: real time      0.4173
    SETDIJ:  cpu time     24.4706: real time     24.4736
     EDDAV:  cpu time     62.2213: real time     62.2331
 BZINTS: Fermi energy:    0.078877;  336.000000 electrons
         Band energy:-0.201123E+04;  BLOECHL correction:    0.000000
       DOS:  cpu time      0.0266: real time      0.0266
    CHARGE:  cpu time     30.7055: real time     30.7093
    MIXING:  cpu time      0.0211: real time      0.0211
    --------------------------------------------
      LOOP:  cpu time    117.8583: real time    117.8810

 eigenvalue-minimisations  :  9856
 total energy-change (2. order) : 0.4569738E-06  (-0.1405833E-06)
 number of electron     335.9999997 magnetization      -0.0004684
 augmentation part      -46.9865170 magnetization      -0.0004904

 Broyden mixing:
  rms(total) = 0.23084E-03    rms(broyden)= 0.23034E-03
  rms(prec ) = 0.24506E-03
  weight for this iteration     100.00

 eigenvalues of (default mixing * dielectric matrix)
  average eigenvalue GAMMA=   1.5005
  5.0912  2.6565  2.6565  2.6222  1.6743  1.4394  1.4394  1.0830  1.0830  0.9005
  0.9005  0.7422  0.7422  0.6733  0.5792  0.6124  0.6124

 Free energy of the ion-electron system (eV)
  ---------------------------------------------------
  alpha Z        PSCENC =       253.99581917
  Ewald energy   TEWEN  =     -9969.89693429
  -Hartree energ DENC   =     -4868.01635442
  -exchange      EXHF   =         0.00000000
  -V(xc)+E(xc)   XCENC  =       689.15902889
  PAW double counting   =     39219.62598987   -39045.00852849
  entropy T*S    EENTRO =         0.00000000
  eigenvalues    EBANDS =     -2011.23461217
  atomic energy  EATOM  =     15501.99929693
  Solvation  Ediel_sol  =         0.00000000
  ---------------------------------------------------
  free energy    TOTEN  =      -229.37629450 eV

  energy without entropy =     -229.37629450  energy(sigma->0) =     -229.37629450


--------------------------------------------------------------------------------------------------------




--------------------------------------- Iteration      1(  23)  ---------------------------------------


    POTLOK:  cpu time      0.4331: real time      0.4340
    SETDIJ:  cpu time     19.3918: real time     19.3938
     EDDAV:  cpu time     56.1431: real time     56.1750
 BZINTS: Fermi energy:    0.078898;  336.000000 electrons
         Band energy:-0.201123E+04;  BLOECHL correction:    0.000000
       DOS:  cpu time      0.0265: real time      0.0266
    CHARGE:  cpu time     20.5825: real time     20.5850
    MIXING:  cpu time      0.0177: real time      0.0177
    --------------------------------------------
      LOOP:  cpu time     96.5946: real time     96.6322

 eigenvalue-minimisations  :  9216
 total energy-change (2. order) :-0.2371198E-06  (-0.5756453E-07)
 number of electron     335.9999997 magnetization      -0.0002572
 augmentation part      -46.9864885 magnetization      -0.0002534

 Broyden mixing:
[...]

  length of vectors
    10.314108670 16.788494411 10.846477853     0.097707938  0.059564603  0.092912216


 FORCES acting on ions
    electron-ion (+dipol)            ewald-force                    non-local-force                 convergence-correction
 -----------------------------------------------------------------------------------------------
   0.992E+02 -.104E+03 -.120E+02   -.104E+03 0.113E+03 0.106E+02   0.490E+01 -.895E+01 0.132E+01   0.171E-05 -.231E-06 0.863E-06
   0.986E+02 -.105E+03 -.125E+02   -.104E+03 0.113E+03 0.112E+02   0.495E+01 -.888E+01 0.132E+01   0.161E-05 -.181E-06 0.860E-06
   -.124E+02 0.420E+02 -.127E+03   0.126E+02 -.472E+02 0.134E+03   -.246E+00 0.519E+01 -.705E+01   0.158E-06 0.464E-07 -.103E-05
   -.124E+02 0.420E+02 -.127E+03   0.126E+02 -.472E+02 0.134E+03   -.246E+00 0.519E+01 -.705E+01   0.943E-07 0.228E-07 -.116E-05
   -.212E+02 -.902E+02 0.981E+02   0.198E+02 0.989E+02 -.103E+03   0.134E+01 -.874E+01 0.530E+01   -.260E-07 0.957E-08 0.161E-05
   -.212E+02 -.902E+02 0.983E+02   0.198E+02 0.989E+02 -.104E+03   0.134E+01 -.874E+01 0.530E+01   -.617E-07 0.429E-07 0.170E-05
   -.108E+03 0.951E+02 0.623E+01   0.114E+03 -.101E+03 -.411E+01   -.534E+01 0.592E+01 -.212E+01   -.160E-05 0.117E-06 0.609E-06
   -.108E+03 0.950E+02 0.626E+01   0.114E+03 -.101E+03 -.414E+01   -.534E+01 0.592E+01 -.212E+01   -.174E-05 0.115E-06 0.641E-06
   0.136E+03 -.539E+02 -.187E+02   -.143E+03 0.595E+02 0.193E+02   0.680E+01 -.552E+01 -.558E+00   0.162E-05 0.953E-07 -.106E-05
   0.136E+03 -.540E+02 -.187E+02   -.143E+03 0.595E+02 0.193E+02   0.680E+01 -.552E+01 -.558E+00   0.155E-05 0.118E-06 -.105E-05
   -.137E+03 0.539E+02 0.187E+02   0.143E+03 -.595E+02 -.192E+02   -.680E+01 0.552E+01 0.558E+00   -.154E-05 -.350E-07 0.967E-06
   -.137E+03 0.540E+02 0.188E+02   0.143E+03 -.595E+02 -.193E+02   -.681E+01 0.553E+01 0.568E+00   -.161E-05 0.896E-08 0.989E-06
   0.108E+03 -.950E+02 -.624E+01   -.114E+03 0.101E+03 0.413E+01   0.534E+01 -.592E+01 0.212E+01   0.179E-05 -.134E-08 -.696E-06
   0.108E+03 -.950E+02 -.627E+01   -.114E+03 0.101E+03 0.415E+01   0.534E+01 -.592E+01 0.212E+01   0.167E-05 -.504E-08 -.678E-06
   -.123E+02 -.420E+02 0.127E+03   0.125E+02 0.472E+02 -.134E+03   -.246E+00 -.519E+01 0.705E+01   0.108E-06 0.172E-06 0.134E-05
   -.124E+02 -.420E+02 0.127E+03   0.126E+02 0.472E+02 -.134E+03   -.246E+00 -.519E+01 0.705E+01   0.454E-07 0.164E-06 0.128E-05
   0.211E+02 -.902E+02 0.981E+02   -.198E+02 0.989E+02 -.103E+03   -.134E+01 -.874E+01 0.530E+01   0.102E-06 -.107E-06 0.169E-05
   0.211E+02 -.902E+02 0.981E+02   -.198E+02 0.989E+02 -.103E+03   -.134E+01 -.874E+01 0.530E+01   0.434E-07 -.140E-06 0.179E-05
   -.986E+02 -.105E+03 -.125E+02   0.104E+03 0.113E+03 0.112E+02   -.495E+01 -.888E+01 0.132E+01   -.160E-05 -.257E-06 0.875E-06
   -.987E+02 -.105E+03 -.125E+02   0.104E+03 0.113E+03 0.112E+02   -.495E+01 -.888E+01 0.132E+01   -.173E-05 -.323E-06 0.809E-06
   -.136E+03 -.540E+02 -.187E+02   0.143E+03 0.595E+02 0.193E+02   -.680E+01 -.552E+01 -.558E+00   -.164E-05 -.153E-06 -.101E-05
   -.136E+03 -.540E+02 -.187E+02   0.143E+03 0.595E+02 0.193E+02   -.680E+01 -.552E+01 -.558E+00   -.158E-05 -.137E-06 -.102E-05
   0.123E+02 0.420E+02 -.127E+03   -.126E+02 -.472E+02 0.134E+03   0.245E+00 0.519E+01 -.705E+01   -.910E-07 -.316E-07 -.976E-06
   0.120E+02 0.422E+02 -.128E+03   -.123E+02 -.474E+02 0.135E+03   0.272E+00 0.515E+01 -.705E+01   -.126E-06 -.413E-07 -.105E-05
   -.108E+03 -.950E+02 -.625E+01   0.114E+03 0.101E+03 0.414E+01   -.534E+01 -.592E+01 0.212E+01   -.164E-05 0.147E-06 -.716E-06
   -.108E+03 -.950E+02 -.625E+01   0.114E+03 0.101E+03 0.414E+01   -.534E+01 -.592E+01 0.212E+01   -.170E-05 0.169E-06 -.705E-06
   0.986E+02 0.105E+03 0.126E+02   -.104E+03 -.113E+03 -.112E+02   0.495E+01 0.888E+01 -.132E+01   0.175E-05 0.113E-06 -.664E-06
   0.986E+02 0.105E+03 0.125E+02   -.104E+03 -.113E+03 -.112E+02   0.495E+01 0.888E+01 -.132E+01   0.163E-05 0.590E-07 -.719E-06
   -.987E+02 0.105E+03 0.125E+02   0.104E+03 -.113E+03 -.112E+02   -.495E+01 0.888E+01 -.132E+01   -.166E-05 0.389E-06 -.733E-06
   -.986E+02 0.105E+03 0.125E+02   0.104E+03 -.113E+03 -.112E+02   -.495E+01 0.888E+01 -.132E+01   -.172E-05 0.419E-06 -.758E-06
   0.728E+02 0.962E+02 0.633E+02   -.755E+02 -.106E+03 -.654E+02   0.274E+01 0.971E+01 0.207E+01   0.879E-06 0.559E-06 0.701E-06
   0.727E+02 0.961E+02 0.632E+02   -.755E+02 -.106E+03 -.653E+02   0.274E+01 0.971E+01 0.207E+01   0.826E-06 0.590E-06 0.596E-06
   0.218E+02 -.938E+02 -.889E+02   -.205E+02 0.100E+03 0.940E+02   -.133E+01 -.628E+01 -.509E+01   0.335E-06 -.568E-08 -.168E-05
   0.218E+02 -.938E+02 -.889E+02   -.205E+02 0.100E+03 0.940E+02   -.133E+01 -.628E+01 -.509E+01   0.265E-06 0.308E-08 -.157E-05
   -.211E+02 0.902E+02 -.981E+02   0.198E+02 -.989E+02 0.103E+03   0.134E+01 0.874E+01 -.530E+01   -.538E-07 -.106E-06 -.194E-05
   -.211E+02 0.902E+02 -.981E+02   0.198E+02 -.989E+02 0.103E+03   0.134E+01 0.874E+01 -.530E+01   -.113E-06 -.126E-06 -.187E-05
   -.218E+02 0.938E+02 0.889E+02   0.205E+02 -.100E+03 -.940E+02   0.133E+01 0.628E+01 0.509E+01   -.212E-06 0.239E-07 0.125E-05
   -.218E+02 0.938E+02 0.889E+02   0.205E+02 -.100E+03 -.940E+02   0.133E+01 0.628E+01 0.509E+01   -.290E-06 0.254E-07 0.139E-05
   0.212E+02 0.902E+02 -.981E+02   -.198E+02 -.989E+02 0.103E+03   -.134E+01 0.874E+01 -.530E+01   0.532E-07 0.188E-06 -.205E-05
   0.211E+02 0.902E+02 -.981E+02   -.198E+02 -.989E+02 0.103E+03   -.134E+01 0.874E+01 -.530E+01   0.644E-08 0.211E-06 -.197E-05
   0.727E+02 -.962E+02 -.632E+02   -.755E+02 0.106E+03 0.653E+02   0.274E+01 -.971E+01 -.207E+01   0.859E-06 -.556E-06 -.403E-06
   0.728E+02 -.961E+02 -.633E+02   -.755E+02 0.106E+03 0.653E+02   0.274E+01 -.971E+01 -.207E+01   0.859E-06 -.566E-06 -.460E-06
   0.136E+03 0.540E+02 0.187E+02   -.143E+03 -.595E+02 -.193E+02   0.680E+01 0.552E+01 0.558E+00   0.154E-05 0.167E-07 0.996E-06
   0.136E+03 0.539E+02 0.187E+02   -.143E+03 -.595E+02 -.193E+02   0.680E+01 0.552E+01 0.559E+00   0.162E-05 0.233E-07 0.984E-06
   0.109E+03 0.948E+02 0.607E+01   -.114E+03 -.101E+03 -.398E+01   0.537E+01 0.587E+01 -.209E+01   0.171E-05 -.235E-06 0.664E-06
   0.108E+03 0.950E+02 0.625E+01   -.114E+03 -.101E+03 -.414E+01   0.534E+01 0.592E+01 -.212E+01   0.163E-05 -.220E-06 0.676E-06
   -.729E+02 -.961E+02 -.632E+02   0.756E+02 0.106E+03 0.653E+02   -.274E+01 -.971E+01 -.207E+01   -.810E-06 -.328E-06 -.372E-06
   -.731E+02 -.962E+02 -.633E+02   0.758E+02 0.106E+03 0.654E+02   -.270E+01 -.971E+01 -.207E+01   -.851E-06 -.288E-06 -.472E-06
   -.218E+02 -.938E+02 -.889E+02   0.204E+02 0.100E+03 0.940E+02   0.133E+01 -.628E+01 -.509E+01   -.285E-06 0.229E-06 -.160E-05
   -.218E+02 -.938E+02 -.889E+02   0.205E+02 0.100E+03 0.940E+02   0.133E+01 -.628E+01 -.509E+01   -.319E-06 0.203E-06 -.158E-05
   0.218E+02 0.938E+02 0.889E+02   -.204E+02 -.100E+03 -.940E+02   -.133E+01 0.628E+01 0.509E+01   0.287E-06 -.241E-06 0.130E-05
   0.219E+02 0.938E+02 0.890E+02   -.206E+02 -.100E+03 -.941E+02   -.135E+01 0.628E+01 0.509E+01   0.249E-06 -.262E-06 0.134E-05
   -.727E+02 0.961E+02 0.633E+02   0.755E+02 -.106E+03 -.653E+02   -.274E+01 0.971E+01 0.207E+01   -.866E-06 0.281E-06 0.667E-06
   -.728E+02 0.961E+02 0.632E+02   0.755E+02 -.106E+03 -.653E+02   -.274E+01 0.971E+01 0.207E+01   -.877E-06 0.267E-06 0.631E-06
   0.123E+02 -.421E+02 0.127E+03   -.126E+02 0.473E+02 -.134E+03   0.245E+00 -.519E+01 0.705E+01   -.635E-07 -.137E-06 0.146E-05
   0.123E+02 -.420E+02 0.127E+03   -.126E+02 0.472E+02 -.134E+03   0.245E+00 -.519E+01 0.705E+01   -.142E-06 -.157E-06 0.134E-05
 -----------------------------------------------------------------------------------------------
   -.129E-01 0.157E+00 -.574E-01   0.206E-12 -.291E-12 0.313E-12   0.129E-01 -.157E+00 0.574E-01   0.396E-07 -.460E-07 0.305E-07


 POSITION                                       TOTAL-FORCE (eV/Angst)
 -----------------------------------------------------------------------------------
      7.85031      7.96182     -7.59135        -0.065021      0.003941     -0.023625
     16.23455      7.96182     -7.59135         0.002482     -0.001257      0.000986
      3.16872      2.44282     -6.01943         0.002128     -0.000900     -0.002500
     11.56297      2.44282     -6.01943         0.002170     -0.000803     -0.002531
      1.76685      7.82725    -10.10485         0.000018      0.000024     -0.000352
     10.16110      7.82725    -10.10485        -0.002745     -0.001904      0.000621
      5.05050      1.12562     -8.40433         0.001533     -0.000679     -0.000615
     13.44475      1.12562     -8.40433         0.001602     -0.000628     -0.000681
      5.13205      1.09979     -2.45651        -0.000025      0.000483     -0.000286
     13.52630      1.09979     -2.45651        -0.000092      0.000452     -0.000287
      3.26219      7.47505     -8.62356         0.000085     -0.000335      0.000238
     11.65644      7.47505     -8.62356        -0.000265      0.000283      0.002865
      3.34375      7.44923     -2.67574        -0.001598      0.000529      0.000712
     11.73799      7.44923     -2.67574        -0.001547      0.000572      0.000808
      7.36585      0.97835     -4.87422         0.002329      0.000841      0.002662
     15.76010      0.97835     -4.87422         0.002139      0.000884      0.002543
      2.43027      2.67356     -9.91842         0.000036      0.000030     -0.000499
     10.82452      2.67356     -9.91842         0.000005      0.000110     -0.000490
      4.75106      2.80814     -7.40493        -0.002419     -0.001278      0.000863
     13.14531      2.80814     -7.40493        -0.002413     -0.001328      0.000943
      7.45932      6.25348     -2.64294         0.000240      0.000416     -0.000191
     15.85356      6.25348     -2.64294         0.000082      0.000476     -0.000303
      1.02840      7.59650     -6.20585        -0.002203     -0.000885     -0.002505
      9.42265      7.59650     -6.20585         0.022832     -0.021551      0.026106
      0.85338      2.29554     -2.48931         0.001570      0.000624      0.000690
      9.24762      2.29554     -2.48931         0.001821      0.000676      0.000788
      3.64318      5.76671     -3.67515         0.002540      0.001486     -0.001009
     12.03743      5.76671     -3.67515         0.002540      0.001248     -0.000971
      0.55394      0.61303     -3.48872        -0.002468      0.001269     -0.000949
      8.94819      0.61303     -3.48872        -0.002835      0.001636     -0.000924
      5.79350     -0.03143     -4.03202        -0.001134      0.001677      0.000056
     14.18775     -0.03143     -4.03202        -0.001221      0.001786      0.000185
      4.85766      7.53946     -1.03917        -0.003949      0.002061     -0.000285
     13.25190      7.53946     -1.03917        -0.003875      0.002016     -0.000219
      5.96398      5.90128     -1.16165        -0.000095      0.000138      0.000593
     14.35822      5.90128     -1.16165        -0.000173      0.000078      0.000407
      3.53659      1.03539    -10.04090         0.003983     -0.002033      0.000295
     11.93084      1.03539    -10.04090         0.003972     -0.002060      0.000280
      6.62739      0.74760     -0.97522         0.000015     -0.000035      0.000461
     15.02164      0.74760     -0.97522         0.000094      0.000005      0.000480
      1.59638      3.45260     -6.86163        -0.001224     -0.001780     -0.000223
      9.99063      3.45260     -6.86163        -0.001457     -0.001848     -0.000308
      0.93493      2.32137     -8.43713        -0.000093     -0.000440      0.000291
      9.32918      2.32137     -8.43713        -0.000017     -0.000292      0.000269
      7.54087      6.27930     -8.59076         0.013142      0.016749      0.003873
     15.93512      6.27930     -8.59076        -0.001628     -0.000644     -0.000695
      2.60074      8.60628     -7.04805         0.001265     -0.001836     -0.000327
     10.99499      8.60628     -7.04805         0.026797      0.006083     -0.006867
      7.73371      2.38578     -0.85274         0.003927      0.001965     -0.000252
     16.12796      2.38578     -0.85274         0.003934      0.002053     -0.000249
      0.66053      6.18907    -10.22733        -0.003960     -0.002115      0.000241
      9.05478      6.18907    -10.22733         0.000847     -0.011231     -0.005336
      6.79787      5.12225     -4.21845         0.001240      0.001770      0.000223
     15.19211      5.12225     -4.21845         0.001194      0.001698      0.000259
      5.22552      6.13203     -5.06065        -0.002075      0.000849      0.002290
     13.61977      6.13203     -5.06065        -0.002027      0.000951      0.002450
 -----------------------------------------------------------------------------------
    total drift:                               -0.000008     -0.000000      0.000001


--------------------------------------------------------------------------------------------------------



  FREE ENERGIE OF THE ION-ELECTRON SYSTEM (eV)
  ---------------------------------------------------
  free  energy   TOTEN  =      -229.37629454 eV

  energy  without entropy=     -229.37629454  energy(sigma->0) =     -229.37629454



--------------------------------------------------------------------------------------------------------


    POTLOK:  cpu time     19.6742: real time     19.6812


--------------------------------------------------------------------------------------------------------


     LOOP+:  cpu time   3715.7715: real time   3716.5518
    4ORBIT:  cpu time      0.0000: real time      0.0000



 total charge

# of ion       s       p       d       tot
------------------------------------------
    1        1.375   2.248   0.000   3.624
    2        1.376   2.247   0.000   3.623
    3        1.376   2.258   0.000   3.635
    4        1.376   2.258   0.000   3.635
    5        1.376   2.247   0.000   3.623
    6        1.376   2.247   0.000   3.622
    7        1.375   2.262   0.000   3.638
    8        1.375   2.262   0.000   3.638
    9        1.377   2.257   0.000   3.634
   10        1.377   2.257   0.000   3.634
   11        1.377   2.257   0.000   3.634
   12        1.377   2.257   0.000   3.634
   13        1.375   2.262   0.000   3.638
   14        1.375   2.262   0.000   3.638
   15        1.376   2.258   0.000   3.635
   16        1.376   2.258   0.000   3.635
   17        1.376   2.247   0.000   3.623
   18        1.376   2.247   0.000   3.622
   19        1.376   2.247   0.000   3.623
   20        1.376   2.247   0.000   3.623
   21        1.377   2.257   0.000   3.634
   22        1.377   2.257   0.000   3.634
   23        1.376   2.258   0.000   3.635
   24        1.376   2.260   0.000   3.636
   25        1.375   2.262   0.000   3.638
   26        1.375   2.262   0.000   3.638
   27        1.376   2.247   0.000   3.623
   28        1.376   2.247   0.000   3.623
   29        1.376   2.247   0.000   3.623
   30        1.376   2.247   0.000   3.623
   31        1.376   2.254   0.000   3.630
   32        1.376   2.254   0.000   3.630
   33        1.375   2.263   0.000   3.638
   34        1.375   2.263   0.000   3.638
   35        1.376   2.247   0.000   3.622
   36        1.376   2.247   0.000   3.622
   37        1.375   2.263   0.000   3.638
   38        1.375   2.263   0.000   3.638
   39        1.376   2.247   0.000   3.622
   40        1.376   2.247   0.000   3.623
   41        1.376   2.254   0.000   3.630
   42        1.376   2.254   0.000   3.630
   43        1.377   2.257   0.000   3.634
   44        1.377   2.257   0.000   3.634
   45        1.376   2.262   0.000   3.638
   46        1.375   2.262   0.000   3.638
   47        1.376   2.254   0.000   3.630
   48        1.376   2.255   0.000   3.630
   49        1.375   2.263   0.000   3.638
   50        1.375   2.263   0.000   3.638
   51        1.375   2.263   0.000   3.638
   52        1.375   2.263   0.000   3.638
   53        1.376   2.254   0.000   3.630
   54        1.376   2.254   0.000   3.630
   55        1.376   2.258   0.000   3.635
   56        1.376   2.258   0.000   3.635
--------------------------------------------------
tot         77.049 126.316   0.000 203.364



 magnetization (x)

# of ion       s       p       d       tot
------------------------------------------
    1        0.000   0.000   0.000   0.000
    2        0.000   0.000   0.000   0.000
    3        0.000   0.000   0.000   0.000
    4        0.000   0.000   0.000   0.000
    5        0.000   0.000   0.000   0.000
    6        0.000   0.000   0.000   0.000
    7        0.000   0.000   0.000   0.000
    8        0.000   0.000   0.000   0.000
    9        0.000   0.000   0.000   0.000
   10        0.000   0.000   0.000   0.000
   11        0.000   0.000   0.000   0.000
   12        0.000   0.000   0.000   0.000
   13        0.000   0.000   0.000   0.000
   14        0.000   0.000   0.000   0.000
   15        0.000   0.000   0.000   0.000
   16        0.000   0.000   0.000   0.000
   17        0.000   0.000   0.000   0.000
   18        0.000   0.000   0.000   0.000
   19        0.000   0.000   0.000   0.000
   20        0.000   0.000   0.000   0.000
   21        0.000   0.000   0.000   0.000
   22        0.000   0.000   0.000   0.000
   23        0.000   0.000   0.000   0.000
   24        0.000   0.000   0.000   0.000
   25        0.000   0.000   0.000   0.000
   26        0.000   0.000   0.000   0.000
   27        0.000   0.000   0.000   0.000
   28        0.000   0.000   0.000   0.000
   29        0.000   0.000   0.000   0.000
   30        0.000   0.000   0.000   0.000
   31        0.000   0.000   0.000   0.000
   32        0.000   0.000   0.000   0.000
   33        0.000   0.000   0.000   0.000
   34        0.000   0.000   0.000   0.000
   35        0.000   0.000   0.000   0.000
   36        0.000   0.000   0.000   0.000
   37        0.000   0.000   0.000   0.000
   38        0.000   0.000   0.000   0.000
   39        0.000   0.000   0.000   0.000
   40        0.000   0.000   0.000   0.000
   41        0.000   0.000   0.000   0.000
   42        0.000   0.000   0.000   0.000
   43        0.000   0.000   0.000   0.000
   44        0.000   0.000   0.000   0.000
   45        0.000   0.000   0.000   0.000
   46        0.000   0.000   0.000   0.000
   47        0.000   0.000   0.000   0.000
   48        0.000   0.000   0.000   0.000
   49        0.000   0.000   0.000   0.000
   50        0.000   0.000   0.000   0.000
   51        0.000   0.000   0.000   0.000
   52        0.000   0.000   0.000   0.000
   53        0.000   0.000   0.000   0.000
   54        0.000   0.000   0.000   0.000
   55        0.000   0.000   0.000   0.000
   56        0.000   0.000   0.000   0.000
--------------------------------------------------
tot          0.000   0.000   0.000   0.000

 BZINTS: Fermi energy:    0.078967;  336.000000 electrons
         Band energy:-0.201124E+04;  BLOECHL correction:    0.000000

 total amount of memory used by VASP MPI-rank0   322725. kBytes
=======================================================================

   base      :      30000. kBytes
   nonl-proj :      70692. kBytes
   fftplans  :      34504. kBytes
   grid      :      83442. kBytes
   one-center:        344. kBytes
   wavefun   :     103743. kBytes

  
  
 General timing and accounting informations for this job:
 ========================================================
  
                  Total CPU time used (sec):     3762.760
                            User time (sec):     3761.346
                          System time (sec):        1.414
                         Elapsed time (sec):     3764.543
  
                   Maximum memory used (kb):      608428.
                   Average memory used (kb):          N/A
  
                          Minor page faults:       567865
                          Major page faults:           22
                 Voluntary context switches:         7449
