  28  28   0   0
  0.2239050E+02  0.7457378E-09  0.7457378E-09  0.1127326E-08  0.5000000E-15
   1.0000000000000000E-004
  CAR 
 unknown system                          
     12.08716235    -23.30522419  301      1.38096542      1.00000000
    -23.305  0.0000E+00  0.0000E+00
    -23.187  0.0000E+00  0.0000E+00
    -23.069  0.0000E+00  0.0000E+00
    -22.951  0.0000E+00  0.0000E+00
    -22.833  0.0000E+00  0.0000E+00
    -22.715  0.0000E+00  0.0000E+00
    -22.597  0.0000E+00  0.0000E+00
    -22.479  0.0000E+00  0.0000E+00
    -22.361  0.0000E+00  0.0000E+00
    -22.243  0.0000E+00  0.0000E+00
    -22.125  0.0000E+00  0.0000E+00
    -22.008  0.0000E+00  0.0000E+00
    -21.890  0.1987E-07  0.2344E-08
    -21.772  0.2379E-01  0.2807E-02
    -21.654  0.2837E+01  0.3375E+00
    -21.536  0.1207E+01  0.4799E+00
    -21.418  0.7785E-03  0.4800E+00
    -21.300  0.3175E-10  0.4800E+00
    -21.182  0.0000E+00  0.4800E+00
    -21.064  0.0000E+00  0.4800E+00
    -20.946  0.0000E+00  0.4800E+00
    -20.828  0.0000E+00  0.4800E+00
    -20.710  0.0000E+00  0.4800E+00
    -20.592  0.0000E+00  0.4800E+00
    -20.474  0.0000E+00  0.4800E+00
    -20.356  0.0000E+00  0.4800E+00
    -20.238  0.0000E+00  0.4800E+00
    -20.120  0.0000E+00  0.4800E+00
    -20.002  0.0000E+00  0.4800E+00
    -19.884  0.0000E+00  0.4800E+00
    -19.766  0.0000E+00  0.4800E+00
    -19.648  0.0000E+00  0.4800E+00
    -19.530  0.0000E+00  0.4800E+00
    -19.412  0.0000E+00  0.4800E+00
    -19.294  0.0000E+00  0.4800E+00
    -19.176  0.0000E+00  0.4800E+00
    -19.058  0.0000E+00  0.4800E+00
    -18.940  0.0000E+00  0.4800E+00
    -18.822  0.0000E+00  0.4800E+00
    -18.704  0.0000E+00  0.4800E+00
    -18.586  0.0000E+00  0.4800E+00
    -18.468  0.0000E+00  0.4800E+00
    -18.350  0.0000E+00  0.4800E+00
    -18.232  0.0000E+00  0.4800E+00
    -18.114  0.0000E+00  0.4800E+00
    -17.996  0.0000E+00  0.4800E+00
    -17.878  0.0000E+00  0.4800E+00
    -17.760  0.0000E+00  0.4800E+00
    -17.642  0.0000E+00  0.4800E+00
    -17.524  0.0000E+00  0.4800E+00
    -17.406  0.0000E+00  0.4800E+00
    -17.289  0.0000E+00  0.4800E+00
    -17.171  0.0000E+00  0.4800E+00
    -17.053  0.0000E+00  0.4800E+00
    -16.935  0.0000E+00  0.4800E+00
    -16.817  0.0000E+00  0.4800E+00
    -16.699  0.0000E+00  0.4800E+00
    -16.581  0.0000E+00  0.4800E+00
    -16.463  0.0000E+00  0.4800E+00
    -16.345  0.0000E+00  0.4800E+00
    -16.227  0.0000E+00  0.4800E+00
    -16.109  0.0000E+00  0.4800E+00
    -15.991  0.0000E+00  0.4800E+00
    -15.873  0.0000E+00  0.4800E+00
    -15.755  0.0000E+00  0.4800E+00
    -15.637  0.0000E+00  0.4800E+00
    -15.519  0.0000E+00  0.4800E+00
    -15.401  0.0000E+00  0.4800E+00
    -15.283  0.0000E+00  0.4800E+00
    -15.165  0.0000E+00  0.4800E+00
    -15.047  0.0000E+00  0.4800E+00
    -14.929  0.0000E+00  0.4800E+00
    -14.811  0.0000E+00  0.4800E+00
    -14.693  0.0000E+00  0.4800E+00
    -14.575  0.0000E+00  0.4800E+00
    -14.457  0.0000E+00  0.4800E+00
    -14.339  0.0000E+00  0.4800E+00
    -14.221  0.0000E+00  0.4800E+00
    -14.103  0.0000E+00  0.4800E+00
    -13.985  0.0000E+00  0.4800E+00
    -13.867  0.0000E+00  0.4800E+00
    -13.749  0.0000E+00  0.4800E+00
    -13.631  0.0000E+00  0.4800E+00
    -13.513  0.0000E+00  0.4800E+00
    -13.395  0.0000E+00  0.4800E+00
    -13.277  0.0000E+00  0.4800E+00
    -13.159  0.0000E+00  0.4800E+00
    -13.041  0.0000E+00  0.4800E+00
    -12.923  0.0000E+00  0.4800E+00
    -12.805  0.0000E+00  0.4800E+00
    -12.688  0.0000E+00  0.4800E+00
    -12.570  0.0000E+00  0.4800E+00
    -12.452  0.0000E+00  0.4800E+00
    -12.334  0.0000E+00  0.4800E+00
    -12.216  0.0000E+00  0.4800E+00
    -12.098  0.0000E+00  0.4800E+00
    -11.980  0.0000E+00  0.4800E+00
    -11.862  0.0000E+00  0.4800E+00
    -11.744  0.0000E+00  0.4800E+00
    -11.626  0.0000E+00  0.4800E+00
    -11.508  0.0000E+00  0.4800E+00
    -11.390  0.2353E-16  0.4800E+00
    -11.272  0.5983E-07  0.4800E+00
    -11.154  0.3775E-02  0.4804E+00
    -11.036  0.3763E-01  0.4849E+00
    -10.918  0.5117E-01  0.4909E+00
    -10.800  0.1287E+00  0.5061E+00
    -10.682  0.2288E+00  0.5331E+00
    -10.564  0.1164E+00  0.5468E+00
    -10.446  0.6934E-01  0.5550E+00
    -10.328  0.1093E+00  0.5679E+00
    -10.210  0.4021E+00  0.6153E+00
    -10.092  0.2629E+00  0.6464E+00
     -9.974  0.5362E+00  0.7096E+00
     -9.856  0.8796E-01  0.7200E+00
     -9.738  0.1078E-04  0.7200E+00
     -9.620  0.5036E-13  0.7200E+00
     -9.502  0.0000E+00  0.7200E+00
     -9.384  0.0000E+00  0.7200E+00
     -9.266  0.0000E+00  0.7200E+00
     -9.148  0.0000E+00  0.7200E+00
     -9.030  0.0000E+00  0.7200E+00
     -8.912  0.0000E+00  0.7200E+00
     -8.794  0.0000E+00  0.7200E+00
     -8.676  0.0000E+00  0.7200E+00
     -8.558  0.0000E+00  0.7200E+00
     -8.440  0.0000E+00  0.7200E+00
     -8.322  0.0000E+00  0.7200E+00
     -8.204  0.0000E+00  0.7200E+00
     -8.086  0.0000E+00  0.7200E+00
     -7.969  0.0000E+00  0.7200E+00
     -7.851  0.0000E+00  0.7200E+00
     -7.733  0.0000E+00  0.7200E+00
     -7.615  0.0000E+00  0.7200E+00
     -7.497  0.0000E+00  0.7200E+00
     -7.379  0.0000E+00  0.7200E+00
     -7.261  0.0000E+00  0.7200E+00
     -7.143  0.0000E+00  0.7200E+00
     -7.025  0.0000E+00  0.7200E+00
     -6.907  0.0000E+00  0.7200E+00
     -6.789  0.0000E+00  0.7200E+00
     -6.671  0.0000E+00  0.7200E+00
     -6.553  0.0000E+00  0.7200E+00
     -6.435  0.0000E+00  0.7200E+00
     -6.317  0.0000E+00  0.7200E+00
     -6.199  0.0000E+00  0.7200E+00
     -6.081  0.0000E+00  0.7200E+00
     -5.963  0.0000E+00  0.7200E+00
     -5.845  0.0000E+00  0.7200E+00
     -5.727  0.0000E+00  0.7200E+00
     -5.609  0.0000E+00  0.7200E+00
     -5.491  0.0000E+00  0.7200E+00
     -5.373  0.3681E-13  0.7200E+00
     -5.255  0.1045E-04  0.7200E+00
     -5.137  0.8463E-01  0.7300E+00
     -5.019  0.3913E+00  0.7762E+00
     -4.901  0.1294E+01  0.9288E+00
     -4.783  0.8860E+00  0.1033E+01
     -4.665  0.1505E+01  0.1211E+01
     -4.547  0.1669E+01  0.1408E+01
     -4.429  0.6451E+00  0.1484E+01
     -4.311  0.3027E+00  0.1520E+01
     -4.193  0.2827E-02  0.1520E+01
     -4.075  0.3516E-08  0.1520E+01
     -3.957  0.1366E-06  0.1520E+01
     -3.839  0.5188E-02  0.1521E+01
     -3.721  0.1270E+00  0.1536E+01
     -3.603  0.7967E-01  0.1545E+01
     -3.485  0.5462E-04  0.1545E+01
     -3.368  0.1162E-01  0.1546E+01
     -3.250  0.4873E-01  0.1552E+01
     -3.132  0.6788E-01  0.1560E+01
     -3.014  0.8524E-01  0.1570E+01
     -2.896  0.1040E+00  0.1582E+01
     -2.778  0.1507E+00  0.1600E+01
     -2.660  0.3960E-01  0.1605E+01
     -2.542  0.3853E-01  0.1609E+01
     -2.424  0.4713E-01  0.1615E+01
     -2.306  0.1310E+00  0.1630E+01
     -2.188  0.1232E+00  0.1645E+01
     -2.070  0.1288E-02  0.1645E+01
     -1.952  0.1363E+00  0.1661E+01
     -1.834  0.3227E-01  0.1665E+01
     -1.716  0.8663E-01  0.1675E+01
     -1.598  0.2347E+00  0.1703E+01
     -1.480  0.7781E-01  0.1712E+01
     -1.362  0.1072E+00  0.1725E+01
     -1.244  0.7908E-01  0.1734E+01
     -1.126  0.2253E+00  0.1761E+01
     -1.008  0.1911E+00  0.1783E+01
     -0.890  0.1014E+00  0.1795E+01
     -0.772  0.1324E+00  0.1811E+01
     -0.654  0.1077E+00  0.1823E+01
     -0.536  0.2970E+00  0.1859E+01
     -0.418  0.2220E+00  0.1885E+01
     -0.300  0.3856E-01  0.1889E+01
     -0.182  0.1625E+00  0.1908E+01
     -0.064  0.4113E+00  0.1957E+01
      0.054  0.3617E+00  0.2000E+01
      0.172  0.1905E+00  0.2022E+01
      0.290  0.2466E+00  0.2051E+01
      0.408  0.2307E+00  0.2078E+01
      0.526  0.2762E+00  0.2111E+01
      0.644  0.3883E+00  0.2157E+01
      0.762  0.2113E+00  0.2182E+01
      0.880  0.2973E+00  0.2217E+01
      0.998  0.8167E-01  0.2226E+01
      1.116  0.4201E-01  0.2231E+01
      1.233  0.7191E-01  0.2240E+01
      1.351  0.1005E-02  0.2240E+01
      1.469  0.9164E-09  0.2240E+01
      1.587  0.0000E+00  0.2240E+01
      1.705  0.0000E+00  0.2240E+01
      1.823  0.0000E+00  0.2240E+01
      1.941  0.0000E+00  0.2240E+01
      2.059  0.0000E+00  0.2240E+01
      2.177  0.0000E+00  0.2240E+01
      2.295  0.0000E+00  0.2240E+01
      2.413  0.0000E+00  0.2240E+01
      2.531  0.0000E+00  0.2240E+01
      2.649  0.0000E+00  0.2240E+01
      2.767  0.0000E+00  0.2240E+01
      2.885  0.0000E+00  0.2240E+01
      3.003  0.1200E-10  0.2240E+01
      3.121  0.8902E-04  0.2240E+01
      3.239  0.2883E-01  0.2243E+01
      3.357  0.1346E-01  0.2245E+01
      3.475  0.2933E-05  0.2245E+01
      3.593  0.1869E-13  0.2245E+01
      3.711  0.0000E+00  0.2245E+01
      3.829  0.0000E+00  0.2245E+01
      3.947  0.0000E+00  0.2245E+01
      4.065  0.0000E+00  0.2245E+01
      4.183  0.6954E-09  0.2245E+01
      4.301  0.9704E-03  0.2245E+01
      4.419  0.1666E+00  0.2265E+01
      4.537  0.1705E+00  0.2285E+01
      4.655  0.7329E-01  0.2294E+01
      4.773  0.1255E-01  0.2295E+01
      4.891  0.5185E-01  0.2301E+01
      5.009  0.2477E+00  0.2330E+01
      5.127  0.1242E+00  0.2345E+01
      5.245  0.3609E-01  0.2349E+01
      5.363  0.5622E-01  0.2356E+01
      5.481  0.3485E-01  0.2360E+01
      5.599  0.8182E-01  0.2370E+01
      5.717  0.1719E+00  0.2390E+01
      5.835  0.2819E-01  0.2393E+01
      5.952  0.2971E+00  0.2428E+01
      6.070  0.9035E-01  0.2439E+01
      6.188  0.1015E+00  0.2451E+01
      6.306  0.2800E+00  0.2484E+01
      6.424  0.2833E+00  0.2517E+01
      6.542  0.1882E+00  0.2540E+01
      6.660  0.4713E-01  0.2545E+01
      6.778  0.1153E+00  0.2559E+01
      6.896  0.1457E+00  0.2576E+01
      7.014  0.1668E+00  0.2596E+01
      7.132  0.1345E+00  0.2612E+01
      7.250  0.2130E+00  0.2637E+01
      7.368  0.1157E+00  0.2650E+01
      7.486  0.1738E+00  0.2671E+01
      7.604  0.3330E+00  0.2710E+01
      7.722  0.2163E+00  0.2736E+01
      7.840  0.1571E+00  0.2754E+01
      7.958  0.2460E+00  0.2783E+01
      8.076  0.1935E+00  0.2806E+01
      8.194  0.3463E-01  0.2810E+01
      8.312  0.1444E+00  0.2827E+01
      8.430  0.2500E+00  0.2857E+01
      8.548  0.6709E-01  0.2865E+01
      8.666  0.4200E+00  0.2914E+01
      8.784  0.3245E+00  0.2952E+01
      8.902  0.1381E+00  0.2969E+01
      9.020  0.9986E-01  0.2980E+01
      9.138  0.1527E+00  0.2998E+01
      9.256  0.1139E+00  0.3012E+01
      9.374  0.2669E-01  0.3015E+01
      9.492  0.3154E-03  0.3015E+01
      9.610  0.1249E+00  0.3030E+01
      9.728  0.1223E+00  0.3044E+01
      9.846  0.8855E-01  0.3055E+01
      9.964  0.2875E+00  0.3089E+01
     10.082  0.1830E+00  0.3110E+01
     10.200  0.1573E+00  0.3129E+01
     10.318  0.2303E+00  0.3156E+01
     10.436  0.1264E+00  0.3171E+01
     10.553  0.2442E+00  0.3200E+01
     10.671  0.3427E-02  0.3200E+01
     10.789  0.4214E-08  0.3200E+01
     10.907  0.0000E+00  0.3200E+01
     11.025  0.0000E+00  0.3200E+01
     11.143  0.0000E+00  0.3200E+01
     11.261  0.0000E+00  0.3200E+01
     11.379  0.0000E+00  0.3200E+01
     11.497  0.0000E+00  0.3200E+01
     11.615  0.0000E+00  0.3200E+01
     11.733  0.0000E+00  0.3200E+01
     11.851  0.0000E+00  0.3200E+01
     11.969  0.0000E+00  0.3200E+01
     12.087  0.0000E+00  0.3200E+01
