       N       E                     dE             d eps       ncg     rms          rms(c)
DAV:   1     0.177554844957E+04    0.17755E+04   -0.90477E+04   960   0.132E+03
DAV:   2     0.117530349179E+03   -0.16580E+04   -0.15875E+04   960   0.362E+02
DAV:   3    -0.924906850550E+02   -0.21002E+03   -0.20723E+03  1152   0.131E+02
DAV:   4    -0.100861340218E+03   -0.83707E+01   -0.83446E+01  1152   0.269E+01
DAV:   5    -0.101074813355E+03   -0.21347E+00   -0.21344E+00  1216   0.423E+00    0.197E+01
DAV:   6    -0.939207010598E+02    0.71541E+01   -0.13104E+01  1536   0.374E+01    0.162E+01
DAV:   7    -0.938849532996E+02    0.35748E-01   -0.95954E+00  1152   0.659E+00    0.883E+00
DAV:   8    -0.938964093464E+02   -0.11456E-01   -0.34652E-01  1184   0.240E+00    0.211E+00
DAV:   9    -0.939127239354E+02   -0.16315E-01   -0.73584E-02  1216   0.166E+00    0.691E-01
DAV:  10    -0.939162195939E+02   -0.34957E-02   -0.13005E-02  1248   0.441E-01    0.381E-01
DAV:  11    -0.939211468853E+02   -0.49273E-02   -0.71790E-03  1152   0.198E-01    0.230E-01
DAV:  12    -0.939213626465E+02   -0.21576E-03   -0.34838E-04  1216   0.610E-02    0.399E-02
DAV:  13    -0.939214543848E+02   -0.91738E-04   -0.92611E-05  1152   0.258E-02    0.288E-02
DAV:  14    -0.939214835913E+02   -0.29207E-04   -0.26662E-05   960   0.229E-02    0.107E-02
DAV:  15    -0.939214911383E+02   -0.75470E-05   -0.13061E-05   960   0.141E-02
   1 F= -.93921491E+02 E0= -.93921491E+02  d E =-.939215E+02
       N       E                     dE             d eps       ncg     rms          rms(c)
DAV:   1    -0.943434331264E+02   -0.42195E+00   -0.77689E+00  1248   0.160E+01    0.480E+00
DAV:   2    -0.940092417321E+02    0.33419E+00   -0.15491E+00  1248   0.975E+00    0.197E+00
DAV:   3    -0.939667802310E+02    0.42462E-01   -0.12445E-01  1184   0.121E+00    0.887E-01
DAV:   4    -0.939544384459E+02    0.12342E-01   -0.13267E-02  1344   0.465E-01    0.529E-01
DAV:   5    -0.939526657658E+02    0.17727E-02   -0.24077E-03  1312   0.193E-01    0.156E-01
DAV:   6    -0.939524515571E+02    0.21421E-03   -0.69715E-04  1152   0.851E-02    0.519E-02
DAV:   7    -0.939524463366E+02    0.52205E-05   -0.59428E-05  1312   0.422E-02
   2 F= -.93952446E+02 E0= -.93952446E+02  d E =-.309552E-01
       N       E                     dE             d eps       ncg     rms          rms(c)
DAV:   1    -0.939546165993E+02   -0.21650E-02   -0.37282E-02  1248   0.114E+00    0.324E-01
DAV:   2    -0.939530759438E+02    0.15407E-02   -0.69614E-03  1248   0.620E-01    0.134E-01
DAV:   3    -0.939528799335E+02    0.19601E-03   -0.55218E-04  1184   0.740E-02    0.609E-02
DAV:   4    -0.939528284903E+02    0.51443E-04   -0.52819E-05  1312   0.284E-02    0.339E-02
DAV:   5    -0.939528257687E+02    0.27217E-05   -0.77891E-06   736   0.134E-02
   3 F= -.93952826E+02 E0= -.93952826E+02  d E =-.313346E-01
       N       E                     dE             d eps       ncg     rms          rms(c)
DAV:   1    -0.939601745516E+02   -0.73461E-02   -0.14692E-01  1248   0.224E+00    0.652E-01
DAV:   2    -0.939539399867E+02    0.62346E-02   -0.28257E-02  1216   0.125E+00    0.270E-01
DAV:   3    -0.939531420749E+02    0.79791E-03   -0.22404E-03  1152   0.149E-01    0.123E-01
DAV:   4    -0.939529184650E+02    0.22361E-03   -0.21042E-04  1312   0.577E-02    0.688E-02
DAV:   5    -0.939528955299E+02    0.22935E-04   -0.41963E-05  1216   0.272E-02    0.183E-02
DAV:   6    -0.939528951879E+02    0.34198E-06   -0.15128E-05   864   0.134E-02
   4 F= -.93952895E+02 E0= -.93952895E+02  d E =-.314040E-01
       N       E                     dE             d eps       ncg     rms          rms(c)
DAV:   1    -0.939541785688E+02   -0.12830E-02   -0.24051E-02  1248   0.913E-01    0.264E-01
DAV:   2    -0.939531727764E+02    0.10058E-02   -0.46307E-03  1184   0.501E-01    0.110E-01
DAV:   3    -0.939530356368E+02    0.13714E-03   -0.36510E-04  1120   0.592E-02    0.497E-02
DAV:   4    -0.939529896994E+02    0.45937E-04   -0.32524E-05  1120   0.228E-02    0.268E-02
DAV:   5    -0.939529788599E+02    0.10840E-04   -0.53115E-06   608   0.109E-02    0.694E-03
DAV:   6    -0.939529775957E+02    0.12642E-05   -0.35363E-06   576   0.633E-03
   5 F= -.93952978E+02 E0= -.93952978E+02  d E =-.314865E-01
       N       E                     dE             d eps       ncg     rms          rms(c)
DAV:   1    -0.939613782917E+02   -0.83994E-02   -0.16654E+00  1056   0.320E+00    0.392E-01
DAV:   2    -0.939616483655E+02   -0.27007E-03   -0.26521E-02  1312   0.676E-01    0.215E-01
DAV:   3    -0.939611019266E+02    0.54644E-03   -0.13280E-03  1280   0.128E-01    0.128E-01
DAV:   4    -0.939608822259E+02    0.21970E-03   -0.34785E-04  1152   0.718E-02    0.316E-02
DAV:   5    -0.939608928148E+02   -0.10589E-04   -0.14266E-04  1120   0.423E-02    0.183E-02
DAV:   6    -0.939608926071E+02    0.20768E-06   -0.24768E-06   768   0.816E-03
   6 F= -.93960893E+02 E0= -.93960893E+02  d E =-.791501E-02
       N       E                     dE             d eps       ncg     rms          rms(c)
DAV:   1    -0.939809242885E+02   -0.20031E-01   -0.12505E+01  1056   0.873E+00    0.107E+00
DAV:   2    -0.939832161760E+02   -0.22919E-02   -0.19902E-01  1312   0.181E+00    0.589E-01
DAV:   3    -0.939790325247E+02    0.41837E-02   -0.97973E-03  1280   0.345E-01    0.351E-01
DAV:   4    -0.939773927771E+02    0.16397E-02   -0.25958E-03  1152   0.191E-01    0.851E-02
DAV:   5    -0.939774618909E+02   -0.69114E-04   -0.10497E-03  1088   0.115E-01    0.514E-02
DAV:   6    -0.939774602814E+02    0.16096E-05   -0.21826E-05  1088   0.230E-02
   7 F= -.93977460E+02 E0= -.93977460E+02  d E =-.244827E-01
       N       E                     dE             d eps       ncg     rms          rms(c)
DAV:   1    -0.940024823704E+02   -0.25020E-01   -0.49996E+01  1056   0.174E+01    0.215E+00
DAV:   2    -0.940145806946E+02   -0.12098E-01   -0.80385E-01  1312   0.349E+00    0.118E+00
DAV:   3    -0.939973598168E+02    0.17221E-01   -0.37630E-02  1184   0.687E-01    0.708E-01
DAV:   4    -0.939910405452E+02    0.63193E-02   -0.10962E-02  1152   0.388E-01    0.165E-01
DAV:   5    -0.939912687307E+02   -0.22819E-03   -0.38006E-03  1088   0.221E-01    0.104E-01
DAV:   6    -0.939912734638E+02   -0.47331E-05   -0.14850E-04  1216   0.481E-02    0.557E-02
DAV:   7    -0.939912746862E+02   -0.12224E-05   -0.15399E-05   800   0.316E-02
   8 F= -.93991275E+02 E0= -.93991275E+02  d E =-.382971E-01
       N       E                     dE             d eps       ncg     rms          rms(c)
DAV:   1    -0.940084325512E+02   -0.17159E-01   -0.36258E+00  1152   0.570E+00    0.106E+00
DAV:   2    -0.940023592458E+02    0.60733E-02   -0.15297E-01  1248   0.215E+00    0.449E-01
DAV:   3    -0.940010278901E+02    0.13314E-02   -0.88640E-03  1120   0.315E-01    0.257E-01
DAV:   4    -0.940001506084E+02    0.87728E-03   -0.11258E-03  1376   0.134E-01    0.950E-02
DAV:   5    -0.940000828430E+02    0.67765E-04   -0.16256E-04  1152   0.398E-02    0.416E-02
DAV:   6    -0.940000689205E+02    0.13923E-04   -0.14533E-05   896   0.129E-02    0.187E-02
DAV:   7    -0.940000663096E+02    0.26109E-05   -0.77694E-06   736   0.967E-03
   9 F= -.94000066E+02 E0= -.94000066E+02  d E =-.879162E-02
       N       E                     dE             d eps       ncg     rms          rms(c)
DAV:   1    -0.940215975249E+02   -0.21529E-01   -0.74758E+00  1152   0.822E+00    0.152E+00
DAV:   2    -0.940092837281E+02    0.12314E-01   -0.31442E-01  1248   0.307E+00    0.640E-01
DAV:   3    -0.940065510051E+02    0.27327E-02   -0.18045E-02  1120   0.448E-01    0.367E-01
DAV:   4    -0.940047608754E+02    0.17901E-02   -0.23088E-03  1344   0.191E-01    0.134E-01
DAV:   5    -0.940046319823E+02    0.12889E-03   -0.33861E-04  1152   0.576E-02    0.589E-02
DAV:   6    -0.940046060761E+02    0.25906E-04   -0.30055E-05  1120   0.187E-02    0.276E-02
DAV:   7    -0.940046020012E+02    0.40748E-05   -0.15259E-05   832   0.134E-02
  10 F= -.94004602E+02 E0= -.94004602E+02  d E =-.133273E-01
       N       E                     dE             d eps       ncg     rms          rms(c)
DAV:   1    -0.940084497952E+02   -0.38437E-02   -0.16421E+00  1056   0.325E+00    0.515E-01
DAV:   2    -0.940093010460E+02   -0.85125E-03   -0.55474E-02  1344   0.111E+00    0.244E-01
DAV:   3    -0.940089112650E+02    0.38978E-03   -0.22375E-03  1120   0.164E-01    0.153E-01
DAV:   4    -0.940086848356E+02    0.22643E-03   -0.51716E-04  1376   0.818E-02    0.504E-02
DAV:   5    -0.940086765890E+02    0.82466E-05   -0.54983E-05  1088   0.219E-02
  11 F= -.94008677E+02 E0= -.94008677E+02  d E =-.407459E-02
       N       E                     dE             d eps       ncg     rms          rms(c)
DAV:   1    -0.940114870263E+02   -0.28022E-02   -0.17693E+00  1056   0.337E+00    0.539E-01
DAV:   2    -0.940123788232E+02   -0.89180E-03   -0.59638E-02  1344   0.116E+00    0.251E-01
DAV:   3    -0.940119570207E+02    0.42180E-03   -0.24482E-03  1120   0.172E-01    0.155E-01
DAV:   4    -0.940117140144E+02    0.24301E-03   -0.53532E-04  1376   0.833E-02    0.529E-02
DAV:   5    -0.940117039298E+02    0.10085E-04   -0.57004E-05  1088   0.225E-02    0.222E-02
DAV:   6    -0.940117034757E+02    0.45412E-06   -0.43885E-06   672   0.702E-03
  12 F= -.94011703E+02 E0= -.94011703E+02  d E =-.710147E-02
       N       E                     dE             d eps       ncg     rms          rms(c)
DAV:   1    -0.940127034553E+02   -0.99953E-03   -0.70627E+00  1056   0.669E+00    0.107E+00
DAV:   2    -0.940160730039E+02   -0.33695E-02   -0.23711E-01  1344   0.233E+00    0.503E-01
DAV:   3    -0.940143365380E+02    0.17365E-02   -0.97891E-03  1120   0.350E-01    0.311E-01
DAV:   4    -0.940133545161E+02    0.98202E-03   -0.21792E-03  1376   0.168E-01    0.107E-01
DAV:   5    -0.940133024682E+02    0.52048E-04   -0.23211E-04  1088   0.450E-02    0.446E-02
DAV:   6    -0.940132947323E+02    0.77359E-05   -0.16829E-05   896   0.140E-02
  13 F= -.94013295E+02 E0= -.94013295E+02  d E =-.869273E-02
       N       E                     dE             d eps       ncg     rms          rms(c)
DAV:   1    -0.940132814305E+02    0.21038E-04   -0.72923E-01  1056   0.219E+00    0.346E-01
DAV:   2    -0.940136924012E+02   -0.41097E-03   -0.24939E-02  1312   0.740E-01    0.166E-01
DAV:   3    -0.940135152149E+02    0.17719E-03   -0.98766E-04  1152   0.108E-01    0.103E-01
DAV:   4    -0.940133991040E+02    0.11611E-03   -0.22881E-04  1376   0.551E-02    0.329E-02
DAV:   5    -0.940133879161E+02    0.11188E-04   -0.23884E-05   896   0.145E-02    0.139E-02
DAV:   6    -0.940133844897E+02    0.34264E-05   -0.17598E-06   672   0.492E-03
  14 F= -.94013384E+02 E0= -.94013384E+02  d E =-.878249E-02
       N       E                     dE             d eps       ncg     rms          rms(c)
DAV:   1    -0.940164833408E+02   -0.30954E-02   -0.10290E+00  1056   0.219E+00    0.360E-01
DAV:   2    -0.940175539463E+02   -0.10706E-02   -0.25295E-02  1152   0.540E-01    0.190E-01
DAV:   3    -0.940171012183E+02    0.45273E-03   -0.10539E-03  1184   0.119E-01    0.112E-01
DAV:   4    -0.940168962412E+02    0.20498E-03   -0.29371E-04  1152   0.702E-02    0.203E-02
DAV:   5    -0.940169063269E+02   -0.10086E-04   -0.14256E-04  1056   0.444E-02    0.203E-02
DAV:   6    -0.940169058802E+02    0.44670E-06   -0.34898E-06   672   0.933E-03
  15 F= -.94016906E+02 E0= -.94016906E+02  d E =-.352139E-02
       N       E                     dE             d eps       ncg     rms          rms(c)
DAV:   1    -0.940203083955E+02   -0.34021E-02   -0.27140E+00  1056   0.356E+00    0.584E-01
DAV:   2    -0.940231647057E+02   -0.28563E-02   -0.66905E-02  1152   0.877E-01    0.309E-01
DAV:   3    -0.940219833601E+02    0.11813E-02   -0.27702E-03  1152   0.193E-01    0.184E-01
DAV:   4    -0.940214362795E+02    0.54708E-03   -0.78239E-04  1152   0.116E-01    0.331E-02
DAV:   5    -0.940214641930E+02   -0.27913E-04   -0.38162E-04  1088   0.721E-02    0.332E-02
DAV:   6    -0.940214628850E+02    0.13080E-05   -0.86504E-06   672   0.141E-02
  16 F= -.94021463E+02 E0= -.94021463E+02  d E =-.807840E-02
       N       E                     dE             d eps       ncg     rms          rms(c)
DAV:   1    -0.940213024031E+02    0.16179E-03   -0.10877E+01  1056   0.714E+00    0.117E+00
DAV:   2    -0.940329109568E+02   -0.11609E-01   -0.26914E-01  1152   0.174E+00    0.618E-01
DAV:   3    -0.940282446267E+02    0.46663E-02   -0.11083E-02  1184   0.391E-01    0.371E-01
DAV:   4    -0.940260355261E+02    0.22091E-02   -0.31245E-03  1152   0.233E-01    0.670E-02
DAV:   5    -0.940261495022E+02   -0.11398E-03   -0.15299E-03  1120   0.144E-01    0.661E-02
DAV:   6    -0.940261444175E+02    0.50847E-05   -0.37841E-05  1152   0.260E-02
  17 F= -.94026144E+02 E0= -.94026144E+02  d E =-.127599E-01
       N       E                     dE             d eps       ncg     rms          rms(c)
DAV:   1    -0.940263863544E+02   -0.23685E-03   -0.38220E+00  1056   0.413E+00    0.415E-01
DAV:   2    -0.940322217749E+02   -0.58354E-02   -0.76200E-02  1152   0.805E-01    0.227E-01
DAV:   3    -0.940318631900E+02    0.35858E-03   -0.26792E-03  1216   0.167E-01    0.155E-01
DAV:   4    -0.940315445513E+02    0.31864E-03   -0.44607E-04  1184   0.883E-02    0.406E-02
DAV:   5    -0.940315519315E+02   -0.73802E-05   -0.19929E-04  1120   0.445E-02    0.254E-02
DAV:   6    -0.940315499203E+02    0.20112E-05   -0.88542E-06   768   0.102E-02
  18 F= -.94031550E+02 E0= -.94031550E+02  d E =-.540550E-02
       N       E                     dE             d eps       ncg     rms          rms(c)
DAV:   1    -0.939922266976E+02    0.39325E-01   -0.34559E+01  1056   0.126E+01    0.127E+00
DAV:   2    -0.940480482321E+02   -0.55822E-01   -0.72069E-01  1184   0.244E+00    0.676E-01
DAV:   3    -0.940448567241E+02    0.31915E-02   -0.24380E-02  1184   0.507E-01    0.464E-01
DAV:   4    -0.940420122342E+02    0.28445E-02   -0.41462E-03  1184   0.278E-01    0.128E-01
DAV:   5    -0.940420596350E+02   -0.47401E-04   -0.17217E-03  1120   0.132E-01    0.725E-02
DAV:   6    -0.940420449766E+02    0.14658E-04   -0.10033E-04  1216   0.347E-02    0.495E-02
DAV:   7    -0.940420378971E+02    0.70795E-05   -0.41592E-05  1024   0.208E-02
  19 F= -.94042038E+02 E0= -.94042038E+02  d E =-.158935E-01
