 vasp.6.3.2 27Jun22 (build Jun 14 2024 17:29:11) complex                         
 executed on             LinuxGNU date 2026.03.29  20:21:08
 running on   32 total cores
 distrk:  each k-point on   32 cores,    1 groups
 distr:  one band on NCORE=   1 cores,   32 groups


--------------------------------------------------------------------------------------------------------


 INCAR:
   EDIFF = 1e-05
   EDIFFG = -0.05
   ENCUT = 400.0
   IBRION = 2
   ISIF = 3
   ISMEAR = 0
   LCHARG = False
   LREAL = Auto
   LWAVE = False
   NSW = 100
   SIGMA = 0.05

 POTCAR:    PAW_PBE Na_pv 19Sep2006               
 POTCAR:    PAW_PBE Zn 06Sep2000                  
 POTCAR:    PAW_PBE S 06Sep2000                   
 -----------------------------------------------------------------------------
|                                                                             |
|           W    W    AA    RRRRR   N    N  II  N    N   GGGG   !!!           |
|           W    W   A  A   R    R  NN   N  II  NN   N  G    G  !!!           |
|           W    W  A    A  R    R  N N  N  II  N N  N  G       !!!           |
|           W WW W  AAAAAA  RRRRR   N  N N  II  N  N N  G  GGG   !            |
|           WW  WW  A    A  R   R   N   NN  II  N   NN  G    G                |
|           W    W  A    A  R    R  N    N  II  N    N   GGGG   !!!           |
|                                                                             |
|     For optimal performance we recommend to set                             |
|       NCORE = 2 up to number-of-cores-per-socket                            |
|     NCORE specifies how many cores store one orbital (NPAR=cpu/NCORE).      |
|     This setting can greatly improve the performance of VASP for DFT.       |
|     The default, NCORE=1 might be grossly inefficient on modern             |
|     multi-core architectures or massively parallel machines. Do your        |
|     own testing! More info at https://www.vasp.at/wiki/index.php/NCORE      |
|     Unfortunately you need to use the default for GW and RPA                |
|     calculations (for HF NCORE is supported but not extensively tested      |
|     yet).                                                                   |
|                                                                             |
 -----------------------------------------------------------------------------

 POTCAR:    PAW_PBE Na_pv 19Sep2006               
   SHA256 =  6a2f546d9e11350984debacf3dc457d8cffc0868e817d445faca461816a32b94 Na_pv/POTCAR          
   COPYR  = (c) Copyright 19Sep2006 Georg Kresse                                                    
   COPYR  = This file is part of the software VASP. Any use, copying, and all other rights are regul
   COPYR  = If you do not have a valid VASP license, you may not use, copy or distribute this file. 
   VRHFIN =Na: p6s1                                                                                 
   LEXCH  = PE                                                                                      
   EATOM  =   766.0439 eV,   56.3026 Ry                                                             
                                                                                                    
   TITEL  = PAW_PBE Na_pv 19Sep2006                                                                 
   LULTRA =        F    use ultrasoft PP ?                                                          
   IUNSCR =        1    unscreen: 0-lin 1-nonlin 2-no                                               
   RPACOR =    1.800    partial core radius                                                         
   POMASS =   22.990; ZVAL   =    7.000    mass and valenz                                          
   RCORE  =    2.200    outmost cutoff radius                                                       
   RWIGS  =    2.200; RWIGS  =    1.164    wigner-seitz radius (au A)                               
   ENMAX  =  259.561; ENMIN  =  194.671 eV                                                          
   ICORE  =        2    local potential                                                             
   LCOR   =        T    correct aug charges                                                         
   LPAW   =        T    paw PP                                                                      
   EAUG   =  368.056                                                                                
   DEXC   =    0.000                                                                                
   RMAX   =    2.245    core radius for proj-oper                                                   
   RAUG   =    1.300    factor for augmentation sphere                                              
   RDEP   =    2.259    radius for radial grids                                                     
   RDEPT  =    1.738    core radius for aug-charge                                                  
                                                                                                    
   Atomic configuration                                                                             
    5 entries                                                                                       
     n  l   j            E        occ.                                                              
     1  0  0.50     -1033.6933   2.0000                                                             
     2  0  0.50       -56.7526   2.0000                                                             
     2  1  1.50       -28.6721   6.0000                                                             
     3  0  0.50        -2.7440   1.0000                                                             
     3  2  1.50        -1.3606   0.0000                                                             
   Description                                                                                      
     l       E           TYP  RCUT    TYP  RCUT                                                     
     1    -28.6720912     23  2.000                                                                 
     1      6.8029130     23  2.000                                                                 
     0     -2.7439560     23  2.200                                                                 
     0     34.0145650     23  2.200                                                                 
     2     -1.3605826     23  2.200                                                                 
  local pseudopotential read in
  partial core-charges read in
  partial kinetic energy density read in
  atomic valenz-charges read in
  non local Contribution for L=           1  read in
    real space projection operators read in
  non local Contribution for L=           1  read in
    real space projection operators read in
  non local Contribution for L=           0  read in
    real space projection operators read in
  non local Contribution for L=           0  read in
    real space projection operators read in
    PAW grid and wavefunctions read in

   number of l-projection  operators is LMAX  =           4
   number of lm-projection operators is LMMAX =           8

 POTCAR:    PAW_PBE Zn 06Sep2000                  
   SHA256 =  501fddbd8274dd8e9725d4f3de27861d7f1e553a7e18441bc79fed8f346e7f23 Zn/POTCAR             
   COPYR  = (c) Copyright 06Sep2000 Georg Kresse                                                    
   COPYR  = This file is part of the software VASP. Any use, copying, and all other rights are regul
   COPYR  = If you do not have a valid VASP license, you may not use, copy or distribute this file. 
   VRHFIN =Zn: d10 p2                                                                               
   LEXCH  = PE                                                                                      
   EATOM  =  1748.8345 eV,  128.5357 Ry                                                             
                                                                                                    
   TITEL  = PAW_PBE Zn 06Sep2000                                                                    
   LULTRA =        F    use ultrasoft PP ?                                                          
   IUNSCR =        1    unscreen: 0-lin 1-nonlin 2-no                                               
   RPACOR =    2.000    partial core radius                                                         
   POMASS =   65.390; ZVAL   =   12.000    mass and valenz                                          
   RCORE  =    2.300    outmost cutoff radius                                                       
   RWIGS  =    2.400; RWIGS  =    1.270    wigner-seitz radius (au A)                               
   ENMAX  =  276.723; ENMIN  =  207.542 eV                                                          
   RCLOC  =    1.828    cutoff for local pot                                                        
   LCOR   =        T    correct aug charges                                                         
   LPAW   =        T    paw PP                                                                      
   EAUG   =  575.892                                                                                
   DEXC   =    0.000                                                                                
   RMAX   =    2.347    core radius for proj-oper                                                   
   RAUG   =    1.300    factor for augmentation sphere                                              
   RDEP   =    2.324    radius for radial grids                                                     
   RDEPT  =    1.788    core radius for aug-charge                                                  
                                                                                                    
   Atomic configuration                                                                             
    9 entries                                                                                       
     n  l   j            E        occ.                                                              
     1  0  0.50     -9524.6913   2.0000                                                             
     2  0  0.50     -1158.1882   2.0000                                                             
     2  1  1.50     -1003.8506   6.0000                                                             
     3  0  0.50      -129.2194   2.0000                                                             
     3  1  1.50       -83.3890   6.0000                                                             
     3  2  2.50       -10.1410  10.0000                                                             
     4  0  0.50        -5.9785   2.0000                                                             
     4  1  0.50        -4.0817   0.0000                                                             
     4  3  2.50        -1.3606   0.0000                                                             
   Description                                                                                      
     l       E           TYP  RCUT    TYP  RCUT                                                     
     2    -10.1410010     23  2.300                                                                 
     2    -11.5015836     23  2.300                                                                 
     0     -5.9785163     23  2.300                                                                 
     0      1.1858015     23  2.300                                                                 
     1     -2.7211652     23  2.300                                                                 
     1     13.2444212     23  2.300                                                                 
  local pseudopotential read in
  partial core-charges read in
  partial kinetic energy density read in
  atomic valenz-charges read in
  non local Contribution for L=           2  read in
    real space projection operators read in
  non local Contribution for L=           2  read in
    real space projection operators read in
  non local Contribution for L=           0  read in
    real space projection operators read in
  non local Contribution for L=           0  read in
    real space projection operators read in
  non local Contribution for L=           1  read in
    real space projection operators read in
  non local Contribution for L=           1  read in
    real space projection operators read in
    PAW grid and wavefunctions read in

   number of l-projection  operators is LMAX  =           6
   number of lm-projection operators is LMMAX =          18

 POTCAR:    PAW_PBE S 06Sep2000                   
   SHA256 =  0fc7481fb0695f01bdc6462160264c5c84044ae9ec85a907d398b887a2bc3132 S/POTCAR              
   COPYR  = (c) Copyright 06Sep2000 Georg Kresse                                                    
   COPYR  = This file is part of the software VASP. Any use, copying, and all other rights are regul
   COPYR  = If you do not have a valid VASP license, you may not use, copy or distribute this file. 
   VRHFIN =S : s2p4                                                                                 
   LEXCH  = PE                                                                                      
   EATOM  =   276.8230 eV,   20.3459 Ry                                                             
                                                                                                    
   TITEL  = PAW_PBE S 06Sep2000                                                                     
   LULTRA =        F    use ultrasoft PP ?                                                          
   IUNSCR =        1    unscreen: 0-lin 1-nonlin 2-no                                               
   RPACOR =    1.500    partial core radius                                                         
   POMASS =   32.066; ZVAL   =    6.000    mass and valenz                                          
   RCORE  =    1.900    outmost cutoff radius                                                       
   RWIGS  =    2.200; RWIGS  =    1.164    wigner-seitz radius (au A)                               
   ENMAX  =  258.689; ENMIN  =  194.016 eV                                                          
   ICORE  =        2    local potential                                                             
   LCOR   =        T    correct aug charges                                                         
   LPAW   =        T    paw PP                                                                      
   EAUG   =  335.092                                                                                
   DEXC   =    0.000                                                                                
   RMAX   =    1.942    core radius for proj-oper                                                   
   RAUG   =    1.300    factor for augmentation sphere                                              
   RDEP   =    1.954    radius for radial grids                                                     
   RDEPT  =    1.744    core radius for aug-charge                                                  
                                                                                                    
   Atomic configuration                                                                             
    6 entries                                                                                       
     n  l   j            E        occ.                                                              
     1  0  0.50     -2405.8406   2.0000                                                             
     2  0  0.50      -211.7007   2.0000                                                             
     2  1  1.50      -156.4958   6.0000                                                             
     3  0  0.50       -17.2562   2.0000                                                             
     3  1  0.50        -7.0085   4.0000                                                             
     3  2  1.50        -6.8029   0.0000                                                             
   Description                                                                                      
     l       E           TYP  RCUT    TYP  RCUT                                                     
     0    -17.2561641     23  1.900                                                                 
     0    -15.8743224     23  1.900                                                                 
     1     -7.0085400     23  1.900                                                                 
     1     -2.7779785     23  1.900                                                                 
     2     -6.8029130     23  1.900                                                                 
  local pseudopotential read in
  partial core-charges read in
  partial kinetic energy density read in
  atomic valenz-charges read in
  non local Contribution for L=           0  read in
    real space projection operators read in
  non local Contribution for L=           0  read in
    real space projection operators read in
  non local Contribution for L=           1  read in
    real space projection operators read in
  non local Contribution for L=           1  read in
    real space projection operators read in
    PAW grid and wavefunctions read in

   number of l-projection  operators is LMAX  =           4
   number of lm-projection operators is LMMAX =           8

 Optimization of the real space projectors (new method)

 maximal supplied QI-value         = 17.01
 optimisation between [QCUT,QGAM] = [ 10.20, 20.41] = [ 29.16,116.64] Ry 
 Optimized for a Real-space Cutoff    1.30 Angstroem

   l    n(q)    QCUT    max X(q) W(low)/X(q) W(high)/X(q)  e(spline) 
   1      7    10.205     4.940    0.23E-03    0.84E-03    0.11E-06
   1      7    10.205     6.253    0.40E-03    0.13E-02    0.18E-06
   0      8    10.205    37.438    0.23E-03    0.37E-03    0.42E-07
   0      8    10.205     9.606    0.16E-03    0.26E-03    0.31E-07
 Optimization of the real space projectors (new method)

 maximal supplied QI-value         = 16.25
 optimisation between [QCUT,QGAM] = [ 10.24, 20.48] = [ 29.35,117.42] Ry 
 Optimized for a Real-space Cutoff    1.38 Angstroem

   l    n(q)    QCUT    max X(q) W(low)/X(q) W(high)/X(q)  e(spline) 
   2      7    10.239    46.356    0.21E-03    0.48E-03    0.10E-06
   2      7    10.239    41.843    0.21E-03    0.50E-03    0.10E-06
   0      8    10.239    48.958    0.37E-03    0.79E-04    0.11E-06
   0      8    10.239    32.776    0.35E-03    0.73E-04    0.10E-06
   1      8    10.239    17.787    0.49E-03    0.70E-03    0.14E-06
   1      8    10.239    14.435    0.42E-03    0.61E-03    0.13E-06
 Optimization of the real space projectors (new method)

 maximal supplied QI-value         = 19.84
 optimisation between [QCUT,QGAM] = [ 10.12, 20.44] = [ 28.68,116.96] Ry 
 Optimized for a Real-space Cutoff    1.23 Angstroem

   l    n(q)    QCUT    max X(q) W(low)/X(q) W(high)/X(q)  e(spline) 
   0      7    10.119   187.594    0.62E-04    0.28E-03    0.52E-07
   0      7    10.119   164.243    0.61E-04    0.28E-03    0.52E-07
   1      7    10.119    67.533    0.45E-03    0.63E-03    0.13E-06
   1      7    10.119    50.729    0.44E-03    0.62E-03    0.12E-06
  PAW_PBE Na_pv 19Sep2006               :
 energy of atom  1       EATOM= -766.0439
 kinetic energy error for atom=    0.0103 (will be added to EATOM!!)
  PAW_PBE Zn 06Sep2000                  :
 energy of atom  2       EATOM=-1748.8345
 kinetic energy error for atom=    0.0107 (will be added to EATOM!!)
  PAW_PBE S 06Sep2000                   :
 energy of atom  3       EATOM= -276.8230
 kinetic energy error for atom=    0.0046 (will be added to EATOM!!)


 POSCAR: Na8 Zn8 S12
  positions in direct lattice
  No initial velocities read in
 exchange correlation table for  LEXCH =        8
   RHO(1)=    0.500       N(1)  =     2000
   RHO(2)=  100.500       N(2)  =     4000



--------------------------------------------------------------------------------------------------------


 ion  position               nearest neighbor table
   1  0.965  0.245  0.397-  25 2.76
   2  0.035  0.755  0.897-  26 2.76
   3  0.745  0.535  0.647-  27 2.76
   4  0.255  0.465  0.147-  28 2.76
   5  0.755  0.035  0.103-  25 2.76
   6  0.245  0.965  0.603-  26 2.76
   7  0.535  0.745  0.353-  27 2.76
   8  0.465  0.255  0.853-  28 2.76
   9  0.237  0.952  0.135-  28 2.32  20 2.36  18 2.38  23 2.49
  10  0.763  0.048  0.635-  27 2.32  19 2.36  17 2.38  24 2.49
  11  0.452  0.263  0.385-  25 2.32  17 2.36  20 2.38  22 2.49
  12  0.548  0.737  0.885-  26 2.32  18 2.36  19 2.38  21 2.49
  13  0.048  0.763  0.365-  27 2.32  23 2.36  22 2.38  20 2.49
  14  0.952  0.237  0.865-  28 2.32  24 2.36  21 2.38  19 2.49
  15  0.263  0.452  0.615-  26 2.32  22 2.36  24 2.38  17 2.49
  16  0.737  0.548  0.115-  25 2.32  21 2.36  23 2.38  18 2.49
  17  0.518  0.240  0.589-  11 2.36  10 2.38  15 2.49
  18  0.482  0.760  0.089-  12 2.36   9 2.38  16 2.49
  19  0.740  0.982  0.839-  10 2.36  12 2.38  14 2.49
  20  0.260  0.018  0.339-   9 2.36  11 2.38  13 2.49
  21  0.760  0.482  0.911-  16 2.36  14 2.38  12 2.49
  22  0.240  0.518  0.411-  15 2.36  13 2.38  11 2.49
  23  0.982  0.740  0.161-  13 2.36  16 2.38   9 2.49
  24  0.018  0.260  0.661-  14 2.36  15 2.38  10 2.49
  25  0.679  0.321  0.250-  11 2.32  16 2.32   1 2.76   5 2.76
  26  0.321  0.679  0.750-  12 2.32  15 2.32   2 2.76   6 2.76
  27  0.821  0.821  0.500-  13 2.32  10 2.32   3 2.76   7 2.76
  28  0.179  0.179  0.000-   9 2.32  14 2.32   4 2.76   8 2.76

  LATTYP: Found a simple tetragonal cell.
 ALAT       =     7.4573780000
 C/A-ratio  =     1.5116921792
  
  Lattice vectors:
  
 A1 = (   7.4573780000,   0.0000000000,   0.0000000000)
 A2 = (  -0.0000000000,   7.4573780000,   0.0000000000)
 A3 = (   0.0000000000,   0.0000000000,  11.2732600000)


Analysis of symmetry for initial positions (statically):
=====================================================================
 Subroutine PRICEL returns:
 Original cell was already a primitive cell.
 

 Routine SETGRP: Setting up the symmetry group for a 
 simple tetragonal supercell.


 Subroutine GETGRP returns: Found  8 space group operations
 (whereof  2 operations were pure point group operations)
 out of a pool of 16 trial point group operations.


The static configuration has the point symmetry C_2 .
 The point group associated with its full space group is D_4 .


Analysis of symmetry for dynamics (positions and initial velocities):
=====================================================================
 Subroutine PRICEL returns:
 Original cell was already a primitive cell.
 

 Routine SETGRP: Setting up the symmetry group for a 
 simple tetragonal supercell.


 Subroutine GETGRP returns: Found  8 space group operations
 (whereof  2 operations were pure point group operations)
 out of a pool of 16 trial point group operations.


The dynamic configuration has the point symmetry C_2 .
 The point group associated with its full space group is D_4 .


 Subroutine INISYM returns: Found  8 space group operations
 (whereof  2 operations are pure point group operations),
 and found     1 'primitive' translations


----------------------------------------------------------------------------------------

                                     Primitive cell                                     

  volume of cell :     626.9340

  direct lattice vectors                    reciprocal lattice vectors
     7.457378000  0.000000000  0.000000000     0.134095388  0.000000000 -0.000000000
    -0.000000000  7.457378000  0.000000000     0.000000000  0.134095388  0.000000000
     0.000000000  0.000000000 11.273260000    -0.000000000 -0.000000000  0.088705485

  length of vectors
     7.457378000  7.457378000 11.273260000     0.134095388  0.134095388  0.088705485

  position of ions in fractional coordinates (direct lattice)
     0.965234000  0.244659000  0.396599000
     0.034766000  0.755341000  0.896599000
     0.744659000  0.534766000  0.646599000
     0.255341000  0.465234000  0.146599000
     0.755341000  0.034766000  0.103401000
     0.244659000  0.965234000  0.603401000
     0.534766000  0.744659000  0.353401000
     0.465234000  0.255341000  0.853401000
     0.237218000  0.951789000  0.134948000
     0.762782000  0.048211000  0.634948000
     0.451789000  0.262782000  0.384948000
     0.548211000  0.737218000  0.884948000
     0.048211000  0.762782000  0.365052000
     0.951789000  0.237218000  0.865052000
     0.262782000  0.451789000  0.615052000
     0.737218000  0.548211000  0.115052000
     0.518148000  0.240053000  0.588873000
     0.481852000  0.759947000  0.088873000
     0.740053000  0.981852000  0.838873000
     0.259947000  0.018148000  0.338873000
     0.759947000  0.481852000  0.911127000
     0.240053000  0.518148000  0.411127000
     0.981852000  0.740053000  0.161127000
     0.018148000  0.259947000  0.661127000
     0.678533000  0.321467000  0.250000000
     0.321467000  0.678533000  0.750000000
     0.821467000  0.821467000  0.500000000
     0.178533000  0.178533000  0.000000000

  ion indices of the primitive-cell ions
   primitive index   ion index
                 1           1
                 2           2
                 3           3
                 4           4
                 5           5
                 6           6
                 7           7
                 8           8
                 9           9
                10          10
                11          11
                12          12
                13          13
                14          14
                15          15
                16          16
                17          17
                18          18
                19          19
                20          20
                21          21
                22          22
                23          23
                24          24
                25          25
                26          26
                27          27
                28          28

----------------------------------------------------------------------------------------



 KPOINTS: pymatgen with grid density = 500 / numbe

Automatic generation of k-mesh.
 Grid dimensions read from file:
 generate k-points for:    2    2    1

 Generating k-lattice:

  Cartesian coordinates                     Fractional coordinates (reciprocal lattice)
     0.067047694  0.000000000 -0.000000000     0.500000000  0.000000000  0.000000000
     0.000000000  0.067047694  0.000000000     0.000000000  0.500000000  0.000000000
    -0.000000000 -0.000000000  0.088705485     0.000000000  0.000000000  1.000000000

  Length of vectors
     0.067047694  0.067047694  0.088705485

  Shift w.r.t. Gamma in fractional coordinates (k-lattice)
     0.000000000  0.000000000  0.000000000

 
 Subroutine IBZKPT returns following result:
 ===========================================
 
 Found      3 irreducible k-points:
 
 Following reciprocal coordinates:
            Coordinates               Weight
  0.000000  0.000000  0.000000      1.000000
  0.500000  0.000000  0.000000      2.000000
  0.500000  0.500000  0.000000      1.000000
 
 Following cartesian coordinates:
            Coordinates               Weight
  0.000000  0.000000  0.000000      1.000000
  0.067048  0.000000  0.000000      2.000000
  0.067048  0.067048  0.000000      1.000000
 


--------------------------------------------------------------------------------------------------------




 Dimension of arrays:
   k-points           NKPTS =      3   k-points in BZ     NKDIM =      3   number of bands    NBANDS=    160
   number of dos      NEDOS =    301   number of ions     NIONS =     28
   non local maximal  LDIM  =      6   non local SUM 2l+1 LMDIM =     18
   total plane-waves  NPLWV =  72576
   max r-space proj   IRMAX =   1325   max aug-charges    IRDMAX=   3846
   dimension x,y,z NGX =    36 NGY =   36 NGZ =   56
   dimension x,y,z NGXF=    72 NGYF=   72 NGZF=  112
   support grid    NGXF=    72 NGYF=   72 NGZF=  112
   ions per type =               8   8  12
   NGX,Y,Z   is equivalent  to a cutoff of   8.03,  8.03,  8.26 a.u.
   NGXF,Y,Z  is equivalent  to a cutoff of  16.05, 16.05, 16.52 a.u.

 SYSTEM =  unknown system                          
 POSCAR =  Na8 Zn8 S12                             

 Startparameter for this run:
   NWRITE =      2    write-flag & timer
   PREC   = normal    normal or accurate (medium, high low for compatibility)
   ISTART =      0    job   : 0-new  1-cont  2-samecut
   ICHARG =      2    charge: 1-file 2-atom 10-const
   ISPIN  =      1    spin polarized calculation?
   LNONCOLLINEAR =      F non collinear calculations
   LSORBIT =      F    spin-orbit coupling
   INIWAV =      1    electr: 0-lowe 1-rand  2-diag
   LASPH  =      F    aspherical Exc in radial PAW
 Electronic Relaxation 1
   ENCUT  =  400.0 eV  29.40 Ry    5.42 a.u.  12.16 12.16 18.38*2*pi/ulx,y,z
   ENINI  =  400.0     initial cutoff
   ENAUG  =  575.9 eV  augmentation charge cutoff
   NELM   =     60;   NELMIN=  2; NELMDL= -5     # of ELM steps 
   EDIFF  = 0.1E-04   stopping-criterion for ELM
   LREAL  =      T    real-space projection
   NLSPLINE    = F    spline interpolate recip. space projectors
   LCOMPAT=      F    compatible to vasp.4.4
   GGA_COMPAT  = T    GGA compatible to vasp.4.4-vasp.4.6
   LMAXPAW     = -100 max onsite density
   LMAXMIX     =    2 max onsite mixed and CHGCAR
   VOSKOWN=      0    Vosko Wilk Nusair interpolation
   ROPT   =   -0.00050  -0.00050  -0.00050
 Ionic relaxation
   EDIFFG = -.5E-01   stopping-criterion for IOM
   NSW    =    100    number of steps for IOM
   NBLOCK =      1;   KBLOCK =    100    inner block; outer block 
   IBRION =      2    ionic relax: 0-MD 1-quasi-New 2-CG
   NFREE  =      1    steps in history (QN), initial steepest desc. (CG)
   ISIF   =      3    stress and relaxation
   IWAVPR =     11    prediction:  0-non 1-charg 2-wave 3-comb
   ISYM   =      2    0-nonsym 1-usesym 2-fastsym
   LCORR  =      T    Harris-Foulkes like correction to forces

   POTIM  = 0.5000    time-step for ionic-motion
   TEIN   =    0.0    initial temperature
   TEBEG  =    0.0;   TEEND  =   0.0 temperature during run
   SMASS  =  -3.00    Nose mass-parameter (am)
   estimated Nose-frequenzy (Omega)   =  0.10E-29 period in steps = 0.13E+47 mass=  -0.127E-26a.u.
   SCALEE = 1.0000    scale energy and forces
   NPACO  =    256;   APACO  = 10.0  distance and # of slots for P.C.
   PSTRESS=    0.0 pullay stress

  Mass of Ions in am
   POMASS =  22.99 65.39 32.07
  Ionic Valenz
   ZVAL   =   7.00 12.00  6.00
  Atomic Wigner-Seitz radii
   RWIGS  =  -1.00 -1.00 -1.00
  virtual crystal weights 
   VCA    =   1.00  1.00  1.00
   NELECT =     224.0000    total number of electrons
   NUPDOWN=      -1.0000    fix difference up-down

 DOS related values:
   EMIN   =  10.00;   EMAX   =-10.00  energy-range for DOS
   EFERMI =   0.00
   ISMEAR =     0;   SIGMA  =   0.05  broadening in eV -4-tet -1-fermi 0-gaus

 Electronic relaxation 2 (details)
   IALGO  =     38    algorithm
   LDIAG  =      T    sub-space diagonalisation (order eigenvalues)
   LSUBROT=      F    optimize rotation matrix (better conditioning)
   TURBO    =      0    0=normal 1=particle mesh
   IRESTART =      0    0=no restart 2=restart with 2 vectors
   NREBOOT  =      0    no. of reboots
   NMIN     =      0    reboot dimension
   EREF     =   0.00    reference energy to select bands
   IMIX   =      4    mixing-type and parameters
     AMIX     =   0.40;   BMIX     =  1.00
     AMIX_MAG =   1.60;   BMIX_MAG =  1.00
     AMIN     =   0.10
     WC   =   100.;   INIMIX=   1;  MIXPRE=   1;  MAXMIX= -45

 Intra band minimization:
   WEIMIN = 0.0010     energy-eigenvalue tresh-hold
   EBREAK =  0.16E-07  absolut break condition
   DEPER  =   0.30     relativ break condition  

   TIME   =   0.40     timestep for ELM

  volume/ion in A,a.u.               =      22.39       151.10
  Fermi-wavevector in a.u.,A,eV,Ry     =   1.161672  2.195242 18.360818  1.349482
  Thomas-Fermi vector in A             =   2.298242

 Write flags
   LWAVE        =      F    write WAVECAR
   LDOWNSAMPLE  =      F    k-point downsampling of WAVECAR
   LCHARG       =      F    write CHGCAR
   LVTOT        =      F    write LOCPOT, total local potential
   LVHAR        =      F    write LOCPOT, Hartree potential only
   LELF         =      F    write electronic localiz. function (ELF)
   LORBIT       =      0    0 simple, 1 ext, 2 COOP (PROOUT), +10 PAW based schemes


 Dipole corrections
   LMONO  =      F    monopole corrections only (constant potential shift)
   LDIPOL =      F    correct potential (dipole corrections)
   IDIPOL =      0    1-x, 2-y, 3-z, 4-all directions 
   EPSILON=  1.0000000 bulk dielectric constant

 Exchange correlation treatment:
   GGA     =    --    GGA type
   LEXCH   =     8    internal setting for exchange type
   LIBXC   =     F    Libxc                    
   VOSKOWN =     0    Vosko Wilk Nusair interpolation
   LHFCALC =     F    Hartree Fock is set to
   LHFONE  =     F    Hartree Fock one center treatment
   AEXX    =    0.0000 exact exchange contribution

 Linear response parameters
   LEPSILON=     F    determine dielectric tensor
   LRPA    =     F    only Hartree local field effects (RPA)
   LNABLA  =     F    use nabla operator in PAW spheres
   LVEL    =     F    velocity operator in full k-point grid
   CSHIFT  =0.1000    complex shift for real part using Kramers Kronig
   OMEGAMAX=  -1.0    maximum frequency
   DEG_THRESHOLD= 0.2000000E-02 threshold for treating states as degnerate
   RTIME   =   -0.100 relaxation time in fs
  (WPLASMAI=    0.000 imaginary part of plasma frequency in eV, 0.658/RTIME)
   DFIELD  = 0.0000000 0.0000000 0.0000000 field for delta impulse in time

  Optional k-point grid parameters
   LKPOINTS_OPT  =     F    use optional k-point grid
   KPOINTS_OPT_MODE=     1    mode for optional k-point grid

 Orbital magnetization related:
   ORBITALMAG=     F  switch on orbital magnetization
   LCHIMAG   =     F  perturbation theory with respect to B field
   DQ        =  0.001000  dq finite difference perturbation B field
   LLRAUG    =     F  two centre corrections for induced B field



--------------------------------------------------------------------------------------------------------


 conjugate gradient relaxation of ions
 charge density and potential will be updated during run
 non-spin polarized calculation
 Variant of blocked Davidson
 Davidson routine will perform the subspace rotation
 perform sub-space diagonalisation
    after iterative eigenvector-optimisation
 modified Broyden-mixing scheme, WC =      100.0
 initial mixing is a Kerker type mixing with AMIX =  0.4000 and BMIX =      1.0000
 Hartree-type preconditioning will be used
 using additional bands           48
 real space projection scheme for non local part
 use partial core corrections
 calculate Harris-corrections to forces   (improved forces if not selfconsistent)
 use gradient corrections 
 use of overlap-Matrix (Vanderbilt PP)
 Gauss-broadening in eV      SIGMA  =   0.05


--------------------------------------------------------------------------------------------------------


  energy-cutoff  :      400.00
  volume of cell :      626.93
      direct lattice vectors                 reciprocal lattice vectors
     7.457378000  0.000000000  0.000000000     0.134095388  0.000000000 -0.000000000
    -0.000000000  7.457378000  0.000000000     0.000000000  0.134095388  0.000000000
     0.000000000  0.000000000 11.273260000    -0.000000000 -0.000000000  0.088705485

  length of vectors
     7.457378000  7.457378000 11.273260000     0.134095388  0.134095388  0.088705485



 k-points in units of 2pi/SCALE and weight: pymatgen with grid density = 500 / numbe
   0.00000000  0.00000000  0.00000000       0.250
   0.06704769  0.00000000  0.00000000       0.500
   0.06704769  0.06704769  0.00000000       0.250

 k-points in reciprocal lattice and weights: pymatgen with grid density = 500 / numbe
   0.00000000  0.00000000  0.00000000       0.250
   0.50000000  0.00000000  0.00000000       0.500
   0.50000000  0.50000000  0.00000000       0.250

 position of ions in fractional coordinates (direct lattice) 
   0.96523400  0.24465900  0.39659900
   0.03476600  0.75534100  0.89659900
   0.74465900  0.53476600  0.64659900
   0.25534100  0.46523400  0.14659900
   0.75534100  0.03476600  0.10340100
   0.24465900  0.96523400  0.60340100
   0.53476600  0.74465900  0.35340100
   0.46523400  0.25534100  0.85340100
   0.23721800  0.95178900  0.13494800
   0.76278200  0.04821100  0.63494800
   0.45178900  0.26278200  0.38494800
   0.54821100  0.73721800  0.88494800
   0.04821100  0.76278200  0.36505200
   0.95178900  0.23721800  0.86505200
   0.26278200  0.45178900  0.61505200
   0.73721800  0.54821100  0.11505200
   0.51814800  0.24005300  0.58887300
   0.48185200  0.75994700  0.08887300
   0.74005300  0.98185200  0.83887300
   0.25994700  0.01814800  0.33887300
   0.75994700  0.48185200  0.91112700
   0.24005300  0.51814800  0.41112700
   0.98185200  0.74005300  0.16112700
   0.01814800  0.25994700  0.66112700
   0.67853300  0.32146700  0.25000000
   0.32146700  0.67853300  0.75000000
   0.82146700  0.82146700  0.50000000
   0.17853300  0.17853300  0.00000000

 position of ions in cartesian coordinates  (Angst):
   7.19811480  1.82451464  4.47096364
   0.25926320  5.63286336 10.10759364
   5.55320364  3.98795220  7.28927864
   1.90417436  3.46942580  1.65264864
   5.63286336  0.25926320  1.16566636
   1.82451464  7.19811480  6.80229636
   3.98795220  5.55320364  3.98398136
   3.46942580  1.90417436  9.62061136
   1.76902429  7.09785035  1.52130389
   5.68835371  0.35952765  7.15793389
   3.36916135  1.95966471  4.33961889
   4.08821665  5.49771329  9.97624889
   0.35952765  5.68835371  4.11532611
   7.09785035  1.76902429  9.75195611
   1.95966471  3.36916135  6.93364111
   5.49771329  4.08821665  1.29701111
   3.86402550  1.79016596  6.63851844
   3.59335250  5.66721204  1.00188844
   5.51885496  7.32204150  9.45683344
   1.93852304  0.13533650  3.82020344
   5.66721204  3.59335250 10.27137156
   1.79016596  3.86402550  4.63474156
   7.32204150  5.51885496  1.81642656
   0.13533650  1.93852304  7.45305656
   5.06007707  2.39730093  2.81831500
   2.39730093  5.06007707  8.45494500
   6.12598993  6.12598993  5.63663000
   1.33138807  1.33138807  0.00000000



--------------------------------------------------------------------------------------------------------


 k-point   1 :   0.0000 0.0000 0.0000  plane waves:   11341
 k-point   2 :   0.5000 0.0000 0.0000  plane waves:   11392
 k-point   3 :   0.5000 0.5000 0.0000  plane waves:   11380

 maximum and minimum number of plane-waves per node :     11392    11341

 maximum number of plane-waves:     11392
 maximum index in each direction: 
   IXMAX=   12   IYMAX=   12   IZMAX=   18
   IXMIN=  -12   IYMIN=  -12   IZMIN=  -18


 serial   3D FFT for wavefunctions
 parallel 3D FFT for charge:
    minimum data exchange during FFTs selected (reduces bandwidth)


 total amount of memory used by VASP MPI-rank0    42326. kBytes
=======================================================================

   base      :      30000. kBytes
   nonlr-proj:       3499. kBytes
   fftplans  :       1090. kBytes
   grid      :       4492. kBytes
   one-center:        435. kBytes
   wavefun   :       2810. kBytes

     INWAV:  cpu time      0.0000: real time      0.0002
 Broyden mixing: mesh for mixing (old mesh)
   NGX = 25   NGY = 25   NGZ = 37
  (NGX  = 72   NGY  = 72   NGZ  =112)
  gives a total of  23125 points

 initial charge density was supplied:
 charge density of overlapping atoms calculated
 number of electron     224.0000000 magnetization 
 keeping initial charge density in first step


--------------------------------------------------------------------------------------------------------


 Maximum index for non-local projection operator         1243
 Maximum index for augmentation-charges          444 (set IRDMAX)


--------------------------------------------------------------------------------------------------------


 First call to EWALD:  gamma=   0.207
 Maximum number of real-space cells 3x 3x 2
 Maximum number of reciprocal cells 2x 2x 3

    FEWALD:  cpu time      0.0009: real time      0.0009


--------------------------------------- Iteration      1(   1)  ---------------------------------------


    POTLOK:  cpu time      0.0194: real time      0.0197
    SETDIJ:  cpu time      0.0027: real time      0.0031
     EDDAV:  cpu time      0.5836: real time      0.5843
       DOS:  cpu time      0.0006: real time      0.0008
    --------------------------------------------
      LOOP:  cpu time      0.6062: real time      0.6079

 eigenvalue-minimisations  :   960
 total energy-change (2. order) : 0.1775548E+04  (-0.9047748E+04)
 number of electron     224.0000000 magnetization 
 augmentation part      224.0000000 magnetization 

 Free energy of the ion-electron system (eV)
  ---------------------------------------------------
  alpha Z        PSCENC =       609.37684059
  Ewald energy   TEWEN  =    -12801.45978470
  -Hartree energ DENC   =     -8366.57083970
  -exchange      EXHF   =         0.00000000
  -V(xc)+E(xc)   XCENC  =       799.30898473
  PAW double counting   =     18270.42566790   -20361.24559635
  entropy T*S    EENTRO =        -0.00120276
  eigenvalues    EBANDS =       185.03474404
  atomic energy  EATOM  =     23440.67963582
  Solvation  Ediel_sol  =         0.00000000
  ---------------------------------------------------
  free energy    TOTEN  =      1775.54844957 eV

  energy without entropy =     1775.54965233  energy(sigma->0) =     1775.54905095


--------------------------------------------------------------------------------------------------------




--------------------------------------- Iteration      1(   2)  ---------------------------------------


     EDDAV:  cpu time      0.5939: real time      0.5949
       DOS:  cpu time      0.0002: real time      0.0004
    --------------------------------------------
      LOOP:  cpu time      0.5942: real time      0.5953

 eigenvalue-minimisations  :   960
 total energy-change (2. order) :-0.1658018E+04  (-0.1587540E+04)
 number of electron     224.0000000 magnetization 
 augmentation part      224.0000000 magnetization 

 Free energy of the ion-electron system (eV)
  ---------------------------------------------------
  alpha Z        PSCENC =       609.37684059
  Ewald energy   TEWEN  =    -12801.45978470
  -Hartree energ DENC   =     -8366.57083970
  -exchange      EXHF   =         0.00000000
  -V(xc)+E(xc)   XCENC  =       799.30898473
  PAW double counting   =     18270.42566790   -20361.24559635
  entropy T*S    EENTRO =        -0.00000000
  eigenvalues    EBANDS =     -1472.98455911
  atomic energy  EATOM  =     23440.67963582
  Solvation  Ediel_sol  =         0.00000000
  ---------------------------------------------------
  free energy    TOTEN  =       117.53034918 eV

  energy without entropy =      117.53034918  energy(sigma->0) =      117.53034918


--------------------------------------------------------------------------------------------------------




--------------------------------------- Iteration      1(   3)  ---------------------------------------


     EDDAV:  cpu time      0.7335: real time      0.7347
       DOS:  cpu time      0.0002: real time      0.0003
    --------------------------------------------
      LOOP:  cpu time      0.7337: real time      0.7350

 eigenvalue-minimisations  :  1152
 total energy-change (2. order) :-0.2100210E+03  (-0.2072252E+03)
 number of electron     224.0000000 magnetization 
 augmentation part      224.0000000 magnetization 

 Free energy of the ion-electron system (eV)
  ---------------------------------------------------
  alpha Z        PSCENC =       609.37684059
  Ewald energy   TEWEN  =    -12801.45978470
  -Hartree energ DENC   =     -8366.57083970
  -exchange      EXHF   =         0.00000000
  -V(xc)+E(xc)   XCENC  =       799.30898473
  PAW double counting   =     18270.42566790   -20361.24559635
  entropy T*S    EENTRO =        -0.00000000
  eigenvalues    EBANDS =     -1683.00559334
  atomic energy  EATOM  =     23440.67963582
  Solvation  Ediel_sol  =         0.00000000
  ---------------------------------------------------
  free energy    TOTEN  =       -92.49068505 eV

  energy without entropy =      -92.49068505  energy(sigma->0) =      -92.49068505


--------------------------------------------------------------------------------------------------------




--------------------------------------- Iteration      1(   4)  ---------------------------------------


     EDDAV:  cpu time      0.7351: real time      0.7360
       DOS:  cpu time      0.0002: real time      0.0003
    --------------------------------------------
      LOOP:  cpu time      0.7353: real time      0.7363

 eigenvalue-minimisations  :  1152
 total energy-change (2. order) :-0.8370655E+01  (-0.8344632E+01)
 number of electron     224.0000000 magnetization 
 augmentation part      224.0000000 magnetization 

 Free energy of the ion-electron system (eV)
  ---------------------------------------------------
  alpha Z        PSCENC =       609.37684059
  Ewald energy   TEWEN  =    -12801.45978470
  -Hartree energ DENC   =     -8366.57083970
  -exchange      EXHF   =         0.00000000
  -V(xc)+E(xc)   XCENC  =       799.30898473
  PAW double counting   =     18270.42566790   -20361.24559635
  entropy T*S    EENTRO =        -0.00000000
  eigenvalues    EBANDS =     -1691.37624851
  atomic energy  EATOM  =     23440.67963582
  Solvation  Ediel_sol  =         0.00000000
  ---------------------------------------------------
  free energy    TOTEN  =      -100.86134022 eV

  energy without entropy =     -100.86134022  energy(sigma->0) =     -100.86134022


--------------------------------------------------------------------------------------------------------




--------------------------------------- Iteration      1(   5)  ---------------------------------------


     EDDAV:  cpu time      0.7824: real time      0.7837
       DOS:  cpu time      0.0002: real time      0.0004
    CHARGE:  cpu time      0.0259: real time      0.0262
    MIXING:  cpu time      0.0010: real time      0.0011
    --------------------------------------------
      LOOP:  cpu time      0.8095: real time      0.8113

 eigenvalue-minimisations  :  1216
 total energy-change (2. order) :-0.2134731E+00  (-0.2134411E+00)
 number of electron     223.9999736 magnetization 
 augmentation part       89.2362496 magnetization 

 Broyden mixing:
  rms(total) = 0.19680E+01    rms(broyden)= 0.19680E+01
  rms(prec ) = 0.23049E+01
  weight for this iteration     100.00

 Free energy of the ion-electron system (eV)
  ---------------------------------------------------
  alpha Z        PSCENC =       609.37684059
  Ewald energy   TEWEN  =    -12801.45978470
  -Hartree energ DENC   =     -8366.57083970
  -exchange      EXHF   =         0.00000000
  -V(xc)+E(xc)   XCENC  =       799.30898473
  PAW double counting   =     18270.42566790   -20361.24559635
  entropy T*S    EENTRO =        -0.00000000
  eigenvalues    EBANDS =     -1691.58972164
  atomic energy  EATOM  =     23440.67963582
  Solvation  Ediel_sol  =         0.00000000
  ---------------------------------------------------
  free energy    TOTEN  =      -101.07481336 eV

  energy without entropy =     -101.07481336  energy(sigma->0) =     -101.07481336


--------------------------------------------------------------------------------------------------------




--------------------------------------- Iteration      1(   6)  ---------------------------------------


    POTLOK:  cpu time      0.0148: real time      0.0150
    SETDIJ:  cpu time      0.0022: real time      0.0022
     EDDAV:  cpu time      0.9937: real time      0.9949
       DOS:  cpu time      0.0003: real time      0.0005
    CHARGE:  cpu time      0.0249: real time      0.0249
    MIXING:  cpu time      0.0008: real time      0.0008
    --------------------------------------------
      LOOP:  cpu time      1.0366: real time      1.0383

 eigenvalue-minimisations  :  1536
 total energy-change (2. order) : 0.7154112E+01  (-0.1310357E+01)
 number of electron     223.9999733 magnetization 
 augmentation part       90.4538416 magnetization 

 Broyden mixing:
  rms(total) = 0.16220E+01    rms(broyden)= 0.16220E+01
  rms(prec ) = 0.16786E+01
  weight for this iteration     100.00

 eigenvalues of (default mixing * dielectric matrix)
  average eigenvalue GAMMA=   1.4150
  1.4150

 Free energy of the ion-electron system (eV)
  ---------------------------------------------------
  alpha Z        PSCENC =       609.37684059
  Ewald energy   TEWEN  =    -12801.45978470
  -Hartree energ DENC   =     -8309.32865331
  -exchange      EXHF   =         0.00000000
  -V(xc)+E(xc)   XCENC  =       801.03643726
  PAW double counting   =     19430.39332429   -21496.06441794
  entropy T*S    EENTRO =        -0.00000000
  eigenvalues    EBANDS =     -1768.55408307
  atomic energy  EATOM  =     23440.67963582
  Solvation  Ediel_sol  =         0.00000000
  ---------------------------------------------------
  free energy    TOTEN  =       -93.92070106 eV

  energy without entropy =      -93.92070106  energy(sigma->0) =      -93.92070106


--------------------------------------------------------------------------------------------------------




--------------------------------------- Iteration      1(   7)  ---------------------------------------


    POTLOK:  cpu time      0.0145: real time      0.0147
    SETDIJ:  cpu time      0.0022: real time      0.0022
     EDDAV:  cpu time      0.7348: real time      0.7377
       DOS:  cpu time      0.0002: real time      0.0004
    CHARGE:  cpu time      0.0249: real time      0.0249
    MIXING:  cpu time      0.0006: real time      0.0006
    --------------------------------------------
      LOOP:  cpu time      0.7773: real time      0.7806

 eigenvalue-minimisations  :  1152
 total energy-change (2. order) : 0.3574776E-01  (-0.9595418E+00)
 number of electron     223.9999732 magnetization 
 augmentation part       90.5163691 magnetization 

 Broyden mixing:
  rms(total) = 0.88262E+00    rms(broyden)= 0.88262E+00
  rms(prec ) = 0.89897E+00
  weight for this iteration     100.00

 eigenvalues of (default mixing * dielectric matrix)
  average eigenvalue GAMMA=   1.6201
  1.1082  2.1320

 Free energy of the ion-electron system (eV)
  ---------------------------------------------------
  alpha Z        PSCENC =       609.37684059
  Ewald energy   TEWEN  =    -12801.45978470
  -Hartree energ DENC   =     -8322.50327149
  -exchange      EXHF   =         0.00000000
  -V(xc)+E(xc)   XCENC  =       804.06047990
  PAW double counting   =     21128.77026008   -23215.80384179
  entropy T*S    EENTRO =        -0.00000000
  eigenvalues    EBANDS =     -1737.00527170
  atomic energy  EATOM  =     23440.67963582
  Solvation  Ediel_sol  =         0.00000000
  ---------------------------------------------------
  free energy    TOTEN  =       -93.88495330 eV

  energy without entropy =      -93.88495330  energy(sigma->0) =      -93.88495330


--------------------------------------------------------------------------------------------------------




--------------------------------------- Iteration      1(   8)  ---------------------------------------


    POTLOK:  cpu time      0.0146: real time      0.0148
    SETDIJ:  cpu time      0.0021: real time      0.0021
     EDDAV:  cpu time      0.7523: real time      0.7529
       DOS:  cpu time      0.0002: real time      0.0004
    CHARGE:  cpu time      0.0249: real time      0.0249
    MIXING:  cpu time      0.0006: real time      0.0006
    --------------------------------------------
      LOOP:  cpu time      0.7947: real time      0.7958

 eigenvalue-minimisations  :  1184
 total energy-change (2. order) :-0.1145605E-01  (-0.3465234E-01)
 number of electron     223.9999733 magnetization 
 augmentation part       90.4005063 magnetization 

 Broyden mixing:
  rms(total) = 0.21132E+00    rms(broyden)= 0.21132E+00
  rms(prec ) = 0.22261E+00
  weight for this iteration     100.00

 eigenvalues of (default mixing * dielectric matrix)
  average eigenvalue GAMMA=   1.5392
  2.3794  1.1192  1.1192

 Free energy of the ion-electron system (eV)
  ---------------------------------------------------
  alpha Z        PSCENC =       609.37684059
  Ewald energy   TEWEN  =    -12801.45978470
  -Hartree energ DENC   =     -8315.80339741
  -exchange      EXHF   =         0.00000000
  -V(xc)+E(xc)   XCENC  =       804.09869486
  PAW double counting   =     22521.37547995   -24615.97188590
  entropy T*S    EENTRO =        -0.00000000
  eigenvalues    EBANDS =     -1736.19199255
  atomic energy  EATOM  =     23440.67963582
  Solvation  Ediel_sol  =         0.00000000
  ---------------------------------------------------
  free energy    TOTEN  =       -93.89640935 eV

  energy without entropy =      -93.89640935  energy(sigma->0) =      -93.89640935


--------------------------------------------------------------------------------------------------------




--------------------------------------- Iteration      1(   9)  ---------------------------------------


    POTLOK:  cpu time      0.0148: real time      0.0150
    SETDIJ:  cpu time      0.0021: real time      0.0021
     EDDAV:  cpu time      0.7680: real time      0.7694
       DOS:  cpu time      0.0003: real time      0.0005
    CHARGE:  cpu time      0.0248: real time      0.0248
    MIXING:  cpu time      0.0006: real time      0.0006
    --------------------------------------------
      LOOP:  cpu time      0.8106: real time      0.8124

 eigenvalue-minimisations  :  1216
 total energy-change (2. order) :-0.1631459E-01  (-0.7358426E-02)
 number of electron     223.9999733 magnetization 
 augmentation part       90.4427087 magnetization 

 Broyden mixing:
  rms(total) = 0.69109E-01    rms(broyden)= 0.69109E-01
  rms(prec ) = 0.72381E-01
  weight for this iteration     100.00

 eigenvalues of (default mixing * dielectric matrix)
  average eigenvalue GAMMA=   1.3849
  2.2451  1.0370  1.0370  1.2205

 Free energy of the ion-electron system (eV)
  ---------------------------------------------------
  alpha Z        PSCENC =       609.37684059
  Ewald energy   TEWEN  =    -12801.45978470
  -Hartree energ DENC   =     -8310.89973559
  -exchange      EXHF   =         0.00000000
  -V(xc)+E(xc)   XCENC  =       804.31341399
  PAW double counting   =     23084.37164227   -25179.35933892
  entropy T*S    EENTRO =        -0.00000000
  eigenvalues    EBANDS =     -1740.93539739
  atomic energy  EATOM  =     23440.67963582
  Solvation  Ediel_sol  =         0.00000000
  ---------------------------------------------------
  free energy    TOTEN  =       -93.91272394 eV

  energy without entropy =      -93.91272394  energy(sigma->0) =      -93.91272394


--------------------------------------------------------------------------------------------------------




--------------------------------------- Iteration      1(  10)  ---------------------------------------


    POTLOK:  cpu time      0.0145: real time      0.0147
    SETDIJ:  cpu time      0.0021: real time      0.0021
     EDDAV:  cpu time      0.8002: real time      0.8020
       DOS:  cpu time      0.0002: real time      0.0005
    CHARGE:  cpu time      0.0250: real time      0.0251
    MIXING:  cpu time      0.0007: real time      0.0007
    --------------------------------------------
      LOOP:  cpu time      0.8427: real time      0.8450

 eigenvalue-minimisations  :  1248
 total energy-change (2. order) :-0.3495659E-02  (-0.1300456E-02)
 number of electron     223.9999733 magnetization 
 augmentation part       90.4355558 magnetization 

 Broyden mixing:
  rms(total) = 0.38135E-01    rms(broyden)= 0.38135E-01
  rms(prec ) = 0.41913E-01
  weight for this iteration     100.00

 eigenvalues of (default mixing * dielectric matrix)
  average eigenvalue GAMMA=   1.6811
  2.6445  2.6445  1.0859  1.0859  0.9450

 Free energy of the ion-electron system (eV)
  ---------------------------------------------------
  alpha Z        PSCENC =       609.37684059
  Ewald energy   TEWEN  =    -12801.45978470
  -Hartree energ DENC   =     -8312.38021526
  -exchange      EXHF   =         0.00000000
  -V(xc)+E(xc)   XCENC  =       804.36087255
  PAW double counting   =     22985.40844608   -25080.69059763
  entropy T*S    EENTRO =        -0.00000000
  eigenvalues    EBANDS =     -1739.21141704
  atomic energy  EATOM  =     23440.67963582
  Solvation  Ediel_sol  =         0.00000000
  ---------------------------------------------------
  free energy    TOTEN  =       -93.91621959 eV

  energy without entropy =      -93.91621959  energy(sigma->0) =      -93.91621959


--------------------------------------------------------------------------------------------------------




--------------------------------------- Iteration      1(  11)  ---------------------------------------


    POTLOK:  cpu time      0.0144: real time      0.0147
    SETDIJ:  cpu time      0.0021: real time      0.0021
     EDDAV:  cpu time      0.7460: real time      0.7482
       DOS:  cpu time      0.0003: real time      0.0004
    CHARGE:  cpu time      0.0256: real time      0.0257
    MIXING:  cpu time      0.0007: real time      0.0007
    --------------------------------------------
      LOOP:  cpu time      0.7891: real time      0.7918

 eigenvalue-minimisations  :  1152
 total energy-change (2. order) :-0.4927291E-02  (-0.7178976E-03)
 number of electron     223.9999733 magnetization 
 augmentation part       90.4414725 magnetization 

 Broyden mixing:
  rms(total) = 0.22977E-01    rms(broyden)= 0.22977E-01
  rms(prec ) = 0.23552E-01
  weight for this iteration     100.00

 eigenvalues of (default mixing * dielectric matrix)
  average eigenvalue GAMMA=   1.5506
  2.6182  2.6182  1.1068  1.1068  0.8403  1.0134

 Free energy of the ion-electron system (eV)
  ---------------------------------------------------
  alpha Z        PSCENC =       609.37684059
  Ewald energy   TEWEN  =    -12801.45978470
  -Hartree energ DENC   =     -8313.67146663
  -exchange      EXHF   =         0.00000000
  -V(xc)+E(xc)   XCENC  =       804.44679270
  PAW double counting   =     22876.93056855   -24972.24389428
  entropy T*S    EENTRO =        -0.00000000
  eigenvalues    EBANDS =     -1737.97983894
  atomic energy  EATOM  =     23440.67963582
  Solvation  Ediel_sol  =         0.00000000
  ---------------------------------------------------
  free energy    TOTEN  =       -93.92114689 eV

  energy without entropy =      -93.92114689  energy(sigma->0) =      -93.92114689


--------------------------------------------------------------------------------------------------------




--------------------------------------- Iteration      1(  12)  ---------------------------------------


    POTLOK:  cpu time      0.0145: real time      0.0147
    SETDIJ:  cpu time      0.0021: real time      0.0021
     EDDAV:  cpu time      0.7671: real time      0.7683
       DOS:  cpu time      0.0002: real time      0.0005
    CHARGE:  cpu time      0.0251: real time      0.0251
    MIXING:  cpu time      0.0006: real time      0.0006
    --------------------------------------------
      LOOP:  cpu time      0.8096: real time      0.8113

 eigenvalue-minimisations  :  1216
 total energy-change (2. order) :-0.2157612E-03  (-0.3483780E-04)
 number of electron     223.9999733 magnetization 
 augmentation part       90.4391471 magnetization 

 Broyden mixing:
  rms(total) = 0.39876E-02    rms(broyden)= 0.39876E-02
  rms(prec ) = 0.44650E-02
  weight for this iteration     100.00

 eigenvalues of (default mixing * dielectric matrix)
  average eigenvalue GAMMA=   1.4990
  2.6749  2.6749  1.0279  1.0498  1.0498  1.0077  1.0077

 Free energy of the ion-electron system (eV)
  ---------------------------------------------------
  alpha Z        PSCENC =       609.37684059
  Ewald energy   TEWEN  =    -12801.45978470
  -Hartree energ DENC   =     -8313.54459925
  -exchange      EXHF   =         0.00000000
  -V(xc)+E(xc)   XCENC  =       804.46328628
  PAW double counting   =     22923.80942242   -25019.31715880
  entropy T*S    EENTRO =        -0.00000000
  eigenvalues    EBANDS =     -1737.92900501
  atomic energy  EATOM  =     23440.67963582
  Solvation  Ediel_sol  =         0.00000000
  ---------------------------------------------------
  free energy    TOTEN  =       -93.92136265 eV

  energy without entropy =      -93.92136265  energy(sigma->0) =      -93.92136265


--------------------------------------------------------------------------------------------------------




--------------------------------------- Iteration      1(  13)  ---------------------------------------


    POTLOK:  cpu time      0.0147: real time      0.0149
    SETDIJ:  cpu time      0.0022: real time      0.0022
     EDDAV:  cpu time      0.7208: real time      0.7221
       DOS:  cpu time      0.0002: real time      0.0004
    CHARGE:  cpu time      0.0249: real time      0.0249
    MIXING:  cpu time      0.0007: real time      0.0007
    --------------------------------------------
      LOOP:  cpu time      0.7636: real time      0.7652

 eigenvalue-minimisations  :  1152
 total energy-change (2. order) :-0.9173828E-04  (-0.9261074E-05)
 number of electron     223.9999733 magnetization 
 augmentation part       90.4399339 magnetization 

 Broyden mixing:
  rms(total) = 0.28824E-02    rms(broyden)= 0.28824E-02
  rms(prec ) = 0.31010E-02
  weight for this iteration     100.00

 eigenvalues of (default mixing * dielectric matrix)
  average eigenvalue GAMMA=   1.5472
  3.0111  2.2843  1.7771  1.0905  1.0905  1.1660  0.9181  1.0395

 Free energy of the ion-electron system (eV)
  ---------------------------------------------------
  alpha Z        PSCENC =       609.37684059
  Ewald energy   TEWEN  =    -12801.45978470
  -Hartree energ DENC   =     -8313.67588183
  -exchange      EXHF   =         0.00000000
  -V(xc)+E(xc)   XCENC  =       804.46685986
  PAW double counting   =     22913.00408015   -25008.45205498
  entropy T*S    EENTRO =        -0.00000000
  eigenvalues    EBANDS =     -1737.86114929
  atomic energy  EATOM  =     23440.67963582
  Solvation  Ediel_sol  =         0.00000000
  ---------------------------------------------------
  free energy    TOTEN  =       -93.92145438 eV

  energy without entropy =      -93.92145438  energy(sigma->0) =      -93.92145438


--------------------------------------------------------------------------------------------------------




--------------------------------------- Iteration      1(  14)  ---------------------------------------


    POTLOK:  cpu time      0.0145: real time      0.0147
    SETDIJ:  cpu time      0.0022: real time      0.0022
     EDDAV:  cpu time      0.6372: real time      0.6381
       DOS:  cpu time      0.0002: real time      0.0004
    CHARGE:  cpu time      0.0250: real time      0.0250
    MIXING:  cpu time      0.0007: real time      0.0007
    --------------------------------------------
      LOOP:  cpu time      0.6799: real time      0.6811

 eigenvalue-minimisations  :   960
 total energy-change (2. order) :-0.2920653E-04  (-0.2666220E-05)
 number of electron     223.9999733 magnetization 
 augmentation part       90.4390350 magnetization 

 Broyden mixing:
  rms(total) = 0.10704E-02    rms(broyden)= 0.10704E-02
  rms(prec ) = 0.11994E-02
  weight for this iteration     100.00

 eigenvalues of (default mixing * dielectric matrix)
  average eigenvalue GAMMA=   1.6085
  2.7475  2.6582  2.6582  1.1722  1.1722  1.1300  1.1300  0.9042  0.9042

 Free energy of the ion-electron system (eV)
  ---------------------------------------------------
  alpha Z        PSCENC =       609.37684059
  Ewald energy   TEWEN  =    -12801.45978470
  -Hartree energ DENC   =     -8313.74562014
  -exchange      EXHF   =         0.00000000
  -V(xc)+E(xc)   XCENC  =       804.47221954
  PAW double counting   =     22918.83901966   -25014.33646963
  entropy T*S    EENTRO =        -0.00000000
  eigenvalues    EBANDS =     -1737.74732474
  atomic energy  EATOM  =     23440.67963582
  Solvation  Ediel_sol  =         0.00000000
  ---------------------------------------------------
  free energy    TOTEN  =       -93.92148359 eV

  energy without entropy =      -93.92148359  energy(sigma->0) =      -93.92148359


--------------------------------------------------------------------------------------------------------




--------------------------------------- Iteration      1(  15)  ---------------------------------------


    POTLOK:  cpu time      0.0147: real time      0.0149
    SETDIJ:  cpu time      0.0022: real time      0.0022
     EDDAV:  cpu time      0.6280: real time      0.6288
       DOS:  cpu time      0.0002: real time      0.0003
    --------------------------------------------
      LOOP:  cpu time      0.6451: real time      0.6462

 eigenvalue-minimisations  :   960
 total energy-change (2. order) :-0.7546980E-05  (-0.1306064E-05)
 number of electron     223.9999733 magnetization 
 augmentation part       90.4390350 magnetization 

 Free energy of the ion-electron system (eV)
  ---------------------------------------------------
  alpha Z        PSCENC =       609.37684059
  Ewald energy   TEWEN  =    -12801.45978470
  -Hartree energ DENC   =     -8313.79044191
  -exchange      EXHF   =         0.00000000
  -V(xc)+E(xc)   XCENC  =       804.47394599
  PAW double counting   =     22917.42242864   -25012.89294512
  entropy T*S    EENTRO =        -0.00000000
  eigenvalues    EBANDS =     -1737.73117045
  atomic energy  EATOM  =     23440.67963582
  Solvation  Ediel_sol  =         0.00000000
  ---------------------------------------------------
  free energy    TOTEN  =       -93.92149114 eV

  energy without entropy =      -93.92149114  energy(sigma->0) =      -93.92149114


--------------------------------------------------------------------------------------------------------




 average (electrostatic) potential at core
  the test charge radii are     0.9254  0.9521  0.9698
  (the norm of the test charge is              1.0000)
       1 -47.5603       2 -47.5603       3 -47.5603       4 -47.5603       5 -47.5603
       6 -47.5603       7 -47.5603       8 -47.5603       9 -37.2539      10 -37.2539
      11 -37.2539      12 -37.2539      13 -37.2539      14 -37.2539      15 -37.2539
      16 -37.2539      17 -89.0694      18 -89.0694      19 -89.0694      20 -89.0694
      21 -89.0694      22 -89.0694      23 -89.0694      24 -89.0694      25 -88.8585
      26 -88.8585      27 -88.8585      28 -88.8585



 E-fermi :   1.2954     XC(G=0):  -8.5399     alpha+bet : -7.5881

 Fermi energy:         1.2953602322

 k-point     1 :       0.0000    0.0000    0.0000
  band No.  band energies     occupation 
      1     -21.7795      2.00000
      2     -21.7786      2.00000
      3     -21.7763      2.00000
      4     -21.7763      2.00000
      5     -21.7745      2.00000
      6     -21.7745      2.00000
      7     -21.7715      2.00000
      8     -21.7698      2.00000
      9     -21.7617      2.00000
     10     -21.7597      2.00000
     11     -21.7597      2.00000
     12     -21.7589      2.00000
     13     -21.7589      2.00000
     14     -21.7585      2.00000
     15     -21.7585      2.00000
     16     -21.7558      2.00000
     17     -21.7328      2.00000
     18     -21.7320      2.00000
     19     -21.7288      2.00000
     20     -21.7288      2.00000
     21     -21.7248      2.00000
     22     -21.7248      2.00000
     23     -21.7212      2.00000
     24     -21.7210      2.00000
     25     -11.1340      2.00000
     26     -10.7632      2.00000
     27     -10.7632      2.00000
     28     -10.3813      2.00000
     29     -10.3299      2.00000
     30     -10.2854      2.00000
     31     -10.2775      2.00000
     32     -10.2775      2.00000
     33     -10.1372      2.00000
     34     -10.1372      2.00000
     35     -10.0888      2.00000
     36     -10.0693      2.00000
     37      -5.1647      2.00000
     38      -5.1647      2.00000
     39      -5.1082      2.00000
     40      -5.0561      2.00000
     41      -5.0561      2.00000
     42      -5.0534      2.00000
     43      -5.0313      2.00000
     44      -5.0143      2.00000
     45      -5.0140      2.00000
     46      -4.9874      2.00000
     47      -4.9874      2.00000
     48      -4.9843      2.00000
     49      -4.9105      2.00000
     50      -4.8884      2.00000
     51      -4.8884      2.00000
     52      -4.8736      2.00000
     53      -4.8587      2.00000
     54      -4.8587      2.00000
     55      -4.8465      2.00000
     56      -4.8063      2.00000
     57      -4.8063      2.00000
     58      -4.7727      2.00000
     59      -4.7706      2.00000
     60      -4.7612      2.00000
     61      -4.7600      2.00000
     62      -4.7224      2.00000
     63      -4.7224      2.00000
     64      -4.7100      2.00000
     65      -4.6929      2.00000
     66      -4.6929      2.00000
     67      -4.6806      2.00000
     68      -4.6630      2.00000
     69      -4.6522      2.00000
     70      -4.6359      2.00000
     71      -4.6359      2.00000
     72      -4.6141      2.00000
     73      -4.5967      2.00000
     74      -4.5802      2.00000
     75      -4.5480      2.00000
     76      -4.5480      2.00000
     77      -3.8541      2.00000
     78      -3.4963      2.00000
     79      -3.2880      2.00000
     80      -3.2880      2.00000
     81      -2.7135      2.00000
     82      -1.8140      2.00000
     83      -1.8140      2.00000
     84      -1.7377      2.00000
     85      -1.7364      2.00000
     86      -1.4712      2.00000
     87      -1.4712      2.00000
     88      -1.2004      2.00000
     89      -1.2004      2.00000
     90      -1.0196      2.00000
     91      -0.8459      2.00000
     92      -0.7836      2.00000
     93      -0.7836      2.00000
     94      -0.6134      2.00000
     95      -0.6047      2.00000
     96      -0.3864      2.00000
     97      -0.3365      2.00000
     98      -0.2120      2.00000
     99      -0.2120      2.00000
    100      -0.1407      2.00000
    101       0.0346      2.00000
    102       0.0346      2.00000
    103       0.3016      2.00000
    104       0.3606      2.00000
    105       0.4457      2.00000
    106       0.5321      2.00000
    107       0.6204      2.00000
    108       0.6204      2.00000
    109       0.7749      2.00000
    110       0.9396      2.00000
    111       1.0035      2.00000
    112       1.0035      2.00000
    113       3.0241      0.00000
    114       4.1291      0.00000
    115       4.1291      0.00000
    116       4.7183      0.00000
    117       4.7303      0.00000
    118       5.0316      0.00000
    119       5.2951      0.00000
    120       5.2951      0.00000
    121       5.7418      0.00000
    122       5.7418      0.00000
    123       6.0794      0.00000
    124       6.1379      0.00000
    125       6.1379      0.00000
    126       6.2293      0.00000
    127       6.3602      0.00000
    128       6.5997      0.00000
    129       6.7385      0.00000
    130       7.3027      0.00000
    131       7.4416      0.00000
    132       7.4416      0.00000
    133       7.5669      0.00000
    134       7.6232      0.00000
    135       7.6232      0.00000
    136       7.6556      0.00000
    137       7.6556      0.00000
    138       7.7655      0.00000
    139       7.8422      0.00000
    140       7.8511      0.00000
    141       8.1052      0.00000
    142       8.3512      0.00000
    143       8.4748      0.00000
    144       8.4748      0.00000
    145       8.5215      0.00000
    146       8.5968      0.00000
    147       8.6233      0.00000
    148       8.6233      0.00000
    149       8.7868      0.00000
    150       8.7868      0.00000
    151       9.0608      0.00000
    152       9.3905      0.00000
    153       9.6915      0.00000
    154       9.7165      0.00000
    155       9.7165      0.00000
    156       9.7490      0.00000
    157       9.8360      0.00000
    158      10.0588      0.00000
    159      10.0588      0.00000
    160      10.3570      0.00000

 k-point     2 :       0.5000    0.0000    0.0000
  band No.  band energies     occupation 
      1     -21.7793      2.00000
      2     -21.7793      2.00000
      3     -21.7754      2.00000
      4     -21.7754      2.00000
      5     -21.7752      2.00000
      6     -21.7752      2.00000
      7     -21.7708      2.00000
      8     -21.7708      2.00000
      9     -21.7611      2.00000
     10     -21.7611      2.00000
     11     -21.7594      2.00000
     12     -21.7594      2.00000
     13     -21.7587      2.00000
     14     -21.7587      2.00000
     15     -21.7568      2.00000
     16     -21.7568      2.00000
     17     -21.7325      2.00000
     18     -21.7325      2.00000
     19     -21.7288      2.00000
     20     -21.7288      2.00000
     21     -21.7249      2.00000
     22     -21.7249      2.00000
     23     -21.7211      2.00000
     24     -21.7211      2.00000
     25     -10.9335      2.00000
     26     -10.9335      2.00000
     27     -10.6050      2.00000
     28     -10.6050      2.00000
     29     -10.3757      2.00000
     30     -10.3757      2.00000
     31     -10.2483      2.00000
     32     -10.2483      2.00000
     33     -10.1032      2.00000
     34     -10.1032      2.00000
     35     -10.0712      2.00000
     36     -10.0712      2.00000
     37      -5.1678      2.00000
     38      -5.1678      2.00000
     39      -5.0890      2.00000
     40      -5.0890      2.00000
     41      -5.0434      2.00000
     42      -5.0434      2.00000
     43      -5.0230      2.00000
     44      -5.0230      2.00000
     45      -5.0085      2.00000
     46      -5.0085      2.00000
     47      -5.0015      2.00000
     48      -5.0015      2.00000
     49      -4.8918      2.00000
     50      -4.8918      2.00000
     51      -4.8708      2.00000
     52      -4.8708      2.00000
     53      -4.8453      2.00000
     54      -4.8453      2.00000
     55      -4.8319      2.00000
     56      -4.8319      2.00000
     57      -4.7990      2.00000
     58      -4.7990      2.00000
     59      -4.7684      2.00000
     60      -4.7684      2.00000
     61      -4.7498      2.00000
     62      -4.7498      2.00000
     63      -4.7313      2.00000
     64      -4.7313      2.00000
     65      -4.7169      2.00000
     66      -4.7169      2.00000
     67      -4.7072      2.00000
     68      -4.7072      2.00000
     69      -4.6510      2.00000
     70      -4.6510      2.00000
     71      -4.6401      2.00000
     72      -4.6401      2.00000
     73      -4.5234      2.00000
     74      -4.5234      2.00000
     75      -4.5068      2.00000
     76      -4.5068      2.00000
     77      -3.7425      2.00000
     78      -3.7425      2.00000
     79      -2.9130      2.00000
     80      -2.9130      2.00000
     81      -2.3714      2.00000
     82      -2.3714      2.00000
     83      -2.0982      2.00000
     84      -2.0982      2.00000
     85      -1.7003      2.00000
     86      -1.7003      2.00000
     87      -1.2801      2.00000
     88      -1.2801      2.00000
     89      -1.1224      2.00000
     90      -1.1224      2.00000
     91      -0.6810      2.00000
     92      -0.6810      2.00000
     93      -0.5920      2.00000
     94      -0.5920      2.00000
     95      -0.2981      2.00000
     96      -0.2981      2.00000
     97      -0.1492      2.00000
     98      -0.1492      2.00000
     99      -0.0676      2.00000
    100      -0.0676      2.00000
    101       0.1013      2.00000
    102       0.1013      2.00000
    103       0.2216      2.00000
    104       0.2216      2.00000
    105       0.3918      2.00000
    106       0.3918      2.00000
    107       0.4669      2.00000
    108       0.4669      2.00000
    109       0.5508      2.00000
    110       0.5508      2.00000
    111       0.7493      2.00000
    112       0.7493      2.00000
    113       4.1323      0.00000
    114       4.1323      0.00000
    115       4.6963      0.00000
    116       4.6963      0.00000
    117       4.9405      0.00000
    118       4.9405      0.00000
    119       5.4641      0.00000
    120       5.4641      0.00000
    121       5.7383      0.00000
    122       5.7383      0.00000
    123       5.9785      0.00000
    124       5.9785      0.00000
    125       6.2236      0.00000
    126       6.2236      0.00000
    127       6.3236      0.00000
    128       6.3236      0.00000
    129       6.7984      0.00000
    130       6.7984      0.00000
    131       7.0171      0.00000
    132       7.0171      0.00000
    133       7.1289      0.00000
    134       7.1289      0.00000
    135       7.3642      0.00000
    136       7.3642      0.00000
    137       7.4932      0.00000
    138       7.4932      0.00000
    139       7.9491      0.00000
    140       7.9491      0.00000
    141       8.1911      0.00000
    142       8.1911      0.00000
    143       8.4323      0.00000
    144       8.4323      0.00000
    145       8.4706      0.00000
    146       8.4706      0.00000
    147       8.6456      0.00000
    148       8.6456      0.00000
    149       8.9187      0.00000
    150       8.9187      0.00000
    151       9.5190      0.00000
    152       9.5190      0.00000
    153       9.7511      0.00000
    154       9.7511      0.00000
    155       9.8364      0.00000
    156       9.8364      0.00000
    157      10.0633      0.00000
    158      10.0633      0.00000
    159      10.4117      0.00000
    160      10.4124      0.00000

 k-point     3 :       0.5000    0.5000    0.0000
  band No.  band energies     occupation 
      1     -21.7793      2.00000
      2     -21.7793      2.00000
      3     -21.7759      2.00000
      4     -21.7759      2.00000
      5     -21.7747      2.00000
      6     -21.7747      2.00000
      7     -21.7708      2.00000
      8     -21.7708      2.00000
      9     -21.7606      2.00000
     10     -21.7606      2.00000
     11     -21.7604      2.00000
     12     -21.7604      2.00000
     13     -21.7576      2.00000
     14     -21.7576      2.00000
     15     -21.7573      2.00000
     16     -21.7573      2.00000
     17     -21.7325      2.00000
     18     -21.7325      2.00000
     19     -21.7288      2.00000
     20     -21.7288      2.00000
     21     -21.7248      2.00000
     22     -21.7248      2.00000
     23     -21.7211      2.00000
     24     -21.7211      2.00000
     25     -10.7769      2.00000
     26     -10.7769      2.00000
     27     -10.7706      2.00000
     28     -10.7706      2.00000
     29     -10.3130      2.00000
     30     -10.3130      2.00000
     31     -10.2624      2.00000
     32     -10.2624      2.00000
     33     -10.1474      2.00000
     34     -10.1474      2.00000
     35     -10.0865      2.00000
     36     -10.0865      2.00000
     37      -5.1612      2.00000
     38      -5.1612      2.00000
     39      -5.0719      2.00000
     40      -5.0719      2.00000
[...]
    112       0.8535      2.00000
    113       4.4171      0.00000
    114       4.4171      0.00000
    115       4.9363      0.00000
    116       4.9363      0.00000
    117       5.0284      0.00000
    118       5.0284      0.00000
    119       5.6194      0.00000
    120       5.6194      0.00000
    121       5.8808      0.00000
    122       5.8808      0.00000
    123       6.2115      0.00000
    124       6.2115      0.00000
    125       6.3171      0.00000
    126       6.3171      0.00000
    127       6.4651      0.00000
    128       6.4651      0.00000
    129       6.9329      0.00000
    130       6.9329      0.00000
    131       7.1471      0.00000
    132       7.1471      0.00000
    133       7.2428      0.00000
    134       7.2428      0.00000
    135       7.5448      0.00000
    136       7.5448      0.00000
    137       7.6554      0.00000
    138       7.6554      0.00000
    139       8.0151      0.00000
    140       8.0151      0.00000
    141       8.2902      0.00000
    142       8.2902      0.00000
    143       8.5984      0.00000
    144       8.5984      0.00000
    145       8.6670      0.00000
    146       8.6670      0.00000
    147       8.7380      0.00000
    148       8.7380      0.00000
    149       9.0892      0.00000
    150       9.0892      0.00000
    151       9.5945      0.00000
    152       9.5945      0.00000
    153       9.9388      0.00000
    154       9.9388      0.00000
    155      10.0571      0.00000
    156      10.0571      0.00000
    157      10.1870      0.00000
    158      10.1870      0.00000
    159      10.4784      0.00000
    160      10.4784      0.00000

 k-point     3 :       0.5000    0.5000    0.0000
  band No.  band energies     occupation 
      1     -21.6965      2.00000
      2     -21.6965      2.00000
      3     -21.6926      2.00000
      4     -21.6926      2.00000
      5     -21.6917      2.00000
      6     -21.6917      2.00000
      7     -21.6875      2.00000
      8     -21.6875      2.00000
      9     -21.6809      2.00000
     10     -21.6809      2.00000
     11     -21.6805      2.00000
     12     -21.6805      2.00000
     13     -21.6784      2.00000
     14     -21.6784      2.00000
     15     -21.6776      2.00000
     16     -21.6776      2.00000
     17     -21.6575      2.00000
     18     -21.6575      2.00000
     19     -21.6548      2.00000
     20     -21.6548      2.00000
     21     -21.6491      2.00000
     22     -21.6491      2.00000
     23     -21.6464      2.00000
     24     -21.6464      2.00000
     25     -10.7443      2.00000
     26     -10.7443      2.00000
     27     -10.7295      2.00000
     28     -10.7295      2.00000
     29     -10.2577      2.00000
     30     -10.2577      2.00000
     31     -10.2122      2.00000
     32     -10.2122      2.00000
     33     -10.0779      2.00000
     34     -10.0779      2.00000
     35     -10.0120      2.00000
     36     -10.0120      2.00000
     37      -5.1094      2.00000
     38      -5.1094      2.00000
     39      -4.9955      2.00000
     40      -4.9955      2.00000
     41      -4.9667      2.00000
     42      -4.9667      2.00000
     43      -4.9492      2.00000
     44      -4.9492      2.00000
     45      -4.9347      2.00000
     46      -4.9347      2.00000
     47      -4.9158      2.00000
     48      -4.9158      2.00000
     49      -4.8059      2.00000
     50      -4.8059      2.00000
     51      -4.8019      2.00000
     52      -4.8019      2.00000
     53      -4.7091      2.00000
     54      -4.7091      2.00000
     55      -4.7040      2.00000
     56      -4.7040      2.00000
     57      -4.7005      2.00000
     58      -4.7005      2.00000
     59      -4.6936      2.00000
     60      -4.6936      2.00000
     61      -4.6647      2.00000
     62      -4.6647      2.00000
     63      -4.6578      2.00000
     64      -4.6578      2.00000
     65      -4.6448      2.00000
     66      -4.6448      2.00000
     67      -4.5910      2.00000
     68      -4.5910      2.00000
     69      -4.5833      2.00000
     70      -4.5833      2.00000
     71      -4.5568      2.00000
     72      -4.5568      2.00000
     73      -4.5287      2.00000
     74      -4.5287      2.00000
     75      -4.4513      2.00000
     76      -4.4513      2.00000
     77      -3.0577      2.00000
     78      -3.0577      2.00000
     79      -2.9728      2.00000
     80      -2.9728      2.00000
     81      -2.5368      2.00000
     82      -2.5368      2.00000
     83      -2.3032      2.00000
     84      -2.3032      2.00000
     85      -1.4914      2.00000
     86      -1.4914      2.00000
     87      -1.1382      2.00000
     88      -1.1382      2.00000
     89      -0.8936      2.00000
     90      -0.8936      2.00000
     91      -0.7893      2.00000
     92      -0.7893      2.00000
     93      -0.5059      2.00000
     94      -0.5059      2.00000
     95      -0.1539      2.00000
     96      -0.1539      2.00000
     97      -0.0655      2.00000
     98      -0.0655      2.00000
     99       0.0090      2.00000
    100       0.0090      2.00000
    101       0.1659      2.00000
    102       0.1659      2.00000
    103       0.2131      2.00000
    104       0.2131      2.00000
    105       0.3374      2.00000
    106       0.3374      2.00000
    107       0.5475      2.00000
    108       0.5475      2.00000
    109       0.7759      2.00000
    110       0.7759      2.00000
    111       0.8010      2.00000
    112       0.8010      2.00000
    113       4.4659      0.00000
    114       4.4659      0.00000
    115       4.6177      0.00000
    116       4.6177      0.00000
    117       5.6067      0.00000
    118       5.6067      0.00000
    119       5.8762      0.00000
    120       5.8762      0.00000
    121       6.0464      0.00000
    122       6.0464      0.00000
    123       6.2380      0.00000
    124       6.2380      0.00000
    125       6.3514      0.00000
    126       6.3514      0.00000
    127       6.6722      0.00000
    128       6.6722      0.00000
    129       6.8022      0.00000
    130       6.8022      0.00000
    131       7.0629      0.00000
    132       7.0629      0.00000
    133       7.3700      0.00000
    134       7.3700      0.00000
    135       7.4610      0.00000
    136       7.4610      0.00000
    137       7.5415      0.00000
    138       7.5415      0.00000
    139       7.8527      0.00000
    140       7.8527      0.00000
    141       7.9037      0.00000
    142       7.9037      0.00000
    143       8.3444      0.00000
    144       8.3444      0.00000
    145       8.3655      0.00000
    146       8.3655      0.00000
    147       8.6115      0.00000
    148       8.6115      0.00000
    149       8.8807      0.00000
    150       8.8807      0.00000
    151       9.2194      0.00000
    152       9.2194      0.00000
    153       9.7350      0.00000
    154       9.7350      0.00000
    155      10.2608      0.00000
    156      10.2608      0.00000
    157      10.3490      0.00000
    158      10.3490      0.00000
    159      10.4632      0.00000
    160      10.4632      0.00000


--------------------------------------------------------------------------------------------------------


 soft charge-density along one line, spin component           1
         0         1         2         3         4         5         6         7         8         9
 total charge-density along one line

 pseudopotential strength for first ion, spin component:           1
-25.670   0.001  -0.002   2.717  -0.000   0.001  -0.003  -0.008
  0.001 -25.669   0.011  -0.000   2.717  -0.004   0.007   0.023
 -0.002   0.011 -25.655   0.001  -0.004   2.711  -0.004  -0.013
  2.717  -0.000   0.001   6.515   0.000  -0.000   0.000  -0.000
 -0.000   2.717  -0.004   0.000   6.515   0.001  -0.001  -0.000
  0.001  -0.004   2.711  -0.000   0.001   6.516   0.000   0.000
 -0.003   0.007  -0.004   0.000  -0.001   0.000   1.431   7.014
 -0.008   0.023  -0.013  -0.000  -0.000   0.000   7.014  34.124
 total augmentation occupancy for first ion, spin component:           1
  2.001  -0.000   0.000  -0.001  -0.000   0.000   0.009  -0.003
 -0.000   2.001  -0.000  -0.000  -0.001  -0.001  -0.024   0.008
  0.000  -0.000   2.001   0.000  -0.001  -0.003   0.013  -0.004
 -0.001  -0.000   0.000   0.013  -0.000  -0.001   0.005  -0.000
 -0.000  -0.001  -0.001  -0.000   0.015   0.004  -0.017   0.000
  0.000  -0.001  -0.003  -0.001   0.004   0.020   0.009  -0.000
  0.009  -0.024   0.013   0.005  -0.017   0.009   0.442  -0.001
 -0.003   0.008  -0.004  -0.000   0.000  -0.000  -0.001   0.000


------------------------ aborting loop because EDIFF is reached ----------------------------------------


    CHARGE:  cpu time      0.0253: real time      0.0253
    FORLOC:  cpu time      0.0025: real time      0.0025
    FORNL :  cpu time      0.1303: real time      0.1306
    STRESS:  cpu time      0.3931: real time      0.3934
    FORCOR:  cpu time      0.0152: real time      0.0152
    FORHAR:  cpu time      0.0050: real time      0.0050
    MIXING:  cpu time      0.0004: real time      0.0004
    OFIELD:  cpu time      0.0000: real time      0.0000

  FORCE on cell =-STRESS in cart. coord.  units (eV):
  Direction    XX          YY          ZZ          XY          YZ          ZX
  --------------------------------------------------------------------------------------
  Alpha Z   620.42721   620.42721   620.42721
  Ewald   -4626.07620 -4626.07620 -3608.15622     0.00000    -0.00000    -0.00000
  Hartree  2536.20814  2536.20814  3211.29347    -0.00000    -0.00000    -0.00000
  E(xc)   -1137.48014 -1137.48014 -1136.48154     0.00000    -0.00000    -0.00000
  Local    -207.40799  -207.40799 -1879.38015     0.00000    -0.00000     0.00000
  n-local   422.74876   427.20056   427.73679    -0.00000     0.00000    -0.00000
  augment   451.76934   451.76934   451.84584    -0.00000    -0.00000     0.00000
  Kinetic  1934.33284  1940.82105  1912.20138     0.00000     0.00000    -0.00000
  Fock        0.00000     0.00000     0.00000     0.00000     0.00000     0.00000
  -------------------------------------------------------------------------------------
  Total      -0.00804    -0.00804    -0.51321     0.00000     0.00000     0.00000
  in kB      -0.02091    -0.02091    -1.33534     0.00000     0.00000     0.00000
  external pressure =       -0.46 kB  Pullay stress =        0.00 kB


 VOLUME and BASIS-vectors are now :
 -----------------------------------------------------------------------------
  energy-cutoff  :      400.00
  volume of cell :      615.77
      direct lattice vectors                 reciprocal lattice vectors
     7.339090914  0.000000000  0.000000000     0.136256658  0.000000000  0.000000000
    -0.000000000  7.339090914  0.000000000    -0.000000000  0.136256658  0.000000000
    -0.000000000 -0.000000000 11.432268312    -0.000000000 -0.000000000  0.087471705

  length of vectors
     7.339090914  7.339090914 11.432268312     0.136256658  0.136256658  0.087471705


 FORCES acting on ions
    electron-ion (+dipol)            ewald-force                    non-local-force                 convergence-correction
 -----------------------------------------------------------------------------------------------
   0.555E+02 -.214E+02 0.473E+02   -.545E+02 0.221E+02 -.491E+02   -.101E+01 -.608E+00 0.175E+01   0.111E-02 0.375E-02 0.528E-02
   -.555E+02 0.214E+02 0.473E+02   0.545E+02 -.221E+02 -.491E+02   0.101E+01 0.608E+00 0.175E+01   -.111E-02 -.375E-02 0.528E-02
   -.214E+02 -.555E+02 0.473E+02   0.221E+02 0.545E+02 -.491E+02   -.608E+00 0.101E+01 0.175E+01   0.375E-02 -.111E-02 0.528E-02
   0.214E+02 0.555E+02 0.473E+02   -.221E+02 -.545E+02 -.491E+02   0.608E+00 -.101E+01 0.175E+01   -.375E-02 0.111E-02 0.528E-02
   0.214E+02 -.555E+02 -.473E+02   -.221E+02 0.545E+02 0.491E+02   0.608E+00 0.101E+01 -.175E+01   -.375E-02 -.111E-02 -.528E-02
   -.214E+02 0.555E+02 -.473E+02   0.221E+02 -.545E+02 0.491E+02   -.608E+00 -.101E+01 -.175E+01   0.375E-02 0.111E-02 -.528E-02
   -.555E+02 -.214E+02 -.473E+02   0.545E+02 0.221E+02 0.491E+02   0.101E+01 -.608E+00 -.175E+01   -.111E-02 0.375E-02 -.528E-02
   0.555E+02 0.214E+02 -.473E+02   -.545E+02 -.221E+02 0.491E+02   -.101E+01 0.608E+00 -.175E+01   0.111E-02 -.375E-02 -.528E-02
   -.316E+02 -.921E+02 0.794E+02   0.317E+02 0.938E+02 -.797E+02   -.147E+00 -.169E+01 0.336E+00   0.885E-03 -.498E-02 -.385E-03
   0.316E+02 0.921E+02 0.794E+02   -.317E+02 -.938E+02 -.797E+02   0.147E+00 0.169E+01 0.336E+00   -.885E-03 0.498E-02 -.385E-03
   -.921E+02 0.316E+02 0.794E+02   0.938E+02 -.317E+02 -.797E+02   -.169E+01 0.147E+00 0.336E+00   -.498E-02 -.885E-03 -.385E-03
   0.921E+02 -.316E+02 0.794E+02   -.938E+02 0.317E+02 -.797E+02   0.169E+01 -.147E+00 0.336E+00   0.498E-02 0.885E-03 -.385E-03
   0.921E+02 0.316E+02 -.794E+02   -.938E+02 -.317E+02 0.797E+02   0.169E+01 0.147E+00 -.336E+00   0.498E-02 -.885E-03 0.385E-03
   -.921E+02 -.316E+02 -.794E+02   0.938E+02 0.317E+02 0.797E+02   -.169E+01 -.147E+00 -.336E+00   -.498E-02 0.885E-03 0.385E-03
   0.316E+02 -.921E+02 -.794E+02   -.317E+02 0.938E+02 0.797E+02   0.147E+00 -.169E+01 -.336E+00   -.885E-03 -.498E-02 0.385E-03
   -.316E+02 0.921E+02 -.794E+02   0.317E+02 -.938E+02 0.797E+02   -.147E+00 0.169E+01 -.336E+00   0.885E-03 0.498E-02 0.385E-03
   -.307E+02 0.202E+02 -.387E+02   0.306E+02 -.203E+02 0.395E+02   0.953E-01 0.140E+00 -.712E+00   -.142E-02 -.197E-02 0.265E-02
   0.307E+02 -.202E+02 -.387E+02   -.306E+02 0.203E+02 0.395E+02   -.953E-01 -.140E+00 -.712E+00   0.142E-02 0.197E-02 0.265E-02
   0.202E+02 0.307E+02 -.387E+02   -.203E+02 -.306E+02 0.395E+02   0.140E+00 -.953E-01 -.712E+00   -.197E-02 0.142E-02 0.265E-02
   -.202E+02 -.307E+02 -.387E+02   0.203E+02 0.306E+02 0.395E+02   -.140E+00 0.953E-01 -.712E+00   0.197E-02 -.142E-02 0.265E-02
   -.202E+02 0.307E+02 0.387E+02   0.203E+02 -.306E+02 -.395E+02   -.140E+00 -.953E-01 0.712E+00   0.197E-02 0.142E-02 -.265E-02
   0.202E+02 -.307E+02 0.387E+02   -.203E+02 0.306E+02 -.395E+02   0.140E+00 0.953E-01 0.712E+00   -.197E-02 -.142E-02 -.265E-02
   0.307E+02 0.202E+02 0.387E+02   -.306E+02 -.203E+02 -.395E+02   -.953E-01 0.140E+00 0.712E+00   0.142E-02 -.197E-02 -.265E-02
   -.307E+02 -.202E+02 0.387E+02   0.306E+02 0.203E+02 -.395E+02   0.953E-01 -.140E+00 0.712E+00   -.142E-02 0.197E-02 -.265E-02
   -.702E+02 0.702E+02 -.178E-11   0.727E+02 -.727E+02 -.107E-13   -.253E+01 0.253E+01 0.108E-18   -.273E-03 0.273E-03 0.521E-13
   0.702E+02 -.702E+02 -.173E-11   -.727E+02 0.727E+02 -.817E-13   0.253E+01 -.253E+01 0.192E-17   0.273E-03 -.273E-03 0.416E-13
   0.702E+02 0.702E+02 0.768E-06   -.727E+02 -.727E+02 0.366E-14   0.253E+01 0.253E+01 0.334E-15   0.273E-03 0.273E-03 -.683E-12
   -.702E+02 -.702E+02 -.768E-06   0.727E+02 0.727E+02 -.392E-13   -.253E+01 -.253E+01 -.334E-15   -.273E-03 -.273E-03 0.597E-12
 -----------------------------------------------------------------------------------------------
   -.925E-05 0.925E-05 -.264E-10   0.711E-13 0.000E+00 -.284E-13   0.444E-15 0.444E-15 -.663E-15   -.460E-12 -.789E-12 0.276E-12


 POSITION                                       TOTAL-FORCE (eV/Angst)
 -----------------------------------------------------------------------------------
      7.06133      1.84913      4.65084        -0.035713      0.021008     -0.005411
      0.27776      5.48996     10.36698         0.035713     -0.021008     -0.005411
      5.51867      3.94731      7.50891         0.021008      0.035713     -0.005411
      1.82042      3.39178      1.79278        -0.021008     -0.035713     -0.005411
      5.48996      0.27776      1.06529        -0.021008      0.035713      0.005411
      1.84913      7.06133      6.78142         0.021008     -0.035713      0.005411
      3.94731      5.51867      3.92336         0.035713      0.021008      0.005411
      3.39178      1.82042      9.63949        -0.035713     -0.021008      0.005411
      1.64382      6.99459      1.53552        -0.008200      0.038703     -0.013743
      5.69527      0.34450      7.25165         0.008200     -0.038703     -0.013743
      3.32505      2.02573      4.39358         0.038703      0.008200     -0.013743
      4.01405      5.31336     10.10972        -0.038703     -0.008200     -0.013743
      0.34450      5.69527      4.18062        -0.038703      0.008200      0.013743
      6.99459      1.64382      9.89675         0.038703     -0.008200      0.013743
      2.02573      3.32505      7.03868         0.008200      0.038703      0.013743
      5.31336      4.01405      1.32255        -0.008200     -0.038703      0.013743
      3.87588      1.77243      6.66388        -0.010326      0.029503     -0.000607
      3.46321      5.56667      0.94774         0.010326     -0.029503     -0.000607
      5.44197      7.13275      9.52194         0.029503      0.010326     -0.000607
      1.89712      0.20634      3.80581        -0.029503     -0.010326     -0.000607
      5.56667      3.46321     10.48453        -0.029503      0.010326      0.000607
      1.77243      3.87588      4.76839         0.029503     -0.010326      0.000607
      7.13275      5.44197      1.91032         0.010326      0.029503      0.000607
      0.20634      1.89712      7.62646        -0.010326     -0.029503      0.000607
      5.00212      2.33697      2.85807         0.005762     -0.005762     -0.000000
      2.33697      5.00212      8.57420        -0.005762      0.005762     -0.000000
      6.00652      6.00652      5.71613        -0.005762     -0.005762     -0.000000
      1.33258      1.33258      0.00000         0.005762      0.005762      0.000000
 -----------------------------------------------------------------------------------
    total drift:                               -0.000009      0.000009     -0.000000


--------------------------------------------------------------------------------------------------------



  FREE ENERGIE OF THE ION-ELECTRON SYSTEM (eV)
  ---------------------------------------------------
  free  energy   TOTEN  =       -94.04203790 eV

  energy  without entropy=      -94.04203790  energy(sigma->0) =      -94.04203790

 d Force = 0.1165863E-01[ 0.680E-02, 0.165E-01]  d Energy = 0.1048798E-01 0.117E-02
 d Force =-0.4905194E+01[-0.480E+01,-0.501E+01]  d Ewald  =-0.4545750E+01-0.359E+00


--------------------------------------------------------------------------------------------------------


    POTLOK:  cpu time      0.0172: real time      0.0172


--------------------------------------------------------------------------------------------------------




--------------------------------------------------------------------------------------------------------


  
 reached required accuracy - stopping structural energy minimisation
     LOOP+:  cpu time      5.7636: real time      5.7737
    4ORBIT:  cpu time      0.0000: real time      0.0000

 total amount of memory used by VASP MPI-rank0    42326. kBytes
=======================================================================

   base      :      30000. kBytes
   nonlr-proj:       3499. kBytes
   fftplans  :       1090. kBytes
   grid      :       4492. kBytes
   one-center:        435. kBytes
   wavefun   :       2810. kBytes

  
  
 General timing and accounting informations for this job:
 ========================================================
  
                  Total CPU time used (sec):      112.572
                            User time (sec):      108.163
                          System time (sec):        4.409
                         Elapsed time (sec):      113.609
  
                   Maximum memory used (kb):      138696.
                   Average memory used (kb):          N/A
  
                          Minor page faults:       950244
                          Major page faults:          128
                 Voluntary context switches:         1355
