  79  79   0   0
  0.2352942E+02  0.1210264E-08  0.7093817E-09  0.2165102E-08  0.0000000E+00
   1.0000000000000000E-004
  CAR 
 NEB_refined                             
      8.96780719    -23.89923004  301      0.87449112      1.00000000
    -23.899  0.0000E+00  0.0000E+00
    -23.790  0.0000E+00  0.0000E+00
    -23.680  0.0000E+00  0.0000E+00
    -23.571 -0.9433E-31 -0.1033E-31
    -23.461 -0.6650E-27 -0.7287E-28
    -23.351 -0.2502E-23 -0.2741E-24
    -23.242 -0.5162E-20 -0.5658E-21
    -23.132 -0.5843E-17 -0.6407E-18
    -23.023 -0.3514E-14 -0.3856E-15
    -22.913 -0.1187E-11 -0.1304E-12
    -22.804 -0.2186E-09 -0.2408E-10
    -22.694 -0.2191E-07 -0.2424E-08
    -22.585 -0.1188E-05 -0.1325E-06
    -22.475 -0.3449E-04 -0.3911E-05
    -22.365 -0.5266E-03 -0.6161E-04
    -22.256 -0.4073E-02 -0.5079E-03
    -22.146 -0.1442E-01 -0.2088E-02
    -22.037 -0.1253E-01 -0.3461E-02
    -21.927  0.6714E-01  0.3895E-02
    -21.818  0.3181E+00  0.3875E-01
    -21.708  0.8069E+00  0.1271E+00
    -21.599  0.1238E+01  0.2627E+00
    -21.489  0.1121E+01  0.3855E+00
    -21.379  0.6122E+00  0.4526E+00
    -21.270  0.1794E+00  0.4722E+00
    -21.160 -0.5003E-02  0.4717E+00
    -21.051 -0.2426E-01  0.4690E+00
    -20.941 -0.8023E-02  0.4681E+00
    -20.832 -0.1195E-02  0.4680E+00
    -20.722 -0.9178E-04  0.4680E+00
    -20.613 -0.3779E-05  0.4680E+00
    -20.503 -0.8452E-07  0.4680E+00
    -20.393 -0.1033E-08  0.4680E+00
    -20.284 -0.6908E-11  0.4680E+00
    -20.174 -0.2533E-13  0.4680E+00
    -20.065 -0.4864E-16  0.4680E+00
    -19.955  0.0000E+00  0.4680E+00
    -19.846  0.0000E+00  0.4680E+00
    -19.736  0.0000E+00  0.4680E+00
    -19.627  0.0000E+00  0.4680E+00
    -19.517  0.0000E+00  0.4680E+00
    -19.407  0.0000E+00  0.4680E+00
    -19.298  0.0000E+00  0.4680E+00
    -19.188  0.0000E+00  0.4680E+00
    -19.079  0.0000E+00  0.4680E+00
    -18.969  0.0000E+00  0.4680E+00
    -18.860  0.0000E+00  0.4680E+00
    -18.750  0.0000E+00  0.4680E+00
    -18.641  0.0000E+00  0.4680E+00
    -18.531  0.0000E+00  0.4680E+00
    -18.421  0.0000E+00  0.4680E+00
    -18.312  0.0000E+00  0.4680E+00
    -18.202  0.0000E+00  0.4680E+00
    -18.093  0.0000E+00  0.4680E+00
    -17.983  0.0000E+00  0.4680E+00
    -17.874  0.0000E+00  0.4680E+00
    -17.764  0.0000E+00  0.4680E+00
    -17.654  0.0000E+00  0.4680E+00
    -17.545  0.0000E+00  0.4680E+00
    -17.435  0.0000E+00  0.4680E+00
    -17.326  0.0000E+00  0.4680E+00
    -17.216  0.0000E+00  0.4680E+00
    -17.107  0.0000E+00  0.4680E+00
    -16.997  0.0000E+00  0.4680E+00
    -16.888  0.0000E+00  0.4680E+00
    -16.778  0.0000E+00  0.4680E+00
    -16.668  0.0000E+00  0.4680E+00
    -16.559  0.0000E+00  0.4680E+00
    -16.449  0.0000E+00  0.4680E+00
    -16.340  0.0000E+00  0.4680E+00
    -16.230  0.0000E+00  0.4680E+00
    -16.121  0.0000E+00  0.4680E+00
    -16.011  0.0000E+00  0.4680E+00
    -15.902  0.0000E+00  0.4680E+00
    -15.792  0.0000E+00  0.4680E+00
    -15.682  0.0000E+00  0.4680E+00
    -15.573  0.0000E+00  0.4680E+00
    -15.463  0.0000E+00  0.4680E+00
    -15.354  0.0000E+00  0.4680E+00
    -15.244  0.0000E+00  0.4680E+00
    -15.135  0.0000E+00  0.4680E+00
    -15.025  0.0000E+00  0.4680E+00
    -14.916  0.0000E+00  0.4680E+00
    -14.806  0.0000E+00  0.4680E+00
    -14.696  0.0000E+00  0.4680E+00
    -14.587  0.0000E+00  0.4680E+00
    -14.477  0.0000E+00  0.4680E+00
    -14.368  0.0000E+00  0.4680E+00
    -14.258  0.0000E+00  0.4680E+00
    -14.149  0.0000E+00  0.4680E+00
    -14.039  0.0000E+00  0.4680E+00
    -13.930  0.0000E+00  0.4680E+00
    -13.820  0.0000E+00  0.4680E+00
    -13.710  0.0000E+00  0.4680E+00
    -13.601  0.0000E+00  0.4680E+00
    -13.491  0.0000E+00  0.4680E+00
    -13.382  0.0000E+00  0.4680E+00
    -13.272  0.0000E+00  0.4680E+00
    -13.163  0.0000E+00  0.4680E+00
    -13.053  0.0000E+00  0.4680E+00
    -12.944  0.0000E+00  0.4680E+00
    -12.834  0.0000E+00  0.4680E+00
    -12.724  0.0000E+00  0.4680E+00
    -12.615  0.0000E+00  0.4680E+00
    -12.505  0.0000E+00  0.4680E+00
    -12.396  0.0000E+00  0.4680E+00
    -12.286  0.0000E+00  0.4680E+00
    -12.177 -0.4915E-29  0.4680E+00
    -12.067 -0.2347E-25  0.4680E+00
    -11.958 -0.6132E-22  0.4680E+00
    -11.848 -0.8768E-19  0.4680E+00
    -11.738 -0.6659E-16  0.4680E+00
    -11.629 -0.2838E-13  0.4680E+00
    -11.519 -0.6596E-11  0.4680E+00
    -11.410 -0.8362E-09  0.4680E+00
    -11.300 -0.5765E-07  0.4680E+00
    -11.191 -0.2149E-05  0.4680E+00
    -11.081 -0.4278E-04  0.4680E+00
    -10.972 -0.4415E-03  0.4679E+00
    -10.862 -0.2164E-02  0.4677E+00
    -10.752 -0.3168E-02  0.4674E+00
    -10.643  0.1153E-01  0.4686E+00
    -10.533  0.5498E-01  0.4746E+00
    -10.424  0.9647E-01  0.4852E+00
    -10.314  0.8949E-01  0.4950E+00
    -10.205  0.4160E-01  0.4996E+00
    -10.095 -0.5883E-03  0.4995E+00
     -9.986 -0.5290E-02  0.4989E+00
     -9.876  0.5359E-01  0.5048E+00
     -9.766  0.1819E+00  0.5247E+00
     -9.657  0.2911E+00  0.5566E+00
     -9.547  0.2562E+00  0.5847E+00
     -9.438  0.1102E+00  0.5968E+00
     -9.328  0.8137E-02  0.5977E+00
     -9.219 -0.1057E-01  0.5965E+00
     -9.109 -0.3949E-02  0.5961E+00
     -9.000 -0.5969E-03  0.5960E+00
     -8.890 -0.4533E-04  0.5960E+00
     -8.780 -0.1829E-05  0.5960E+00
     -8.671 -0.4002E-07  0.5960E+00
     -8.561 -0.4787E-09  0.5960E+00
     -8.452 -0.3139E-11  0.5960E+00
     -8.342 -0.1129E-13  0.5960E+00
     -8.233 -0.2432E-16  0.5960E+00
     -8.123  0.0000E+00  0.5960E+00
     -8.013  0.0000E+00  0.5960E+00
     -7.904  0.0000E+00  0.5960E+00
     -7.794  0.0000E+00  0.5960E+00
     -7.685  0.0000E+00  0.5960E+00
     -7.575  0.0000E+00  0.5960E+00
     -7.466  0.0000E+00  0.5960E+00
     -7.356  0.0000E+00  0.5960E+00
     -7.247  0.0000E+00  0.5960E+00
     -7.137  0.0000E+00  0.5960E+00
     -7.027  0.0000E+00  0.5960E+00
     -6.918  0.0000E+00  0.5960E+00
     -6.808  0.0000E+00  0.5960E+00
     -6.699  0.0000E+00  0.5960E+00
     -6.589  0.0000E+00  0.5960E+00
     -6.480  0.0000E+00  0.5960E+00
     -6.370  0.0000E+00  0.5960E+00
     -6.261  0.0000E+00  0.5960E+00
     -6.151  0.0000E+00  0.5960E+00
     -6.041  0.0000E+00  0.5960E+00
     -5.932  0.0000E+00  0.5960E+00
     -5.822  0.0000E+00  0.5960E+00
     -5.713  0.0000E+00  0.5960E+00
     -5.603  0.0000E+00  0.5960E+00
     -5.494  0.0000E+00  0.5960E+00
     -5.384  0.0000E+00  0.5960E+00
     -5.275  0.0000E+00  0.5960E+00
     -5.165  0.0000E+00  0.5960E+00
     -5.055  0.0000E+00  0.5960E+00
     -4.946 -0.4261E-31  0.5960E+00
     -4.836 -0.2790E-27  0.5960E+00
     -4.727 -0.9962E-24  0.5960E+00
     -4.617 -0.1942E-20  0.5960E+00
     -4.508 -0.2067E-17  0.5960E+00
     -4.398 -0.1164E-14  0.5960E+00
     -4.289 -0.3654E-12  0.5960E+00
     -4.179 -0.6243E-10  0.5960E+00
     -4.069 -0.5786E-08  0.5960E+00
     -3.960 -0.2901E-06  0.5960E+00
     -3.850 -0.7821E-05  0.5960E+00
     -3.741 -0.1119E-03  0.5960E+00
     -3.631 -0.8196E-03  0.5959E+00
     -3.522 -0.2666E-02  0.5956E+00
     -3.412 -0.3899E-03  0.5956E+00
     -3.303  0.2206E-01  0.5980E+00
     -3.193  0.6614E-01  0.6052E+00
     -3.083  0.9382E-01  0.6155E+00
     -2.974  0.7660E-01  0.6239E+00
     -2.864  0.3585E-01  0.6278E+00
     -2.755  0.5975E-02  0.6285E+00
     -2.645 -0.2569E-02  0.6282E+00
     -2.536 -0.1477E-02  0.6280E+00
     -2.426 -0.2855E-03  0.6280E+00
     -2.317 -0.3181E-04  0.6280E+00
     -2.207 -0.9942E-04  0.6280E+00
     -2.097 -0.9029E-03  0.6279E+00
     -1.988 -0.3950E-02  0.6275E+00
     -1.878 -0.4575E-02  0.6270E+00
     -1.769  0.2288E-01  0.6295E+00
     -1.659  0.9522E-01  0.6399E+00
     -1.550  0.1630E+00  0.6578E+00
     -1.440  0.1789E+00  0.6774E+00
     -1.331  0.1694E+00  0.6959E+00
     -1.221  0.1468E+00  0.7120E+00
     -1.111  0.8958E-01  0.7218E+00
     -1.002  0.2371E-01  0.7244E+00
     -0.892 -0.8126E-02  0.7235E+00
     -0.783  0.8016E-02  0.7244E+00
     -0.673  0.7488E-01  0.7326E+00
     -0.564  0.1413E+00  0.7481E+00
     -0.454  0.1496E+00  0.7645E+00
     -0.345  0.1322E+00  0.7790E+00
     -0.235  0.1307E+00  0.7933E+00
     -0.125  0.1456E+00  0.8092E+00
     -0.016  0.1540E+00  0.8261E+00
      0.094  0.1469E+00  0.8422E+00
      0.203  0.1534E+00  0.8590E+00
      0.313  0.1755E+00  0.8782E+00
      0.422  0.2038E+00  0.9006E+00
      0.532  0.2304E+00  0.9258E+00
      0.641  0.2177E+00  0.9496E+00
      0.751  0.1615E+00  0.9673E+00
      0.861  0.9066E-01  0.9773E+00
      0.970  0.3003E-01  0.9806E+00
      1.080  0.2609E-03  0.9806E+00
      1.189 -0.3800E-02  0.9802E+00
      1.299 -0.1349E-02  0.9800E+00
      1.408 -0.2097E-03  0.9800E+00
      1.518 -0.1662E-04  0.9800E+00
      1.628 -0.6981E-06  0.9800E+00
      1.737 -0.1577E-07  0.9800E+00
      1.847 -0.1928E-09  0.9800E+00
      1.956 -0.1280E-11  0.9800E+00
      2.066 -0.4621E-14  0.9800E+00
      2.175 -0.8107E-17  0.9800E+00
      2.285 -0.2431E-18  0.9800E+00
      2.394 -0.1658E-15  0.9800E+00
      2.504 -0.6218E-13  0.9800E+00
      2.614 -0.1269E-10  0.9800E+00
      2.723 -0.1393E-08  0.9800E+00
      2.833 -0.8162E-07  0.9800E+00
      2.942 -0.2516E-05  0.9800E+00
      3.052 -0.3961E-04  0.9800E+00
      3.161 -0.2970E-03  0.9800E+00
      3.271 -0.8144E-03  0.9799E+00
      3.380  0.1036E-02  0.9800E+00
      3.490  0.9306E-02  0.9810E+00
      3.600  0.1621E-01  0.9828E+00
      3.709  0.1062E-01  0.9839E+00
      3.819  0.1710E-02  0.9841E+00
      3.928 -0.1052E-02  0.9840E+00
      4.038 -0.1507E-02  0.9839E+00
      4.147 -0.1134E-02  0.9837E+00
      4.257  0.8685E-02  0.9847E+00
      4.366  0.2772E-01  0.9877E+00
      4.476  0.2981E-01  0.9910E+00
      4.586  0.1125E-01  0.9922E+00
      4.695 -0.1562E-02  0.9920E+00
      4.805 -0.3235E-02  0.9917E+00
      4.914  0.5069E-02  0.9922E+00
      5.024  0.2633E-01  0.9951E+00
      5.133  0.4158E-01  0.9997E+00
      5.243  0.4349E-01  0.1004E+01
      5.352  0.5589E-01  0.1011E+01
      5.462  0.7768E-01  0.1019E+01
      5.572  0.9867E-01  0.1030E+01
      5.681  0.1191E+00  0.1043E+01
      5.791  0.1277E+00  0.1057E+01
      5.900  0.1092E+00  0.1069E+01
      6.010  0.7728E-01  0.1077E+01
      6.119  0.7163E-01  0.1085E+01
      6.229  0.8787E-01  0.1095E+01
      6.338  0.9098E-01  0.1105E+01
      6.448  0.8657E-01  0.1114E+01
      6.558  0.1001E+00  0.1125E+01
      6.667  0.1169E+00  0.1138E+01
      6.777  0.1144E+00  0.1151E+01
      6.886  0.1083E+00  0.1162E+01
      6.996  0.8816E-01  0.1172E+01
      7.105  0.3894E-01  0.1176E+01
      7.215  0.2207E-02  0.1177E+01
      7.324 -0.4144E-02  0.1176E+01
      7.434 -0.1406E-02  0.1176E+01
      7.544 -0.1917E-03  0.1176E+01
      7.653 -0.1290E-04  0.1176E+01
      7.763 -0.4537E-06  0.1176E+01
      7.872 -0.8546E-08  0.1176E+01
      7.982 -0.8716E-10  0.1176E+01
      8.091 -0.4841E-12  0.1176E+01
      8.201 -0.1467E-14  0.1176E+01
      8.310  0.0000E+00  0.1176E+01
      8.420  0.0000E+00  0.1176E+01
      8.530  0.0000E+00  0.1176E+01
      8.639  0.0000E+00  0.1176E+01
      8.749  0.0000E+00  0.1176E+01
      8.858  0.0000E+00  0.1176E+01
      8.968  0.0000E+00  0.1176E+01
