 vasp.6.3.2 27Jun22 (build Jun 14 2024 17:29:11) complex                         
 POSCAR found type information on POSCAR NaAlS 
 04/POSCAR found :  3 types and      79 ions
 -----------------------------------------------------------------------------
|                                                                             |
|           W    W    AA    RRRRR   N    N  II  N    N   GGGG   !!!           |
|           W    W   A  A   R    R  NN   N  II  NN   N  G    G  !!!           |
|           W    W  A    A  R    R  N N  N  II  N N  N  G       !!!           |
|           W WW W  AAAAAA  RRRRR   N  N N  II  N  N N  G  GGG   !            |
|           WW  WW  A    A  R   R   N   NN  II  N   NN  G    G                |
|           W    W  A    A  R    R  N    N  II  N    N   GGGG   !!!           |
|                                                                             |
|     The value NPAR = 9 specified in the INCAR file was overwritten,         |
|     because it was not compatible with the 3 processes available:           |
|     NPAR = 3                                                                |
|     was used instead, please check that this makes sense for your           |
|     machine.                                                                |
|                                                                             |
 -----------------------------------------------------------------------------

 LDA part: xc-table for Pade appr. of Perdew
 POSCAR found type information on POSCAR NaAlS 
 00/POSCAR found :  3 types and      79 ions
 POSCAR found type information on POSCAR NaAlS 
 10/POSCAR found :  3 types and      79 ions
 POSCAR, INCAR and KPOINTS ok, starting setup
 FFT: planning ... GRIDC
 FFT: planning ... GRID_SOFT
 FFT: planning ... GRID
 WAVECAR not read
 entering main loop
       N       E                     dE             d eps       ncg     rms          rms(c)
DAV:   1     0.466295174832E+04    0.46630E+04   -0.19997E+05   633   0.140E+03
DAV:   2     0.324164050944E+03   -0.43388E+04   -0.41801E+04   660   0.402E+02
DAV:   3    -0.285436707663E+03   -0.60960E+03   -0.60295E+03   693   0.165E+02
DAV:   4    -0.321507382858E+03   -0.36071E+02   -0.35608E+02   672   0.375E+01
DAV:   5    -0.323163132546E+03   -0.16557E+01   -0.16532E+01   852   0.816E+00    0.268E+01
RMM:   6    -0.305337224656E+03    0.17826E+02   -0.30635E+01   634   0.586E+00    0.178E+01
RMM:   7    -0.304575115837E+03    0.76211E+00   -0.38813E+01   625   0.553E+00    0.108E+01
RMM:   8    -0.304151629424E+03    0.42349E+00   -0.25743E+00   706   0.284E+00    0.586E+00
RMM:   9    -0.304163973701E+03   -0.12344E-01   -0.20542E+00   658   0.185E+00    0.247E+00
RMM:  10    -0.303965292768E+03    0.19868E+00   -0.24347E-01   693   0.107E+00    0.176E+00
RMM:  11    -0.303935102740E+03    0.30190E-01   -0.12410E-01   754   0.462E-01    0.978E-01
RMM:  12    -0.303937516618E+03   -0.24139E-02   -0.58307E-02   697   0.280E-01    0.624E-01
RMM:  13    -0.303941802811E+03   -0.42862E-02   -0.11180E-02   693   0.170E-01    0.443E-01
RMM:  14    -0.303944292319E+03   -0.24895E-02   -0.72089E-03   632   0.129E-01    0.320E-01
RMM:  15    -0.303942155571E+03    0.21367E-02   -0.27869E-03   774   0.793E-02    0.238E-01
RMM:  16    -0.303942008437E+03    0.14713E-03   -0.11983E-03   593   0.485E-02    0.115E-01
RMM:  17    -0.303942443018E+03   -0.43458E-03   -0.12281E-03   581   0.420E-02    0.144E-01
RMM:  18    -0.303942351457E+03    0.91561E-04   -0.21960E-04   531   0.235E-02    0.456E-02
RMM:  19    -0.303942283329E+03    0.68128E-04   -0.10865E-04   614   0.160E-02    0.163E-02
RMM:  20    -0.303942284963E+03   -0.16344E-05   -0.16229E-05   374   0.816E-03
   1 F= -.30394228E+03 E0= -.30398863E+03  d E =-.303942E+03
quench:  g(F)=  0.000E+00 g(S)=  0.000E+00 dE (1.order)= 0.000E+00
 bond charge predicted
       N       E                     dE             d eps       ncg     rms          rms(c)
DAV:   1    -0.303942284794E+03   -0.14652E-05   -0.50655E-06   357   0.848E-03    0.652E-03
RMM:   2    -0.303942286083E+03   -0.12890E-05   -0.27268E-06   343   0.370E-03
   2 F= -.30394229E+03 E0= -.30398861E+03  d E =-.111971E-05
quench:  g(F)=  0.000E+00 g(S)=  0.000E+00 dE (1.order)= 0.000E+00
 bond charge predicted
       N       E                     dE             d eps       ncg     rms          rms(c)
DAV:   1    -0.303942284056E+03    0.73725E-06   -0.34089E-06   402   0.757E-03    0.296E-03
RMM:   2    -0.303942284542E+03   -0.48538E-06   -0.76069E-07   322   0.208E-03
   3 F= -.30394228E+03 E0= -.30398860E+03  d E =0.154087E-05
quench:  g(F)=  0.000E+00 g(S)=  0.000E+00 dE (1.order)= 0.000E+00
 bond charge predicted
       N       E                     dE             d eps       ncg     rms          rms(c)
DAV:   1    -0.303942283745E+03    0.31107E-06   -0.10823E-06   420   0.409E-03    0.175E-03
RMM:   2    -0.303942283698E+03    0.47483E-07   -0.20985E-07   147   0.137E-03
   4 F= -.30394228E+03 E0= -.30398861E+03  d E =0.843931E-06
quench:  g(F)=  0.000E+00 g(S)=  0.000E+00 dE (1.order)= 0.000E+00
 bond charge predicted
       N       E                     dE             d eps       ncg     rms          rms(c)
DAV:   1    -0.303942283692E+03    0.53216E-07   -0.36900E-07   384   0.166E-03    0.134E-03
RMM:   2    -0.303942283735E+03   -0.42732E-07   -0.27751E-08    84   0.965E-04
   5 F= -.30394228E+03 E0= -.30398861E+03  d E =-.369982E-07
quench:  g(F)=  0.000E+00 g(S)=  0.000E+00 dE (1.order)= 0.000E+00
 bond charge predicted
       N       E                     dE             d eps       ncg     rms          rms(c)
DAV:   1    -0.303942283641E+03    0.51368E-07   -0.16599E-07   366   0.156E-03    0.688E-04
RMM:   2    -0.303942283632E+03    0.84765E-08    0.99773-198    51   0.679E-04
   6 F= -.30394228E+03 E0= -.30398861E+03  d E =0.102576E-06
quench:  g(F)=  0.000E+00 g(S)=  0.000E+00 dE (1.order)= 0.000E+00
 bond charge predicted
       N       E                     dE             d eps       ncg     rms          rms(c)
DAV:   1    -0.303942283628E+03    0.12878E-07   -0.86566E-08   357   0.777E-04    0.680E-04
RMM:   2    -0.303942283622E+03    0.57771E-08    0.40833-222    48   0.483E-04
   7 F= -.30394228E+03 E0= -.30398861E+03  d E =0.101791E-07
quench:  g(F)=  0.000E+00 g(S)=  0.000E+00 dE (1.order)= 0.000E+00
 bond charge predicted
       N       E                     dE             d eps       ncg     rms          rms(c)
DAV:   1    -0.303942283611E+03    0.16502E-07   -0.29745E-08   339   0.686E-04    0.405E-04
RMM:   2    -0.303942283612E+03   -0.10332E-08    0.49548-208    40   0.355E-04
   8 F= -.30394228E+03 E0= -.30398861E+03  d E =0.969158E-08
quench:  g(F)=  0.000E+00 g(S)=  0.000E+00 dE (1.order)= 0.000E+00
 bond charge predicted
       N       E                     dE             d eps       ncg     rms          rms(c)
DAV:   1    -0.303942283605E+03    0.61555E-08   -0.21067E-08   339   0.435E-04    0.319E-04
RMM:   2    -0.303942283602E+03    0.28958E-08    0.21427-256    36   0.283E-04
   9 F= -.30394228E+03 E0= -.30398861E+03  d E =0.100845E-07
quench:  g(F)=  0.000E+00 g(S)=  0.000E+00 dE (1.order)= 0.000E+00
 bond charge predicted
       N       E                     dE             d eps       ncg     rms          rms(c)
DAV:   1    -0.303942283601E+03    0.41982E-08   -0.16000E-08   339   0.321E-04    0.341E-04
RMM:   2    -0.303942283604E+03   -0.30341E-08    0.43649-289    29   0.205E-04
  10 F= -.30394228E+03 E0= -.30398861E+03  d E =-.173168E-08
quench:  g(F)=  0.000E+00 g(S)=  0.000E+00 dE (1.order)= 0.000E+00
 bond charge predicted
       N       E                     dE             d eps       ncg     rms          rms(c)
DAV:   1    -0.303942283600E+03    0.15134E-08   -0.76095E-09   339   0.340E-04    0.161E-04
RMM:   2    -0.303942283599E+03    0.29104E-09    0.33644-289    25   0.166E-04
  11 F= -.30394228E+03 E0= -.30398861E+03  d E =0.483851E-08
quench:  g(F)=  0.000E+00 g(S)=  0.000E+00 dE (1.order)= 0.000E+00
 bond charge predicted
       N       E                     dE             d eps       ncg     rms          rms(c)
DAV:   1    -0.303942283596E+03    0.31068E-08   -0.32244E-09   339   0.185E-04    0.122E-04
RMM:   2    -0.303942283599E+03   -0.20664E-08    0.17859-289    23   0.121E-04
  12 F= -.30394228E+03 E0= -.30398861E+03  d E =0.749424E-09
quench:  g(F)=  0.000E+00 g(S)=  0.000E+00 dE (1.order)= 0.000E+00
 bond charge predicted
       N       E                     dE             d eps       ncg     rms          rms(c)
DAV:   1    -0.303942283599E+03   -0.24229E-08   -0.17572E-09   339   0.130E-04    0.120E-04
RMM:   2    -0.303942283598E+03    0.95315E-09    0.10856-289    19   0.829E-05
  13 F= -.30394228E+03 E0= -.30398861E+03  d E =0.596629E-09
quench:  g(F)=  0.000E+00 g(S)=  0.000E+00 dE (1.order)= 0.000E+00
 bond charge predicted
       N       E                     dE             d eps       ncg     rms          rms(c)
DAV:   1    -0.303942283596E+03    0.26412E-08   -0.83661E-10   339   0.121E-04    0.680E-05
RMM:   2    -0.303942283598E+03   -0.14334E-08    0.00000E+00    17   0.661E-05
  14 F= -.30394228E+03 E0= -.30398861E+03  d E =0.254659E-09
quench:  g(F)=  0.000E+00 g(S)=  0.000E+00 dE (1.order)= 0.000E+00
 bond charge predicted
       N       E                     dE             d eps       ncg     rms          rms(c)
DAV:   1    -0.303942283597E+03   -0.59663E-09   -0.63338E-10   339   0.755E-05    0.108E-04
RMM:   2    -0.303942283597E+03    0.14552E-09    0.00000E+00    15   0.498E-05
  15 F= -.30394228E+03 E0= -.30398861E+03  d E =0.982254E-09
quench:  g(F)=  0.000E+00 g(S)=  0.000E+00 dE (1.order)= 0.000E+00
 bond charge predicted
       N       E                     dE             d eps       ncg     rms          rms(c)
DAV:   1    -0.303942283597E+03   -0.21828E-09   -0.67060E-10   321   0.841E-05    0.746E-05
RMM:   2    -0.303942283598E+03   -0.55297E-09    0.00000E+00    15   0.429E-05
  16 F= -.30394228E+03 E0= -.30398861E+03  d E =-.916771E-09
quench:  g(F)=  0.000E+00 g(S)=  0.000E+00 dE (1.order)= 0.000E+00
 bond charge predicted
       N       E                     dE             d eps       ncg     rms          rms(c)
DAV:   1    -0.303942283596E+03    0.66939E-09   -0.14742E-09   312   0.122E-04    0.458E-05
RMM:   2    -0.303942283597E+03   -0.12369E-09    0.00000E+00    13   0.342E-05
  17 F= -.30394228E+03 E0= -.30398861E+03  d E =0.109867E-08
quench:  g(F)=  0.000E+00 g(S)=  0.000E+00 dE (1.order)= 0.000E+00
 bond charge predicted
       N       E                     dE             d eps       ncg     rms          rms(c)
DAV:   1    -0.303942283596E+03   -0.72760E-11   -0.13161E-10   312   0.477E-05    0.309E-05
RMM:   2    -0.303942283597E+03   -0.33469E-09    0.00000E+00    14   0.267E-05
  18 F= -.30394228E+03 E0= -.30398861E+03  d E =-.218279E-09
quench:  g(F)=  0.000E+00 g(S)=  0.000E+00 dE (1.order)= 0.000E+00
 bond charge predicted
       N       E                     dE             d eps       ncg     rms          rms(c)
DAV:   1    -0.303942283597E+03   -0.72760E-09   -0.41187E-10   312   0.564E-05    0.102E-05
RMM:   2    -0.303942283597E+03    0.26921E-09    0.00000E+00    12   0.223E-05
  19 F= -.30394228E+03 E0= -.30398861E+03  d E =-.123691E-09
quench:  g(F)=  0.000E+00 g(S)=  0.000E+00 dE (1.order)= 0.000E+00
 bond charge predicted
       N       E                     dE             d eps       ncg     rms          rms(c)
DAV:   1    -0.303942283597E+03   -0.31287E-09   -0.14065E-10   312   0.237E-05    0.179E-05
RMM:   2    -0.303942283597E+03    0.75670E-09    0.00000E+00    12   0.133E-05
  20 F= -.30394228E+03 E0= -.30398861E+03  d E =0.174623E-09
quench:  g(F)=  0.000E+00 g(S)=  0.000E+00 dE (1.order)= 0.000E+00
 bond charge predicted
       N       E                     dE             d eps       ncg     rms          rms(c)
DAV:   1    -0.303942283596E+03    0.11423E-08    0.30171E-11   312   0.201E-05    0.792E-06
RMM:   2    -0.303942283597E+03   -0.38563E-09    0.00000E+00    12   0.953E-06
  21 F= -.30394228E+03 E0= -.30398861E+03  d E =0.000000E+00
quench:  g(F)=  0.000E+00 g(S)=  0.000E+00 dE (1.order)= 0.000E+00
 bond charge predicted
       N       E                     dE             d eps       ncg     rms          rms(c)
DAV:   1    -0.303942283595E+03    0.80036E-09   -0.57365E-13   312   0.161E-05    0.510E-06
RMM:   2    -0.303942283597E+03   -0.11787E-08    0.00000E+00    12   0.687E-06
  22 F= -.30394228E+03 E0= -.30398861E+03  d E =0.727596E-11
quench:  g(F)=  0.000E+00 g(S)=  0.000E+00 dE (1.order)= 0.000E+00
 bond charge predicted
       N       E                     dE             d eps       ncg     rms          rms(c)
DAV:   1    -0.303942283596E+03   -0.70577E-09   -0.21242E-11   312   0.800E-06    0.529E-06
RMM:   2    -0.303942283597E+03   -0.48021E-09    0.00000E+00    12   0.544E-06
  23 F= -.30394228E+03 E0= -.30398861E+03  d E =-.727596E-11
quench:  g(F)=  0.000E+00 g(S)=  0.000E+00 dE (1.order)= 0.000E+00
 bond charge predicted
       N       E                     dE             d eps       ncg     rms          rms(c)
DAV:   1    -0.303942283597E+03   -0.96043E-09   -0.48436E-11   312   0.759E-06    0.427E-06
RMM:   2    -0.303942283597E+03    0.34925E-09    0.00000E+00    12   0.426E-06
  24 F= -.30394228E+03 E0= -.30398861E+03  d E =-.130967E-09
quench:  g(F)=  0.000E+00 g(S)=  0.000E+00 dE (1.order)= 0.000E+00
 bond charge predicted
       N       E                     dE             d eps       ncg     rms          rms(c)
DAV:   1    -0.303942283597E+03    0.53842E-09   -0.12729E-10   312   0.524E-06    0.176E-06
RMM:   2    -0.303942283597E+03   -0.19645E-09    0.00000E+00    10   0.342E-06
  25 F= -.30394228E+03 E0= -.30398861E+03  d E =-.727596E-11
quench:  g(F)=  0.000E+00 g(S)=  0.000E+00 dE (1.order)= 0.000E+00
 bond charge predicted
       N       E                     dE             d eps       ncg     rms          rms(c)
DAV:   1    -0.303942283597E+03   -0.15280E-09    0.15059E-10   312   0.368E-06    0.166E-06
RMM:   2    -0.303942283597E+03   -0.58208E-10    0.00000E+00    10   0.240E-06
  26 F= -.30394228E+03 E0= -.30398861E+03  d E =-.145519E-10
quench:  g(F)=  0.000E+00 g(S)=  0.000E+00 dE (1.order)= 0.000E+00
 bond charge predicted
       N       E                     dE             d eps       ncg     rms          rms(c)
DAV:   1    -0.303942283596E+03    0.35652E-09   -0.78507E-11   312   0.258E-06    0.917E-07
RMM:   2    -0.303942283597E+03   -0.22555E-09    0.00000E+00    10   0.137E-06
  27 F= -.30394228E+03 E0= -.30398861E+03  d E =0.189175E-09
quench:  g(F)=  0.000E+00 g(S)=  0.000E+00 dE (1.order)= 0.000E+00
 bond charge predicted
       N       E                     dE             d eps       ncg     rms          rms(c)
DAV:   1    -0.303942283597E+03   -0.57480E-09    0.47101E-11   312   0.181E-06    0.452E-07
RMM:   2    -0.303942283596E+03    0.60390E-09    0.00000E+00    10   0.112E-06
  28 F= -.30394228E+03 E0= -.30398861E+03  d E =0.254659E-09
quench:  g(F)=  0.000E+00 g(S)=  0.000E+00 dE (1.order)= 0.000E+00
 bond charge predicted
       N       E                     dE             d eps       ncg     rms          rms(c)
DAV:   1    -0.303942283597E+03   -0.27649E-09   -0.17299E-11   312   0.116E-06    0.111E-06
RMM:   2    -0.303942283596E+03    0.80763E-09    0.00000E+00    10   0.781E-07
  29 F= -.30394228E+03 E0= -.30398861E+03  d E =-.727596E-10
quench:  g(F)=  0.000E+00 g(S)=  0.000E+00 dE (1.order)= 0.000E+00
 bond charge predicted
       N       E                     dE             d eps       ncg     rms          rms(c)
DAV:   1    -0.303942283598E+03   -0.27649E-09   -0.91536E-11   312   0.130E-06    0.590E-07
RMM:   2    -0.303942283597E+03    0.77853E-09    0.00000E+00     8   0.595E-07
  30 F= -.30394228E+03 E0= -.30398861E+03  d E =-.305590E-09
quench:  g(F)=  0.000E+00 g(S)=  0.000E+00 dE (1.order)= 0.000E+00
 bond charge predicted
       N       E                     dE             d eps       ncg     rms          rms(c)
DAV:   1    -0.303942283597E+03    0.66211E-09   -0.28779E-10   312   0.986E-07    0.219E-07
RMM:   2    -0.303942283597E+03   -0.50932E-10    0.00000E+00    10   0.510E-07
  31 F= -.30394228E+03 E0= -.30398861E+03  d E =-.167347E-09
quench:  g(F)=  0.000E+00 g(S)=  0.000E+00 dE (1.order)= 0.000E+00
 bond charge predicted
       N       E                     dE             d eps       ncg     rms          rms(c)
DAV:   1    -0.303942283597E+03   -0.80036E-10    0.12344E-10   312   0.535E-07    0.195E-07
RMM:   2    -0.303942283596E+03    0.53114E-09    0.00000E+00     8   0.336E-07
  32 F= -.30394228E+03 E0= -.30398861E+03  d E =0.502041E-09
quench:  g(F)=  0.000E+00 g(S)=  0.000E+00 dE (1.order)= 0.000E+00
 bond charge predicted
       N       E                     dE             d eps       ncg     rms          rms(c)
DAV:   1    -0.303942283597E+03    0.17462E-09    0.50381E-11   312   0.436E-07    0.958E-08
RMM:   2    -0.303942283597E+03    0.20373E-09    0.00000E+00     8   0.267E-07
  33 F= -.30394228E+03 E0= -.30398861E+03  d E =-.152795E-09
quench:  g(F)=  0.000E+00 g(S)=  0.000E+00 dE (1.order)= 0.000E+00
 bond charge predicted
       N       E                     dE             d eps       ncg     rms          rms(c)
DAV:   1    -0.303942283595E+03    0.15061E-08   -0.97163E-11   312   0.272E-07    0.231E-07
RMM:   2    -0.303942283597E+03   -0.15134E-08    0.00000E+00     8   0.202E-07
  34 F= -.30394228E+03 E0= -.30398861E+03  d E =-.211003E-09
quench:  g(F)=  0.000E+00 g(S)=  0.000E+00 dE (1.order)= 0.000E+00
 bond charge predicted
       N       E                     dE             d eps       ncg     rms          rms(c)
DAV:   1    -0.303942283597E+03   -0.21537E-08   -0.33414E-10   312   0.311E-07    0.132E-07
RMM:   2    -0.303942283597E+03    0.68394E-09    0.00000E+00     7   0.153E-07
  35 F= -.30394228E+03 E0= -.30398861E+03  d E =0.436557E-10
quench:  g(F)=  0.000E+00 g(S)=  0.000E+00 dE (1.order)= 0.000E+00
 bond charge predicted
       N       E                     dE             d eps       ncg     rms          rms(c)
DAV:   1    -0.303942283597E+03    0.13824E-09   -0.67625E-11   312   0.257E-07    0.564E-08
RMM:   2    -0.303942283597E+03    0.74215E-09    0.00000E+00     6   0.137E-07
  36 F= -.30394228E+03 E0= -.30398861E+03  d E =0.196451E-09
quench:  g(F)=  0.000E+00 g(S)=  0.000E+00 dE (1.order)= 0.000E+00
 bond charge predicted
       N       E                     dE             d eps       ncg     rms          rms(c)
DAV:   1    -0.303942283596E+03    0.15425E-08    0.83155E-11   312   0.147E-07    0.519E-08
RMM:   2    -0.303942283597E+03   -0.79308E-09    0.00000E+00     7   0.910E-08
  37 F= -.30394228E+03 E0= -.30398861E+03  d E =0.727596E-11
quench:  g(F)=  0.000E+00 g(S)=  0.000E+00 dE (1.order)= 0.000E+00
 bond charge predicted
       N       E                     dE             d eps       ncg     rms          rms(c)
DAV:   1    -0.303942283597E+03   -0.84401E-09    0.88142E-11   312   0.130E-07    0.228E-08
RMM:   2    -0.303942283597E+03   -0.72760E-11    0.00000E+00     6   0.754E-08
  38 F= -.30394228E+03 E0= -.30398861E+03  d E =-.582077E-10
quench:  g(F)=  0.000E+00 g(S)=  0.000E+00 dE (1.order)= 0.000E+00
 bond charge predicted
       N       E                     dE             d eps       ncg     rms          rms(c)
DAV:   1    -0.303942283598E+03   -0.10914E-08   -0.22248E-11   312   0.776E-08    0.569E-08
RMM:   2    -0.303942283597E+03    0.10259E-08    0.00000E+00     6   0.592E-08
  39 F= -.30394228E+03 E0= -.30398861E+03  d E =-.582077E-10
quench:  g(F)=  0.000E+00 g(S)=  0.000E+00 dE (1.order)= 0.000E+00
 bond charge predicted
       N       E                     dE             d eps       ncg     rms          rms(c)
DAV:   1    -0.303942283596E+03    0.19281E-08   -0.72466E-11   312   0.866E-08    0.316E-08
RMM:   2    -0.303942283597E+03   -0.95315E-09    0.00000E+00     4   0.425E-08
  40 F= -.30394228E+03 E0= -.30398861E+03  d E =-.509317E-10
quench:  g(F)=  0.000E+00 g(S)=  0.000E+00 dE (1.order)= 0.000E+00
 bond charge predicted
       N       E                     dE             d eps       ncg     rms          rms(c)
DAV:   1    -0.303942283597E+03   -0.87311E-09    0.25003E-11   312   0.654E-08    0.160E-08
RMM:   2    -0.303942283597E+03   -0.21828E-10    0.00000E+00     6   0.390E-08
  41 F= -.30394228E+03 E0= -.30398861E+03  d E =0.582077E-10
quench:  g(F)=  0.000E+00 g(S)=  0.000E+00 dE (1.order)= 0.000E+00
 bond charge predicted
       N       E                     dE             d eps       ncg     rms          rms(c)
DAV:   1    -0.303942283598E+03   -0.11569E-08   -0.75829E-11   312   0.421E-08    0.158E-08
RMM:   2    -0.303942283597E+03    0.11278E-08    0.00000E+00     4   0.276E-08
  42 F= -.30394228E+03 E0= -.30398861E+03  d E =-.727596E-11
quench:  g(F)=  0.000E+00 g(S)=  0.000E+00 dE (1.order)= 0.000E+00
 bond charge predicted
       N       E                     dE             d eps       ncg     rms          rms(c)
DAV:   1    -0.303942283597E+03    0.50204E-09   -0.69472E-11   312   0.385E-08    0.614E-09
RMM:   2    -0.303942283597E+03    0.60390E-09    0.00000E+00     5   0.224E-08
  43 F= -.30394228E+03 E0= -.30398861E+03  d E =-.218279E-10
quench:  g(F)=  0.000E+00 g(S)=  0.000E+00 dE (1.order)= 0.000E+00
 bond charge predicted
       N       E                     dE             d eps       ncg     rms          rms(c)
DAV:   1    -0.303942283596E+03    0.16880E-08    0.20320E-11   312   0.228E-08    0.186E-08
RMM:   2    -0.303942283597E+03   -0.90949E-09    0.00000E+00     3   0.180E-08
  44 F= -.30394228E+03 E0= -.30398861E+03  d E =0.174623E-09
quench:  g(F)=  0.000E+00 g(S)=  0.000E+00 dE (1.order)= 0.000E+00
 bond charge predicted
       N       E                     dE             d eps       ncg     rms          rms(c)
DAV:   1    -0.303942283596E+03   -0.82218E-09   -0.87249E-11   312   0.277E-08    0.113E-08
RMM:   2    -0.303942283597E+03   -0.20373E-09    0.00000E+00     4   0.125E-08
  45 F= -.30394228E+03 E0= -.30398861E+03  d E =-.116415E-09
quench:  g(F)=  0.000E+00 g(S)=  0.000E+00 dE (1.order)= 0.000E+00
 bond charge predicted
       N       E                     dE             d eps       ncg     rms          rms(c)
DAV:   1    -0.303942283595E+03    0.17390E-08    0.30258E-11   312   0.245E-08    0.458E-09
RMM:   2    -0.303942283596E+03   -0.16953E-08    0.00000E+00     4   0.108E-08
  46 F= -.30394228E+03 E0= -.30398861E+03  d E =0.247383E-09
quench:  g(F)=  0.000E+00 g(S)=  0.000E+00 dE (1.order)= 0.000E+00
 bond charge predicted
       N       E                     dE             d eps       ncg     rms          rms(c)
DAV:   1    -0.303942283597E+03   -0.18408E-08   -0.12682E-12   312   0.125E-08    0.422E-09
RMM:   2    -0.303942283597E+03   -0.58208E-10    0.00000E+00     4   0.820E-09
  47 F= -.30394228E+03 E0= -.30398861E+03  d E =-.203727E-09
quench:  g(F)=  0.000E+00 g(S)=  0.000E+00 dE (1.order)= 0.000E+00
 bond charge predicted
       N       E                     dE             d eps       ncg     rms          rms(c)
DAV:   1    -0.303942283595E+03    0.17899E-08   -0.13257E-10   312   0.113E-08    0.131E-09
RMM:   2    -0.303942283596E+03   -0.16735E-08    0.00000E+00     3   0.651E-09
  48 F= -.30394228E+03 E0= -.30398861E+03  d E =0.174623E-09
quench:  g(F)=  0.000E+00 g(S)=  0.000E+00 dE (1.order)= 0.000E+00
 bond charge predicted
       N       E                     dE             d eps       ncg     rms          rms(c)
DAV:   1    -0.303942283597E+03   -0.24811E-08   -0.18778E-10   312   0.666E-09    0.524E-09
RMM:   2    -0.303942283596E+03    0.72760E-09    0.00000E+00     3   0.524E-09
  49 F= -.30394228E+03 E0= -.30398861E+03  d E =-.800355E-10
quench:  g(F)=  0.000E+00 g(S)=  0.000E+00 dE (1.order)= 0.000E+00
 bond charge predicted
       N       E                     dE             d eps       ncg     rms          rms(c)
DAV:   1    -0.303942283596E+03    0.11059E-08   -0.18186E-10   312   0.820E-09    0.328E-09
RMM:   2    -0.303942283596E+03   -0.27649E-09    0.00000E+00     2   0.383E-09
  50 F= -.30394228E+03 E0= -.30398861E+03  d E =0.101863E-09
quench:  g(F)=  0.000E+00 g(S)=  0.000E+00 dE (1.order)= 0.000E+00
 bond charge predicted
       N       E                     dE             d eps       ncg     rms          rms(c)
DAV:   1    -0.303942283597E+03   -0.12878E-08   -0.26267E-10   312   0.743E-09    0.113E-09
RMM:   2    -0.303942283596E+03    0.97498E-09    0.00000E+00     2   0.327E-09
  51 F= -.30394228E+03 E0= -.30398861E+03  d E =-.363798E-10
quench:  g(F)=  0.000E+00 g(S)=  0.000E+00 dE (1.order)= 0.000E+00
 bond charge predicted
       N       E                     dE             d eps       ncg     rms          rms(c)
DAV:   1    -0.303942283597E+03    0.85129E-09   -0.56569E-11   312   0.350E-09    0.135E-09
RMM:   2    -0.303942283596E+03    0.13824E-09    0.00000E+00     2   0.240E-09
  52 F= -.30394228E+03 E0= -.30398861E+03  d E =0.145519E-10
quench:  g(F)=  0.000E+00 g(S)=  0.000E+00 dE (1.order)= 0.000E+00
 bond charge predicted
       N       E                     dE             d eps       ncg     rms          rms(c)
DAV:   1    -0.303942283598E+03   -0.98953E-09   -0.16059E-10   312   0.298E-09    0.768E-10
RMM:   2    -0.303942283596E+03    0.10768E-08    0.00000E+00     2   0.178E-09
  53 F= -.30394228E+03 E0= -.30398861E+03  d E =-.509317E-10
quench:  g(F)=  0.000E+00 g(S)=  0.000E+00 dE (1.order)= 0.000E+00
 bond charge predicted
       N       E                     dE             d eps       ncg     rms          rms(c)
DAV:   1    -0.303942283596E+03    0.20227E-08   -0.67953E-11   312   0.204E-09    0.457E-10
RMM:   2    -0.303942283596E+03   -0.86584E-09    0.00000E+00     2   0.151E-09
  54 F= -.30394228E+03 E0= -.30398861E+03  d E =0.800355E-10
quench:  g(F)=  0.000E+00 g(S)=  0.000E+00 dE (1.order)= 0.000E+00
 bond charge predicted
       N       E                     dE             d eps       ncg     rms          rms(c)
DAV:   1    -0.303942283598E+03   -0.29031E-08   -0.14943E-10   312   0.172E-09    0.109E-09
RMM:   2    -0.303942283596E+03    0.20809E-08    0.00000E+00     2   0.121E-09
  55 F= -.30394228E+03 E0= -.30398861E+03  d E =0.436557E-10
quench:  g(F)=  0.000E+00 g(S)=  0.000E+00 dE (1.order)= 0.000E+00
 bond charge predicted
       N       E                     dE             d eps       ncg     rms          rms(c)
DAV:   1    -0.303942283596E+03    0.25466E-08   -0.25879E-10   312   0.160E-09    0.530E-10
RMM:   2    -0.303942283596E+03   -0.47294E-09    0.00000E+00     2   0.873E-10
  56 F= -.30394228E+03 E0= -.30398861E+03  d E =-.727596E-11
quench:  g(F)=  0.000E+00 g(S)=  0.000E+00 dE (1.order)= 0.000E+00
 bond charge predicted
       N       E                     dE             d eps       ncg     rms          rms(c)
DAV:   1    -0.303942283596E+03   -0.38563E-09   -0.11557E-10   312   0.117E-09    0.325E-10
RMM:   2    -0.303942283597E+03   -0.25466E-09    0.00000E+00     2   0.745E-10
  57 F= -.30394228E+03 E0= -.30398861E+03  d E =-.167347E-09
quench:  g(F)=  0.000E+00 g(S)=  0.000E+00 dE (1.order)= 0.000E+00
 bond charge predicted
       N       E                     dE             d eps       ncg     rms          rms(c)
DAV:   1    -0.303942283596E+03   -0.19645E-09   -0.77301E-11   312   0.822E-10    0.492E-10
RMM:   2    -0.303942283596E+03    0.65484E-10    0.00000E+00     2   0.571E-10
  58 F= -.30394228E+03 E0= -.30398861E+03  d E =0.123691E-09
quench:  g(F)=  0.000E+00 g(S)=  0.000E+00 dE (1.order)= 0.000E+00
 bond charge predicted
       N       E                     dE             d eps       ncg     rms          rms(c)
DAV:   1    -0.303942283596E+03    0.85129E-09   -0.36211E-11   312   0.793E-10    0.403E-10
RMM:   2    -0.303942283596E+03   -0.77125E-09    0.00000E+00     2   0.437E-10
  59 F= -.30394228E+03 E0= -.30398861E+03  d E =0.145519E-10
quench:  g(F)=  0.000E+00 g(S)=  0.000E+00 dE (1.order)= 0.000E+00
 bond charge predicted
       N       E                     dE             d eps       ncg     rms          rms(c)
DAV:   1    -0.303942283596E+03   -0.40018E-09   -0.25035E-10   312   0.612E-10    0.232E-10
RMM:   2    -0.303942283596E+03   -0.40018E-09    0.00000E+00     2   0.382E-10
  60 F= -.30394228E+03 E0= -.30398861E+03  d E =-.291038E-10
quench:  g(F)=  0.000E+00 g(S)=  0.000E+00 dE (1.order)= 0.000E+00
 bond charge predicted
       N       E                     dE             d eps       ncg     rms          rms(c)
DAV:   1    -0.303942283597E+03   -0.84401E-09    0.26895E-11   312   0.469E-10    0.350E-10
RMM:   2    -0.303942283597E+03    0.32014E-09    0.00000E+00     2   0.321E-10
  61 F= -.30394228E+03 E0= -.30398861E+03  d E =-.123691E-09
quench:  g(F)=  0.000E+00 g(S)=  0.000E+00 dE (1.order)= 0.000E+00
 bond charge predicted
       N       E                     dE             d eps       ncg     rms          rms(c)
DAV:   1    -0.303942283597E+03   -0.18917E-09    0.79201E-11   312   0.454E-10    0.234E-10
RMM:   2    -0.303942283596E+03    0.62573E-09    0.00000E+00     2   0.252E-10
  62 F= -.30394228E+03 E0= -.30398861E+03  d E =0.116415E-09
quench:  g(F)=  0.000E+00 g(S)=  0.000E+00 dE (1.order)= 0.000E+00
 bond charge predicted
       N       E                     dE             d eps       ncg     rms          rms(c)
DAV:   1    -0.303942283596E+03    0.14697E-08    0.35960E-11   312   0.320E-10    0.361E-10
RMM:   2    -0.303942283596E+03   -0.82946E-09    0.00000E+00     2   0.235E-10
  63 F= -.30394228E+03 E0= -.30398861E+03  d E =0.145519E-10
quench:  g(F)=  0.000E+00 g(S)=  0.000E+00 dE (1.order)= 0.000E+00
 bond charge predicted
       N       E                     dE             d eps       ncg     rms          rms(c)
DAV:   1    -0.303942283596E+03   -0.69122E-09   -0.13330E-10   312   0.323E-10    0.305E-10
RMM:   2    -0.303942283596E+03   -0.11642E-09    0.00000E+00     2   0.186E-10
  64 F= -.30394228E+03 E0= -.30398861E+03  d E =0.218279E-10
quench:  g(F)=  0.000E+00 g(S)=  0.000E+00 dE (1.order)= 0.000E+00
 bond charge predicted
       N       E                     dE             d eps       ncg     rms          rms(c)
DAV:   1    -0.303942283596E+03    0.55297E-09   -0.22212E-10   312   0.261E-10    0.368E-10
RMM:   2    -0.303942283596E+03   -0.74215E-09    0.00000E+00     2   0.171E-10
  65 F= -.30394228E+03 E0= -.30398861E+03  d E =-.727596E-10
quench:  g(F)=  0.000E+00 g(S)=  0.000E+00 dE (1.order)= 0.000E+00
 bond charge predicted
       N       E                     dE             d eps       ncg     rms          rms(c)
DAV:   1    -0.303942283597E+03   -0.17826E-08    0.39205E-11   312   0.358E-10    0.303E-10
RMM:   2    -0.303942283597E+03    0.96770E-09    0.00000E+00     1   0.150E-10
  66 F= -.30394228E+03 E0= -.30398861E+03  d E =-.727596E-10
quench:  g(F)=  0.000E+00 g(S)=  0.000E+00 dE (1.order)= 0.000E+00
 bond charge predicted
       N       E                     dE             d eps       ncg     rms          rms(c)
DAV:   1    -0.303942283597E+03    0.82218E-09    0.15618E-11   294   0.372E-10    0.199E-10
RMM:   2    -0.303942283596E+03    0.21100E-09    0.00000E+00     1   0.135E-10
  67 F= -.30394228E+03 E0= -.30398861E+03  d E =0.654836E-10
quench:  g(F)=  0.000E+00 g(S)=  0.000E+00 dE (1.order)= 0.000E+00
 bond charge predicted
       N       E                     dE             d eps       ncg     rms          rms(c)
DAV:   1    -0.303942283596E+03    0.23283E-09   -0.12361E-10   294   0.226E-10    0.198E-10
RMM:   2    -0.303942283596E+03   -0.72760E-11    0.00000E+00     1   0.124E-10
  68 F= -.30394228E+03 E0= -.30398861E+03  d E =0.145519E-10
quench:  g(F)=  0.000E+00 g(S)=  0.000E+00 dE (1.order)= 0.000E+00
 bond charge predicted
       N       E                     dE             d eps       ncg     rms          rms(c)
DAV:   1    -0.303942283597E+03   -0.73487E-09   -0.10973E-10   294   0.220E-10    0.309E-10
RMM:   2    -0.303942283596E+03    0.82946E-09    0.00000E+00     1   0.127E-10
  69 F= -.30394228E+03 E0= -.30398861E+03  d E =0.101863E-09
quench:  g(F)=  0.000E+00 g(S)=  0.000E+00 dE (1.order)= 0.000E+00
 bond charge predicted
       N       E                     dE             d eps       ncg     rms          rms(c)
DAV:   1    -0.303942283596E+03    0.10186E-08   -0.26770E-10   294   0.243E-10    0.248E-10
RMM:   2    -0.303942283596E+03   -0.29831E-09    0.00000E+00     1   0.122E-10
  70 F= -.30394228E+03 E0= -.30398861E+03  d E =-.109139E-09
quench:  g(F)=  0.000E+00 g(S)=  0.000E+00 dE (1.order)= 0.000E+00
 bond charge predicted
       N       E                     dE             d eps       ncg     rms          rms(c)
DAV:   1    -0.303942283596E+03   -0.28376E-09    0.58736E-11   294   0.278E-10    0.153E-10
RMM:   2    -0.303942283597E+03   -0.87311E-10    0.00000E+00     1   0.109E-10
  71 F= -.30394228E+03 E0= -.30398861E+03  d E =-.727596E-10
quench:  g(F)=  0.000E+00 g(S)=  0.000E+00 dE (1.order)= 0.000E+00
 bond charge predicted
       N       E                     dE             d eps       ncg     rms          rms(c)
DAV:   1    -0.303942283597E+03   -0.47294E-09   -0.25222E-11   294   0.201E-10    0.249E-10
RMM:   2    -0.303942283596E+03    0.44383E-09    0.00000E+00     1   0.116E-10
  72 F= -.30394228E+03 E0= -.30398861E+03  d E =0.582077E-10
quench:  g(F)=  0.000E+00 g(S)=  0.000E+00 dE (1.order)= 0.000E+00
 bond charge predicted
       N       E                     dE             d eps       ncg     rms          rms(c)
DAV:   1    -0.303942283595E+03    0.15498E-08   -0.13682E-10   294   0.211E-10    0.254E-10
RMM:   2    -0.303942283596E+03   -0.10914E-08    0.00000E+00     1   0.108E-10
  73 F= -.30394228E+03 E0= -.30398861E+03  d E =0.145519E-10
quench:  g(F)=  0.000E+00 g(S)=  0.000E+00 dE (1.order)= 0.000E+00
 bond charge predicted
       N       E                     dE             d eps       ncg     rms          rms(c)
DAV:   1    -0.303942283595E+03    0.45111E-09   -0.30005E-10   294   0.207E-10    0.299E-10
RMM:   2    -0.303942283596E+03   -0.15425E-08    0.00000E+00     1   0.114E-10
  74 F= -.30394228E+03 E0= -.30398861E+03  d E =0.000000E+00
quench:  g(F)=  0.000E+00 g(S)=  0.000E+00 dE (1.order)= 0.000E+00
 bond charge predicted
       N       E                     dE             d eps       ncg     rms          rms(c)
DAV:   1    -0.303942283595E+03   -0.58935E-09   -0.92608E-11   294   0.128E-10    0.266E-10
RMM:   2    -0.303942283596E+03   -0.99681E-09    0.00000E+00     1   0.969E-11
  75 F= -.30394228E+03 E0= -.30398861E+03  d E =-.436557E-10
quench:  g(F)=  0.000E+00 g(S)=  0.000E+00 dE (1.order)= 0.000E+00
 bond charge predicted
       N       E                     dE             d eps       ncg     rms          rms(c)
DAV:   1    -0.303942283596E+03   -0.65484E-09   -0.89680E-11   294   0.175E-10    0.284E-10
RMM:   2    -0.303942283596E+03   -0.34197E-09    0.00000E+00     1   0.967E-11
  76 F= -.30394228E+03 E0= -.30398861E+03  d E =0.000000E+00
quench:  g(F)=  0.000E+00 g(S)=  0.000E+00 dE (1.order)= 0.000E+00
 bond charge predicted
       N       E                     dE             d eps       ncg     rms          rms(c)
DAV:   1    -0.303942283596E+03   -0.17462E-09   -0.25853E-10   294   0.234E-10    0.251E-10
RMM:   2    -0.303942283596E+03   -0.50932E-10    0.00000E+00     1   0.711E-11
  77 F= -.30394228E+03 E0= -.30398861E+03  d E =0.116415E-09
quench:  g(F)=  0.000E+00 g(S)=  0.000E+00 dE (1.order)= 0.000E+00
 bond charge predicted
       N       E                     dE             d eps       ncg     rms          rms(c)
DAV:   1    -0.303942283597E+03   -0.11423E-08   -0.82197E-11   294   0.145E-10    0.350E-10
RMM:   2    -0.303942283596E+03    0.99681E-09    0.00000E+00     1   0.928E-11
  78 F= -.30394228E+03 E0= -.30398861E+03  d E =-.945874E-10
quench:  g(F)=  0.000E+00 g(S)=  0.000E+00 dE (1.order)= 0.000E+00
 bond charge predicted
       N       E                     dE             d eps       ncg     rms          rms(c)
DAV:   1    -0.303942283596E+03    0.14115E-08    0.48278E-11   294   0.226E-10    0.291E-10
RMM:   2    -0.303942283596E+03   -0.44383E-09    0.00000E+00     1   0.910E-11
  79 F= -.30394228E+03 E0= -.30398861E+03  d E =-.291038E-10
quench:  g(F)=  0.000E+00 g(S)=  0.000E+00 dE (1.order)= 0.000E+00
 bond charge predicted
       N       E                     dE             d eps       ncg     rms          rms(c)
DAV:   1    -0.303942283596E+03    0.80036E-10   -0.71089E-11   294   0.318E-10    0.248E-10
RMM:   2    -0.303942283596E+03   -0.45839E-09    0.00000E+00     1   0.828E-11
  80 F= -.30394228E+03 E0= -.30398861E+03  d E =0.654836E-10
quench:  g(F)=  0.000E+00 g(S)=  0.000E+00 dE (1.order)= 0.000E+00
 bond charge predicted
       N       E                     dE             d eps       ncg     rms          rms(c)
DAV:   1    -0.303942283597E+03   -0.10041E-08   -0.54741E-11   294   0.229E-10    0.235E-10
RMM:   2    -0.303942283597E+03    0.46566E-09    0.00000E+00     1   0.849E-11
  81 F= -.30394228E+03 E0= -.30398861E+03  d E =-.800355E-10
quench:  g(F)=  0.000E+00 g(S)=  0.000E+00 dE (1.order)= 0.000E+00
 bond charge predicted
       N       E                     dE             d eps       ncg     rms          rms(c)
DAV:   1    -0.303942283597E+03   -0.44383E-09    0.96702E-11   294   0.255E-10    0.243E-10
RMM:   2    -0.303942283596E+03    0.97498E-09    0.00000E+00     1   0.963E-11
  82 F= -.30394228E+03 E0= -.30398861E+03  d E =0.654836E-10
quench:  g(F)=  0.000E+00 g(S)=  0.000E+00 dE (1.order)= 0.000E+00
 bond charge predicted
       N       E                     dE             d eps       ncg     rms          rms(c)
DAV:   1    -0.303942283595E+03    0.20445E-08   -0.10156E-10   294   0.251E-10    0.228E-10
RMM:   2    -0.303942283596E+03   -0.10477E-08    0.00000E+00     1   0.965E-11
  83 F= -.30394228E+03 E0= -.30398861E+03  d E =0.218279E-10
quench:  g(F)=  0.000E+00 g(S)=  0.000E+00 dE (1.order)= 0.000E+00
 bond charge predicted
       N       E                     dE             d eps       ncg     rms          rms(c)
DAV:   1    -0.303942283598E+03   -0.22847E-08   -0.12119E-10   294   0.158E-10    0.278E-10
RMM:   2    -0.303942283596E+03    0.12151E-08    0.00000E+00     1   0.971E-11
  84 F= -.30394228E+03 E0= -.30398861E+03  d E =-.218279E-10
quench:  g(F)=  0.000E+00 g(S)=  0.000E+00 dE (1.order)= 0.000E+00
 bond charge predicted
       N       E                     dE             d eps       ncg     rms          rms(c)
DAV:   1    -0.303942283596E+03    0.18481E-08   -0.86048E-11   294   0.251E-10    0.290E-10
RMM:   2    -0.303942283596E+03   -0.57480E-09    0.00000E+00     1   0.105E-10
  85 F= -.30394228E+03 E0= -.30398861E+03  d E =0.582077E-10
quench:  g(F)=  0.000E+00 g(S)=  0.000E+00 dE (1.order)= 0.000E+00
 bond charge predicted
       N       E                     dE             d eps       ncg     rms          rms(c)
DAV:   1    -0.303942283597E+03   -0.13679E-08   -0.18260E-10   294   0.345E-10    0.200E-10
RMM:   2    -0.303942283596E+03    0.70577E-09    0.00000E+00     1   0.836E-11
  86 F= -.30394228E+03 E0= -.30398861E+03  d E =-.873115E-10
quench:  g(F)=  0.000E+00 g(S)=  0.000E+00 dE (1.order)= 0.000E+00
 bond charge predicted
       N       E                     dE             d eps       ncg     rms          rms(c)
DAV:   1    -0.303942283597E+03    0.37835E-09   -0.32545E-11   294   0.215E-10    0.157E-10
RMM:   2    -0.303942283596E+03    0.39290E-09    0.00000E+00     1   0.801E-11
  87 F= -.30394228E+03 E0= -.30398861E+03  d E =0.654836E-10
quench:  g(F)=  0.000E+00 g(S)=  0.000E+00 dE (1.order)= 0.000E+00
 bond charge predicted
       N       E                     dE             d eps       ncg     rms          rms(c)
DAV:   1    -0.303942283596E+03    0.76398E-09   -0.11079E-10   294   0.165E-10    0.324E-10
RMM:   2    -0.303942283596E+03   -0.40018E-09    0.00000E+00     1   0.911E-11
  88 F= -.30394228E+03 E0= -.30398861E+03  d E =-.291038E-10
quench:  g(F)=  0.000E+00 g(S)=  0.000E+00 dE (1.order)= 0.000E+00
 bond charge predicted
       N       E                     dE             d eps       ncg     rms          rms(c)
DAV:   1    -0.303942283596E+03    0.37835E-09   -0.88377E-12   294   0.228E-10    0.219E-10
RMM:   2    -0.303942283596E+03   -0.74215E-09    0.00000E+00     1   0.841E-11
  89 F= -.30394228E+03 E0= -.30398861E+03  d E =0.363798E-10
quench:  g(F)=  0.000E+00 g(S)=  0.000E+00 dE (1.order)= 0.000E+00
 bond charge predicted
       N       E                     dE             d eps       ncg     rms          rms(c)
DAV:   1    -0.303942283597E+03   -0.14552E-08   -0.18880E-10   294   0.179E-10    0.294E-10
RMM:   2    -0.303942283596E+03    0.63301E-09    0.00000E+00     1   0.107E-10
  90 F= -.30394228E+03 E0= -.30398861E+03  d E =-.800355E-10
quench:  g(F)=  0.000E+00 g(S)=  0.000E+00 dE (1.order)= 0.000E+00
 bond charge predicted
       N       E                     dE             d eps       ncg     rms          rms(c)
DAV:   1    -0.303942283596E+03    0.14843E-08    0.12701E-10   294   0.266E-10    0.260E-10
RMM:   2    -0.303942283596E+03   -0.75670E-09    0.00000E+00     1   0.845E-11
  91 F= -.30394228E+03 E0= -.30398861E+03  d E =0.945874E-10
quench:  g(F)=  0.000E+00 g(S)=  0.000E+00 dE (1.order)= 0.000E+00
 bond charge predicted
       N       E                     dE             d eps       ncg     rms          rms(c)
DAV:   1    -0.303942283596E+03   -0.72760E-10    0.14674E-12   294   0.211E-10    0.210E-10
RMM:   2    -0.303942283596E+03   -0.63301E-09    0.00000E+00     1   0.820E-11
  92 F= -.30394228E+03 E0= -.30398861E+03  d E =0.509317E-10
quench:  g(F)=  0.000E+00 g(S)=  0.000E+00 dE (1.order)= 0.000E+00
 bond charge predicted
       N       E                     dE             d eps       ncg     rms          rms(c)
DAV:   1    -0.303942283596E+03   -0.37107E-09   -0.64479E-11   294   0.215E-10    0.229E-10
RMM:   2    -0.303942283596E+03   -0.37107E-09    0.00000E+00     1   0.844E-11
  93 F= -.30394228E+03 E0= -.30398861E+03  d E =-.109139E-09
quench:  g(F)=  0.000E+00 g(S)=  0.000E+00 dE (1.order)= 0.000E+00
 bond charge predicted
       N       E                     dE             d eps       ncg     rms          rms(c)
DAV:   1    -0.303942283596E+03   -0.72760E-10   -0.27854E-11   294   0.214E-10    0.222E-10
RMM:   2    -0.303942283596E+03   -0.26921E-09    0.00000E+00     1   0.861E-11
  94 F= -.30394228E+03 E0= -.30398861E+03  d E =0.291038E-10
quench:  g(F)=  0.000E+00 g(S)=  0.000E+00 dE (1.order)= 0.000E+00
 bond charge predicted
       N       E                     dE             d eps       ncg     rms          rms(c)
DAV:   1    -0.303942283596E+03   -0.13824E-09   -0.23664E-11   294   0.234E-10    0.221E-10
RMM:   2    -0.303942283596E+03   -0.15280E-09    0.00000E+00     1   0.905E-11
  95 F= -.30394228E+03 E0= -.30398861E+03  d E =-.218279E-10
quench:  g(F)=  0.000E+00 g(S)=  0.000E+00 dE (1.order)= 0.000E+00
 bond charge predicted
       N       E                     dE             d eps       ncg     rms          rms(c)
DAV:   1    -0.303942283596E+03   -0.13097E-09   -0.85623E-11   294   0.247E-10    0.252E-10
RMM:   2    -0.303942283596E+03    0.58208E-10    0.00000E+00     1   0.956E-11
  96 F= -.30394228E+03 E0= -.30398861E+03  d E =0.800355E-10
quench:  g(F)=  0.000E+00 g(S)=  0.000E+00 dE (1.order)= 0.000E+00
 bond charge predicted
       N       E                     dE             d eps       ncg     rms          rms(c)
DAV:   1    -0.303942283597E+03   -0.20373E-09   -0.10758E-10   294   0.228E-10    0.264E-10
RMM:   2    -0.303942283596E+03    0.17462E-09    0.00000E+00     1   0.903E-11
  97 F= -.30394228E+03 E0= -.30398861E+03  d E =-.873115E-10
quench:  g(F)=  0.000E+00 g(S)=  0.000E+00 dE (1.order)= 0.000E+00
 bond charge predicted
       N       E                     dE             d eps       ncg     rms          rms(c)
DAV:   1    -0.303942283597E+03   -0.17462E-09   -0.39672E-11   294   0.259E-10    0.187E-10
RMM:   2    -0.303942283596E+03    0.29104E-09    0.00000E+00     1   0.879E-11
  98 F= -.30394228E+03 E0= -.30398861E+03  d E =-.582077E-10
quench:  g(F)=  0.000E+00 g(S)=  0.000E+00 dE (1.order)= 0.000E+00
 bond charge predicted
       N       E                     dE             d eps       ncg     rms          rms(c)
DAV:   1    -0.303942283596E+03    0.36380E-09   -0.99496E-11   294   0.244E-10    0.230E-10
RMM:   2    -0.303942283596E+03   -0.43656E-10    0.00000E+00     1   0.100E-10
  99 F= -.30394228E+03 E0= -.30398861E+03  d E =0.291038E-10
quench:  g(F)=  0.000E+00 g(S)=  0.000E+00 dE (1.order)= 0.000E+00
 bond charge predicted
       N       E                     dE             d eps       ncg     rms          rms(c)
DAV:   1    -0.303942283597E+03   -0.98953E-09   -0.15497E-10   294   0.178E-10    0.420E-10
RMM:   2    -0.303942283596E+03    0.96043E-09    0.00000E+00     1   0.101E-10
 100 F= -.30394228E+03 E0= -.30398861E+03  d E =0.145519E-10
quench:  g(F)=  0.000E+00 g(S)=  0.000E+00 dE (1.order)= 0.000E+00
 bond charge predicted
       N       E                     dE             d eps       ncg     rms          rms(c)
DAV:   1    -0.303942283596E+03    0.11496E-08   -0.22826E-11   294   0.334E-10    0.305E-10
RMM:   2    -0.303942283596E+03   -0.18917E-09    0.00000E+00     1   0.102E-10
 101 F= -.30394228E+03 E0= -.30398861E+03  d E =0.000000E+00
quench:  g(F)=  0.000E+00 g(S)=  0.000E+00 dE (1.order)= 0.000E+00
 bond charge predicted
       N       E                     dE             d eps       ncg     rms          rms(c)
DAV:   1    -0.303942283597E+03   -0.42201E-09   -0.29410E-10   294   0.427E-10    0.226E-10
RMM:   2    -0.303942283596E+03    0.32742E-09    0.00000E+00     1   0.918E-11
 102 F= -.30394228E+03 E0= -.30398861E+03  d E =0.945874E-10
quench:  g(F)=  0.000E+00 g(S)=  0.000E+00 dE (1.order)= 0.000E+00
 bond charge predicted
       N       E                     dE             d eps       ncg     rms          rms(c)
DAV:   1    -0.303942283597E+03   -0.37835E-09   -0.43073E-12   294   0.181E-10    0.326E-10
RMM:   2    -0.303942283596E+03    0.74215E-09    0.00000E+00     1   0.894E-11
 103 F= -.30394228E+03 E0= -.30398861E+03  d E =0.363798E-10
quench:  g(F)=  0.000E+00 g(S)=  0.000E+00 dE (1.order)= 0.000E+00
 bond charge predicted
       N       E                     dE             d eps       ncg     rms          rms(c)
DAV:   1    -0.303942283596E+03    0.94587E-09   -0.15085E-10   294   0.323E-10    0.325E-10
RMM:   2    -0.303942283596E+03   -0.27649E-09    0.00000E+00     1   0.101E-10
 104 F= -.30394228E+03 E0= -.30398861E+03  d E =-.727596E-10
quench:  g(F)=  0.000E+00 g(S)=  0.000E+00 dE (1.order)= 0.000E+00
 bond charge predicted
       N       E                     dE             d eps       ncg     rms          rms(c)
DAV:   1    -0.303942283597E+03   -0.68394E-09   -0.27826E-12   294   0.323E-10    0.315E-10
RMM:   2    -0.303942283596E+03    0.42928E-09    0.00000E+00     1   0.934E-11
 105 F= -.30394228E+03 E0= -.30398861E+03  d E =0.218279E-10
quench:  g(F)=  0.000E+00 g(S)=  0.000E+00 dE (1.order)= 0.000E+00
 bond charge predicted
       N       E                     dE             d eps       ncg     rms          rms(c)
DAV:   1    -0.303942283597E+03   -0.13824E-09   -0.16840E-10   294   0.300E-10    0.228E-10
RMM:   2    -0.303942283596E+03    0.45111E-09    0.00000E+00     1   0.913E-11
 106 F= -.30394228E+03 E0= -.30398861E+03  d E =-.116415E-09
quench:  g(F)=  0.000E+00 g(S)=  0.000E+00 dE (1.order)= 0.000E+00
 bond charge predicted
       N       E                     dE             d eps       ncg     rms          rms(c)
DAV:   1    -0.303942283597E+03    0.80036E-10   -0.88248E-11   294   0.282E-10    0.200E-10
RMM:   2    -0.303942283596E+03    0.38563E-09    0.00000E+00     1   0.937E-11
 107 F= -.30394228E+03 E0= -.30398861E+03  d E =0.145519E-10
quench:  g(F)=  0.000E+00 g(S)=  0.000E+00 dE (1.order)= 0.000E+00
 bond charge predicted
       N       E                     dE             d eps       ncg     rms          rms(c)
DAV:   1    -0.303942283598E+03   -0.73487E-09   -0.65351E-11   294   0.178E-10    0.327E-10
RMM:   2    -0.303942283597E+03    0.10914E-08    0.00000E+00     1   0.974E-11
 108 F= -.30394228E+03 E0= -.30398861E+03  d E =-.291038E-10
quench:  g(F)=  0.000E+00 g(S)=  0.000E+00 dE (1.order)= 0.000E+00
 bond charge predicted
       N       E                     dE             d eps       ncg     rms          rms(c)
DAV:   1    -0.303942283597E+03    0.80763E-09   -0.45374E-11   294   0.299E-10    0.248E-10
RMM:   2    -0.303942283596E+03    0.34197E-09    0.00000E+00     1   0.977E-11
 109 F= -.30394228E+03 E0= -.30398861E+03  d E =0.582077E-10
quench:  g(F)=  0.000E+00 g(S)=  0.000E+00 dE (1.order)= 0.000E+00
 bond charge predicted
       N       E                     dE             d eps       ncg     rms          rms(c)
DAV:   1    -0.303942283597E+03   -0.40018E-09   -0.38747E-11   294   0.227E-10    0.267E-10
RMM:   2    -0.303942283596E+03    0.74942E-09    0.00000E+00     1   0.103E-10
 110 F= -.30394228E+03 E0= -.30398861E+03  d E =0.727596E-11
quench:  g(F)=  0.000E+00 g(S)=  0.000E+00 dE (1.order)= 0.000E+00
 bond charge predicted
       N       E                     dE             d eps       ncg     rms          rms(c)
DAV:   1    -0.303942283596E+03    0.14334E-08   -0.63544E-11   294   0.297E-10    0.255E-10
RMM:   2    -0.303942283596E+03   -0.70577E-09    0.00000E+00     1   0.939E-11
 111 F= -.30394228E+03 E0= -.30398861E+03  d E =-.218279E-10
quench:  g(F)=  0.000E+00 g(S)=  0.000E+00 dE (1.order)= 0.000E+00
 bond charge predicted
       N       E                     dE             d eps       ncg     rms          rms(c)
DAV:   1    -0.303942283596E+03   -0.64028E-09   -0.13334E-10   294   0.275E-10    0.270E-10
RMM:   2    -0.303942283596E+03   -0.43656E-10    0.00000E+00     1   0.103E-10
 112 F= -.30394228E+03 E0= -.30398861E+03  d E =0.218279E-10
quench:  g(F)=  0.000E+00 g(S)=  0.000E+00 dE (1.order)= 0.000E+00
 bond charge predicted
       N       E                     dE             d eps       ncg     rms          rms(c)
DAV:   1    -0.303942283596E+03    0.24738E-09   -0.19905E-10   294   0.290E-10    0.234E-10
RMM:   2    -0.303942283596E+03   -0.31287E-09    0.00000E+00     1   0.911E-11
 113 F= -.30394228E+03 E0= -.30398861E+03  d E =-.218279E-10
quench:  g(F)=  0.000E+00 g(S)=  0.000E+00 dE (1.order)= 0.000E+00
 bond charge predicted
       N       E                     dE             d eps       ncg     rms          rms(c)
DAV:   1    -0.303942283597E+03   -0.11714E-08   -0.20042E-10   294   0.154E-10    0.317E-10
RMM:   2    -0.303942283596E+03    0.82946E-09    0.00000E+00     1   0.919E-11
 114 F= -.30394228E+03 E0= -.30398861E+03  d E =-.291038E-10
quench:  g(F)=  0.000E+00 g(S)=  0.000E+00 dE (1.order)= 0.000E+00
 bond charge predicted
       N       E                     dE             d eps       ncg     rms          rms(c)
DAV:   1    -0.303942283596E+03    0.17681E-08   -0.13051E-10   294   0.282E-10    0.245E-10
RMM:   2    -0.303942283596E+03   -0.90222E-09    0.00000E+00     1   0.103E-10
 115 F= -.30394228E+03 E0= -.30398861E+03  d E =0.363798E-10
quench:  g(F)=  0.000E+00 g(S)=  0.000E+00 dE (1.order)= 0.000E+00
 bond charge predicted
       N       E                     dE             d eps       ncg     rms          rms(c)
DAV:   1    -0.303942283597E+03   -0.14043E-08   -0.19757E-11   294   0.268E-10    0.174E-10
RMM:   2    -0.303942283596E+03    0.60390E-09    0.00000E+00     1   0.752E-11
 116 F= -.30394228E+03 E0= -.30398861E+03  d E =0.101863E-09
quench:  g(F)=  0.000E+00 g(S)=  0.000E+00 dE (1.order)= 0.000E+00
 bond charge predicted
       N       E                     dE             d eps       ncg     rms          rms(c)
DAV:   1    -0.303942283597E+03    0.11642E-09   -0.13451E-10   294   0.126E-10    0.311E-10
RMM:   2    -0.303942283596E+03    0.42201E-09    0.00000E+00     1   0.823E-11
 117 F= -.30394228E+03 E0= -.30398861E+03  d E =-.654836E-10
quench:  g(F)=  0.000E+00 g(S)=  0.000E+00 dE (1.order)= 0.000E+00
 bond charge predicted
       N       E                     dE             d eps       ncg     rms          rms(c)
DAV:   1    -0.303942283596E+03    0.94587E-09   -0.10492E-10   294   0.227E-10    0.264E-10
RMM:   2    -0.303942283597E+03   -0.64756E-09    0.00000E+00     1   0.847E-11
 118 F= -.30394228E+03 E0= -.30398861E+03  d E =-.123691E-09
quench:  g(F)=  0.000E+00 g(S)=  0.000E+00 dE (1.order)= 0.000E+00
 bond charge predicted
       N       E                     dE             d eps       ncg     rms          rms(c)
DAV:   1    -0.303942283596E+03   -0.32742E-09   -0.69883E-11   294   0.255E-10    0.343E-10
RMM:   2    -0.303942283596E+03   -0.21100E-09    0.00000E+00     1   0.998E-11
 119 F= -.30394228E+03 E0= -.30398861E+03  d E =0.109139E-09
quench:  g(F)=  0.000E+00 g(S)=  0.000E+00 dE (1.order)= 0.000E+00
 bond charge predicted
       N       E                     dE             d eps       ncg     rms          rms(c)
DAV:   1    -0.303942283597E+03   -0.96043E-09   -0.25511E-11   294   0.339E-10    0.210E-10
RMM:   2    -0.303942283596E+03    0.70577E-09    0.00000E+00     1   0.956E-11
 120 F= -.30394228E+03 E0= -.30398861E+03  d E =-.436557E-10
quench:  g(F)=  0.000E+00 g(S)=  0.000E+00 dE (1.order)= 0.000E+00
 bond charge predicted
       N       E                     dE             d eps       ncg     rms          rms(c)
DAV:   1    -0.303942283597E+03   -0.32014E-09   -0.71922E-11   294   0.296E-10    0.182E-10
RMM:   2    -0.303942283596E+03    0.10987E-08    0.00000E+00     1   0.894E-11
 121 F= -.30394228E+03 E0= -.30398861E+03  d E =0.727596E-10
quench:  g(F)=  0.000E+00 g(S)=  0.000E+00 dE (1.order)= 0.000E+00
 bond charge predicted
       N       E                     dE             d eps       ncg     rms          rms(c)
DAV:   1    -0.303942283597E+03    0.69849E-09   -0.14461E-10   294   0.165E-10    0.338E-10
RMM:   2    -0.303942283596E+03    0.41473E-09    0.00000E+00     1   0.101E-10
 122 F= -.30394228E+03 E0= -.30398861E+03  d E =0.145519E-10
quench:  g(F)=  0.000E+00 g(S)=  0.000E+00 dE (1.order)= 0.000E+00
 bond charge predicted
       N       E                     dE             d eps       ncg     rms          rms(c)
DAV:   1    -0.303942283596E+03    0.45111E-09   -0.44897E-11   294   0.212E-10    0.297E-10
RMM:   2    -0.303942283596E+03   -0.36380E-10    0.00000E+00     1   0.987E-11
 123 F= -.30394228E+03 E0= -.30398861E+03  d E =0.000000E+00
quench:  g(F)=  0.000E+00 g(S)=  0.000E+00 dE (1.order)= 0.000E+00
 bond charge predicted
       N       E                     dE             d eps       ncg     rms          rms(c)
DAV:   1    -0.303942283597E+03   -0.21100E-09   -0.11277E-10   294   0.333E-10    0.181E-10
RMM:   2    -0.303942283596E+03    0.72760E-10    0.00000E+00     1   0.895E-11
 124 F= -.30394228E+03 E0= -.30398861E+03  d E =-.101863E-09
quench:  g(F)=  0.000E+00 g(S)=  0.000E+00 dE (1.order)= 0.000E+00
 bond charge predicted
       N       E                     dE             d eps       ncg     rms          rms(c)
DAV:   1    -0.303942283597E+03   -0.58208E-10   -0.21353E-10   294   0.140E-10    0.284E-10
RMM:   2    -0.303942283596E+03    0.18190E-09    0.00000E+00     1   0.861E-11
 125 F= -.30394228E+03 E0= -.30398861E+03  d E =0.509317E-10
quench:  g(F)=  0.000E+00 g(S)=  0.000E+00 dE (1.order)= 0.000E+00
 bond charge predicted
       N       E                     dE             d eps       ncg     rms          rms(c)
DAV:   1    -0.303942283596E+03    0.31287E-09   -0.16758E-10   294   0.209E-10    0.314E-10
RMM:   2    -0.303942283596E+03   -0.11642E-09    0.00000E+00     1   0.889E-11
 126 F= -.30394228E+03 E0= -.30398861E+03  d E =0.145519E-10
quench:  g(F)=  0.000E+00 g(S)=  0.000E+00 dE (1.order)= 0.000E+00
 bond charge predicted
       N       E                     dE             d eps       ncg     rms          rms(c)
DAV:   1    -0.303942283595E+03    0.85129E-09   -0.26262E-10   294   0.360E-10    0.176E-10
RMM:   2    -0.303942283596E+03   -0.98225E-09    0.00000E+00     1   0.824E-11
 127 F= -.30394228E+03 E0= -.30398861E+03  d E =-.145519E-10
quench:  g(F)=  0.000E+00 g(S)=  0.000E+00 dE (1.order)= 0.000E+00
 bond charge predicted
       N       E                     dE             d eps       ncg     rms          rms(c)
DAV:   1    -0.303942283596E+03   -0.13097E-09   -0.58996E-11   294   0.149E-10    0.300E-10
RMM:   2    -0.303942283596E+03   -0.86584E-09    0.00000E+00     1   0.921E-11
 128 F= -.30394228E+03 E0= -.30398861E+03  d E =-.145519E-10
quench:  g(F)=  0.000E+00 g(S)=  0.000E+00 dE (1.order)= 0.000E+00
 bond charge predicted
       N       E                     dE             d eps       ncg     rms          rms(c)
DAV:   1    -0.303942283597E+03   -0.15061E-08   -0.14584E-10   294   0.312E-10    0.216E-10
RMM:   2    -0.303942283596E+03    0.65484E-09    0.00000E+00     1   0.800E-11
 129 F= -.30394228E+03 E0= -.30398861E+03  d E =0.145519E-10
quench:  g(F)=  0.000E+00 g(S)=  0.000E+00 dE (1.order)= 0.000E+00
 bond charge predicted
       N       E                     dE             d eps       ncg     rms          rms(c)
DAV:   1    -0.303942283596E+03    0.77853E-09    0.66868E-11   294   0.221E-10    0.219E-10
RMM:   2    -0.303942283596E+03   -0.21828E-10    0.00000E+00     1   0.782E-11
 130 F= -.30394228E+03 E0= -.30398861E+03  d E =0.101863E-09
quench:  g(F)=  0.000E+00 g(S)=  0.000E+00 dE (1.order)= 0.000E+00
 bond charge predicted
       N       E                     dE             d eps       ncg     rms          rms(c)
DAV:   1    -0.303942283597E+03   -0.92405E-09   -0.41856E-11   294   0.181E-10    0.227E-10
RMM:   2    -0.303942283596E+03    0.77853E-09    0.00000E+00     1   0.905E-11
 131 F= -.30394228E+03 E0= -.30398861E+03  d E =-.123691E-09
quench:  g(F)=  0.000E+00 g(S)=  0.000E+00 dE (1.order)= 0.000E+00
 bond charge predicted
       N       E                     dE             d eps       ncg     rms          rms(c)
DAV:   1    -0.303942283596E+03    0.16225E-08   -0.39058E-11   294   0.196E-10    0.240E-10
RMM:   2    -0.303942283596E+03   -0.82218E-09    0.00000E+00     1   0.804E-11
 132 F= -.30394228E+03 E0= -.30398861E+03  d E =0.218279E-10
quench:  g(F)=  0.000E+00 g(S)=  0.000E+00 dE (1.order)= 0.000E+00
 bond charge predicted
       N       E                     dE             d eps       ncg     rms          rms(c)
DAV:   1    -0.303942283597E+03   -0.11933E-08    0.11146E-10   294   0.244E-10    0.294E-10
RMM:   2    -0.303942283596E+03    0.40745E-09    0.00000E+00     1   0.856E-11
 133 F= -.30394228E+03 E0= -.30398861E+03  d E =0.363798E-10
quench:  g(F)=  0.000E+00 g(S)=  0.000E+00 dE (1.order)= 0.000E+00
 bond charge predicted
       N       E                     dE             d eps       ncg     rms          rms(c)
DAV:   1    -0.303942283596E+03    0.58935E-09   -0.15815E-11   294   0.239E-10    0.247E-10
RMM:   2    -0.303942283596E+03   -0.80036E-10    0.00000E+00     1   0.873E-11
 134 F= -.30394228E+03 E0= -.30398861E+03  d E =0.101863E-09
quench:  g(F)=  0.000E+00 g(S)=  0.000E+00 dE (1.order)= 0.000E+00
 bond charge predicted
       N       E                     dE             d eps       ncg     rms          rms(c)
DAV:   1    -0.303942283597E+03   -0.42928E-09   -0.15662E-10   294   0.306E-10    0.317E-10
RMM:   2    -0.303942283596E+03    0.25466E-09    0.00000E+00     1   0.927E-11
 135 F= -.30394228E+03 E0= -.30398861E+03  d E =-.945874E-10
quench:  g(F)=  0.000E+00 g(S)=  0.000E+00 dE (1.order)= 0.000E+00
 bond charge predicted
       N       E                     dE             d eps       ncg     rms          rms(c)
DAV:   1    -0.303942283596E+03    0.60390E-09   -0.55777E-11   294   0.255E-10    0.242E-10
RMM:   2    -0.303942283596E+03   -0.29831E-09    0.00000E+00     1   0.873E-11
 136 F= -.30394228E+03 E0= -.30398861E+03  d E =0.509317E-10
quench:  g(F)=  0.000E+00 g(S)=  0.000E+00 dE (1.order)= 0.000E+00
 bond charge predicted
       N       E                     dE             d eps       ncg     rms          rms(c)
DAV:   1    -0.303942283596E+03   -0.43656E-09   -0.10064E-10   294   0.304E-10    0.237E-10
RMM:   2    -0.303942283596E+03    0.14552E-10    0.00000E+00     1   0.102E-10
 137 F= -.30394228E+03 E0= -.30398861E+03  d E =-.123691E-09
quench:  g(F)=  0.000E+00 g(S)=  0.000E+00 dE (1.order)= 0.000E+00
 bond charge predicted
       N       E                     dE             d eps       ncg     rms          rms(c)
DAV:   1    -0.303942283597E+03   -0.40018E-09   -0.19941E-10   294   0.212E-10    0.389E-10
RMM:   2    -0.303942283596E+03    0.47294E-09    0.00000E+00     1   0.104E-10
 138 F= -.30394228E+03 E0= -.30398861E+03  d E =0.582077E-10
quench:  g(F)=  0.000E+00 g(S)=  0.000E+00 dE (1.order)= 0.000E+00
 bond charge predicted
       N       E                     dE             d eps       ncg     rms          rms(c)
DAV:   1    -0.303942283598E+03   -0.10477E-08   -0.17212E-10   294   0.235E-10    0.281E-10
RMM:   2    -0.303942283596E+03    0.15352E-08    0.00000E+00     1   0.850E-11
 139 F= -.30394228E+03 E0= -.30398861E+03  d E =0.145519E-10
quench:  g(F)=  0.000E+00 g(S)=  0.000E+00 dE (1.order)= 0.000E+00
 bond charge predicted
       N       E                     dE             d eps       ncg     rms          rms(c)
DAV:   1    -0.303942283596E+03    0.15789E-08   -0.22988E-10   294   0.200E-10    0.390E-10
RMM:   2    -0.303942283596E+03   -0.43656E-10    0.00000E+00     1   0.105E-10
 140 F= -.30394228E+03 E0= -.30398861E+03  d E =0.000000E+00
quench:  g(F)=  0.000E+00 g(S)=  0.000E+00 dE (1.order)= 0.000E+00
 bond charge predicted
       N       E                     dE             d eps       ncg     rms          rms(c)
DAV:   1    -0.303942283596E+03    0.66939E-09   -0.10676E-10   294   0.246E-10    0.269E-10
RMM:   2    -0.303942283596E+03   -0.73487E-09    0.00000E+00     1   0.852E-11
 141 F= -.30394228E+03 E0= -.30398861E+03  d E =-.218279E-10
quench:  g(F)=  0.000E+00 g(S)=  0.000E+00 dE (1.order)= 0.000E+00
 bond charge predicted
       N       E                     dE             d eps       ncg     rms          rms(c)
DAV:   1    -0.303942283598E+03   -0.20809E-08   -0.88532E-11   294   0.313E-10    0.249E-10
RMM:   2    -0.303942283596E+03    0.13824E-08    0.00000E+00     1   0.963E-11
 142 F= -.30394228E+03 E0= -.30398861E+03  d E =0.363798E-10
quench:  g(F)=  0.000E+00 g(S)=  0.000E+00 dE (1.order)= 0.000E+00
 bond charge predicted
       N       E                     dE             d eps       ncg     rms          rms(c)
DAV:   1    -0.303942283596E+03    0.19136E-08    0.86974E-11   294   0.252E-10    0.340E-10
RMM:   2    -0.303942283596E+03   -0.51659E-09    0.00000E+00     1   0.104E-10
 143 F= -.30394228E+03 E0= -.30398861E+03  d E =0.145519E-10
quench:  g(F)=  0.000E+00 g(S)=  0.000E+00 dE (1.order)= 0.000E+00
 bond charge predicted
       N       E                     dE             d eps       ncg     rms          rms(c)
DAV:   1    -0.303942283597E+03   -0.15862E-08   -0.27964E-10   294   0.156E-10    0.285E-10
RMM:   2    -0.303942283596E+03    0.97498E-09    0.00000E+00     1   0.877E-11
 144 F= -.30394228E+03 E0= -.30398861E+03  d E =-.945874E-10
quench:  g(F)=  0.000E+00 g(S)=  0.000E+00 dE (1.order)= 0.000E+00
 bond charge predicted
       N       E                     dE             d eps       ncg     rms          rms(c)
DAV:   1    -0.303942283596E+03    0.16807E-08   -0.73416E-11   294   0.228E-10    0.326E-10
RMM:   2    -0.303942283596E+03   -0.72032E-09    0.00000E+00     1   0.921E-11
 145 F= -.30394228E+03 E0= -.30398861E+03  d E =-.145519E-10
quench:  g(F)=  0.000E+00 g(S)=  0.000E+00 dE (1.order)= 0.000E+00
 bond charge predicted
       N       E                     dE             d eps       ncg     rms          rms(c)
DAV:   1    -0.303942283596E+03   -0.62573E-09   -0.80577E-11   294   0.259E-10    0.290E-10
RMM:   2    -0.303942283596E+03   -0.72760E-11    0.00000E+00     1   0.988E-11
 146 F= -.30394228E+03 E0= -.30398861E+03  d E =0.873115E-10
quench:  g(F)=  0.000E+00 g(S)=  0.000E+00 dE (1.order)= 0.000E+00
 bond charge predicted
       N       E                     dE             d eps       ncg     rms          rms(c)
DAV:   1    -0.303942283596E+03   -0.72760E-10   -0.35713E-11   294   0.314E-10    0.227E-10
RMM:   2    -0.303942283596E+03    0.10186E-09    0.00000E+00     1   0.926E-11
 147 F= -.30394228E+03 E0= -.30398861E+03  d E =0.363798E-10
quench:  g(F)=  0.000E+00 g(S)=  0.000E+00 dE (1.order)= 0.000E+00
 bond charge predicted
       N       E                     dE             d eps       ncg     rms          rms(c)
DAV:   1    -0.303942283597E+03   -0.46566E-09   -0.69120E-11   294   0.209E-10    0.190E-10
RMM:   2    -0.303942283596E+03    0.42201E-09    0.00000E+00     1   0.876E-11
 148 F= -.30394228E+03 E0= -.30398861E+03  d E =-.145519E-09
quench:  g(F)=  0.000E+00 g(S)=  0.000E+00 dE (1.order)= 0.000E+00
 bond charge predicted
       N       E                     dE             d eps       ncg     rms          rms(c)
DAV:   1    -0.303942283596E+03    0.92405E-09   -0.64595E-11   294   0.175E-10    0.280E-10
RMM:   2    -0.303942283596E+03   -0.47294E-09    0.00000E+00     1   0.947E-11
 149 F= -.30394228E+03 E0= -.30398861E+03  d E =0.291038E-10
quench:  g(F)=  0.000E+00 g(S)=  0.000E+00 dE (1.order)= 0.000E+00
 bond charge predicted
       N       E                     dE             d eps       ncg     rms          rms(c)
DAV:   1    -0.303942283596E+03    0.36380E-09    0.28101E-11   294   0.206E-10    0.218E-10
RMM:   2    -0.303942283596E+03   -0.78580E-09    0.00000E+00     1   0.736E-11
 150 F= -.30394228E+03 E0= -.30398861E+03  d E =0.509317E-10
quench:  g(F)=  0.000E+00 g(S)=  0.000E+00 dE (1.order)= 0.000E+00
 bond charge predicted
       N       E                     dE             d eps       ncg     rms          rms(c)
DAV:   1    -0.303942283597E+03   -0.13024E-08   -0.18575E-11   294   0.114E-10    0.249E-10
RMM:   2    -0.303942283596E+03    0.54570E-09    0.00000E+00     1   0.787E-11
 151 F= -.30394228E+03 E0= -.30398861E+03  d E =0.291038E-10
quench:  g(F)=  0.000E+00 g(S)=  0.000E+00 dE (1.order)= 0.000E+00
 bond charge predicted
       N       E                     dE             d eps       ncg     rms          rms(c)
DAV:   1    -0.303942283597E+03   -0.54570E-09   -0.16931E-10   294   0.215E-10    0.174E-10
RMM:   2    -0.303942283596E+03    0.10259E-08    0.00000E+00     1   0.801E-11
 152 F= -.30394228E+03 E0= -.30398861E+03  d E =-.654836E-10
quench:  g(F)=  0.000E+00 g(S)=  0.000E+00 dE (1.order)= 0.000E+00
 bond charge predicted
       N       E                     dE             d eps       ncg     rms          rms(c)
DAV:   1    -0.303942283598E+03   -0.48749E-09   -0.11426E-10   294   0.100E-10    0.296E-10
RMM:   2    -0.303942283596E+03    0.14770E-08    0.00000E+00     1   0.784E-11
 153 F= -.30394228E+03 E0= -.30398861E+03  d E =-.363798E-10
quench:  g(F)=  0.000E+00 g(S)=  0.000E+00 dE (1.order)= 0.000E+00
 bond charge predicted
       N       E                     dE             d eps       ncg     rms          rms(c)
DAV:   1    -0.303942283597E+03    0.11569E-08    0.72788E-11   294   0.199E-10    0.272E-10
RMM:   2    -0.303942283596E+03    0.40018E-09    0.00000E+00     1   0.781E-11
 154 F= -.30394228E+03 E0= -.30398861E+03  d E =0.800355E-10
quench:  g(F)=  0.000E+00 g(S)=  0.000E+00 dE (1.order)= 0.000E+00
 bond charge predicted
       N       E                     dE             d eps       ncg     rms          rms(c)
DAV:   1    -0.303942283597E+03   -0.32742E-09   -0.51967E-11   294   0.303E-10    0.155E-10
RMM:   2    -0.303942283597E+03    0.62573E-09    0.00000E+00     1   0.688E-11
 155 F= -.30394228E+03 E0= -.30398861E+03  d E =-.101863E-09
quench:  g(F)=  0.000E+00 g(S)=  0.000E+00 dE (1.order)= 0.000E+00
 bond charge predicted
       N       E                     dE             d eps       ncg     rms          rms(c)
DAV:   1    -0.303942283597E+03    0.50204E-09   -0.37616E-11   294   0.145E-10    0.372E-10
RMM:   2    -0.303942283596E+03    0.21100E-09    0.00000E+00     1   0.929E-11
 156 F= -.30394228E+03 E0= -.30398861E+03  d E =0.873115E-10
quench:  g(F)=  0.000E+00 g(S)=  0.000E+00 dE (1.order)= 0.000E+00
 bond charge predicted
       N       E                     dE             d eps       ncg     rms          rms(c)
DAV:   1    -0.303942283597E+03   -0.47294E-09    0.81606E-11   294   0.248E-10    0.317E-10
RMM:   2    -0.303942283596E+03    0.66211E-09    0.00000E+00     1   0.910E-11
 157 F= -.30394228E+03 E0= -.30398861E+03  d E =-.218279E-10
quench:  g(F)=  0.000E+00 g(S)=  0.000E+00 dE (1.order)= 0.000E+00
 bond charge predicted
       N       E                     dE             d eps       ncg     rms          rms(c)
DAV:   1    -0.303942283597E+03   -0.50932E-10   -0.74763E-11   294   0.128E-10    0.289E-10
RMM:   2    -0.303942283596E+03    0.69122E-09    0.00000E+00     1   0.775E-11
 158 F= -.30394228E+03 E0= -.30398861E+03  d E =-.218279E-10
quench:  g(F)=  0.000E+00 g(S)=  0.000E+00 dE (1.order)= 0.000E+00
 bond charge predicted
       N       E                     dE             d eps       ncg     rms          rms(c)
DAV:   1    -0.303942283597E+03    0.32014E-09    0.72003E-11   294   0.111E-10    0.340E-10
RMM:   2    -0.303942283596E+03    0.39290E-09    0.00000E+00     1   0.883E-11
 159 F= -.30394228E+03 E0= -.30398861E+03  d E =0.218279E-10
quench:  g(F)=  0.000E+00 g(S)=  0.000E+00 dE (1.order)= 0.000E+00
 bond charge predicted
       N       E                     dE             d eps       ncg     rms          rms(c)
DAV:   1    -0.303942283595E+03    0.16080E-08   -0.54420E-11   294   0.234E-10    0.250E-10
RMM:   2    -0.303942283596E+03   -0.11423E-08    0.00000E+00     1   0.853E-11
 160 F= -.30394228E+03 E0= -.30398861E+03  d E =0.727596E-10
quench:  g(F)=  0.000E+00 g(S)=  0.000E+00 dE (1.order)= 0.000E+00
 bond charge predicted
       N       E                     dE             d eps       ncg     rms          rms(c)
DAV:   1    -0.303942283596E+03   -0.12515E-08   -0.64381E-11   294   0.270E-10    0.192E-10
RMM:   2    -0.303942283596E+03    0.58208E-10    0.00000E+00     1   0.821E-11
 161 F= -.30394228E+03 E0= -.30398861E+03  d E =-.509317E-10
quench:  g(F)=  0.000E+00 g(S)=  0.000E+00 dE (1.order)= 0.000E+00
 bond charge predicted
       N       E                     dE             d eps       ncg     rms          rms(c)
DAV:   1    -0.303942283597E+03   -0.61846E-09   -0.88629E-11   294   0.159E-10    0.382E-10
RMM:   2    -0.303942283596E+03    0.63301E-09    0.00000E+00     1   0.820E-11
 162 F= -.30394228E+03 E0= -.30398861E+03  d E =-.436557E-10
quench:  g(F)=  0.000E+00 g(S)=  0.000E+00 dE (1.order)= 0.000E+00
 bond charge predicted
       N       E                     dE             d eps       ncg     rms          rms(c)
DAV:   1    -0.303942283597E+03    0.55297E-09   -0.27747E-11   294   0.254E-10    0.324E-10
RMM:   2    -0.303942283596E+03    0.13097E-09    0.00000E+00     1   0.113E-10
 163 F= -.30394228E+03 E0= -.30398861E+03  d E =0.509317E-10
quench:  g(F)=  0.000E+00 g(S)=  0.000E+00 dE (1.order)= 0.000E+00
 bond charge predicted
       N       E                     dE             d eps       ncg     rms          rms(c)
DAV:   1    -0.303942283596E+03    0.10332E-08   -0.83180E-12   294   0.506E-10    0.159E-10
RMM:   2    -0.303942283597E+03   -0.10041E-08    0.00000E+00     1   0.925E-11
 164 F= -.30394228E+03 E0= -.30398861E+03  d E =-.101863E-09
quench:  g(F)=  0.000E+00 g(S)=  0.000E+00 dE (1.order)= 0.000E+00
 bond charge predicted
       N       E                     dE             d eps       ncg     rms          rms(c)
DAV:   1    -0.303942283596E+03   -0.88039E-09   -0.17675E-10   294   0.205E-10    0.264E-10
RMM:   2    -0.303942283596E+03    0.58208E-10    0.00000E+00     1   0.860E-11
 165 F= -.30394228E+03 E0= -.30398861E+03  d E =0.181899E-09
quench:  g(F)=  0.000E+00 g(S)=  0.000E+00 dE (1.order)= 0.000E+00
 bond charge predicted
       N       E                     dE             d eps       ncg     rms          rms(c)
DAV:   1    -0.303942283597E+03   -0.21828E-09   -0.19631E-10   294   0.175E-10    0.332E-10
RMM:   2    -0.303942283596E+03    0.22555E-09    0.00000E+00     1   0.983E-11
 166 F= -.30394228E+03 E0= -.30398861E+03  d E =-.509317E-10
quench:  g(F)=  0.000E+00 g(S)=  0.000E+00 dE (1.order)= 0.000E+00
 bond charge predicted
       N       E                     dE             d eps       ncg     rms          rms(c)
DAV:   1    -0.303942283596E+03    0.11642E-09   -0.49931E-11   294   0.302E-10    0.254E-10
RMM:   2    -0.303942283597E+03   -0.72760E-11    0.00000E+00     1   0.100E-10
 167 F= -.30394228E+03 E0= -.30398861E+03  d E =-.116415E-09
quench:  g(F)=  0.000E+00 g(S)=  0.000E+00 dE (1.order)= 0.000E+00
 bond charge predicted
       N       E                     dE             d eps       ncg     rms          rms(c)
DAV:   1    -0.303942283597E+03   -0.19645E-09   -0.51139E-11   294   0.271E-10    0.201E-10
RMM:   2    -0.303942283596E+03    0.33469E-09    0.00000E+00     1   0.749E-11
 168 F= -.30394228E+03 E0= -.30398861E+03  d E =0.145519E-09
quench:  g(F)=  0.000E+00 g(S)=  0.000E+00 dE (1.order)= 0.000E+00
 bond charge predicted
       N       E                     dE             d eps       ncg     rms          rms(c)
DAV:   1    -0.303942283596E+03    0.71304E-09   -0.36595E-11   294   0.181E-10    0.196E-10
RMM:   2    -0.303942283596E+03   -0.32742E-09    0.00000E+00     1   0.835E-11
 169 F= -.30394228E+03 E0= -.30398861E+03  d E =0.509317E-10
quench:  g(F)=  0.000E+00 g(S)=  0.000E+00 dE (1.order)= 0.000E+00
 bond charge predicted
       N       E                     dE             d eps       ncg     rms          rms(c)
DAV:   1    -0.303942283595E+03    0.79308E-09   -0.14775E-10   294   0.191E-10    0.249E-10
RMM:   2    -0.303942283596E+03   -0.12224E-08    0.00000E+00     1   0.916E-11
 170 F= -.30394228E+03 E0= -.30398861E+03  d E =-.101863E-09
quench:  g(F)=  0.000E+00 g(S)=  0.000E+00 dE (1.order)= 0.000E+00
 bond charge predicted
       N       E                     dE             d eps       ncg     rms          rms(c)
DAV:   1    -0.303942283596E+03   -0.66939E-09   -0.10480E-10   294   0.209E-10    0.262E-10
RMM:   2    -0.303942283596E+03   -0.58935E-09    0.00000E+00     1   0.877E-11
 171 F= -.30394228E+03 E0= -.30398861E+03  d E =-.363798E-10
quench:  g(F)=  0.000E+00 g(S)=  0.000E+00 dE (1.order)= 0.000E+00
 bond charge predicted
       N       E                     dE             d eps       ncg     rms          rms(c)
DAV:   1    -0.303942283598E+03   -0.23138E-08    0.27103E-11   294   0.283E-10    0.205E-10
RMM:   2    -0.303942283596E+03    0.16807E-08    0.00000E+00     1   0.849E-11
 172 F= -.30394228E+03 E0= -.30398861E+03  d E =-.436557E-10
quench:  g(F)=  0.000E+00 g(S)=  0.000E+00 dE (1.order)= 0.000E+00
 bond charge predicted
       N       E                     dE             d eps       ncg     rms          rms(c)
DAV:   1    -0.303942283597E+03    0.11714E-08    0.12724E-10   294   0.215E-10    0.239E-10
RMM:   2    -0.303942283596E+03    0.58935E-09    0.00000E+00     1   0.791E-11
 173 F= -.30394228E+03 E0= -.30398861E+03  d E =0.800355E-10
quench:  g(F)=  0.000E+00 g(S)=  0.000E+00 dE (1.order)= 0.000E+00
 bond charge predicted
       N       E                     dE             d eps       ncg     rms          rms(c)
DAV:   1    -0.303942283596E+03    0.12005E-08   -0.12746E-11   294   0.265E-10    0.214E-10
RMM:   2    -0.303942283596E+03   -0.64756E-09    0.00000E+00     1   0.842E-11
 174 F= -.30394228E+03 E0= -.30398861E+03  d E =-.363798E-10
quench:  g(F)=  0.000E+00 g(S)=  0.000E+00 dE (1.order)= 0.000E+00
 bond charge predicted
       N       E                     dE             d eps       ncg     rms          rms(c)
DAV:   1    -0.303942283598E+03   -0.17608E-08   -0.70391E-11   294   0.249E-10    0.238E-10
RMM:   2    -0.303942283596E+03    0.11787E-08    0.00000E+00     1   0.975E-11
 175 F= -.30394228E+03 E0= -.30398861E+03  d E =0.654836E-10
quench:  g(F)=  0.000E+00 g(S)=  0.000E+00 dE (1.order)= 0.000E+00
 bond charge predicted
       N       E                     dE             d eps       ncg     rms          rms(c)
DAV:   1    -0.303942283595E+03    0.20809E-08   -0.88835E-11   294   0.235E-10    0.273E-10
RMM:   2    -0.303942283596E+03   -0.99681E-09    0.00000E+00     1   0.901E-11
 176 F= -.30394228E+03 E0= -.30398861E+03  d E =-.945874E-10
quench:  g(F)=  0.000E+00 g(S)=  0.000E+00 dE (1.order)= 0.000E+00
 bond charge predicted
       N       E                     dE             d eps       ncg     rms          rms(c)
DAV:   1    -0.303942283597E+03   -0.11423E-08   -0.25403E-10   294   0.146E-10    0.303E-10
RMM:   2    -0.303942283596E+03    0.13097E-09    0.00000E+00     1   0.923E-11
 177 F= -.30394228E+03 E0= -.30398861E+03  d E =-.145519E-10
quench:  g(F)=  0.000E+00 g(S)=  0.000E+00 dE (1.order)= 0.000E+00
 bond charge predicted
       N       E                     dE             d eps       ncg     rms          rms(c)
DAV:   1    -0.303942283597E+03    0.36380E-10   -0.12540E-10   294   0.223E-10    0.260E-10
RMM:   2    -0.303942283596E+03    0.12369E-09    0.00000E+00     1   0.914E-11
 178 F= -.30394228E+03 E0= -.30398861E+03  d E =0.291038E-10
quench:  g(F)=  0.000E+00 g(S)=  0.000E+00 dE (1.order)= 0.000E+00
 bond charge predicted
       N       E                     dE             d eps       ncg     rms          rms(c)
DAV:   1    -0.303942283595E+03    0.18917E-08   -0.11877E-10   294   0.319E-10    0.205E-10
RMM:   2    -0.303942283596E+03   -0.17972E-08    0.00000E+00     1   0.956E-11
 179 F= -.30394228E+03 E0= -.30398861E+03  d E =-.291038E-10
quench:  g(F)=  0.000E+00 g(S)=  0.000E+00 dE (1.order)= 0.000E+00
 bond charge predicted
       N       E                     dE             d eps       ncg     rms          rms(c)
DAV:   1    -0.303942283596E+03   -0.12078E-08   -0.13113E-10   294   0.254E-10    0.285E-10
RMM:   2    -0.303942283596E+03   -0.41473E-09    0.00000E+00     1   0.113E-10
 180 F= -.30394228E+03 E0= -.30398861E+03  d E =0.174623E-09
quench:  g(F)=  0.000E+00 g(S)=  0.000E+00 dE (1.order)= 0.000E+00
 bond charge predicted
       N       E                     dE             d eps       ncg     rms          rms(c)
DAV:   1    -0.303942283597E+03   -0.10186E-08   -0.10898E-10   294   0.257E-10    0.302E-10
RMM:   2    -0.303942283596E+03    0.58208E-09    0.00000E+00     1   0.945E-11
 181 F= -.30394228E+03 E0= -.30398861E+03  d E =-.218279E-10
quench:  g(F)=  0.000E+00 g(S)=  0.000E+00 dE (1.order)= 0.000E+00
 bond charge predicted
       N       E                     dE             d eps       ncg     rms          rms(c)
DAV:   1    -0.303942283596E+03    0.69122E-09   -0.11352E-10   294   0.202E-10    0.402E-10
RMM:   2    -0.303942283596E+03   -0.22555E-09    0.00000E+00     1   0.104E-10
 182 F= -.30394228E+03 E0= -.30398861E+03  d E =-.116415E-09
quench:  g(F)=  0.000E+00 g(S)=  0.000E+00 dE (1.order)= 0.000E+00
 bond charge predicted
       N       E                     dE             d eps       ncg     rms          rms(c)
DAV:   1    -0.303942283597E+03   -0.32014E-09   -0.18966E-10   294   0.450E-10    0.218E-10
RMM:   2    -0.303942283596E+03    0.16735E-09    0.00000E+00     1   0.805E-11
 183 F= -.30394228E+03 E0= -.30398861E+03  d E =0.727596E-10
quench:  g(F)=  0.000E+00 g(S)=  0.000E+00 dE (1.order)= 0.000E+00
 bond charge predicted
       N       E                     dE             d eps       ncg     rms          rms(c)
DAV:   1    -0.303942283595E+03    0.15934E-08    0.39844E-11   294   0.207E-10    0.339E-10
RMM:   2    -0.303942283596E+03   -0.13897E-08    0.00000E+00     1   0.943E-11
 184 F= -.30394228E+03 E0= -.30398861E+03  d E =0.363798E-10
quench:  g(F)=  0.000E+00 g(S)=  0.000E+00 dE (1.order)= 0.000E+00
[...]
 bond charge predicted
       N       E                     dE             d eps       ncg     rms          rms(c)
DAV:   1    -0.303942283597E+03    0.00000E+00   -0.14432E-10   294   0.169E-10    0.345E-10
RMM:   2    -0.303942283596E+03    0.16735E-09    0.00000E+00     0   0.866E-11
 453 F= -.30394228E+03 E0= -.30398861E+03  d E =-.218279E-10
quench:  g(F)=  0.000E+00 g(S)=  0.000E+00 dE (1.order)= 0.000E+00
 bond charge predicted
       N       E                     dE             d eps       ncg     rms          rms(c)
DAV:   1    -0.303942283597E+03   -0.93132E-09    0.39505E-11   294   0.325E-10    0.291E-10
RMM:   2    -0.303942283596E+03    0.10041E-08    0.00000E+00     0   0.984E-11
 454 F= -.30394228E+03 E0= -.30398861E+03  d E =-.945874E-10
quench:  g(F)=  0.000E+00 g(S)=  0.000E+00 dE (1.order)= 0.000E+00
 bond charge predicted
       N       E                     dE             d eps       ncg     rms          rms(c)
DAV:   1    -0.303942283596E+03    0.18044E-08   -0.10475E-10   294   0.250E-10    0.347E-10
RMM:   2    -0.303942283596E+03   -0.73487E-09    0.00000E+00     0   0.912E-11
 455 F= -.30394228E+03 E0= -.30398861E+03  d E =0.654836E-10
quench:  g(F)=  0.000E+00 g(S)=  0.000E+00 dE (1.order)= 0.000E+00
 bond charge predicted
       N       E                     dE             d eps       ncg     rms          rms(c)
DAV:   1    -0.303942283596E+03   -0.34925E-09    0.19883E-11   294   0.222E-10    0.235E-10
RMM:   2    -0.303942283596E+03   -0.44383E-09    0.00000E+00     0   0.819E-11
 456 F= -.30394228E+03 E0= -.30398861E+03  d E =-.582077E-10
quench:  g(F)=  0.000E+00 g(S)=  0.000E+00 dE (1.order)= 0.000E+00
 bond charge predicted
       N       E                     dE             d eps       ncg     rms          rms(c)
DAV:   1    -0.303942283596E+03    0.33469E-09   -0.16594E-10   294   0.179E-10    0.278E-10
RMM:   2    -0.303942283596E+03   -0.69849E-09    0.00000E+00     0   0.828E-11
 457 F= -.30394228E+03 E0= -.30398861E+03  d E =0.800355E-10
quench:  g(F)=  0.000E+00 g(S)=  0.000E+00 dE (1.order)= 0.000E+00
 bond charge predicted
       N       E                     dE             d eps       ncg     rms          rms(c)
DAV:   1    -0.303942283596E+03   -0.22555E-09   -0.97553E-11   294   0.254E-10    0.262E-10
RMM:   2    -0.303942283596E+03   -0.56025E-09    0.00000E+00     0   0.863E-11
 458 F= -.30394228E+03 E0= -.30398861E+03  d E =-.873115E-10
quench:  g(F)=  0.000E+00 g(S)=  0.000E+00 dE (1.order)= 0.000E+00
 bond charge predicted
       N       E                     dE             d eps       ncg     rms          rms(c)
DAV:   1    -0.303942283595E+03    0.71304E-09   -0.43473E-11   294   0.261E-10    0.244E-10
RMM:   2    -0.303942283596E+03   -0.12660E-08    0.00000E+00     0   0.968E-11
 459 F= -.30394228E+03 E0= -.30398861E+03  d E =0.727596E-11
quench:  g(F)=  0.000E+00 g(S)=  0.000E+00 dE (1.order)= 0.000E+00
 bond charge predicted
       N       E                     dE             d eps       ncg     rms          rms(c)
DAV:   1    -0.303942283596E+03   -0.76398E-09   -0.39749E-12   294   0.313E-10    0.227E-10
RMM:   2    -0.303942283596E+03   -0.37107E-09    0.00000E+00     0   0.824E-11
 460 F= -.30394228E+03 E0= -.30398861E+03  d E =0.130967E-09
quench:  g(F)=  0.000E+00 g(S)=  0.000E+00 dE (1.order)= 0.000E+00
 bond charge predicted
       N       E                     dE             d eps       ncg     rms          rms(c)
DAV:   1    -0.303942283597E+03   -0.10041E-08   -0.52556E-11   294   0.211E-10    0.250E-10
RMM:   2    -0.303942283596E+03    0.58208E-09    0.00000E+00     0   0.917E-11
 461 F= -.30394228E+03 E0= -.30398861E+03  d E =-.509317E-10
quench:  g(F)=  0.000E+00 g(S)=  0.000E+00 dE (1.order)= 0.000E+00
 bond charge predicted
       N       E                     dE             d eps       ncg     rms          rms(c)
DAV:   1    -0.303942283596E+03    0.11569E-08   -0.40615E-11   294   0.216E-10    0.401E-10
RMM:   2    -0.303942283596E+03   -0.52387E-09    0.00000E+00     0   0.108E-10
 462 F= -.30394228E+03 E0= -.30398861E+03  d E =0.509317E-10
quench:  g(F)=  0.000E+00 g(S)=  0.000E+00 dE (1.order)= 0.000E+00
 bond charge predicted
       N       E                     dE             d eps       ncg     rms          rms(c)
DAV:   1    -0.303942283596E+03   -0.65484E-09   -0.10049E-10   294   0.197E-10    0.245E-10
RMM:   2    -0.303942283596E+03    0.13097E-09    0.00000E+00     0   0.779E-11
 463 F= -.30394228E+03 E0= -.30398861E+03  d E =0.000000E+00
quench:  g(F)=  0.000E+00 g(S)=  0.000E+00 dE (1.order)= 0.000E+00
 bond charge predicted
       N       E                     dE             d eps       ncg     rms          rms(c)
DAV:   1    -0.303942283596E+03    0.43656E-10   -0.21085E-10   294   0.198E-10    0.209E-10
RMM:   2    -0.303942283596E+03    0.94587E-10    0.00000E+00     0   0.637E-11
 464 F= -.30394228E+03 E0= -.30398861E+03  d E =0.727596E-11
quench:  g(F)=  0.000E+00 g(S)=  0.000E+00 dE (1.order)= 0.000E+00
 bond charge predicted
       N       E                     dE             d eps       ncg     rms          rms(c)
DAV:   1    -0.303942283596E+03    0.78580E-09   -0.11463E-10   294   0.135E-10    0.300E-10
RMM:   2    -0.303942283597E+03   -0.87311E-09    0.00000E+00     0   0.915E-11
 465 F= -.30394228E+03 E0= -.30398861E+03  d E =-.181899E-09
quench:  g(F)=  0.000E+00 g(S)=  0.000E+00 dE (1.order)= 0.000E+00
 bond charge predicted
       N       E                     dE             d eps       ncg     rms          rms(c)
DAV:   1    -0.303942283597E+03   -0.10696E-08   -0.10295E-10   294   0.283E-10    0.239E-10
RMM:   2    -0.303942283596E+03    0.36380E-09    0.00000E+00     0   0.757E-11
 466 F= -.30394228E+03 E0= -.30398861E+03  d E =0.167347E-09
quench:  g(F)=  0.000E+00 g(S)=  0.000E+00 dE (1.order)= 0.000E+00
 bond charge predicted
       N       E                     dE             d eps       ncg     rms          rms(c)
DAV:   1    -0.303942283597E+03   -0.72760E-09   -0.11987E-10   294   0.139E-10    0.354E-10
RMM:   2    -0.303942283596E+03    0.98225E-09    0.00000E+00     0   0.914E-11
 467 F= -.30394228E+03 E0= -.30398861E+03  d E =-.109139E-09
quench:  g(F)=  0.000E+00 g(S)=  0.000E+00 dE (1.order)= 0.000E+00
 bond charge predicted
       N       E                     dE             d eps       ncg     rms          rms(c)
DAV:   1    -0.303942283596E+03    0.96770E-09   -0.17785E-10   294   0.273E-10    0.251E-10
RMM:   2    -0.303942283596E+03    0.87311E-10    0.00000E+00     0   0.878E-11
 468 F= -.30394228E+03 E0= -.30398861E+03  d E =0.727596E-10
quench:  g(F)=  0.000E+00 g(S)=  0.000E+00 dE (1.order)= 0.000E+00
 bond charge predicted
       N       E                     dE             d eps       ncg     rms          rms(c)
DAV:   1    -0.303942283596E+03    0.71304E-09   -0.99029E-11   294   0.354E-10    0.172E-10
RMM:   2    -0.303942283596E+03   -0.53842E-09    0.00000E+00     0   0.842E-11
 469 F= -.30394228E+03 E0= -.30398861E+03  d E =0.873115E-10
quench:  g(F)=  0.000E+00 g(S)=  0.000E+00 dE (1.order)= 0.000E+00
 bond charge predicted
       N       E                     dE             d eps       ncg     rms          rms(c)
DAV:   1    -0.303942283595E+03    0.64756E-09   -0.28337E-10   294   0.201E-10    0.243E-10
RMM:   2    -0.303942283596E+03   -0.12151E-08    0.00000E+00     0   0.862E-11
 470 F= -.30394228E+03 E0= -.30398861E+03  d E =-.291038E-10
quench:  g(F)=  0.000E+00 g(S)=  0.000E+00 dE (1.order)= 0.000E+00
 bond charge predicted
       N       E                     dE             d eps       ncg     rms          rms(c)
DAV:   1    -0.303942283597E+03   -0.14770E-08   -0.11165E-10   294   0.219E-10    0.191E-10
RMM:   2    -0.303942283596E+03    0.20373E-09    0.00000E+00     0   0.843E-11
 471 F= -.30394228E+03 E0= -.30398861E+03  d E =-.582077E-10
quench:  g(F)=  0.000E+00 g(S)=  0.000E+00 dE (1.order)= 0.000E+00
 bond charge predicted
       N       E                     dE             d eps       ncg     rms          rms(c)
DAV:   1    -0.303942283596E+03    0.40745E-09   -0.20757E-10   294   0.203E-10    0.270E-10
RMM:   2    -0.303942283596E+03   -0.13824E-09    0.00000E+00     0   0.843E-11
 472 F= -.30394228E+03 E0= -.30398861E+03  d E =0.654836E-10
quench:  g(F)=  0.000E+00 g(S)=  0.000E+00 dE (1.order)= 0.000E+00
 bond charge predicted
       N       E                     dE             d eps       ncg     rms          rms(c)
DAV:   1    -0.303942283597E+03   -0.65484E-09   -0.37161E-11   294   0.213E-10    0.265E-10
RMM:   2    -0.303942283596E+03    0.37107E-09    0.00000E+00     0   0.923E-11
 473 F= -.30394228E+03 E0= -.30398861E+03  d E =-.145519E-09
quench:  g(F)=  0.000E+00 g(S)=  0.000E+00 dE (1.order)= 0.000E+00
 bond charge predicted
       N       E                     dE             d eps       ncg     rms          rms(c)
DAV:   1    -0.303942283597E+03   -0.72760E-10   -0.13563E-10   294   0.229E-10    0.276E-10
RMM:   2    -0.303942283596E+03    0.50204E-09    0.00000E+00     0   0.897E-11
 474 F= -.30394228E+03 E0= -.30398861E+03  d E =0.582077E-10
quench:  g(F)=  0.000E+00 g(S)=  0.000E+00 dE (1.order)= 0.000E+00
 bond charge predicted
       N       E                     dE             d eps       ncg     rms          rms(c)
DAV:   1    -0.303942283596E+03    0.43656E-09   -0.58618E-12   294   0.238E-10    0.223E-10
RMM:   2    -0.303942283596E+03    0.65484E-10    0.00000E+00     0   0.931E-11
 475 F= -.30394228E+03 E0= -.30398861E+03  d E =0.000000E+00
quench:  g(F)=  0.000E+00 g(S)=  0.000E+00 dE (1.order)= 0.000E+00
 bond charge predicted
       N       E                     dE             d eps       ncg     rms          rms(c)
DAV:   1    -0.303942283595E+03    0.15789E-08   -0.46040E-11   294   0.302E-10    0.173E-10
RMM:   2    -0.303942283596E+03   -0.14988E-08    0.00000E+00     0   0.885E-11
 476 F= -.30394228E+03 E0= -.30398861E+03  d E =0.145519E-10
quench:  g(F)=  0.000E+00 g(S)=  0.000E+00 dE (1.order)= 0.000E+00
 bond charge predicted
       N       E                     dE             d eps       ncg     rms          rms(c)
DAV:   1    -0.303942283595E+03    0.16007E-09   -0.83578E-11   294   0.121E-10    0.311E-10
RMM:   2    -0.303942283596E+03   -0.17462E-08    0.00000E+00     0   0.868E-11
 477 F= -.30394228E+03 E0= -.30398861E+03  d E =-.873115E-10
quench:  g(F)=  0.000E+00 g(S)=  0.000E+00 dE (1.order)= 0.000E+00
 bond charge predicted
       N       E                     dE             d eps       ncg     rms          rms(c)
DAV:   1    -0.303942283597E+03   -0.21828E-08   -0.22332E-10   294   0.244E-10    0.229E-10
RMM:   2    -0.303942283596E+03    0.51659E-09    0.00000E+00     0   0.768E-11
 478 F= -.30394228E+03 E0= -.30398861E+03  d E =0.800355E-10
quench:  g(F)=  0.000E+00 g(S)=  0.000E+00 dE (1.order)= 0.000E+00
 bond charge predicted
       N       E                     dE             d eps       ncg     rms          rms(c)
DAV:   1    -0.303942283596E+03    0.82218E-09   -0.13743E-10   294   0.200E-10    0.279E-10
RMM:   2    -0.303942283597E+03   -0.40745E-09    0.00000E+00     0   0.764E-11
 479 F= -.30394228E+03 E0= -.30398861E+03  d E =-.101863E-09
quench:  g(F)=  0.000E+00 g(S)=  0.000E+00 dE (1.order)= 0.000E+00
 bond charge predicted
       N       E                     dE             d eps       ncg     rms          rms(c)
DAV:   1    -0.303942283596E+03   -0.26193E-09   -0.77823E-11   294   0.224E-10    0.282E-10
RMM:   2    -0.303942283596E+03   -0.13097E-09    0.00000E+00     0   0.789E-11
 480 F= -.30394228E+03 E0= -.30398861E+03  d E =0.145519E-10
quench:  g(F)=  0.000E+00 g(S)=  0.000E+00 dE (1.order)= 0.000E+00
 bond charge predicted
       N       E                     dE             d eps       ncg     rms          rms(c)
DAV:   1    -0.303942283596E+03    0.35652E-09    0.42490E-11   294   0.318E-10    0.238E-10
RMM:   2    -0.303942283596E+03   -0.34925E-09    0.00000E+00     0   0.835E-11
 481 F= -.30394228E+03 E0= -.30398861E+03  d E =0.138243E-09
quench:  g(F)=  0.000E+00 g(S)=  0.000E+00 dE (1.order)= 0.000E+00
 bond charge predicted
       N       E                     dE             d eps       ncg     rms          rms(c)
DAV:   1    -0.303942283597E+03   -0.11278E-08   -0.13428E-10   294   0.264E-10    0.241E-10
RMM:   2    -0.303942283596E+03    0.72032E-09    0.00000E+00     0   0.826E-11
 482 F= -.30394228E+03 E0= -.30398861E+03  d E =-.582077E-10
quench:  g(F)=  0.000E+00 g(S)=  0.000E+00 dE (1.order)= 0.000E+00
 bond charge predicted
       N       E                     dE             d eps       ncg     rms          rms(c)
DAV:   1    -0.303942283595E+03    0.22410E-08   -0.13861E-10   294   0.197E-10    0.244E-10
RMM:   2    -0.303942283596E+03   -0.15862E-08    0.00000E+00     0   0.923E-11
 483 F= -.30394228E+03 E0= -.30398861E+03  d E =-.654836E-10
quench:  g(F)=  0.000E+00 g(S)=  0.000E+00 dE (1.order)= 0.000E+00
 bond charge predicted
       N       E                     dE             d eps       ncg     rms          rms(c)
DAV:   1    -0.303942283597E+03   -0.18117E-08   -0.13168E-10   294   0.240E-10    0.291E-10
RMM:   2    -0.303942283596E+03    0.34925E-09    0.00000E+00     0   0.809E-11
 484 F= -.30394228E+03 E0= -.30398861E+03  d E =0.123691E-09
quench:  g(F)=  0.000E+00 g(S)=  0.000E+00 dE (1.order)= 0.000E+00
 bond charge predicted
       N       E                     dE             d eps       ncg     rms          rms(c)
DAV:   1    -0.303942283596E+03    0.42928E-09   -0.25713E-10   294   0.241E-10    0.213E-10
RMM:   2    -0.303942283596E+03   -0.11642E-09    0.00000E+00     0   0.807E-11
 485 F= -.30394228E+03 E0= -.30398861E+03  d E =-.363798E-10
quench:  g(F)=  0.000E+00 g(S)=  0.000E+00 dE (1.order)= 0.000E+00
 bond charge predicted
       N       E                     dE             d eps       ncg     rms          rms(c)
DAV:   1    -0.303942283596E+03    0.10186E-09   -0.21216E-10   294   0.258E-10    0.294E-10
RMM:   2    -0.303942283596E+03   -0.23283E-09    0.00000E+00     0   0.855E-11
 486 F= -.30394228E+03 E0= -.30398861E+03  d E =-.145519E-10
quench:  g(F)=  0.000E+00 g(S)=  0.000E+00 dE (1.order)= 0.000E+00
 bond charge predicted
       N       E                     dE             d eps       ncg     rms          rms(c)
DAV:   1    -0.303942283597E+03   -0.85129E-09   -0.20894E-10   294   0.223E-10    0.287E-10
RMM:   2    -0.303942283596E+03    0.56752E-09    0.00000E+00     0   0.876E-11
 487 F= -.30394228E+03 E0= -.30398861E+03  d E =-.509317E-10
quench:  g(F)=  0.000E+00 g(S)=  0.000E+00 dE (1.order)= 0.000E+00
 bond charge predicted
       N       E                     dE             d eps       ncg     rms          rms(c)
DAV:   1    -0.303942283598E+03   -0.10114E-08   -0.19524E-10   294   0.332E-10    0.283E-10
RMM:   2    -0.303942283596E+03    0.16516E-08    0.00000E+00     0   0.101E-10
 488 F= -.30394228E+03 E0= -.30398861E+03  d E =0.727596E-10
quench:  g(F)=  0.000E+00 g(S)=  0.000E+00 dE (1.order)= 0.000E+00
 bond charge predicted
       N       E                     dE             d eps       ncg     rms          rms(c)
DAV:   1    -0.303942283596E+03    0.17608E-08   -0.26243E-10   294   0.258E-10    0.277E-10
RMM:   2    -0.303942283596E+03   -0.13824E-09    0.00000E+00     0   0.908E-11
 489 F= -.30394228E+03 E0= -.30398861E+03  d E =-.291038E-10
quench:  g(F)=  0.000E+00 g(S)=  0.000E+00 dE (1.order)= 0.000E+00
 bond charge predicted
       N       E                     dE             d eps       ncg     rms          rms(c)
DAV:   1    -0.303942283596E+03    0.69849E-09   -0.10605E-10   294   0.195E-10    0.227E-10
RMM:   2    -0.303942283596E+03   -0.88767E-09    0.00000E+00     0   0.709E-11
 490 F= -.30394228E+03 E0= -.30398861E+03  d E =-.509317E-10
quench:  g(F)=  0.000E+00 g(S)=  0.000E+00 dE (1.order)= 0.000E+00
 bond charge predicted
       N       E                     dE             d eps       ncg     rms          rms(c)
DAV:   1    -0.303942283596E+03   -0.13824E-09    0.28481E-13   294   0.229E-10    0.184E-10
RMM:   2    -0.303942283597E+03   -0.78580E-09    0.00000E+00     0   0.718E-11
 491 F= -.30394228E+03 E0= -.30398861E+03  d E =-.363798E-10
quench:  g(F)=  0.000E+00 g(S)=  0.000E+00 dE (1.order)= 0.000E+00
 bond charge predicted
       N       E                     dE             d eps       ncg     rms          rms(c)
DAV:   1    -0.303942283597E+03   -0.83674E-09   -0.11311E-10   294   0.216E-10    0.197E-10
RMM:   2    -0.303942283596E+03    0.87311E-10    0.00000E+00     0   0.808E-11
 492 F= -.30394228E+03 E0= -.30398861E+03  d E =0.363798E-10
quench:  g(F)=  0.000E+00 g(S)=  0.000E+00 dE (1.order)= 0.000E+00
 bond charge predicted
       N       E                     dE             d eps       ncg     rms          rms(c)
DAV:   1    -0.303942283597E+03   -0.21828E-09    0.15473E-11   294   0.210E-10    0.235E-10
RMM:   2    -0.303942283596E+03    0.43656E-09    0.00000E+00     0   0.750E-11
 493 F= -.30394228E+03 E0= -.30398861E+03  d E =0.130967E-09
quench:  g(F)=  0.000E+00 g(S)=  0.000E+00 dE (1.order)= 0.000E+00
 bond charge predicted
       N       E                     dE             d eps       ncg     rms          rms(c)
DAV:   1    -0.303942283596E+03    0.66211E-09   -0.80254E-11   294   0.171E-10    0.260E-10
RMM:   2    -0.303942283596E+03   -0.24738E-09    0.00000E+00     0   0.101E-10
 494 F= -.30394228E+03 E0= -.30398861E+03  d E =-.218279E-10
quench:  g(F)=  0.000E+00 g(S)=  0.000E+00 dE (1.order)= 0.000E+00
 bond charge predicted
       N       E                     dE             d eps       ncg     rms          rms(c)
DAV:   1    -0.303942283597E+03   -0.40745E-09   -0.15912E-10   294   0.261E-10    0.281E-10
RMM:   2    -0.303942283596E+03    0.58208E-10    0.00000E+00     0   0.918E-11
 495 F= -.30394228E+03 E0= -.30398861E+03  d E =-.101863E-09
quench:  g(F)=  0.000E+00 g(S)=  0.000E+00 dE (1.order)= 0.000E+00
 bond charge predicted
       N       E                     dE             d eps       ncg     rms          rms(c)
DAV:   1    -0.303942283597E+03   -0.59663E-09   -0.20178E-10   294   0.263E-10    0.233E-10
RMM:   2    -0.303942283596E+03    0.61846E-09    0.00000E+00     0   0.753E-11
 496 F= -.30394228E+03 E0= -.30398861E+03  d E =-.363798E-10
quench:  g(F)=  0.000E+00 g(S)=  0.000E+00 dE (1.order)= 0.000E+00
 bond charge predicted
       N       E                     dE             d eps       ncg     rms          rms(c)
DAV:   1    -0.303942283597E+03    0.36380E-09   -0.11787E-10   294   0.110E-10    0.307E-10
RMM:   2    -0.303942283596E+03    0.42928E-09    0.00000E+00     0   0.778E-11
 497 F= -.30394228E+03 E0= -.30398861E+03  d E =0.174623E-09
quench:  g(F)=  0.000E+00 g(S)=  0.000E+00 dE (1.order)= 0.000E+00
 bond charge predicted
       N       E                     dE             d eps       ncg     rms          rms(c)
DAV:   1    -0.303942283597E+03   -0.66211E-09   -0.13650E-10   294   0.223E-10    0.192E-10
RMM:   2    -0.303942283596E+03    0.10623E-08    0.00000E+00     0   0.795E-11
 498 F= -.30394228E+03 E0= -.30398861E+03  d E =-.291038E-10
quench:  g(F)=  0.000E+00 g(S)=  0.000E+00 dE (1.order)= 0.000E+00
 bond charge predicted
       N       E                     dE             d eps       ncg     rms          rms(c)
DAV:   1    -0.303942283597E+03    0.77125E-09    0.79087E-11   294   0.246E-10    0.267E-10
RMM:   2    -0.303942283596E+03    0.25466E-09    0.00000E+00     0   0.867E-11
 499 F= -.30394228E+03 E0= -.30398861E+03  d E =-.363798E-10
quench:  g(F)=  0.000E+00 g(S)=  0.000E+00 dE (1.order)= 0.000E+00
 bond charge predicted
       N       E                     dE             d eps       ncg     rms          rms(c)
DAV:   1    -0.303942283597E+03   -0.10186E-09   -0.23372E-10   294   0.144E-10    0.215E-10
RMM:   2    -0.303942283596E+03    0.38563E-09    0.00000E+00     0   0.795E-11
 500 F= -.30394228E+03 E0= -.30398861E+03  d E =0.291038E-10
quench:  g(F)=  0.000E+00 g(S)=  0.000E+00 dE (1.order)= 0.000E+00
