  55  55   0   0
  0.2301251E+02  0.1218282E-08  0.7661564E-09  0.1373046E-08  0.5000000E-15
   1.0000000000000000E-004
  CAR 
 endpoint_relax_bottleneck               
      9.88760792    -23.58126663  301      1.28892994      1.00000000
    -23.581  0.0000E+00  0.0000E+00
    -23.470  0.0000E+00  0.0000E+00
    -23.358  0.0000E+00  0.0000E+00
    -23.247 -0.1123E-30 -0.1253E-31
    -23.135 -0.8717E-27 -0.9726E-28
    -23.023 -0.3527E-23 -0.3936E-24
    -22.912 -0.7669E-20 -0.8559E-21
    -22.800 -0.8969E-17 -0.1001E-17
    -22.689 -0.5470E-14 -0.6113E-15
    -22.577 -0.1844E-11 -0.2064E-12
    -22.466 -0.3347E-09 -0.3755E-10
    -22.354 -0.3266E-07 -0.3681E-08
    -22.243 -0.1708E-05 -0.1942E-06
    -22.131 -0.4757E-04 -0.5501E-05
    -22.019 -0.6957E-03 -0.8311E-04
    -21.908 -0.5183E-02 -0.6613E-03
    -21.796 -0.1792E-01 -0.2661E-02
    -21.685 -0.1367E-01 -0.4186E-02
    -21.573  0.1080E+00  0.7863E-02
    -21.462  0.4803E+00  0.6145E-01
    -21.350  0.1020E+01  0.1753E+00
    -21.238  0.1235E+01  0.3131E+00
    -21.127  0.8871E+00  0.4121E+00
    -21.015  0.3884E+00  0.4554E+00
    -20.904  0.7985E-01  0.4643E+00
    -20.792 -0.1841E-01  0.4623E+00
    -20.681 -0.1601E-01  0.4605E+00
    -20.569 -0.3859E-02  0.4601E+00
    -20.458 -0.4325E-03  0.4600E+00
    -20.346 -0.2460E-04  0.4600E+00
    -20.234 -0.7318E-06  0.4600E+00
    -20.123 -0.1153E-07  0.4600E+00
    -20.011 -0.9687E-10  0.4600E+00
    -19.900 -0.4353E-12  0.4600E+00
    -19.788 -0.1048E-14  0.4600E+00
    -19.677  0.0000E+00  0.4600E+00
    -19.565  0.0000E+00  0.4600E+00
    -19.453  0.0000E+00  0.4600E+00
    -19.342  0.0000E+00  0.4600E+00
    -19.230  0.0000E+00  0.4600E+00
    -19.119  0.0000E+00  0.4600E+00
    -19.007  0.0000E+00  0.4600E+00
    -18.896  0.0000E+00  0.4600E+00
    -18.784  0.0000E+00  0.4600E+00
    -18.672  0.0000E+00  0.4600E+00
    -18.561  0.0000E+00  0.4600E+00
    -18.449  0.0000E+00  0.4600E+00
    -18.338  0.0000E+00  0.4600E+00
    -18.226  0.0000E+00  0.4600E+00
    -18.115  0.0000E+00  0.4600E+00
    -18.003  0.0000E+00  0.4600E+00
    -17.892  0.0000E+00  0.4600E+00
    -17.780  0.0000E+00  0.4600E+00
    -17.668  0.0000E+00  0.4600E+00
    -17.557  0.0000E+00  0.4600E+00
    -17.445  0.0000E+00  0.4600E+00
    -17.334  0.0000E+00  0.4600E+00
    -17.222  0.0000E+00  0.4600E+00
    -17.111  0.0000E+00  0.4600E+00
    -16.999  0.0000E+00  0.4600E+00
    -16.887  0.0000E+00  0.4600E+00
    -16.776  0.0000E+00  0.4600E+00
    -16.664  0.0000E+00  0.4600E+00
    -16.553  0.0000E+00  0.4600E+00
    -16.441  0.0000E+00  0.4600E+00
    -16.330  0.0000E+00  0.4600E+00
    -16.218  0.0000E+00  0.4600E+00
    -16.107  0.0000E+00  0.4600E+00
    -15.995  0.0000E+00  0.4600E+00
    -15.883  0.0000E+00  0.4600E+00
    -15.772  0.0000E+00  0.4600E+00
    -15.660  0.0000E+00  0.4600E+00
    -15.549  0.0000E+00  0.4600E+00
    -15.437  0.0000E+00  0.4600E+00
    -15.326  0.0000E+00  0.4600E+00
    -15.214  0.0000E+00  0.4600E+00
    -15.102  0.0000E+00  0.4600E+00
    -14.991  0.0000E+00  0.4600E+00
    -14.879  0.0000E+00  0.4600E+00
    -14.768  0.0000E+00  0.4600E+00
    -14.656  0.0000E+00  0.4600E+00
    -14.545  0.0000E+00  0.4600E+00
    -14.433  0.0000E+00  0.4600E+00
    -14.322  0.0000E+00  0.4600E+00
    -14.210  0.0000E+00  0.4600E+00
    -14.098  0.0000E+00  0.4600E+00
    -13.987  0.0000E+00  0.4600E+00
    -13.875  0.0000E+00  0.4600E+00
    -13.764  0.0000E+00  0.4600E+00
    -13.652  0.0000E+00  0.4600E+00
    -13.541  0.0000E+00  0.4600E+00
    -13.429  0.0000E+00  0.4600E+00
    -13.317  0.0000E+00  0.4600E+00
    -13.206  0.0000E+00  0.4600E+00
    -13.094  0.0000E+00  0.4600E+00
    -12.983  0.0000E+00  0.4600E+00
    -12.871  0.0000E+00  0.4600E+00
    -12.760  0.0000E+00  0.4600E+00
    -12.648  0.0000E+00  0.4600E+00
    -12.537 -0.8215E-30  0.4600E+00
    -12.425 -0.5297E-26  0.4600E+00
    -12.313 -0.1822E-22  0.4600E+00
    -12.202 -0.3346E-19  0.4600E+00
    -12.090 -0.3275E-16  0.4600E+00
    -11.979 -0.1651E-13  0.4600E+00
    -11.867 -0.4542E-11  0.4600E+00
    -11.756 -0.6619E-09  0.4600E+00
    -11.644 -0.5090E-07  0.4600E+00
    -11.532 -0.2054E-05  0.4600E+00
    -11.421 -0.4303E-04  0.4600E+00
    -11.309 -0.4554E-03  0.4599E+00
    -11.198 -0.2234E-02  0.4597E+00
    -11.086 -0.2970E-02  0.4594E+00
    -10.975  0.1416E-01  0.4609E+00
    -10.863  0.6183E-01  0.4678E+00
    -10.752  0.9553E-01  0.4785E+00
    -10.640  0.6516E-01  0.4858E+00
    -10.528  0.1451E-01  0.4874E+00
    -10.417 -0.4249E-02  0.4869E+00
    -10.305 -0.4887E-02  0.4864E+00
    -10.194 -0.3563E-02  0.4860E+00
    -10.082  0.1459E-01  0.4876E+00
     -9.971  0.6255E-01  0.4946E+00
     -9.859  0.1114E+00  0.5070E+00
     -9.747  0.1327E+00  0.5218E+00
     -9.636  0.1373E+00  0.5371E+00
     -9.524  0.1566E+00  0.5546E+00
     -9.413  0.2026E+00  0.5772E+00
     -9.301  0.2159E+00  0.6013E+00
     -9.190  0.1420E+00  0.6171E+00
     -9.078  0.3885E-01  0.6215E+00
     -8.967 -0.5892E-02  0.6208E+00
     -8.855 -0.5766E-02  0.6202E+00
     -8.743 -0.1229E-02  0.6200E+00
     -8.632 -0.1164E-03  0.6200E+00
     -8.520 -0.5480E-05  0.6200E+00
     -8.409 -0.1332E-06  0.6200E+00
     -8.297 -0.1701E-08  0.6200E+00
     -8.186 -0.1151E-10  0.6200E+00
     -8.074 -0.4146E-13  0.6200E+00
     -7.962 -0.7961E-16  0.6200E+00
     -7.851  0.0000E+00  0.6200E+00
     -7.739  0.0000E+00  0.6200E+00
     -7.628  0.0000E+00  0.6200E+00
     -7.516  0.0000E+00  0.6200E+00
     -7.405  0.0000E+00  0.6200E+00
     -7.293  0.0000E+00  0.6200E+00
     -7.182  0.0000E+00  0.6200E+00
     -7.070  0.0000E+00  0.6200E+00
     -6.958  0.0000E+00  0.6200E+00
     -6.847  0.0000E+00  0.6200E+00
     -6.735  0.0000E+00  0.6200E+00
     -6.624  0.0000E+00  0.6200E+00
     -6.512  0.0000E+00  0.6200E+00
     -6.401  0.0000E+00  0.6200E+00
     -6.289  0.0000E+00  0.6200E+00
     -6.177  0.0000E+00  0.6200E+00
     -6.066  0.0000E+00  0.6200E+00
     -5.954  0.0000E+00  0.6200E+00
     -5.843  0.0000E+00  0.6200E+00
     -5.731  0.0000E+00  0.6200E+00
     -5.620  0.0000E+00  0.6200E+00
     -5.508  0.0000E+00  0.6200E+00
     -5.397  0.0000E+00  0.6200E+00
     -5.285  0.0000E+00  0.6200E+00
     -5.173  0.0000E+00  0.6200E+00
     -5.062  0.0000E+00  0.6200E+00
     -4.950  0.0000E+00  0.6200E+00
     -4.839 -0.2127E-30  0.6200E+00
     -4.727 -0.1524E-26  0.6200E+00
     -4.616 -0.5843E-23  0.6200E+00
     -4.504 -0.1198E-19  0.6200E+00
     -4.392 -0.1314E-16  0.6200E+00
     -4.281 -0.7450E-14  0.6200E+00
     -4.169 -0.2309E-11  0.6200E+00
     -4.058 -0.3802E-09  0.6200E+00
     -3.946 -0.3309E-07  0.6200E+00
     -3.835 -0.1510E-05  0.6200E+00
     -3.723 -0.3561E-04  0.6200E+00
     -3.612 -0.4205E-03  0.6199E+00
     -3.500 -0.2292E-02  0.6197E+00
     -3.388 -0.3944E-02  0.6193E+00
     -3.277  0.1026E-01  0.6204E+00
     -3.165  0.5696E-01  0.6268E+00
     -3.054  0.1208E+00  0.6402E+00
     -2.942  0.1561E+00  0.6576E+00
     -2.831  0.1146E+00  0.6704E+00
     -2.719  0.3507E-01  0.6743E+00
     -2.607 -0.3283E-02  0.6740E+00
     -2.496 -0.4582E-02  0.6735E+00
     -2.384 -0.1082E-02  0.6733E+00
     -2.273 -0.3079E-03  0.6733E+00
     -2.161 -0.1418E-02  0.6732E+00
     -2.050 -0.4005E-02  0.6727E+00
     -1.938  0.2789E-02  0.6730E+00
     -1.826  0.4101E-01  0.6776E+00
     -1.715  0.9462E-01  0.6881E+00
     -1.603  0.1136E+00  0.7008E+00
     -1.492  0.1090E+00  0.7130E+00
     -1.380  0.1140E+00  0.7257E+00
     -1.269  0.1071E+00  0.7376E+00
     -1.157  0.8081E-01  0.7467E+00
     -1.046  0.7028E-01  0.7545E+00
     -0.934  0.8635E-01  0.7641E+00
     -0.822  0.9635E-01  0.7749E+00
     -0.711  0.7355E-01  0.7831E+00
     -0.599  0.6060E-01  0.7899E+00
     -0.488  0.1139E+00  0.8026E+00
     -0.376  0.1949E+00  0.8243E+00
     -0.265  0.2249E+00  0.8494E+00
     -0.153  0.1880E+00  0.8704E+00
     -0.041  0.1335E+00  0.8853E+00
      0.070  0.1182E+00  0.8985E+00
      0.182  0.1389E+00  0.9140E+00
      0.293  0.1391E+00  0.9295E+00
      0.405  0.1153E+00  0.9423E+00
      0.516  0.1217E+00  0.9559E+00
      0.628  0.1797E+00  0.9760E+00
      0.739  0.2403E+00  0.1003E+01
      0.851  0.2482E+00  0.1030E+01
      0.963  0.2113E+00  0.1054E+01
      1.074  0.1642E+00  0.1072E+01
      1.186  0.1309E+00  0.1087E+01
      1.297  0.9181E-01  0.1097E+01
      1.409  0.3227E-01  0.1101E+01
      1.520 -0.1838E-02  0.1101E+01
      1.632 -0.4216E-02  0.1100E+01
      1.744 -0.1048E-02  0.1100E+01
      1.855 -0.1112E-03  0.1100E+01
      1.967 -0.5798E-05  0.1100E+01
      2.078 -0.1557E-06  0.1100E+01
      2.190 -0.2194E-08  0.1100E+01
      2.301 -0.1638E-10  0.1100E+01
      2.413 -0.6504E-13  0.1100E+01
      2.524 -0.1460E-15  0.1100E+01
      2.636 -0.6038E-28  0.1100E+01
      2.748 -0.2876E-24  0.1100E+01
      2.859 -0.7307E-21  0.1100E+01
      2.971 -0.9896E-18  0.1100E+01
      3.082 -0.6902E-15  0.1100E+01
      3.194 -0.2631E-12  0.1100E+01
      3.305 -0.5287E-10  0.1100E+01
      3.417 -0.5580E-08  0.1100E+01
      3.529 -0.3065E-06  0.1100E+01
      3.640 -0.8607E-05  0.1100E+01
      3.752 -0.1191E-03  0.1100E+01
      3.863 -0.7365E-03  0.1100E+01
      3.975 -0.1252E-02  0.1100E+01
      4.086  0.4867E-02  0.1100E+01
      4.198  0.2083E-01  0.1103E+01
      4.309  0.2605E-01  0.1106E+01
      4.421  0.1156E-01  0.1107E+01
      4.533  0.8506E-04  0.1107E+01
      4.644 -0.1188E-02  0.1107E+01
      4.756 -0.3103E-03  0.1107E+01
      4.867 -0.1641E-03  0.1107E+01
      4.979 -0.1098E-02  0.1107E+01
      5.090 -0.3774E-02  0.1106E+01
      5.202  0.3086E-03  0.1106E+01
      5.314  0.3498E-01  0.1110E+01
      5.425  0.8996E-01  0.1120E+01
      5.537  0.1029E+00  0.1132E+01
      5.648  0.7324E-01  0.1140E+01
      5.760  0.6351E-01  0.1147E+01
      5.871  0.7365E-01  0.1155E+01
      5.983  0.6969E-01  0.1163E+01
      6.094  0.7978E-01  0.1172E+01
      6.206  0.1116E+00  0.1184E+01
      6.318  0.1114E+00  0.1197E+01
      6.429  0.1000E+00  0.1208E+01
      6.541  0.1096E+00  0.1220E+01
      6.652  0.1096E+00  0.1232E+01
      6.764  0.1080E+00  0.1244E+01
      6.875  0.1286E+00  0.1259E+01
      6.987  0.1576E+00  0.1276E+01
      7.099  0.1592E+00  0.1294E+01
      7.210  0.1188E+00  0.1307E+01
      7.322  0.7493E-01  0.1316E+01
      7.433  0.6759E-01  0.1323E+01
      7.545  0.1091E+00  0.1335E+01
      7.656  0.1588E+00  0.1353E+01
      7.768  0.1597E+00  0.1371E+01
      7.879  0.1053E+00  0.1383E+01
      7.991  0.3925E-01  0.1387E+01
      8.103  0.3268E-02  0.1387E+01
      8.214 -0.3646E-02  0.1387E+01
      8.326 -0.1566E-02  0.1387E+01
      8.437 -0.2665E-03  0.1387E+01
      8.549 -0.2201E-04  0.1387E+01
      8.660 -0.9248E-06  0.1387E+01
      8.772 -0.2013E-07  0.1387E+01
      8.884 -0.2292E-09  0.1387E+01
      8.995 -0.1374E-11  0.1387E+01
      9.107 -0.4352E-14  0.1387E+01
      9.218 -0.1327E-16  0.1387E+01
      9.330  0.0000E+00  0.1387E+01
      9.441  0.0000E+00  0.1387E+01
      9.553  0.0000E+00  0.1387E+01
      9.664  0.0000E+00  0.1387E+01
      9.776  0.0000E+00  0.1387E+01
      9.888  0.0000E+00  0.1387E+01
