       N       E                     dE             d eps       ncg     rms          rms(c)
DAV:   1     0.313449163290E+04    0.31345E+04   -0.14698E+05   416   0.151E+03
DAV:   2     0.226353134029E+03   -0.29081E+04   -0.27604E+04   448   0.394E+02
DAV:   3    -0.208179219126E+03   -0.43453E+03   -0.42864E+03   496   0.163E+02
DAV:   4    -0.233169381009E+03   -0.24990E+02   -0.24821E+02   496   0.372E+01
DAV:   5    -0.234172371715E+03   -0.10030E+01   -0.10017E+01   592   0.776E+00    0.248E+01
RMM:   6    -0.222814592928E+03    0.11358E+02   -0.19135E+01   439   0.561E+00    0.166E+01
RMM:   7    -0.222253660407E+03    0.56093E+00   -0.23798E+01   429   0.542E+00    0.881E+00
RMM:   8    -0.222025896975E+03    0.22776E+00   -0.17295E+00   487   0.276E+00    0.473E+00
RMM:   9    -0.221961158016E+03    0.64739E-01   -0.12019E+00   457   0.186E+00    0.286E+00
RMM:  10    -0.221852377040E+03    0.10878E+00   -0.16622E-01   494   0.105E+00    0.168E+00
RMM:  11    -0.221828928579E+03    0.23448E-01   -0.11721E-01   549   0.494E-01    0.825E-01
RMM:  12    -0.221839718008E+03   -0.10789E-01   -0.30639E-02   472   0.277E-01    0.799E-01
RMM:  13    -0.221826270515E+03    0.13447E-01   -0.13294E-02   474   0.197E-01    0.257E-01
RMM:  14    -0.221826319922E+03   -0.49407E-04   -0.43320E-03   548   0.114E-01    0.201E-01
RMM:  15    -0.221826380981E+03   -0.61059E-04   -0.16005E-03   486   0.610E-02    0.217E-01
RMM:  16    -0.221825894476E+03    0.48650E-03   -0.59072E-04   490   0.425E-02    0.738E-02
RMM:  17    -0.221825896162E+03   -0.16859E-05   -0.23319E-04   460   0.288E-02    0.329E-02
RMM:  18    -0.221825891680E+03    0.44826E-05   -0.64766E-05   550   0.156E-02    0.197E-02
RMM:  19    -0.221825895904E+03   -0.42243E-05   -0.14149E-05   356   0.779E-03    0.126E-02
RMM:  20    -0.221825893909E+03    0.19952E-05   -0.45438E-06   370   0.447E-03    0.717E-03
RMM:  21    -0.221825894877E+03   -0.96830E-06   -0.16192E-06   256   0.295E-03
   1 F= -.22182589E+03 E0= -.22182637E+03  d E =-.221826E+03
       N       E                     dE             d eps       ncg     rms          rms(c)
DAV:   1    -0.221876325191E+03   -0.50431E-01   -0.51619E+00   480   0.383E+00    0.149E+00
RMM:   2    -0.221894796234E+03   -0.18471E-01   -0.21430E-01   497   0.100E+00    0.268E-01
RMM:   3    -0.221899216259E+03   -0.44200E-02   -0.53312E-02   528   0.498E-01    0.509E-01
RMM:   4    -0.221898946080E+03    0.27018E-03   -0.58572E-03   536   0.176E-01    0.399E-01
RMM:   5    -0.221898572483E+03    0.37360E-03   -0.85392E-04   511   0.563E-02    0.340E-01
RMM:   6    -0.221898248237E+03    0.32425E-03   -0.36968E-04   409   0.312E-02    0.263E-01
RMM:   7    -0.221898096770E+03    0.15147E-03   -0.27016E-03   555   0.569E-02    0.950E-02
RMM:   8    -0.221898031085E+03    0.65684E-04   -0.34508E-04   531   0.295E-02    0.611E-02
RMM:   9    -0.221897974276E+03    0.56809E-04   -0.44517E-05   393   0.121E-02    0.424E-02
RMM:  10    -0.221897952782E+03    0.21494E-04   -0.28741E-04   489   0.186E-02    0.149E-02
RMM:  11    -0.221897947195E+03    0.55867E-05   -0.20293E-05   362   0.841E-03    0.121E-02
RMM:  12    -0.221897948805E+03   -0.16103E-05   -0.15745E-05   408   0.540E-03    0.627E-03
RMM:  13    -0.221897947798E+03    0.10075E-05   -0.49616E-06   377   0.381E-03    0.521E-03
RMM:  14    -0.221897948081E+03   -0.28362E-06   -0.21274E-06   251   0.206E-03
   2 F= -.22189795E+03 E0= -.22190075E+03  d E =-.720532E-01
       N       E                     dE             d eps       ncg     rms          rms(c)
DAV:   1    -0.221902098069E+03   -0.41503E-02   -0.48376E+00   448   0.363E+00    0.144E+00
RMM:   2    -0.221918281926E+03   -0.16184E-01   -0.19004E-01   492   0.971E-01    0.273E-01
RMM:   3    -0.221922661239E+03   -0.43793E-02   -0.51746E-02   538   0.496E-01    0.514E-01
RMM:   4    -0.221922351799E+03    0.30944E-03   -0.52295E-03   518   0.167E-01    0.405E-01
RMM:   5    -0.221922087906E+03    0.26389E-03   -0.74546E-04   505   0.542E-02    0.357E-01
RMM:   6    -0.221921828849E+03    0.25906E-03   -0.20125E-04   418   0.264E-02    0.299E-01
RMM:   7    -0.221921554656E+03    0.27419E-03   -0.31892E-03   565   0.604E-02    0.879E-02
RMM:   8    -0.221921551804E+03    0.28519E-05   -0.32663E-04   544   0.298E-02    0.761E-02
RMM:   9    -0.221921513009E+03    0.38795E-04   -0.27252E-05   395   0.103E-02    0.625E-02
RMM:  10    -0.221921472587E+03    0.40422E-04   -0.61039E-04   522   0.252E-02    0.323E-02
RMM:  11    -0.221921455540E+03    0.17047E-04   -0.55785E-05   412   0.110E-02    0.193E-02
RMM:  12    -0.221921457137E+03   -0.15966E-05   -0.22636E-05   428   0.614E-03    0.720E-03
RMM:  13    -0.221921456591E+03    0.54592E-06   -0.10580E-05   359   0.436E-03    0.100E-02
RMM:  14    -0.221921456334E+03    0.25663E-06   -0.89044E-07   229   0.194E-03
   3 F= -.22192146E+03 E0= -.22192610E+03  d E =-.955615E-01
       N       E                     dE             d eps       ncg     rms          rms(c)
DAV:   1    -0.221950584398E+03   -0.29128E-01   -0.86360E+00   448   0.464E+00    0.128E+00
RMM:   2    -0.221974263791E+03   -0.23679E-01   -0.26990E-01   497   0.119E+00    0.187E-01
RMM:   3    -0.221981857226E+03   -0.75934E-02   -0.82282E-02   542   0.609E-01    0.585E-01
RMM:   4    -0.221981915657E+03   -0.58430E-04   -0.67652E-03   519   0.198E-01    0.471E-01
RMM:   5    -0.221981419058E+03    0.49660E-03   -0.84145E-04   494   0.607E-02    0.389E-01
RMM:   6    -0.221980770067E+03    0.64899E-03   -0.12805E-03   411   0.482E-02    0.226E-01
RMM:   7    -0.221980856199E+03   -0.86131E-04   -0.33385E-03   537   0.649E-02    0.824E-02
RMM:   8    -0.221980828772E+03    0.27427E-04   -0.17149E-04   527   0.283E-02    0.826E-02
RMM:   9    -0.221980686311E+03    0.14246E-03   -0.26135E-04   395   0.203E-02    0.336E-02
RMM:  10    -0.221980683374E+03    0.29370E-05   -0.17803E-04   396   0.176E-02    0.137E-02
RMM:  11    -0.221980681965E+03    0.14083E-05   -0.12525E-05   414   0.941E-03    0.109E-02
RMM:  12    -0.221980681822E+03    0.14363E-06   -0.11894E-05   350   0.530E-03    0.805E-03
RMM:  13    -0.221980681611E+03    0.21047E-06   -0.20483E-06   332   0.319E-03
   4 F= -.22198068E+03 E0= -.22198563E+03  d E =-.592253E-01
       N       E                     dE             d eps       ncg     rms          rms(c)
DAV:   1    -0.221817588267E+03    0.16309E+00   -0.61599E+01   416   0.126E+01    0.392E+00
RMM:   2    -0.221999220606E+03   -0.18163E+00   -0.20582E+00   497   0.324E+00    0.516E-01
RMM:   3    -0.222053869394E+03   -0.54649E-01   -0.60209E-01   547   0.169E+00    0.158E+00
RMM:   4    -0.222054497597E+03   -0.62820E-03   -0.49425E-02   518   0.539E-01    0.132E+00
RMM:   5    -0.222050592009E+03    0.39056E-02   -0.66039E-03   486   0.173E-01    0.109E+00
RMM:   6    -0.222046991682E+03    0.36003E-02   -0.72280E-03   424   0.125E-01    0.679E-01
RMM:   7    -0.222046986703E+03    0.49790E-05   -0.20885E-02   540   0.166E-01    0.191E-01
RMM:   8    -0.222046401234E+03    0.58547E-03   -0.10618E-03   449   0.827E-02    0.139E-01
RMM:   9    -0.222046223135E+03    0.17810E-03   -0.20945E-03   470   0.624E-02    0.568E-02
RMM:  10    -0.222046229762E+03   -0.66273E-05   -0.27738E-04   540   0.329E-02    0.508E-02
RMM:  11    -0.222046196144E+03    0.33618E-04   -0.56453E-05   369   0.128E-02    0.394E-02
RMM:  12    -0.222046200430E+03   -0.42855E-05   -0.10874E-04   385   0.131E-02    0.331E-02
RMM:  13    -0.222046196354E+03    0.40756E-05   -0.23353E-05   367   0.871E-03    0.142E-02
RMM:  14    -0.222046198200E+03   -0.18462E-05   -0.13006E-05   415   0.532E-03    0.159E-02
RMM:  15    -0.222046195988E+03    0.22126E-05   -0.31855E-06   325   0.333E-03    0.444E-03
RMM:  16    -0.222046195915E+03    0.72192E-07   -0.23912E-06   272   0.231E-03
   5 F= -.22204620E+03 E0= -.22205185E+03  d E =-.124740E+00
       N       E                     dE             d eps       ncg     rms          rms(c)
DAV:   1    -0.222031082485E+03    0.15114E-01   -0.15965E+01   448   0.683E+00    0.191E+00
RMM:   2    -0.222075404452E+03   -0.44322E-01   -0.50082E-01   500   0.166E+00    0.302E-01
RMM:   3    -0.222087529860E+03   -0.12125E-01   -0.13645E-01   531   0.858E-01    0.736E-01
RMM:   4    -0.222087640154E+03   -0.11029E-03   -0.13995E-02   530   0.304E-01    0.582E-01
RMM:   5    -0.222086702026E+03    0.93813E-03   -0.15538E-03   488   0.855E-02    0.463E-01
RMM:   6    -0.222086000757E+03    0.70127E-03   -0.13366E-03   423   0.576E-02    0.298E-01
RMM:   7    -0.222085942487E+03    0.58270E-04   -0.43221E-03   535   0.783E-02    0.963E-02
RMM:   8    -0.222085868196E+03    0.74291E-04   -0.32897E-04   558   0.373E-02    0.883E-02
RMM:   9    -0.222085739252E+03    0.12894E-03   -0.20165E-04   389   0.212E-02    0.377E-02
RMM:  10    -0.222085753502E+03   -0.14250E-04   -0.31744E-04   424   0.227E-02    0.275E-02
RMM:  11    -0.222085739314E+03    0.14187E-04   -0.31444E-05   360   0.116E-02    0.168E-02
RMM:  12    -0.222085739906E+03   -0.59215E-06   -0.55684E-05   407   0.901E-03    0.157E-02
RMM:  13    -0.222085737838E+03    0.20681E-05   -0.57398E-06   379   0.499E-03    0.611E-03
RMM:  14    -0.222085738171E+03   -0.33250E-06   -0.37548E-06   368   0.284E-03
   6 F= -.22208574E+03 E0= -.22209084E+03  d E =-.395423E-01
       N       E                     dE             d eps       ncg     rms          rms(c)
DAV:   1    -0.222081343835E+03    0.43940E-02   -0.23074E+00   448   0.261E+00    0.705E-01
RMM:   2    -0.222087675372E+03   -0.63315E-02   -0.71365E-02   501   0.629E-01    0.106E-01
RMM:   3    -0.222089324472E+03   -0.16491E-02   -0.18651E-02   523   0.311E-01    0.273E-01
RMM:   4    -0.222089331273E+03   -0.68010E-05   -0.18184E-03   538   0.111E-01    0.214E-01
RMM:   5    -0.222089213258E+03    0.11801E-03   -0.21198E-04   487   0.304E-02    0.177E-01
RMM:   6    -0.222089102513E+03    0.11074E-03   -0.16065E-04   387   0.198E-02    0.121E-01
RMM:   7    -0.222089081878E+03    0.20636E-04   -0.83571E-04   533   0.330E-02    0.342E-02
RMM:   8    -0.222089064244E+03    0.17633E-04   -0.32548E-05   391   0.139E-02    0.234E-02
RMM:   9    -0.222089056338E+03    0.79060E-05   -0.39324E-05   396   0.887E-03    0.138E-02
RMM:  10    -0.222089058171E+03   -0.18323E-05   -0.35293E-05   447   0.781E-03    0.130E-02
RMM:  11    -0.222089055232E+03    0.29389E-05   -0.11589E-05   360   0.486E-03    0.805E-03
RMM:  12    -0.222089056082E+03   -0.85042E-06   -0.60656E-06   351   0.320E-03
   7 F= -.22208906E+03 E0= -.22209389E+03  d E =-.428602E-01
       N       E                     dE             d eps       ncg     rms          rms(c)
DAV:   1    -0.222078298736E+03    0.10756E-01   -0.14439E+01   416   0.699E+00    0.144E+00
RMM:   2    -0.222114462907E+03   -0.36164E-01   -0.40135E-01   519   0.161E+00    0.238E-01
RMM:   3    -0.222122337465E+03   -0.78746E-02   -0.88453E-02   502   0.752E-01    0.502E-01
RMM:   4    -0.222122870607E+03   -0.53314E-03   -0.12599E-02   561   0.308E-01    0.401E-01
RMM:   5    -0.222122283040E+03    0.58757E-03   -0.10887E-03   472   0.724E-02    0.326E-01
RMM:   6    -0.222121839938E+03    0.44310E-03   -0.84167E-04   423   0.510E-02    0.226E-01
RMM:   7    -0.222121793655E+03    0.46284E-04   -0.24734E-03   518   0.644E-02    0.548E-02
RMM:   8    -0.222121763244E+03    0.30411E-04   -0.12322E-04   489   0.297E-02    0.367E-02
RMM:   9    -0.222121733179E+03    0.30065E-04   -0.10283E-04   417   0.176E-02    0.236E-02
RMM:  10    -0.222121736730E+03   -0.35512E-05   -0.71123E-05   464   0.129E-02    0.206E-02
RMM:  11    -0.222121735220E+03    0.15104E-05   -0.44497E-06   358   0.539E-03    0.168E-02
RMM:  12    -0.222121734701E+03    0.51863E-06   -0.12428E-05   350   0.475E-03    0.648E-03
RMM:  13    -0.222121734536E+03    0.16580E-06   -0.12602E-06   253   0.269E-03
   8 F= -.22212173E+03 E0= -.22212511E+03  d E =-.326785E-01
       N       E                     dE             d eps       ncg     rms          rms(c)
DAV:   1    -0.222077114294E+03    0.44620E-01   -0.18701E+01   416   0.798E+00    0.164E+00
RMM:   2    -0.222124088159E+03   -0.46974E-01   -0.52147E-01   520   0.184E+00    0.269E-01
RMM:   3    -0.222134565182E+03   -0.10477E-01   -0.11745E-01   503   0.860E-01    0.574E-01
RMM:   4    -0.222135194641E+03   -0.62946E-03   -0.15653E-02   561   0.345E-01    0.460E-01
RMM:   5    -0.222134472709E+03    0.72193E-03   -0.14292E-03   475   0.831E-02    0.381E-01
RMM:   6    -0.222133898066E+03    0.57464E-03   -0.96574E-04   424   0.558E-02    0.275E-01
RMM:   7    -0.222133792694E+03    0.10537E-03   -0.35189E-03   524   0.755E-02    0.671E-02
RMM:   8    -0.222133763771E+03    0.28923E-04   -0.16413E-04   509   0.345E-02    0.460E-02
RMM:   9    -0.222133713678E+03    0.50092E-04   -0.13556E-04   421   0.200E-02    0.286E-02
RMM:  10    -0.222133717529E+03   -0.38506E-05   -0.10951E-04   465   0.154E-02    0.257E-02
RMM:  11    -0.222133715561E+03    0.19684E-05   -0.71700E-06   384   0.672E-03    0.206E-02
RMM:  12    -0.222133714480E+03    0.10812E-05   -0.15259E-05   346   0.536E-03    0.827E-03
RMM:  13    -0.222133714548E+03   -0.68580E-07   -0.21057E-06   333   0.327E-03
   9 F= -.22213371E+03 E0= -.22213544E+03  d E =-.446585E-01
       N       E                     dE             d eps       ncg     rms          rms(c)
DAV:   1    -0.222115441925E+03    0.18273E-01   -0.15528E+01   448   0.739E+00    0.136E+00
RMM:   2    -0.222150444022E+03   -0.35002E-01   -0.38976E-01   534   0.162E+00    0.296E-01
RMM:   3    -0.222157450688E+03   -0.70067E-02   -0.78523E-02   491   0.738E-01    0.425E-01
RMM:   4    -0.222158118988E+03   -0.66830E-03   -0.13402E-02   574   0.320E-01    0.331E-01
RMM:   5    -0.222157649585E+03    0.46940E-03   -0.11574E-03   467   0.754E-02    0.255E-01
RMM:   6    -0.222157320049E+03    0.32954E-03   -0.16959E-03   419   0.664E-02    0.112E-01
RMM:   7    -0.222157442670E+03   -0.12262E-03   -0.10572E-03   489   0.522E-02    0.524E-02
RMM:   8    -0.222157367740E+03    0.74931E-04   -0.18674E-04   434   0.271E-02    0.304E-02
RMM:   9    -0.222157377587E+03   -0.98475E-05   -0.30442E-04   428   0.235E-02    0.220E-02
RMM:  10    -0.222157362496E+03    0.15091E-04   -0.27144E-05   399   0.134E-02    0.151E-02
RMM:  11    -0.222157358865E+03    0.36312E-05   -0.36666E-05   372   0.885E-03    0.767E-03
RMM:  12    -0.222157359313E+03   -0.44788E-06   -0.54970E-06   430   0.508E-03
  10 F= -.22215736E+03 E0= -.22215815E+03  d E =-.236448E-01
       N       E                     dE             d eps       ncg     rms          rms(c)
DAV:   1    -0.222146334874E+03    0.11024E-01   -0.55840E+00   448   0.448E+00    0.798E-01
RMM:   2    -0.222158787558E+03   -0.12453E-01   -0.13836E-01   534   0.966E-01    0.176E-01
RMM:   3    -0.222161177016E+03   -0.23895E-02   -0.26666E-02   489   0.439E-01    0.254E-01
RMM:   4    -0.222161454300E+03   -0.27728E-03   -0.52819E-03   575   0.198E-01    0.194E-01
RMM:   5    -0.222161294113E+03    0.16019E-03   -0.42433E-04   468   0.444E-02    0.150E-01
RMM:   6    -0.222161180446E+03    0.11367E-03   -0.52200E-04   424   0.375E-02    0.728E-02
RMM:   7    -0.222161219243E+03   -0.38797E-04   -0.37545E-04   480   0.307E-02    0.297E-02
RMM:   8    -0.222161194298E+03    0.24945E-04   -0.74160E-05   410   0.165E-02    0.143E-02
RMM:   9    -0.222161196410E+03   -0.21126E-05   -0.50309E-05   399   0.110E-02    0.111E-02
RMM:  10    -0.222161195307E+03    0.11035E-05   -0.55086E-06   411   0.644E-03    0.931E-03
RMM:  11    -0.222161193981E+03    0.13261E-05   -0.36953E-06   320   0.342E-03    0.551E-03
RMM:  12    -0.222161194310E+03   -0.32979E-06   -0.32333E-06   345   0.277E-03
  11 F= -.22216119E+03 E0= -.22216145E+03  d E =-.274798E-01
       N       E                     dE             d eps       ncg     rms          rms(c)
DAV:   1    -0.222162132193E+03   -0.93821E-03   -0.32709E+00   464   0.346E+00    0.554E-01
RMM:   2    -0.222168642421E+03   -0.65102E-02   -0.70380E-02   538   0.715E-01    0.133E-01
RMM:   3    -0.222169796081E+03   -0.11537E-02   -0.12899E-02   482   0.323E-01    0.161E-01
RMM:   4    -0.222169916906E+03   -0.12083E-03   -0.33048E-03   590   0.153E-01    0.132E-01
RMM:   5    -0.222169837890E+03    0.79016E-04   -0.17745E-04   466   0.312E-02    0.115E-01
RMM:   6    -0.222169788819E+03    0.49070E-04   -0.10977E-04   427   0.202E-02    0.846E-02
RMM:   7    -0.222169758216E+03    0.30603E-04   -0.24625E-04   491   0.226E-02    0.342E-02
RMM:   8    -0.222169762080E+03   -0.38634E-05   -0.58327E-05   543   0.142E-02    0.180E-02
RMM:   9    -0.222169755784E+03    0.62956E-05   -0.39060E-05   352   0.877E-03    0.889E-03
RMM:  10    -0.222169756028E+03   -0.24426E-06   -0.57333E-06   427   0.527E-03
  12 F= -.22216976E+03 E0= -.22216960E+03  d E =-.856172E-02
       N       E                     dE             d eps       ncg     rms          rms(c)
DAV:   1    -0.222162669603E+03    0.70862E-02   -0.48936E+00   464   0.423E+00    0.679E-01
RMM:   2    -0.222172404913E+03   -0.97353E-02   -0.10527E-01   538   0.876E-01    0.161E-01
RMM:   3    -0.222174154695E+03   -0.17498E-02   -0.19597E-02   482   0.396E-01    0.196E-01
RMM:   4    -0.222174321727E+03   -0.16703E-03   -0.47717E-03   589   0.185E-01    0.161E-01
RMM:   5    -0.222174207418E+03    0.11431E-03   -0.27156E-04   468   0.385E-02    0.141E-01
RMM:   6    -0.222174140419E+03    0.66999E-04   -0.13192E-04   432   0.232E-02    0.110E-01
RMM:   7    -0.222174083357E+03    0.57062E-04   -0.39201E-04   504   0.282E-02    0.418E-02
RMM:   8    -0.222174091040E+03   -0.76832E-05   -0.90086E-05   561   0.177E-02    0.219E-02
RMM:   9    -0.222174081705E+03    0.93347E-05   -0.52296E-05   363   0.104E-02    0.104E-02
RMM:  10    -0.222174082303E+03   -0.59739E-06   -0.86686E-06   449   0.631E-03
  13 F= -.22217408E+03 E0= -.22217343E+03  d E =-.128880E-01
       N       E                     dE             d eps       ncg     rms          rms(c)
DAV:   1    -0.222176607512E+03   -0.25258E-02   -0.17968E+00   464   0.252E+00    0.322E-01
RMM:   2    -0.222179860567E+03   -0.32531E-02   -0.35096E-02   554   0.498E-01    0.109E-01
RMM:   3    -0.222180398057E+03   -0.53749E-03   -0.58826E-03   497   0.214E-01    0.843E-02
RMM:   4    -0.222180502387E+03   -0.10433E-03   -0.14421E-03   593   0.102E-01    0.763E-02
RMM:   5    -0.222180454738E+03    0.47649E-04   -0.88948E-05   440   0.225E-02    0.550E-02
RMM:   6    -0.222180444629E+03    0.10109E-04   -0.13961E-04   423   0.200E-02    0.213E-02
RMM:   7    -0.222180449454E+03   -0.48253E-05   -0.39479E-05   524   0.130E-02    0.152E-02
RMM:   8    -0.222180446609E+03    0.28460E-05   -0.35386E-06   323   0.469E-03    0.944E-03
RMM:   9    -0.222180447144E+03   -0.53566E-06   -0.23688E-05   418   0.609E-03    0.533E-03
RMM:  10    -0.222180445705E+03    0.14387E-05   -0.24340E-06   325   0.333E-03    0.207E-03
RMM:  11    -0.222180445775E+03   -0.69092E-07   -0.19384E-06   299   0.213E-03
  14 F= -.22218045E+03 E0= -.22217993E+03  d E =-.636347E-02
       N       E                     dE             d eps       ncg     rms          rms(c)
DAV:   1    -0.222155081438E+03    0.25364E-01   -0.15877E+01   448   0.752E+00    0.965E-01
RMM:   2    -0.222184470713E+03   -0.29389E-01   -0.31845E-01   554   0.149E+00    0.330E-01
RMM:   3    -0.222189441231E+03   -0.49705E-02   -0.55457E-02   498   0.665E-01    0.253E-01
RMM:   4    -0.222190566689E+03   -0.11255E-02   -0.14768E-02   589   0.320E-01    0.231E-01
RMM:   5    -0.222190181455E+03    0.38523E-03   -0.79148E-04   449   0.684E-02    0.176E-01
RMM:   6    -0.222190045178E+03    0.13628E-03   -0.96389E-04   427   0.587E-02    0.825E-02
RMM:   7    -0.222190098793E+03   -0.53615E-04   -0.46661E-04   542   0.409E-02    0.498E-02
RMM:   8    -0.222190075983E+03    0.22810E-04   -0.44432E-05   452   0.163E-02    0.318E-02
RMM:   9    -0.222190070180E+03    0.58032E-05   -0.18759E-04   484   0.180E-02    0.146E-02
RMM:  10    -0.222190062738E+03    0.74416E-05   -0.16007E-05   378   0.100E-02    0.694E-03
RMM:  11    -0.222190062027E+03    0.71098E-06   -0.11092E-05   400   0.562E-03    0.399E-03
RMM:  12    -0.222190062411E+03   -0.38430E-06   -0.28325E-06   319   0.378E-03
  15 F= -.22219006E+03 E0= -.22218993E+03  d E =-.159801E-01
       N       E                     dE             d eps       ncg     rms          rms(c)
DAV:   1    -0.222189071233E+03    0.99079E-03   -0.57817E-01   464   0.143E+00    0.183E-01
RMM:   2    -0.222190122896E+03   -0.10517E-02   -0.11371E-02   554   0.282E-01    0.623E-02
RMM:   3    -0.222190287779E+03   -0.16488E-03   -0.18062E-03   496   0.121E-01    0.477E-02
RMM:   4    -0.222190330609E+03   -0.42830E-04   -0.55371E-04   590   0.601E-02    0.433E-02
RMM:   5    -0.222190315098E+03    0.15511E-04   -0.27370E-05   430   0.125E-02    0.310E-02
RMM:   6    -0.222190312212E+03    0.28863E-05   -0.37262E-05   398   0.108E-02    0.139E-02
RMM:   7    -0.222190313633E+03   -0.14216E-05   -0.13099E-05   476   0.733E-03    0.943E-03
RMM:   8    -0.222190312721E+03    0.91191E-06   -0.13872E-06   259   0.291E-03
  16 F= -.22219031E+03 E0= -.22219025E+03  d E =-.162304E-01
       N       E                     dE             d eps       ncg     rms          rms(c)
DAV:   1    -0.222187173609E+03    0.31400E-02   -0.37790E+00   464   0.360E+00    0.494E-01
RMM:   2    -0.222194162036E+03   -0.69884E-02   -0.74699E-02   541   0.725E-01    0.125E-01
RMM:   3    -0.222195481557E+03   -0.13195E-02   -0.14338E-02   513   0.328E-01    0.136E-01
RMM:   4    -0.222195697350E+03   -0.21579E-03   -0.31522E-03   571   0.147E-01    0.116E-01
RMM:   5    -0.222195618208E+03    0.79141E-04   -0.16966E-04   454   0.318E-02    0.911E-02
RMM:   6    -0.222195577752E+03    0.40457E-04   -0.22064E-04   420   0.263E-02    0.472E-02
RMM:   7    -0.222195587222E+03   -0.94704E-05   -0.14238E-04   503   0.206E-02    0.253E-02
RMM:   8    -0.222195581941E+03    0.52811E-05   -0.12870E-05   419   0.931E-03    0.146E-02
RMM:   9    -0.222195580412E+03    0.15287E-05   -0.44129E-05   417   0.880E-03    0.765E-03
RMM:  10    -0.222195578568E+03    0.18438E-05   -0.36868E-06   352   0.483E-03    0.406E-03
RMM:  11    -0.222195578416E+03    0.15231E-06   -0.22294E-06   325   0.254E-03
  17 F= -.22219558E+03 E0= -.22219548E+03  d E =-.526569E-02
       N       E                     dE             d eps       ncg     rms          rms(c)
DAV:   1    -0.222181547305E+03    0.14031E-01   -0.76411E+00   464   0.513E+00    0.705E-01
RMM:   2    -0.222195646589E+03   -0.14099E-01   -0.15105E-01   540   0.104E+00    0.172E-01
RMM:   3    -0.222198388437E+03   -0.27418E-02   -0.29844E-02   513   0.474E-01    0.197E-01
RMM:   4    -0.222198852022E+03   -0.46359E-03   -0.66361E-03   569   0.212E-01    0.167E-01
RMM:   5    -0.222198701734E+03    0.15029E-03   -0.34142E-04   458   0.454E-02    0.134E-01
RMM:   6    -0.222198608857E+03    0.92876E-04   -0.43217E-04   420   0.372E-02    0.715E-02
RMM:   7    -0.222198628494E+03   -0.19636E-04   -0.31952E-04   486   0.302E-02    0.362E-02
RMM:   8    -0.222198620130E+03    0.83637E-05   -0.37943E-05   480   0.149E-02    0.222E-02
RMM:   9    -0.222198614171E+03    0.59593E-05   -0.11198E-04   460   0.138E-02    0.120E-02
RMM:  10    -0.222198609750E+03    0.44207E-05   -0.97027E-06   359   0.757E-03    0.606E-03
RMM:  11    -0.222198609520E+03    0.22938E-06   -0.88071E-06   377   0.463E-03
  18 F= -.22219861E+03 E0= -.22219846E+03  d E =-.829680E-02
       N       E                     dE             d eps       ncg     rms          rms(c)
DAV:   1    -0.222196637719E+03    0.19720E-02   -0.30159E+00   464   0.320E+00    0.434E-01
RMM:   2    -0.222202068628E+03   -0.54309E-02   -0.58743E-02   545   0.641E-01    0.118E-01
RMM:   3    -0.222203041553E+03   -0.97293E-03   -0.10629E-02   494   0.287E-01    0.119E-01
RMM:   4    -0.222203256946E+03   -0.21539E-03   -0.29026E-03   593   0.138E-01    0.105E-01
RMM:   5    -0.222203178180E+03    0.78766E-04   -0.14483E-04   446   0.286E-02    0.761E-02
RMM:   6    -0.222203152174E+03    0.26006E-04   -0.25215E-04   417   0.270E-02    0.298E-02
RMM:   7    -0.222203163562E+03   -0.11388E-04   -0.97396E-05   520   0.187E-02    0.197E-02
RMM:   8    -0.222203157760E+03    0.58021E-05   -0.94595E-06   397   0.748E-03    0.142E-02
RMM:   9    -0.222203155635E+03    0.21246E-05   -0.41660E-05   432   0.791E-03    0.600E-03
RMM:  10    -0.222203155057E+03    0.57869E-06   -0.26099E-06   347   0.423E-03
  19 F= -.22220316E+03 E0= -.22220312E+03  d E =-.454554E-02
       N       E                     dE             d eps       ncg     rms          rms(c)
DAV:   1    -0.222196886836E+03    0.62688E-02   -0.37675E+00   464   0.358E+00    0.485E-01
RMM:   2    -0.222203647856E+03   -0.67610E-02   -0.73215E-02   544   0.716E-01    0.129E-01
RMM:   3    -0.222204892913E+03   -0.12451E-02   -0.13572E-02   496   0.321E-01    0.132E-01
RMM:   4    -0.222205146817E+03   -0.25390E-03   -0.34684E-03   587   0.151E-01    0.116E-01
RMM:   5    -0.222205049615E+03    0.97201E-04   -0.18645E-04   446   0.325E-02    0.836E-02
RMM:   6    -0.222205020080E+03    0.29535E-04   -0.32518E-04   423   0.304E-02    0.314E-02
RMM:   7    -0.222205033417E+03   -0.13337E-04   -0.11168E-04   537   0.206E-02    0.212E-02
RMM:   8    -0.222205026332E+03    0.70842E-05   -0.11502E-05   399   0.795E-03    0.154E-02
RMM:   9    -0.222205024226E+03    0.21061E-05   -0.51978E-05   443   0.880E-03    0.685E-03
RMM:  10    -0.222205023281E+03    0.94510E-06   -0.29318E-06   362   0.453E-03
  20 F= -.22220502E+03 E0= -.22220514E+03  d E =-.641376E-02
       N       E                     dE             d eps       ncg     rms          rms(c)
DAV:   1    -0.222201048006E+03    0.39762E-02   -0.35275E+00   464   0.349E+00    0.482E-01
RMM:   2    -0.222207555470E+03   -0.65075E-02   -0.70188E-02   538   0.715E-01    0.106E-01
RMM:   3    -0.222208829412E+03   -0.12739E-02   -0.13852E-02   494   0.326E-01    0.141E-01
RMM:   4    -0.222209042057E+03   -0.21265E-03   -0.32806E-03   571   0.150E-01    0.108E-01
RMM:   5    -0.222208986537E+03    0.55520E-04   -0.14980E-04   469   0.297E-02    0.859E-02
RMM:   6    -0.222208956192E+03    0.30345E-04   -0.15327E-04   429   0.226E-02    0.509E-02
RMM:   7    -0.222208958446E+03   -0.22537E-05   -0.14753E-04   463   0.199E-02    0.201E-02
RMM:   8    -0.222208955155E+03    0.32909E-05   -0.12781E-05   407   0.107E-02    0.138E-02
RMM:   9    -0.222208951515E+03    0.36397E-05   -0.82349E-06   379   0.608E-03    0.723E-03
RMM:  10    -0.222208952703E+03   -0.11877E-05   -0.11724E-05   412   0.554E-03    0.770E-03
RMM:  11    -0.222208951679E+03    0.10236E-05   -0.17989E-06   277   0.319E-03    0.426E-03
RMM:  12    -0.222208951808E+03   -0.12892E-06   -0.33353E-06   353   0.290E-03
  21 F= -.22220895E+03 E0= -.22220942E+03  d E =-.392853E-02
       N       E                     dE             d eps       ncg     rms          rms(c)
DAV:   1    -0.222199585476E+03    0.93662E-02   -0.48325E+00   464   0.410E+00    0.566E-01
RMM:   2    -0.222208545771E+03   -0.89603E-02   -0.96596E-02   537   0.840E-01    0.123E-01
RMM:   3    -0.222210306721E+03   -0.17609E-02   -0.19202E-02   495   0.385E-01    0.168E-01
RMM:   4    -0.222210604378E+03   -0.29766E-03   -0.45737E-03   568   0.177E-01    0.128E-01
RMM:   5    -0.222210526921E+03    0.77457E-04   -0.22639E-04   469   0.361E-02    0.101E-01
RMM:   6    -0.222210488247E+03    0.38673E-04   -0.22591E-04   425   0.272E-02    0.592E-02
RMM:   7    -0.222210489295E+03   -0.10475E-05   -0.20600E-04   477   0.235E-02    0.238E-02
RMM:   8    -0.222210483721E+03    0.55734E-05   -0.17133E-05   417   0.122E-02    0.158E-02
RMM:   9    -0.222210479149E+03    0.45727E-05   -0.14349E-05   371   0.728E-03    0.850E-03
RMM:  10    -0.222210480890E+03   -0.17418E-05   -0.14890E-05   428   0.635E-03    0.857E-03
RMM:  11    -0.222210479368E+03    0.15225E-05   -0.29650E-06   309   0.367E-03    0.442E-03
RMM:  12    -0.222210479647E+03   -0.27936E-06   -0.41803E-06   362   0.322E-03
  22 F= -.22221048E+03 E0= -.22221135E+03  d E =-.545637E-02
       N       E                     dE             d eps       ncg     rms          rms(c)
DAV:   1    -0.222207645457E+03    0.28339E-02   -0.24546E+00   464   0.289E+00    0.384E-01
RMM:   2    -0.222212023232E+03   -0.43778E-02   -0.47111E-02   536   0.584E-01    0.843E-02
RMM:   3    -0.222212957477E+03   -0.93425E-03   -0.98712E-03   503   0.271E-01    0.123E-01
RMM:   4    -0.222213101811E+03   -0.14433E-03   -0.21725E-03   572   0.123E-01    0.103E-01
RMM:   5    -0.222213052118E+03    0.49692E-04   -0.10332E-04   467   0.250E-02    0.867E-02
RMM:   6    -0.222213000773E+03    0.51345E-04   -0.19061E-04   413   0.229E-02    0.392E-02
RMM:   7    -0.222213014754E+03   -0.13981E-04   -0.15102E-04   432   0.197E-02    0.179E-02
RMM:   8    -0.222213008490E+03    0.62641E-05   -0.12667E-05   409   0.104E-02    0.118E-02
RMM:   9    -0.222213008469E+03    0.21482E-07   -0.51514E-05   439   0.933E-03    0.104E-02
RMM:  10    -0.222213005460E+03    0.30093E-05   -0.56649E-06   342   0.486E-03    0.494E-03
RMM:  11    -0.222213005396E+03    0.63734E-07   -0.39125E-06   375   0.282E-03
  23 F= -.22221301E+03 E0= -.22221402E+03  d E =-.252575E-02
       N       E                     dE             d eps       ncg     rms          rms(c)
DAV:   1    -0.222198221138E+03    0.14784E-01   -0.70268E+00   464   0.492E+00    0.651E-01
RMM:   2    -0.222210855571E+03   -0.12634E-01   -0.13602E-01   534   0.987E-01    0.143E-01
RMM:   3    -0.222213623287E+03   -0.27677E-02   -0.29488E-02   511   0.466E-01    0.208E-01
RMM:   4    -0.222214022848E+03   -0.39956E-03   -0.60914E-03   564   0.206E-01    0.175E-01
RMM:   5    -0.222213876098E+03    0.14675E-03   -0.31496E-04   465   0.436E-02    0.145E-01
RMM:   6    -0.222213737945E+03    0.13815E-03   -0.49711E-04   414   0.378E-02    0.694E-02
RMM:   7    -0.222213772319E+03   -0.34374E-04   -0.43426E-04   444   0.332E-02    0.281E-02
RMM:   8    -0.222213753466E+03    0.18853E-04   -0.44038E-05   441   0.178E-02    0.161E-02
RMM:   9    -0.222213753331E+03    0.13498E-06   -0.77132E-05   401   0.126E-02    0.136E-02
RMM:  10    -0.222213750285E+03    0.30458E-05   -0.56509E-06   388   0.681E-03    0.881E-03
RMM:  11    -0.222213749280E+03    0.10047E-05   -0.51910E-06   336   0.383E-03    0.495E-03
RMM:  12    -0.222213749881E+03   -0.60094E-06   -0.43577E-06   363   0.303E-03
  24 F= -.22221375E+03 E0= -.22221501E+03  d E =-.327023E-02
       N       E                     dE             d eps       ncg     rms          rms(c)
DAV:   1    -0.222212420210E+03    0.13291E-02   -0.72623E-01   464   0.157E+00    0.211E-01
RMM:   2    -0.222213710084E+03   -0.12899E-02   -0.13877E-02   536   0.315E-01    0.476E-02
RMM:   3    -0.222213980215E+03   -0.27013E-03   -0.28458E-03   500   0.144E-01    0.649E-02
RMM:   4    -0.222214020003E+03   -0.39788E-04   -0.61141E-04   575   0.656E-02    0.544E-02
RMM:   5    -0.222214004990E+03    0.15012E-04   -0.30017E-05   455   0.135E-02    0.446E-02
RMM:   6    -0.222213991522E+03    0.13468E-04   -0.72927E-05   409   0.133E-02    0.168E-02
RMM:   7    -0.222213995324E+03   -0.38023E-05   -0.29681E-05   403   0.964E-03    0.936E-03
RMM:   8    -0.222213993886E+03    0.14389E-05   -0.23735E-06   358   0.497E-03    0.681E-03
RMM:   9    -0.222213994089E+03   -0.20372E-06   -0.18957E-05   436   0.531E-03    0.547E-03
RMM:  10    -0.222213992801E+03    0.12886E-05   -0.24563E-06   335   0.293E-03    0.214E-03
RMM:  11    -0.222213992886E+03   -0.85911E-07   -0.14415E-06   269   0.183E-03
  25 F= -.22221399E+03 E0= -.22221518E+03  d E =-.351324E-02
       N       E                     dE             d eps       ncg     rms          rms(c)
DAV:   1    -0.222212490784E+03    0.15020E-02   -0.17352E+00   464   0.240E+00    0.307E-01
RMM:   2    -0.222215576280E+03   -0.30855E-02   -0.33116E-02   539   0.480E-01    0.829E-02
RMM:   3    -0.222216202279E+03   -0.62600E-03   -0.66327E-03   512   0.218E-01    0.948E-02
RMM:   4    -0.222216299507E+03   -0.97228E-04   -0.14028E-03   571   0.989E-02    0.807E-02
RMM:   5    -0.222216262323E+03    0.37184E-04   -0.76224E-05   446   0.211E-02    0.637E-02
RMM:   6    -0.222216241427E+03    0.20896E-04   -0.11600E-04   417   0.181E-02    0.330E-02
RMM:   7    -0.222216245410E+03   -0.39831E-05   -0.75200E-05   482   0.145E-02    0.173E-02
RMM:   8    -0.222216243598E+03    0.18115E-05   -0.59127E-06   397   0.701E-03    0.114E-02
RMM:   9    -0.222216241113E+03    0.24859E-05   -0.18981E-05   379   0.598E-03    0.392E-03
RMM:  10    -0.222216240884E+03    0.22862E-06   -0.13165E-06   256   0.330E-03
  26 F= -.22221624E+03 E0= -.22221763E+03  d E =-.224800E-02
       N       E                     dE             d eps       ncg     rms          rms(c)
DAV:   1    -0.222210360451E+03    0.58807E-02   -0.35441E+00   464   0.343E+00    0.440E-01
RMM:   2    -0.222216678102E+03   -0.63177E-02   -0.67860E-02   539   0.686E-01    0.117E-01
RMM:   3    -0.222217983504E+03   -0.13054E-02   -0.13855E-02   513   0.314E-01    0.136E-01
RMM:   4    -0.222218186252E+03   -0.20275E-03   -0.29197E-03   566   0.142E-01    0.116E-01
RMM:   5    -0.222218112401E+03    0.73851E-04   -0.15998E-04   454   0.304E-02    0.923E-02
RMM:   6    -0.222218067627E+03    0.44774E-04   -0.21638E-04   418   0.253E-02    0.497E-02
RMM:   7    -0.222218075098E+03   -0.74705E-05   -0.16144E-04   484   0.210E-02    0.249E-02
RMM:   8    -0.222218072713E+03    0.23850E-05   -0.17583E-05   454   0.107E-02    0.167E-02
RMM:   9    -0.222218067117E+03    0.55957E-05   -0.44476E-05   405   0.885E-03    0.621E-03
RMM:  10    -0.222218066381E+03    0.73638E-06   -0.31273E-06   348   0.495E-03
  27 F= -.22221807E+03 E0= -.22221977E+03  d E =-.407349E-02
       N       E                     dE             d eps       ncg     rms          rms(c)
DAV:   1    -0.222185158393E+03    0.32909E-01   -0.14198E+01   448   0.685E+00    0.887E-01
RMM:   2    -0.222211030847E+03   -0.25872E-01   -0.27847E-01   539   0.138E+00    0.243E-01
RMM:   3    -0.222216507216E+03   -0.54764E-02   -0.59093E-02   509   0.646E-01    0.271E-01
RMM:   4    -0.222217308468E+03   -0.80125E-03   -0.11538E-02   570   0.284E-01    0.232E-01
RMM:   5    -0.222217029752E+03    0.27872E-03   -0.68167E-04   460   0.623E-02    0.188E-01
RMM:   6    -0.222216845571E+03    0.18418E-03   -0.67842E-04   421   0.476E-02    0.111E-01
RMM:   7    -0.222216859554E+03   -0.13982E-04   -0.63659E-04   471   0.418E-02    0.519E-02
RMM:   8    -0.222216860449E+03   -0.89552E-06   -0.10876E-04   540   0.243E-02    0.343E-02
RMM:   9    -0.222216834550E+03    0.25900E-04   -0.16753E-04   435   0.184E-02    0.120E-02
RMM:  10    -0.222216833135E+03    0.14150E-05   -0.14076E-05   413   0.106E-02    0.816E-03
RMM:  11    -0.222216832594E+03    0.54041E-06   -0.42952E-06   369   0.537E-03
  28 F= -.22221683E+03 E0= -.22221919E+03  d E =-.283971E-02
       N       E                     dE             d eps       ncg     rms          rms(c)
DAV:   1    -0.222203042312E+03    0.13791E-01   -0.70140E+00   464   0.480E+00    0.626E-01
RMM:   2    -0.222215574831E+03   -0.12533E-01   -0.13481E-01   538   0.964E-01    0.164E-01
RMM:   3    -0.222218230592E+03   -0.26558E-02   -0.28407E-02   514   0.446E-01    0.195E-01
RMM:   4    -0.222218619156E+03   -0.38856E-03   -0.56398E-03   565   0.198E-01    0.165E-01
RMM:   5    -0.222218479551E+03    0.13960E-03   -0.31910E-04   460   0.428E-02    0.134E-01
RMM:   6    -0.222218382495E+03    0.97056E-04   -0.44052E-04   419   0.362E-02    0.712E-02
RMM:   7    -0.222218397533E+03   -0.15038E-04   -0.32045E-04   483   0.297E-02    0.359E-02
RMM:   8    -0.222218394956E+03    0.25768E-05   -0.39954E-05   497   0.155E-02    0.259E-02
RMM:   9    -0.222218380835E+03    0.14121E-04   -0.10563E-04   462   0.140E-02    0.878E-03
RMM:  10    -0.222218379017E+03    0.18186E-05   -0.72127E-06   370   0.740E-03    0.553E-03
RMM:  11    -0.222218378938E+03    0.78140E-07   -0.27685E-06   341   0.355E-03
  29 F= -.22221838E+03 E0= -.22222028E+03  d E =-.438605E-02
       N       E                     dE             d eps       ncg     rms          rms(c)
DAV:   1    -0.222214432610E+03    0.39464E-02   -0.28206E+00   464   0.301E+00    0.424E-01
RMM:   2    -0.222219630656E+03   -0.51980E-02   -0.56020E-02   540   0.615E-01    0.107E-01
RMM:   3    -0.222220684716E+03   -0.10541E-02   -0.11291E-02   506   0.277E-01    0.125E-01
RMM:   4    -0.222220819856E+03   -0.13514E-03   -0.20802E-03   575   0.122E-01    0.104E-01
RMM:   5    -0.222220756104E+03    0.63752E-04   -0.13799E-04   450   0.275E-02    0.796E-02
RMM:   6    -0.222220725956E+03    0.30147E-04   -0.19537E-04   426   0.235E-02    0.377E-02
RMM:   7    -0.222220737712E+03   -0.11756E-04   -0.10547E-04   492   0.179E-02    0.221E-02
RMM:   8    -0.222220733731E+03    0.39814E-05   -0.99977E-06   417   0.823E-03    0.141E-02
RMM:   9    -0.222220730104E+03    0.36268E-05   -0.39798E-05   422   0.814E-03    0.594E-03
RMM:  10    -0.222220729345E+03    0.75914E-06   -0.22918E-06   307   0.423E-03
  30 F= -.22222073E+03 E0= -.22222261E+03  d E =-.235041E-02
       N       E                     dE             d eps       ncg     rms          rms(c)
DAV:   1    -0.222218108271E+03    0.26218E-02   -0.14680E+00   464   0.217E+00    0.306E-01
RMM:   2    -0.222220810089E+03   -0.27018E-02   -0.29071E-02   541   0.443E-01    0.781E-02
RMM:   3    -0.222221341172E+03   -0.53108E-03   -0.56857E-03   504   0.198E-01    0.882E-02
RMM:   4    -0.222221415171E+03   -0.73998E-04   -0.11201E-03   577   0.891E-02    0.739E-02
RMM:   5    -0.222221382133E+03    0.33037E-04   -0.71295E-05   449   0.197E-02    0.560E-02
RMM:   6    -0.222221367884E+03    0.14249E-04   -0.10008E-04   418   0.169E-02    0.262E-02
RMM:   7    -0.222221373817E+03   -0.59331E-05   -0.51595E-05   476   0.127E-02    0.157E-02
RMM:   8    -0.222221371544E+03    0.22734E-05   -0.48166E-06   372   0.579E-03    0.964E-03
RMM:   9    -0.222221370105E+03    0.14388E-05   -0.18628E-05   403   0.556E-03    0.425E-03
RMM:  10    -0.222221369715E+03    0.39050E-06   -0.11343E-06   250   0.298E-03
  31 F= -.22222137E+03 E0= -.22222325E+03  d E =-.299078E-02
       N       E                     dE             d eps       ncg     rms          rms(c)
DAV:   1    -0.222219889459E+03    0.14806E-02   -0.15406E+00   464   0.218E+00    0.311E-01
RMM:   2    -0.222222746093E+03   -0.28566E-02   -0.30698E-02   533   0.451E-01    0.778E-02
RMM:   3    -0.222223325872E+03   -0.57978E-03   -0.62010E-03   506   0.203E-01    0.936E-02
RMM:   4    -0.222223379119E+03   -0.53247E-04   -0.10472E-03   567   0.871E-02    0.686E-02
RMM:   5    -0.222223357674E+03    0.21445E-04   -0.73996E-05   462   0.196E-02    0.522E-02
RMM:   6    -0.222223346079E+03    0.11595E-04   -0.53203E-05   410   0.136E-02    0.303E-02
RMM:   7    -0.222223349221E+03   -0.31420E-05   -0.45436E-05   458   0.114E-02    0.105E-02
RMM:   8    -0.222223347989E+03    0.12324E-05   -0.49654E-06   372   0.575E-03    0.663E-03
RMM:   9    -0.222223347442E+03    0.54661E-06   -0.38359E-06   359   0.351E-03
  32 F= -.22222335E+03 E0= -.22222512E+03  d E =-.197773E-02
       N       E                     dE             d eps       ncg     rms          rms(c)
DAV:   1    -0.222220407523E+03    0.29405E-02   -0.19197E+00   464   0.245E+00    0.348E-01
RMM:   2    -0.222223953241E+03   -0.35457E-02   -0.38066E-02   530   0.503E-01    0.810E-02
RMM:   3    -0.222224700035E+03   -0.74679E-03   -0.79739E-03   507   0.230E-01    0.108E-01
RMM:   4    -0.222224767431E+03   -0.67395E-04   -0.13142E-03   562   0.975E-02    0.786E-02
RMM:   5    -0.222224739002E+03    0.28429E-04   -0.91524E-05   463   0.219E-02    0.597E-02
RMM:   6    -0.222224723316E+03    0.15686E-04   -0.71269E-05   417   0.155E-02    0.345E-02
RMM:   7    -0.222224727389E+03   -0.40723E-05   -0.63008E-05   461   0.132E-02    0.118E-02
RMM:   8    -0.222224725718E+03    0.16705E-05   -0.63230E-06   383   0.667E-03    0.788E-03
RMM:   9    -0.222224724696E+03    0.10223E-05   -0.54042E-06   367   0.411E-03    0.437E-03
RMM:  10    -0.222224724933E+03   -0.23705E-06   -0.20566E-06   335   0.290E-03
  33 F= -.22222472E+03 E0= -.22222638E+03  d E =-.335522E-02
       N       E                     dE             d eps       ncg     rms          rms(c)
DAV:   1    -0.222207241198E+03    0.17483E-01   -0.76820E+00   448   0.489E+00    0.697E-01
RMM:   2    -0.222221667096E+03   -0.14426E-01   -0.15528E-01   534   0.101E+00    0.167E-01
RMM:   3    -0.222224696012E+03   -0.30289E-02   -0.32689E-02   501   0.471E-01    0.215E-01
RMM:   4    -0.222225052201E+03   -0.35619E-03   -0.60092E-03   569   0.206E-01    0.161E-01
RMM:   5    -0.222224938682E+03    0.11352E-03   -0.34766E-04   468   0.436E-02    0.126E-01
RMM:   6    -0.222224869471E+03    0.69212E-04   -0.25021E-04   427   0.305E-02    0.804E-02
RMM:   7    -0.222224877495E+03   -0.80242E-05   -0.30596E-04   455   0.285E-02    0.252E-02
RMM:   8    -0.222224875240E+03    0.22546E-05   -0.34843E-05   475   0.155E-02    0.174E-02
RMM:   9    -0.222224867950E+03    0.72898E-05   -0.12325E-05   385   0.730E-03    0.909E-03
RMM:  10    -0.222224868648E+03   -0.69772E-06   -0.16180E-05   412   0.658E-03    0.819E-03
RMM:  11    -0.222224868029E+03    0.61907E-06   -0.16641E-06   266   0.338E-03
  34 F= -.22222487E+03 E0= -.22222629E+03  d E =-.349831E-02
       N       E                     dE             d eps       ncg     rms          rms(c)
DAV:   1    -0.222221346935E+03    0.35217E-02   -0.17226E+00   464   0.232E+00    0.328E-01
RMM:   2    -0.222224537449E+03   -0.31905E-02   -0.34237E-02   531   0.478E-01    0.770E-02
RMM:   3    -0.222225212826E+03   -0.67538E-03   -0.72073E-03   506   0.218E-01    0.104E-01
RMM:   4    -0.222225273034E+03   -0.60208E-04   -0.11849E-03   563   0.929E-02    0.750E-02
RMM:   5    -0.222225246402E+03    0.26632E-04   -0.82746E-05   459   0.208E-02    0.558E-02
RMM:   6    -0.222225232347E+03    0.14055E-04   -0.70865E-05   413   0.152E-02    0.305E-02
RMM:   7    -0.222225236621E+03   -0.42743E-05   -0.53944E-05   471   0.124E-02    0.114E-02
RMM:   8    -0.222225234693E+03    0.19279E-05   -0.58385E-06   374   0.609E-03    0.751E-03
RMM:   9    -0.222225233975E+03    0.71831E-06   -0.78164E-06   355   0.438E-03
  35 F= -.22222523E+03 E0= -.22222676E+03  d E =-.386426E-02
       N       E                     dE             d eps       ncg     rms          rms(c)
DAV:   1    -0.222224509378E+03    0.72532E-03   -0.91835E-01   464   0.166E+00    0.222E-01
RMM:   2    -0.222226142204E+03   -0.16328E-02   -0.17514E-02   534   0.338E-01    0.614E-02
RMM:   3    -0.222226484195E+03   -0.34199E-03   -0.35834E-03   518   0.153E-01    0.692E-02
RMM:   4    -0.222226525117E+03   -0.40921E-04   -0.62025E-04   565   0.659E-02    0.587E-02
RMM:   5    -0.222226503240E+03    0.21877E-04   -0.43942E-05   436   0.154E-02    0.433E-02
RMM:   6    -0.222226495466E+03    0.77735E-05   -0.71805E-05   403   0.135E-02    0.184E-02
RMM:   7    -0.222226499390E+03   -0.39242E-05   -0.30270E-05   475   0.971E-03    0.113E-02
RMM:   8    -0.222226497547E+03    0.18431E-05   -0.24705E-06   300   0.391E-03    0.755E-03
RMM:   9    -0.222226497679E+03   -0.13159E-06   -0.21917E-05   434   0.547E-03    0.510E-03
RMM:  10    -0.222226496478E+03    0.12005E-05   -0.17628E-06   284   0.284E-03    0.243E-03
RMM:  11    -0.222226496439E+03    0.39177E-07   -0.10267E-06   238   0.190E-03
  36 F= -.22222650E+03 E0= -.22222793E+03  d E =-.126246E-02
       N       E                     dE             d eps       ncg     rms          rms(c)
DAV:   1    -0.222210362377E+03    0.16134E-01   -0.80678E+00   448   0.494E+00    0.670E-01
RMM:   2    -0.222224941088E+03   -0.14579E-01   -0.15629E-01   531   0.101E+00    0.171E-01
RMM:   3    -0.222228198634E+03   -0.32575E-02   -0.34608E-02   519   0.472E-01    0.212E-01
RMM:   4    -0.222228576215E+03   -0.37758E-03   -0.56815E-03   560   0.199E-01    0.179E-01
RMM:   5    -0.222228401251E+03    0.17496E-03   -0.38918E-04   459   0.463E-02    0.138E-01
RMM:   6    -0.222228299876E+03    0.10138E-03   -0.54729E-04   421   0.391E-02    0.666E-02
RMM:   7    -0.222228336084E+03   -0.36208E-04   -0.34091E-04   480   0.313E-02    0.324E-02
RMM:   8    -0.222228325546E+03    0.10538E-04   -0.30400E-05   468   0.162E-02    0.236E-02
RMM:   9    -0.222228316274E+03    0.92721E-05   -0.12887E-04   448   0.152E-02    0.121E-02
RMM:  10    -0.222228311656E+03    0.46183E-05   -0.10173E-05   353   0.717E-03    0.664E-03
RMM:  11    -0.222228311390E+03    0.26626E-06   -0.50939E-06   376   0.371E-03
  37 F= -.22222831E+03 E0= -.22222945E+03  d E =-.307741E-02
       N       E                     dE             d eps       ncg     rms          rms(c)
DAV:   1    -0.222227879072E+03    0.43258E-03   -0.88588E-01   464   0.162E+00    0.208E-01
RMM:   2    -0.222229384110E+03   -0.15050E-02   -0.16118E-02   533   0.323E-01    0.550E-02
RMM:   3    -0.222229713709E+03   -0.32960E-03   -0.34384E-03   520   0.148E-01    0.671E-02
RMM:   4    -0.222229756321E+03   -0.42612E-04   -0.60803E-04   560   0.638E-02    0.571E-02
RMM:   5    -0.222229739438E+03    0.16884E-04   -0.37313E-05   443   0.143E-02    0.455E-02
RMM:   6    -0.222229728615E+03    0.10823E-04   -0.44806E-05   394   0.113E-02    0.251E-02
RMM:   7    -0.222229731639E+03   -0.30234E-05   -0.40265E-05   422   0.101E-02    0.934E-03
RMM:   8    -0.222229730924E+03    0.71436E-06   -0.35428E-06   384   0.545E-03
  38 F= -.22222973E+03 E0= -.22223084E+03  d E =-.141953E-02
       N       E                     dE             d eps       ncg     rms          rms(c)
DAV:   1    -0.222214961993E+03    0.14770E-01   -0.79873E+00   432   0.486E+00    0.631E-01
RMM:   2    -0.222228873836E+03   -0.13912E-01   -0.14935E-01   532   0.979E-01    0.168E-01
RMM:   3    -0.222231997581E+03   -0.31237E-02   -0.33205E-02   525   0.460E-01    0.203E-01
RMM:   4    -0.222232395573E+03   -0.39799E-03   -0.56675E-03   554   0.195E-01    0.172E-01
RMM:   5    -0.222232251755E+03    0.14382E-03   -0.35884E-04   459   0.443E-02    0.139E-01
RMM:   6    -0.222232151604E+03    0.10015E-03   -0.34857E-04   418   0.333E-02    0.823E-02
RMM:   7    -0.222232170869E+03   -0.19265E-04   -0.38759E-04   457   0.313E-02    0.280E-02
RMM:   8    -0.222232167365E+03    0.35041E-05   -0.42794E-05   510   0.171E-02    0.213E-02
RMM:   9    -0.222232155092E+03    0.12274E-04   -0.37555E-05   370   0.969E-03    0.792E-03
RMM:  10    -0.222232156650E+03   -0.15583E-05   -0.14185E-05   467   0.678E-03    0.785E-03
RMM:  11    -0.222232155778E+03    0.87161E-06   -0.18314E-06   279   0.277E-03
  39 F= -.22223216E+03 E0= -.22223321E+03  d E =-.384439E-02
       N       E                     dE             d eps       ncg     rms          rms(c)
DAV:   1    -0.222229704294E+03    0.24524E-02   -0.12759E+00   464   0.194E+00    0.250E-01
RMM:   2    -0.222231884376E+03   -0.21801E-02   -0.23427E-02   536   0.387E-01    0.736E-02
RMM:   3    -0.222232338659E+03   -0.45428E-03   -0.47686E-03   524   0.175E-01    0.746E-02
RMM:   4    -0.222232398933E+03   -0.60274E-04   -0.86133E-04   557   0.759E-02    0.645E-02
RMM:   5    -0.222232374827E+03    0.24106E-04   -0.55405E-05   447   0.174E-02    0.504E-02
RMM:   6    -0.222232363063E+03    0.11763E-04   -0.58621E-05   405   0.132E-02    0.279E-02
RMM:   7    -0.222232366718E+03   -0.36543E-05   -0.43287E-05   450   0.110E-02    0.110E-02
RMM:   8    -0.222232365855E+03    0.86276E-06   -0.40426E-06   385   0.585E-03
  40 F= -.22223237E+03 E0= -.22223338E+03  d E =-.405447E-02
       N       E                     dE             d eps       ncg     rms          rms(c)
DAV:   1    -0.222232262145E+03    0.10457E-03   -0.50174E-01   464   0.121E+00    0.144E-01
RMM:   2    -0.222233100765E+03   -0.83862E-03   -0.88947E-03   536   0.238E-01    0.454E-02
RMM:   3    -0.222233273328E+03   -0.17256E-03   -0.18046E-03   530   0.108E-01    0.443E-02
RMM:   4    -0.222233293942E+03   -0.20614E-04   -0.32749E-04   549   0.466E-02    0.351E-02
RMM:   5    -0.222233288190E+03    0.57525E-05   -0.20999E-05   432   0.105E-02    0.272E-02
RMM:   6    -0.222233285581E+03    0.26088E-05   -0.19991E-05   378   0.787E-03    0.142E-02
RMM:   7    -0.222233286709E+03   -0.11274E-05   -0.10416E-05   442   0.583E-03    0.644E-03
RMM:   8    -0.222233286271E+03    0.43753E-06   -0.12266E-06   252   0.278E-03
  41 F= -.22223329E+03 E0= -.22223427E+03  d E =-.920416E-03
       N       E                     dE             d eps       ncg     rms          rms(c)
DAV:   1    -0.222226078295E+03    0.72084E-02   -0.45121E+00   432   0.362E+00    0.430E-01
RMM:   2    -0.222233659503E+03   -0.75812E-02   -0.80790E-02   536   0.715E-01    0.139E-01
RMM:   3    -0.222235274326E+03   -0.16148E-02   -0.17023E-02   535   0.328E-01    0.129E-01
RMM:   4    -0.222235462040E+03   -0.18771E-03   -0.29374E-03   548   0.140E-01    0.103E-01
RMM:   5    -0.222235415024E+03    0.47015E-04   -0.19632E-04   459   0.320E-02    0.807E-02
RMM:   6    -0.222235391862E+03    0.23163E-04   -0.15349E-04   434   0.225E-02    0.471E-02
RMM:   7    -0.222235400403E+03   -0.85418E-05   -0.91922E-05   513   0.175E-02    0.219E-02
RMM:   8    -0.222235398468E+03    0.19357E-05   -0.10219E-05   428   0.817E-03    0.159E-02
RMM:   9    -0.222235394945E+03    0.35224E-05   -0.23038E-05   380   0.720E-03    0.551E-03
RMM:  10    -0.222235395111E+03   -0.16607E-06   -0.34180E-06   379   0.429E-03
  42 F= -.22223540E+03 E0= -.22223626E+03  d E =-.302926E-02
       N       E                     dE             d eps       ncg     rms          rms(c)
DAV:   1    -0.222197490225E+03    0.37905E-01   -0.18089E+01   448   0.729E+00    0.868E-01
RMM:   2    -0.222229143607E+03   -0.31653E-01   -0.33810E-01   537   0.145E+00    0.282E-01
RMM:   3    -0.222236032958E+03   -0.68894E-02   -0.73910E-02   535   0.682E-01    0.257E-01
RMM:   4    -0.222236946104E+03   -0.91315E-03   -0.13240E-02   549   0.292E-01    0.210E-01
RMM:   5    -0.222236759280E+03    0.18682E-03   -0.81990E-04   461   0.656E-02    0.167E-01
RMM:   6    -0.222236654751E+03    0.10453E-03   -0.56301E-04   439   0.443E-02    0.104E-01
RMM:   7    -0.222236678213E+03   -0.23463E-04   -0.40555E-04   499   0.362E-02    0.450E-02
RMM:   8    -0.222236676324E+03    0.18893E-05   -0.53410E-05   501   0.181E-02    0.327E-02
RMM:   9    -0.222236658743E+03    0.17581E-04   -0.51796E-05   385   0.123E-02    0.106E-02
RMM:  10    -0.222236660727E+03   -0.19835E-05   -0.22656E-05   484   0.898E-03    0.898E-03
RMM:  11    -0.222236659550E+03    0.11771E-05   -0.26368E-06   305   0.359E-03    0.611E-03
RMM:  12    -0.222236660173E+03   -0.62284E-06   -0.84532E-06   368   0.492E-03
  43 F= -.22223666E+03 E0= -.22223729E+03  d E =-.429432E-02
       N       E                     dE             d eps       ncg     rms          rms(c)
DAV:   1    -0.222233116786E+03    0.35428E-02   -0.25248E+00   464   0.271E+00    0.327E-01
RMM:   2    -0.222237361661E+03   -0.42449E-02   -0.45277E-02   536   0.539E-01    0.946E-02
RMM:   3    -0.222238285361E+03   -0.92370E-03   -0.96714E-03   536   0.247E-01    0.976E-02
RMM:   4    -0.222238385487E+03   -0.10013E-03   -0.15801E-03   549   0.103E-01    0.790E-02
RMM:   5    -0.222238361029E+03    0.24458E-04   -0.10259E-04   473   0.233E-02    0.656E-02
RMM:   6    -0.222238345354E+03    0.15676E-04   -0.50755E-05   429   0.143E-02    0.465E-02
RMM:   7    -0.222238344574E+03    0.77934E-06   -0.76387E-05   433   0.143E-02    0.143E-02
RMM:   8    -0.222238346092E+03   -0.15174E-05   -0.16910E-05   484   0.860E-03    0.108E-02
RMM:   9    -0.222238343386E+03    0.27055E-05   -0.33510E-06   334   0.360E-03    0.555E-03
RMM:  10    -0.222238343450E+03   -0.64167E-07   -0.77889E-06   385   0.405E-03
  44 F= -.22223834E+03 E0= -.22223892E+03  d E =-.168328E-02
       N       E                     dE             d eps       ncg     rms          rms(c)
DAV:   1    -0.222223702670E+03    0.14641E-01   -0.78139E+00   448   0.477E+00    0.578E-01
RMM:   2    -0.222237079677E+03   -0.13377E-01   -0.14269E-01   537   0.950E-01    0.170E-01
RMM:   3    -0.222240043294E+03   -0.29636E-02   -0.31375E-02   535   0.441E-01    0.171E-01
RMM:   4    -0.222240358110E+03   -0.31482E-03   -0.48997E-03   550   0.183E-01    0.141E-01
RMM:   5    -0.222240286982E+03    0.71128E-04   -0.33231E-04   480   0.417E-02    0.119E-01
RMM:   6    -0.222240235849E+03    0.51134E-04   -0.13865E-04   435   0.242E-02    0.875E-02
RMM:   7    -0.222240227238E+03    0.86102E-05   -0.25615E-04   445   0.258E-02    0.266E-02
RMM:   8    -0.222240233773E+03   -0.65343E-05   -0.61259E-05   535   0.155E-02    0.197E-02
RMM:   9    -0.222240225532E+03    0.82411E-05   -0.83342E-06   361   0.591E-03    0.106E-02
RMM:  10    -0.222240225492E+03    0.39570E-07   -0.38260E-05   447   0.849E-03    0.984E-03
RMM:  11    -0.222240224183E+03    0.13093E-05   -0.27826E-06   335   0.388E-03    0.581E-03
RMM:  12    -0.222240223997E+03    0.18534E-06   -0.28485E-06   333   0.276E-03
  45 F= -.22224022E+03 E0= -.22224071E+03  d E =-.356382E-02
       N       E                     dE             d eps       ncg     rms          rms(c)
DAV:   1    -0.222168355109E+03    0.71869E-01   -0.31411E+01   448   0.962E+00    0.118E+00
RMM:   2    -0.222225883141E+03   -0.57528E-01   -0.61434E-01   537   0.193E+00    0.346E-01
RMM:   3    -0.222239003247E+03   -0.13120E-01   -0.14112E-01   536   0.934E-01    0.350E-01
RMM:   4    -0.222240452002E+03   -0.14488E-02   -0.21312E-02   549   0.379E-01    0.295E-01
RMM:   5    -0.222240168493E+03    0.28351E-03   -0.13109E-03   484   0.850E-02    0.256E-01
RMM:   6    -0.222239963058E+03    0.20543E-03   -0.43954E-04   446   0.460E-02    0.201E-01
RMM:   7    -0.222239868143E+03    0.94914E-04   -0.11361E-03   455   0.529E-02    0.616E-02
RMM:   8    -0.222239910081E+03   -0.41937E-04   -0.32839E-04   594   0.332E-02    0.441E-02
RMM:   9    -0.222239877002E+03    0.33078E-04   -0.29696E-05   382   0.115E-02    0.259E-02
RMM:  10    -0.222239870957E+03    0.60454E-05   -0.22898E-04   527   0.211E-02    0.258E-02
RMM:  11    -0.222239862789E+03    0.81683E-05   -0.14696E-05   367   0.831E-03    0.131E-02
RMM:  12    -0.222239861837E+03    0.95210E-06   -0.16031E-05   404   0.600E-03    0.599E-03
RMM:  13    -0.222239861877E+03   -0.40385E-07   -0.16560E-06   306   0.412E-03
  46 F= -.22223986E+03 E0= -.22224018E+03  d E =-.320170E-02
       N       E                     dE             d eps       ncg     rms          rms(c)
DAV:   1    -0.222221039478E+03    0.18822E-01   -0.92178E+00   448   0.517E+00    0.627E-01
RMM:   2    -0.222236969457E+03   -0.15930E-01   -0.17006E-01   537   0.103E+00    0.187E-01
RMM:   3    -0.222240530071E+03   -0.35606E-02   -0.37755E-02   537   0.483E-01    0.187E-01
RMM:   4    -0.222240905828E+03   -0.37576E-03   -0.57966E-03   544   0.198E-01    0.153E-01
RMM:   5    -0.222240814178E+03    0.91651E-04   -0.39476E-04   477   0.455E-02    0.128E-01
RMM:   6    -0.222240746870E+03    0.67307E-04   -0.21284E-04   440   0.283E-02    0.890E-02
RMM:   7    -0.222240746430E+03    0.44057E-06   -0.28148E-04   454   0.276E-02    0.300E-02
RMM:   8    -0.222240750981E+03   -0.45510E-05   -0.54796E-05   533   0.159E-02    0.219E-02
RMM:   9    -0.222240741294E+03    0.96867E-05   -0.12797E-05   361   0.710E-03    0.101E-02
RMM:  10    -0.222240741698E+03   -0.40352E-06   -0.25662E-05   402   0.772E-03    0.821E-03
RMM:  11    -0.222240741067E+03    0.63055E-06   -0.22467E-06   320   0.386E-03
  47 F= -.22224074E+03 E0= -.22224115E+03  d E =-.408089E-02
       N       E                     dE             d eps       ncg     rms          rms(c)
DAV:   1    -0.222233778061E+03    0.69636E-02   -0.46527E+00   448   0.366E+00    0.451E-01
RMM:   2    -0.222241790593E+03   -0.80125E-02   -0.85270E-02   538   0.730E-01    0.145E-01
RMM:   3    -0.222243492055E+03   -0.17015E-02   -0.17954E-02   532   0.332E-01    0.132E-01
RMM:   4    -0.222243678843E+03   -0.18679E-03   -0.27910E-03   562   0.139E-01    0.118E-01
RMM:   5    -0.222243596942E+03    0.81901E-04   -0.20951E-04   454   0.335E-02    0.914E-02
RMM:   6    -0.222243559858E+03    0.37085E-04   -0.26206E-04   426   0.271E-02    0.457E-02
RMM:   7    -0.222243572562E+03   -0.12704E-04   -0.13264E-04   522   0.204E-02    0.266E-02
RMM:   8    -0.222243567191E+03    0.53708E-05   -0.10866E-05   403   0.890E-03    0.164E-02
RMM:   9    -0.222243565620E+03    0.15706E-05   -0.46418E-05   418   0.930E-03    0.706E-03
RMM:  10    -0.222243563902E+03    0.17181E-05   -0.37029E-06   349   0.474E-03    0.342E-03
RMM:  11    -0.222243563925E+03   -0.22723E-07   -0.25289E-06   335   0.252E-03
  48 F= -.22224356E+03 E0= -.22224402E+03  d E =-.282286E-02
       N       E                     dE             d eps       ncg     rms          rms(c)
DAV:   1    -0.222192736330E+03    0.50828E-01   -0.26595E+01   464   0.881E+00    0.110E+00
RMM:   2    -0.222236641885E+03   -0.43906E-01   -0.47045E-01   538   0.168E+00    0.348E-01
RMM:   3    -0.222246114724E+03   -0.94728E-02   -0.10150E-01   535   0.758E-01    0.315E-01
RMM:   4    -0.222247018227E+03   -0.90350E-03   -0.14214E-02   563   0.310E-01    0.284E-01
RMM:   5    -0.222246561191E+03    0.45704E-03   -0.94723E-04   464   0.745E-02    0.226E-01
RMM:   6    -0.222246323264E+03    0.23793E-03   -0.12455E-03   424   0.608E-02    0.123E-01
RMM:   7    -0.222246388074E+03   -0.64810E-04   -0.80401E-04   501   0.478E-02    0.651E-02
RMM:   8    -0.222246367492E+03    0.20582E-04   -0.78565E-05   495   0.236E-02    0.402E-02
RMM:   9    -0.222246353086E+03    0.14406E-04   -0.21640E-04   444   0.216E-02    0.162E-02
RMM:  10    -0.222246346125E+03    0.69607E-05   -0.16627E-05   381   0.105E-02    0.856E-03
RMM:  11    -0.222246345276E+03    0.84946E-06   -0.81577E-06   378   0.548E-03
  49 F= -.22224635E+03 E0= -.22224691E+03  d E =-.560421E-02
       N       E                     dE             d eps       ncg     rms          rms(c)
DAV:   1    -0.222234457087E+03    0.11889E-01   -0.66641E+00   464   0.437E+00    0.584E-01
RMM:   2    -0.222246255158E+03   -0.11798E-01   -0.12634E-01   532   0.883E-01    0.159E-01
RMM:   3    -0.222248888420E+03   -0.26333E-02   -0.27981E-02   531   0.413E-01    0.168E-01
RMM:   4    -0.222249067496E+03   -0.17908E-03   -0.36452E-03   547   0.163E-01    0.129E-01
RMM:   5    -0.222248993704E+03    0.73792E-04   -0.36544E-04   465   0.426E-02    0.955E-02
RMM:   6    -0.222248963151E+03    0.30552E-04   -0.27756E-04   452   0.287E-02    0.520E-02
RMM:   7    -0.222248974813E+03   -0.11661E-04   -0.10344E-04   553   0.197E-02    0.253E-02
RMM:   8    -0.222248970450E+03    0.43625E-05   -0.12916E-05   395   0.823E-03    0.181E-02
RMM:   9    -0.222248968434E+03    0.20160E-05   -0.39654E-05   396   0.924E-03    0.726E-03
RMM:  10    -0.222248967704E+03    0.72991E-06   -0.28041E-06   367   0.462E-03
  50 F= -.22224897E+03 E0= -.22224963E+03  d E =-.262243E-02
       N       E                     dE             d eps       ncg     rms          rms(c)
DAV:   1    -0.222240904896E+03    0.80635E-02   -0.41071E+00   464   0.342E+00    0.458E-01
RMM:   2    -0.222248100176E+03   -0.71953E-02   -0.76873E-02   531   0.695E-01    0.119E-01
RMM:   3    -0.222249716678E+03   -0.16165E-02   -0.17085E-02   534   0.321E-01    0.134E-01
RMM:   4    -0.222249818506E+03   -0.10183E-03   -0.21807E-03   545   0.126E-01    0.101E-01
RMM:   5    -0.222249771011E+03    0.47495E-04   -0.21429E-04   467   0.323E-02    0.746E-02
RMM:   6    -0.222249752407E+03    0.18604E-04   -0.17450E-04   450   0.225E-02    0.392E-02
RMM:   7    -0.222249760147E+03   -0.77402E-05   -0.64267E-05   534   0.156E-02    0.191E-02
RMM:   8    -0.222249757135E+03    0.30119E-05   -0.82086E-06   375   0.660E-03    0.138E-02
RMM:   9    -0.222249756163E+03    0.97190E-06   -0.27118E-05   395   0.735E-03    0.609E-03
RMM:  10    -0.222249755542E+03    0.62072E-06   -0.20436E-06   320   0.372E-03
  51 F= -.22224976E+03 E0= -.22225050E+03  d E =-.341027E-02
       N       E                     dE             d eps       ncg     rms          rms(c)
DAV:   1    -0.222240773472E+03    0.89827E-02   -0.64247E+00   464   0.425E+00    0.549E-01
RMM:   2    -0.222250749033E+03   -0.99756E-02   -0.10712E-01   529   0.806E-01    0.147E-01
RMM:   3    -0.222252953026E+03   -0.22040E-02   -0.23370E-02   545   0.368E-01    0.170E-01
RMM:   4    -0.222253084222E+03   -0.13120E-03   -0.30641E-03   540   0.143E-01    0.129E-01
RMM:   5    -0.222252995031E+03    0.89192E-04   -0.33480E-04   458   0.394E-02    0.918E-02
RMM:   6    -0.222252971910E+03    0.23120E-04   -0.31192E-04   453   0.288E-02    0.468E-02
RMM:   7    -0.222252984477E+03   -0.12567E-04   -0.10632E-04   550   0.193E-02    0.253E-02
RMM:   8    -0.222252978910E+03    0.55668E-05   -0.11149E-05   383   0.723E-03    0.188E-02
RMM:   9    -0.222252979313E+03   -0.40224E-06   -0.79844E-05   484   0.112E-02    0.108E-02
RMM:  10    -0.222252975199E+03    0.41140E-05   -0.71316E-06   348   0.516E-03    0.638E-03
RMM:  11    -0.222252974796E+03    0.40259E-06   -0.77207E-06   394   0.371E-03
  52 F= -.22225297E+03 E0= -.22225381E+03  d E =-.321925E-02
       N       E                     dE             d eps       ncg     rms          rms(c)
DAV:   1    -0.222109796178E+03    0.14318E+00   -0.58392E+01   448   0.131E+01    0.174E+00
RMM:   2    -0.222227377173E+03   -0.11758E+00   -0.12540E+00   527   0.270E+00    0.440E-01
RMM:   3    -0.222255206884E+03   -0.27830E-01   -0.30038E-01   538   0.135E+00    0.538E-01
RMM:   4    -0.222257825847E+03   -0.26190E-02   -0.41547E-02   540   0.522E-01    0.433E-01
RMM:   5    -0.222257067314E+03    0.75853E-03   -0.29695E-03   471   0.127E-01    0.344E-01
RMM:   6    -0.222256696743E+03    0.37057E-03   -0.17693E-03   459   0.778E-02    0.228E-01
RMM:   7    -0.222256673053E+03    0.23689E-04   -0.15303E-03   478   0.657E-02    0.871E-02
RMM:   8    -0.222256708305E+03   -0.35252E-04   -0.33170E-04   577   0.388E-02    0.572E-02
RMM:   9    -0.222256641800E+03    0.66505E-04   -0.74966E-05   412   0.179E-02    0.285E-02
RMM:  10    -0.222256641321E+03    0.47913E-06   -0.20463E-04   464   0.225E-02    0.234E-02
RMM:  11    -0.222256633658E+03    0.76631E-05   -0.22397E-05   374   0.106E-02    0.126E-02
RMM:  12    -0.222256635759E+03   -0.21004E-05   -0.23418E-05   399   0.804E-03    0.794E-03
RMM:  13    -0.222256634106E+03    0.16522E-05   -0.30073E-06   309   0.427E-03    0.247E-03
RMM:  14    -0.222256634006E+03    0.99990E-07   -0.27709E-06   335   0.280E-03
  53 F= -.22225663E+03 E0= -.22225772E+03  d E =-.687846E-02
       N       E                     dE             d eps       ncg     rms          rms(c)
DAV:   1    -0.222252932107E+03    0.37020E-02   -0.24644E+00   464   0.261E+00    0.329E-01
RMM:   2    -0.222257194929E+03   -0.42628E-02   -0.45308E-02   531   0.524E-01    0.945E-02
RMM:   3    -0.222258144038E+03   -0.94911E-03   -0.99169E-03   542   0.241E-01    0.101E-01
RMM:   4    -0.222258227654E+03   -0.83616E-04   -0.13934E-03   538   0.960E-02    0.838E-02
RMM:   5    -0.222258193949E+03    0.33704E-04   -0.11068E-04   473   0.239E-02    0.678E-02
RMM:   6    -0.222258170641E+03    0.23308E-04   -0.11314E-04   413   0.179E-02    0.355E-02
RMM:   7    -0.222258179028E+03   -0.83864E-05   -0.88696E-05   462   0.153E-02    0.148E-02
RMM:   8    -0.222258174734E+03    0.42939E-05   -0.10040E-05   379   0.770E-03    0.855E-03
RMM:   9    -0.222258175233E+03   -0.49934E-06   -0.16312E-05   370   0.597E-03    0.601E-03
RMM:  10    -0.222258174594E+03    0.63915E-06   -0.15457E-06   284   0.331E-03
  54 F= -.22225817E+03 E0= -.22225923E+03  d E =-.154059E-02
       N       E                     dE             d eps       ncg     rms          rms(c)
DAV:   1    -0.222209962284E+03    0.48213E-01   -0.22279E+01   448   0.790E+00    0.101E+00
RMM:   2    -0.222251069145E+03   -0.41107E-01   -0.43837E-01   529   0.160E+00    0.292E-01
RMM:   3    -0.222260650879E+03   -0.95817E-02   -0.10261E-01   544   0.778E-01    0.307E-01
RMM:   4    -0.222261509876E+03   -0.85900E-03   -0.13668E-02   535   0.301E-01    0.257E-01
RMM:   5    -0.222261255550E+03    0.25433E-03   -0.11271E-03   486   0.755E-02    0.217E-01
RMM:   6    -0.222261037944E+03    0.21761E-03   -0.62273E-04   428   0.469E-02    0.141E-01
RMM:   7    -0.222261058709E+03   -0.20765E-04   -0.98784E-04   463   0.486E-02    0.455E-02
RMM:   8    -0.222261044629E+03    0.14080E-04   -0.79196E-05   480   0.253E-02    0.257E-02
RMM:   9    -0.222261031266E+03    0.13363E-04   -0.40828E-05   407   0.138E-02    0.136E-02
RMM:  10    -0.222261033437E+03   -0.21706E-05   -0.29524E-05   451   0.979E-03    0.128E-02
RMM:  11    -0.222261031925E+03    0.15121E-05   -0.31319E-06   329   0.472E-03    0.839E-03
RMM:  12    -0.222261032531E+03   -0.60685E-06   -0.10292E-05   395   0.530E-03    0.458E-03
RMM:  13    -0.222261031765E+03    0.76587E-06   -0.17280E-06   276   0.272E-03
  55 F= -.22226103E+03 E0= -.22226200E+03  d E =-.439776E-02
       N       E                     dE             d eps       ncg     rms          rms(c)
DAV:   1    -0.222021302674E+03    0.23973E+00   -0.90753E+01   448   0.164E+01    0.216E+00
RMM:   2    -0.222212924510E+03   -0.19162E+00   -0.20333E+00   532   0.336E+00    0.606E-01
RMM:   3    -0.222256309974E+03   -0.43385E-01   -0.47019E-01   541   0.169E+00    0.631E-01
RMM:   4    -0.222260391050E+03   -0.40811E-02   -0.61432E-02   538   0.639E-01    0.546E-01
RMM:   5    -0.222259600832E+03    0.79022E-03   -0.55724E-03   489   0.171E-01    0.479E-01
RMM:   6    -0.222258895005E+03    0.70583E-03   -0.14939E-03   452   0.822E-02    0.364E-01
RMM:   7    -0.222258629489E+03    0.26552E-03   -0.33798E-03   448   0.906E-02    0.109E-01
RMM:   8    -0.222258777549E+03   -0.14806E-03   -0.11053E-03   594   0.607E-02    0.745E-02
RMM:   9    -0.222258668489E+03    0.10906E-03   -0.12141E-04   405   0.223E-02    0.442E-02
RMM:  10    -0.222258668760E+03   -0.27166E-06   -0.84485E-04   548   0.419E-02    0.580E-02
RMM:  11    -0.222258625021E+03    0.43740E-04   -0.10998E-04   388   0.186E-02    0.188E-02
RMM:  12    -0.222258630578E+03   -0.55568E-05   -0.76871E-05   465   0.128E-02    0.138E-02
RMM:  13    -0.222258626310E+03    0.42673E-05   -0.14425E-05   366   0.790E-03    0.294E-03
RMM:  14    -0.222258626507E+03   -0.19639E-06   -0.13405E-06   258   0.313E-03
  56 F= -.22225863E+03 E0= -.22225945E+03  d E =-.199250E-02
       N       E                     dE             d eps       ncg     rms          rms(c)
DAV:   1    -0.222138943748E+03    0.11968E+00   -0.49813E+01   448   0.120E+01    0.158E+00
RMM:   2    -0.222237773501E+03   -0.98830E-01   -0.10510E+00   531   0.245E+00    0.442E-01
RMM:   3    -0.222260555088E+03   -0.22782E-01   -0.24630E-01   537   0.121E+00    0.471E-01
RMM:   4    -0.222262569019E+03   -0.20139E-02   -0.31186E-02   540   0.458E-01    0.396E-01
RMM:   5    -0.222261969459E+03    0.59956E-03   -0.23719E-03   481   0.113E-01    0.331E-01
RMM:   6    -0.222261446713E+03    0.52275E-03   -0.17058E-03   420   0.750E-02    0.200E-01
RMM:   7    -0.222261540782E+03   -0.94069E-04   -0.20373E-03   467   0.705E-02    0.715E-02
RMM:   8    -0.222261497078E+03    0.43704E-04   -0.15922E-04   473   0.366E-02    0.473E-02
RMM:   9    -0.222261462284E+03    0.34794E-04   -0.22359E-04   431   0.270E-02    0.214E-02
RMM:  10    -0.222261466354E+03   -0.40701E-05   -0.42919E-05   522   0.144E-02    0.186E-02
RMM:  11    -0.222261459992E+03    0.63621E-05   -0.12542E-05   355   0.690E-03    0.104E-02
RMM:  12    -0.222261461403E+03   -0.14103E-05   -0.21464E-05   373   0.742E-03    0.545E-03
RMM:  13    -0.222261460171E+03    0.12320E-05   -0.37173E-06   333   0.400E-03    0.215E-03
RMM:  14    -0.222261460168E+03    0.28303E-08   -0.91506E-07   266   0.214E-03
  57 F= -.22226146E+03 E0= -.22226239E+03  d E =-.482616E-02
       N       E                     dE             d eps       ncg     rms          rms(c)
DAV:   1    -0.222260420496E+03    0.10397E-02   -0.15276E+00   464   0.206E+00    0.281E-01
RMM:   2    -0.222263075583E+03   -0.26551E-02   -0.28460E-02   530   0.413E-01    0.727E-02
RMM:   3    -0.222263649557E+03   -0.57397E-03   -0.60758E-03   535   0.193E-01    0.834E-02
RMM:   4    -0.222263707422E+03   -0.57865E-04   -0.96290E-04   542   0.785E-02    0.668E-02
RMM:   5    -0.222263682776E+03    0.24646E-04   -0.76900E-05   455   0.193E-02    0.496E-02
RMM:   6    -0.222263673526E+03    0.92507E-05   -0.80155E-05   416   0.149E-02    0.242E-02
RMM:   7    -0.222263677875E+03   -0.43497E-05   -0.36545E-05   500   0.106E-02    0.131E-02
RMM:   8    -0.222263675960E+03    0.19156E-05   -0.34900E-06   336   0.435E-03    0.906E-03
RMM:   9    -0.222263676287E+03   -0.32710E-06   -0.18558E-05   407   0.523E-03    0.483E-03
RMM:  10    -0.222263675471E+03    0.81624E-06   -0.11619E-06   255   0.268E-03
  58 F= -.22226368E+03 E0= -.22226463E+03  d E =-.221530E-02
       N       E                     dE             d eps       ncg     rms          rms(c)
DAV:   1    -0.222236390573E+03    0.27286E-01   -0.13788E+01   448   0.615E+00    0.868E-01
RMM:   2    -0.222261353603E+03   -0.24963E-01   -0.26840E-01   530   0.125E+00    0.225E-01
RMM:   3    -0.222267032886E+03   -0.56793E-02   -0.61460E-02   538   0.599E-01    0.252E-01
RMM:   4    -0.222267514009E+03   -0.48112E-03   -0.83093E-03   539   0.232E-01    0.204E-01
RMM:   5    -0.222267306108E+03    0.20790E-03   -0.65758E-04   474   0.584E-02    0.157E-01
RMM:   6    -0.222267198102E+03    0.10801E-03   -0.70741E-04   436   0.445E-02    0.777E-02
RMM:   7    -0.222267239827E+03   -0.41725E-04   -0.40223E-04   530   0.341E-02    0.397E-02
RMM:   8    -0.222267222628E+03    0.17199E-04   -0.33409E-05   429   0.146E-02    0.287E-02
RMM:   9    -0.222267224683E+03   -0.20548E-05   -0.19557E-04   481   0.185E-02    0.164E-02
RMM:  10    -0.222267214022E+03    0.10660E-04   -0.18875E-05   360   0.845E-03    0.883E-03
RMM:  11    -0.222267212998E+03    0.10242E-05   -0.13382E-05   428   0.513E-03    0.522E-03
RMM:  12    -0.222267213219E+03   -0.22052E-06   -0.12002E-06   265   0.309E-03
  59 F= -.22226721E+03 E0= -.22226824E+03  d E =-.575305E-02
       N       E                     dE             d eps       ncg     rms          rms(c)
DAV:   1    -0.222264367725E+03    0.28453E-02   -0.28852E+00   464   0.284E+00    0.386E-01
RMM:   2    -0.222269380279E+03   -0.50126E-02   -0.53718E-02   532   0.572E-01    0.988E-02
RMM:   3    -0.222270479189E+03   -0.10989E-02   -0.11625E-02   529   0.263E-01    0.119E-01
RMM:   4    -0.222270582850E+03   -0.10366E-03   -0.17698E-03   552   0.108E-01    0.938E-02
RMM:   5    -0.222270535738E+03    0.47112E-04   -0.13746E-04   459   0.263E-02    0.701E-02
RMM:   6    -0.222270516712E+03    0.19026E-04   -0.13506E-04   430   0.197E-02    0.364E-02
RMM:   7    -0.222270524146E+03   -0.74339E-05   -0.75678E-05   509   0.150E-02    0.185E-02
RMM:   8    -0.222270520951E+03    0.31942E-05   -0.66378E-06   379   0.644E-03    0.118E-02
RMM:   9    -0.222270520028E+03    0.92361E-06   -0.25766E-05   400   0.680E-03    0.563E-03
RMM:  10    -0.222270519232E+03    0.79563E-06   -0.20710E-06   303   0.360E-03
  60 F= -.22227052E+03 E0= -.22227149E+03  d E =-.330601E-02
       N       E                     dE             d eps       ncg     rms          rms(c)
DAV:   1    -0.222239566487E+03    0.30954E-01   -0.17250E+01   464   0.697E+00    0.958E-01
RMM:   2    -0.222267581057E+03   -0.28015E-01   -0.30289E-01   530   0.135E+00    0.244E-01
RMM:   3    -0.222273821979E+03   -0.62409E-02   -0.67712E-02   535   0.616E-01    0.295E-01
RMM:   4    -0.222274340868E+03   -0.51889E-03   -0.95070E-03   547   0.247E-01    0.235E-01
RMM:   5    -0.222274064076E+03    0.27679E-03   -0.69937E-04   469   0.615E-02    0.182E-01
RMM:   6    -0.222273930991E+03    0.13309E-03   -0.70713E-04   443   0.457E-02    0.104E-01
RMM:   7    -0.222273966632E+03   -0.35641E-04   -0.50688E-04   522   0.367E-02    0.480E-02
RMM:   8    -0.222273952203E+03    0.14429E-04   -0.46881E-05   454   0.171E-02    0.310E-02
RMM:   9    -0.222273941814E+03    0.10389E-04   -0.11841E-04   413   0.165E-02    0.125E-02
RMM:  10    -0.222273939764E+03    0.20496E-05   -0.88137E-06   411   0.825E-03    0.955E-03
RMM:  11    -0.222273938900E+03    0.86406E-06   -0.80968E-06   354   0.530E-03
  61 F= -.22227394E+03 E0= -.22227481E+03  d E =-.672568E-02
       N       E                     dE             d eps       ncg     rms          rms(c)
DAV:   1    -0.222270411206E+03    0.35286E-02   -0.27408E+00   464   0.276E+00    0.346E-01
RMM:   2    -0.222275070468E+03   -0.46593E-02   -0.49563E-02   532   0.554E-01    0.891E-02
RMM:   3    -0.222276135802E+03   -0.10653E-02   -0.11140E-02   541   0.258E-01    0.109E-01
RMM:   4    -0.222276240446E+03   -0.10464E-03   -0.16528E-03   537   0.104E-01    0.900E-02
RMM:   5    -0.222276199036E+03    0.41411E-04   -0.10407E-04   469   0.244E-02    0.718E-02
RMM:   6    -0.222276174104E+03    0.24931E-04   -0.10918E-04   415   0.182E-02    0.408E-02
RMM:   7    -0.222276180810E+03   -0.67063E-05   -0.10468E-04   475   0.161E-02    0.180E-02
RMM:   8    -0.222276178783E+03    0.20273E-05   -0.10543E-05   428   0.811E-03    0.121E-02
RMM:   9    -0.222276176524E+03    0.22592E-05   -0.25942E-05   392   0.697E-03    0.585E-03
RMM:  10    -0.222276175985E+03    0.53888E-06   -0.19437E-06   295   0.376E-03
  62 F= -.22227618E+03 E0= -.22227705E+03  d E =-.223708E-02
       N       E                     dE             d eps       ncg     rms          rms(c)
DAV:   1    -0.222223672060E+03    0.52504E-01   -0.24153E+01   448   0.828E+00    0.106E+00
RMM:   2    -0.222267955905E+03   -0.44284E-01   -0.47204E-01   530   0.167E+00    0.273E-01
RMM:   3    -0.222278642404E+03   -0.10686E-01   -0.11461E-01   545   0.814E-01    0.329E-01
RMM:   4    -0.222279534109E+03   -0.89171E-03   -0.14491E-02   532   0.313E-01    0.274E-01
RMM:   5    -0.222279203281E+03    0.33083E-03   -0.96529E-04   476   0.742E-02    0.225E-01
RMM:   6    -0.222278970480E+03    0.23280E-03   -0.76599E-04   430   0.506E-02    0.141E-01
RMM:   7    -0.222278996252E+03   -0.25772E-04   -0.97157E-04   481   0.484E-02    0.561E-02
RMM:   8    -0.222278992274E+03    0.39784E-05   -0.12714E-04   521   0.259E-02    0.376E-02
RMM:   9    -0.222278961468E+03    0.30806E-04   -0.12559E-04   398   0.188E-02    0.135E-02
RMM:  10    -0.222278965325E+03   -0.38575E-05   -0.35554E-05   505   0.115E-02    0.122E-02
RMM:  11    -0.222278962453E+03    0.28724E-05   -0.60850E-06   347   0.488E-03    0.748E-03
RMM:  12    -0.222278963368E+03   -0.91524E-06   -0.11272E-05   374   0.512E-03    0.467E-03
RMM:  13    -0.222278962623E+03    0.74502E-06   -0.27088E-06   309   0.301E-03
  63 F= -.22227896E+03 E0= -.22227986E+03  d E =-.502372E-02
       N       E                     dE             d eps       ncg     rms          rms(c)
DAV:   1    -0.222271591386E+03    0.73720E-02   -0.71629E+00   480   0.440E+00    0.547E-01
RMM:   2    -0.222280855773E+03   -0.92644E-02   -0.10024E-01   531   0.833E-01    0.151E-01
RMM:   3    -0.222282692573E+03   -0.18368E-02   -0.19981E-02   548   0.370E-01    0.168E-01
RMM:   4    -0.222282972703E+03   -0.28013E-03   -0.41667E-03   537   0.161E-01    0.140E-01
RMM:   5    -0.222282869761E+03    0.10294E-03   -0.27322E-04   460   0.378E-02    0.110E-01
RMM:   6    -0.222282813036E+03    0.56725E-04   -0.30288E-04   422   0.299E-02    0.590E-02
RMM:   7    -0.222282830991E+03   -0.17955E-04   -0.22222E-04   504   0.245E-02    0.279E-02
RMM:   8    -0.222282824469E+03    0.65217E-05   -0.17002E-05   403   0.111E-02    0.187E-02
RMM:   9    -0.222282822662E+03    0.18077E-05   -0.60123E-05   410   0.106E-02    0.858E-03
RMM:  10    -0.222282820723E+03    0.19390E-05   -0.41810E-06   364   0.544E-03    0.577E-03
RMM:  11    -0.222282820178E+03    0.54418E-06   -0.17965E-06   300   0.274E-03
  64 F= -.22228282E+03 E0= -.22228369E+03  d E =-.385756E-02
       N       E                     dE             d eps       ncg     rms          rms(c)
DAV:   1    -0.222170466020E+03    0.11235E+00   -0.48369E+01   448   0.116E+01    0.149E+00
RMM:   2    -0.222265710025E+03   -0.95244E-01   -0.10099E+00   534   0.235E+00    0.434E-01
RMM:   3    -0.222287166369E+03   -0.21456E-01   -0.23157E-01   534   0.116E+00    0.435E-01
RMM:   4    -0.222289672008E+03   -0.25056E-02   -0.34770E-02   548   0.470E-01    0.373E-01
RMM:   5    -0.222289127080E+03    0.54493E-03   -0.20493E-03   476   0.105E-01    0.314E-01
RMM:   6    -0.222288699099E+03    0.42798E-03   -0.11640E-03   430   0.667E-02    0.211E-01
RMM:   7    -0.222288695044E+03    0.40555E-05   -0.17241E-03   464   0.657E-02    0.804E-02
RMM:   8    -0.222288708935E+03   -0.13891E-04   -0.28394E-04   565   0.372E-02    0.522E-02
RMM:   9    -0.222288657457E+03    0.51477E-04   -0.14963E-04   413   0.216E-02    0.193E-02
RMM:  10    -0.222288665614E+03   -0.81571E-05   -0.76959E-05   494   0.159E-02    0.167E-02
RMM:  11    -0.222288660358E+03    0.52568E-05   -0.11305E-05   363   0.723E-03    0.983E-03
RMM:  12    -0.222288661915E+03   -0.15573E-05   -0.24897E-05   389   0.781E-03    0.656E-03
RMM:  13    -0.222288660355E+03    0.15600E-05   -0.45756E-06   341   0.409E-03    0.250E-03
RMM:  14    -0.222288660395E+03   -0.39763E-07   -0.16033E-06   293   0.222E-03
  65 F= -.22228866E+03 E0= -.22228946E+03  d E =-.969777E-02
       N       E                     dE             d eps       ncg     rms          rms(c)
DAV:   1    -0.222279324183E+03    0.93362E-02   -0.10242E+01   480   0.518E+00    0.662E-01
RMM:   2    -0.222292439104E+03   -0.13115E-01   -0.14269E-01   531   0.991E-01    0.182E-01
RMM:   3    -0.222295023191E+03   -0.25841E-02   -0.28652E-02   539   0.435E-01    0.204E-01
RMM:   4    -0.222295354023E+03   -0.33083E-03   -0.53017E-03   547   0.185E-01    0.168E-01
RMM:   5    -0.222295198649E+03    0.15537E-03   -0.39824E-04   452   0.449E-02    0.127E-01
RMM:   6    -0.222295132960E+03    0.65689E-04   -0.52095E-04   426   0.377E-02    0.618E-02
RMM:   7    -0.222295157091E+03   -0.24132E-04   -0.26426E-04   535   0.284E-02    0.339E-02
RMM:   8    -0.222295144726E+03    0.12365E-04   -0.22351E-05   399   0.111E-02    0.227E-02
RMM:   9    -0.222295149274E+03   -0.45473E-05   -0.14589E-04   479   0.153E-02    0.143E-02
RMM:  10    -0.222295139657E+03    0.96169E-05   -0.18939E-05   358   0.766E-03    0.645E-03
RMM:  11    -0.222295139815E+03   -0.15791E-06   -0.14955E-05   429   0.504E-03    0.384E-03
RMM:  12    -0.222295139707E+03    0.10768E-06   -0.12374E-06   265   0.256E-03
  66 F= -.22229514E+03 E0= -.22229571E+03  d E =-.647931E-02
       N       E                     dE             d eps       ncg     rms          rms(c)
DAV:   1    -0.222149471942E+03    0.14567E+00   -0.60467E+01   448   0.128E+01    0.166E+00
RMM:   2    -0.222273415455E+03   -0.12394E+00   -0.13117E+00   534   0.260E+00    0.471E-01
RMM:   3    -0.222301168297E+03   -0.27753E-01   -0.30031E-01   523   0.128E+00    0.497E-01
RMM:   4    -0.222304415198E+03   -0.32469E-02   -0.44788E-02   555   0.526E-01    0.422E-01
RMM:   5    -0.222303693083E+03    0.72211E-03   -0.23985E-03   468   0.118E-01    0.347E-01
RMM:   6    -0.222303191741E+03    0.50134E-03   -0.16874E-03   427   0.786E-02    0.221E-01
RMM:   7    -0.222303224961E+03   -0.33220E-04   -0.18856E-03   462   0.708E-02    0.894E-02
RMM:   8    -0.222303233063E+03   -0.81016E-05   -0.33720E-04   564   0.404E-02    0.579E-02
[...]
RMM:   4    -0.222746892824E+03   -0.26549E-03   -0.56707E-03   555   0.203E-01    0.176E-01
RMM:   5    -0.222746723046E+03    0.16978E-03   -0.57050E-04   460   0.534E-02    0.124E-01
RMM:   6    -0.222746682689E+03    0.40357E-04   -0.53015E-04   448   0.379E-02    0.569E-02
RMM:   7    -0.222746696117E+03   -0.13428E-04   -0.15242E-04   571   0.249E-02    0.272E-02
RMM:   8    -0.222746685815E+03    0.10302E-04   -0.56118E-05   376   0.129E-02    0.120E-02
RMM:   9    -0.222746688303E+03   -0.24885E-05   -0.20534E-05   440   0.886E-03    0.911E-03
RMM:  10    -0.222746686997E+03    0.13059E-05   -0.23305E-06   286   0.373E-03    0.719E-03
RMM:  11    -0.222746687242E+03   -0.24495E-06   -0.93555E-06   394   0.436E-03
  97 F= -.22274669E+03 E0= -.22275021E+03  d E =-.116924E-01
       N       E                     dE             d eps       ncg     rms          rms(c)
DAV:   1    -0.222731040339E+03    0.15647E-01   -0.82095E+00   464   0.495E+00    0.734E-01
RMM:   2    -0.222746216126E+03   -0.15176E-01   -0.16347E-01   529   0.103E+00    0.165E-01
RMM:   3    -0.222749541250E+03   -0.33251E-02   -0.36314E-02   522   0.477E-01    0.218E-01
RMM:   4    -0.222749813675E+03   -0.27242E-03   -0.52222E-03   553   0.190E-01    0.169E-01
RMM:   5    -0.222749662022E+03    0.15165E-03   -0.48822E-04   462   0.498E-02    0.121E-01
RMM:   6    -0.222749613219E+03    0.48803E-04   -0.49265E-04   439   0.365E-02    0.527E-02
RMM:   7    -0.222749632141E+03   -0.18922E-04   -0.19400E-04   551   0.257E-02    0.255E-02
RMM:   8    -0.222749617363E+03    0.14779E-04   -0.55070E-05   381   0.128E-02    0.124E-02
RMM:   9    -0.222749621188E+03   -0.38252E-05   -0.33237E-05   393   0.992E-03    0.101E-02
RMM:  10    -0.222749619133E+03    0.20547E-05   -0.37497E-06   372   0.508E-03    0.737E-03
RMM:  11    -0.222749619513E+03   -0.37942E-06   -0.12138E-05   395   0.469E-03    0.387E-03
RMM:  12    -0.222749618862E+03    0.65097E-06   -0.15945E-06   271   0.266E-03
  98 F= -.22274962E+03 E0= -.22275320E+03  d E =-.146240E-01
       N       E                     dE             d eps       ncg     rms          rms(c)
DAV:   1    -0.222732318453E+03    0.17301E-01   -0.11555E+01   448   0.600E+00    0.892E-01
RMM:   2    -0.222754223406E+03   -0.21905E-01   -0.23618E-01   537   0.124E+00    0.251E-01
RMM:   3    -0.222758392511E+03   -0.41691E-02   -0.46710E-02   512   0.563E-01    0.228E-01
RMM:   4    -0.222758809347E+03   -0.41684E-03   -0.83305E-03   572   0.241E-01    0.172E-01
RMM:   5    -0.222758630059E+03    0.17929E-03   -0.73402E-04   446   0.617E-02    0.105E-01
RMM:   6    -0.222758641188E+03   -0.11129E-04   -0.58124E-04   461   0.426E-02    0.462E-02
RMM:   7    -0.222758643309E+03   -0.21205E-05   -0.92670E-05   562   0.239E-02    0.304E-02
RMM:   8    -0.222758638699E+03    0.46092E-05   -0.88124E-05   382   0.151E-02    0.109E-02
RMM:   9    -0.222758636252E+03    0.24471E-05   -0.89812E-06   382   0.851E-03    0.689E-03
RMM:  10    -0.222758635149E+03    0.11032E-05   -0.46290E-06   348   0.448E-03    0.389E-03
RMM:  11    -0.222758635610E+03   -0.46107E-06   -0.28212E-06   347   0.320E-03
  99 F= -.22275864E+03 E0= -.22276212E+03  d E =-.901675E-02
       N       E                     dE             d eps       ncg     rms          rms(c)
DAV:   1    -0.222755962580E+03    0.26726E-02   -0.15178E+00   464   0.219E+00    0.321E-01
RMM:   2    -0.222758786805E+03   -0.28242E-02   -0.30350E-02   537   0.444E-01    0.886E-02
RMM:   3    -0.222759296788E+03   -0.50998E-03   -0.56227E-03   509   0.199E-01    0.835E-02
RMM:   4    -0.222759356544E+03   -0.59756E-04   -0.11763E-03   563   0.888E-02    0.599E-02
RMM:   5    -0.222759335500E+03    0.21044E-04   -0.95810E-05   440   0.218E-02    0.367E-02
RMM:   6    -0.222759337104E+03   -0.16042E-05   -0.64299E-05   459   0.150E-02    0.168E-02
RMM:   7    -0.222759337473E+03   -0.36882E-06   -0.11292E-05   475   0.845E-03    0.107E-02
RMM:   8    -0.222759337049E+03    0.42428E-06   -0.75590E-06   353   0.483E-03
 100 F= -.22275934E+03 E0= -.22276279E+03  d E =-.971819E-02
       N       E                     dE             d eps       ncg     rms          rms(c)
DAV:   1    -0.222754715195E+03    0.46223E-02   -0.43997E+00   448   0.382E+00    0.611E-01
RMM:   2    -0.222763043207E+03   -0.83280E-02   -0.90003E-02   526   0.791E-01    0.112E-01
RMM:   3    -0.222764830160E+03   -0.17870E-02   -0.19489E-02   503   0.373E-01    0.177E-01
RMM:   4    -0.222765013810E+03   -0.18365E-03   -0.34855E-03   565   0.160E-01    0.126E-01
RMM:   5    -0.222764926260E+03    0.87550E-04   -0.24217E-04   457   0.368E-02    0.840E-02
RMM:   6    -0.222764912435E+03    0.13825E-04   -0.35846E-04   427   0.314E-02    0.223E-02
RMM:   7    -0.222764919501E+03   -0.70653E-05   -0.89700E-05   551   0.201E-02    0.195E-02
RMM:   8    -0.222764908366E+03    0.11134E-04   -0.49870E-05   368   0.108E-02    0.927E-03
RMM:   9    -0.222764911691E+03   -0.33248E-05   -0.22323E-05   472   0.817E-03    0.913E-03
RMM:  10    -0.222764908969E+03    0.27222E-05   -0.52068E-06   333   0.390E-03    0.530E-03
RMM:  11    -0.222764909152E+03   -0.18339E-06   -0.76772E-06   350   0.394E-03
 101 F= -.22276491E+03 E0= -.22276840E+03  d E =-.557210E-02
       N       E                     dE             d eps       ncg     rms          rms(c)
DAV:   1    -0.222763585370E+03    0.13236E-02   -0.80593E-01   464   0.164E+00    0.260E-01
RMM:   2    -0.222765117124E+03   -0.15318E-02   -0.16552E-02   530   0.337E-01    0.521E-02
RMM:   3    -0.222765418017E+03   -0.30089E-03   -0.32828E-03   498   0.155E-01    0.733E-02
RMM:   4    -0.222765456855E+03   -0.38838E-04   -0.70921E-04   575   0.701E-02    0.510E-02
RMM:   5    -0.222765442059E+03    0.14797E-04   -0.41528E-05   441   0.150E-02    0.330E-02
RMM:   6    -0.222765440949E+03    0.11099E-05   -0.54994E-05   408   0.128E-02    0.963E-03
RMM:   7    -0.222765441969E+03   -0.10206E-05   -0.13508E-05   488   0.799E-03    0.793E-03
RMM:   8    -0.222765440344E+03    0.16247E-05   -0.84610E-06   347   0.445E-03    0.366E-03
RMM:   9    -0.222765440804E+03   -0.45973E-06   -0.32227E-06   330   0.313E-03
 102 F= -.22276544E+03 E0= -.22276894E+03  d E =-.610376E-02
       N       E                     dE             d eps       ncg     rms          rms(c)
DAV:   1    -0.222759964771E+03    0.54756E-02   -0.48189E+00   448   0.398E+00    0.522E-01
RMM:   2    -0.222768562684E+03   -0.85979E-02   -0.92325E-02   536   0.805E-01    0.140E-01
RMM:   3    -0.222770288248E+03   -0.17256E-02   -0.18504E-02   520   0.368E-01    0.148E-01
RMM:   4    -0.222770542834E+03   -0.25459E-03   -0.40535E-03   560   0.165E-01    0.110E-01
RMM:   5    -0.222770477779E+03    0.65055E-04   -0.24128E-04   453   0.363E-02    0.742E-02
RMM:   6    -0.222770474363E+03    0.34155E-05   -0.26981E-04   441   0.285E-02    0.237E-02
RMM:   7    -0.222770478243E+03   -0.38796E-05   -0.53127E-05   554   0.171E-02    0.171E-02
RMM:   8    -0.222770473453E+03    0.47902E-05   -0.28744E-05   368   0.861E-03    0.871E-03
RMM:   9    -0.222770474285E+03   -0.83211E-06   -0.75363E-06   442   0.624E-03
 103 F= -.22277047E+03 E0= -.22277398E+03  d E =-.503348E-02
       N       E                     dE             d eps       ncg     rms          rms(c)
DAV:   1    -0.222767405135E+03    0.30683E-02   -0.25151E+00   480   0.287E+00    0.374E-01
RMM:   2    -0.222771189634E+03   -0.37845E-02   -0.40925E-02   537   0.532E-01    0.101E-01
RMM:   3    -0.222771907871E+03   -0.71824E-03   -0.77633E-03   531   0.236E-01    0.104E-01
RMM:   4    -0.222771965750E+03   -0.57879E-04   -0.14094E-03   548   0.979E-02    0.738E-02
RMM:   5    -0.222771936519E+03    0.29232E-04   -0.13919E-04   457   0.264E-02    0.456E-02
RMM:   6    -0.222771939722E+03   -0.32032E-05   -0.10239E-04   462   0.181E-02    0.172E-02
RMM:   7    -0.222771940278E+03   -0.55601E-06   -0.16587E-05   486   0.994E-03    0.118E-02
RMM:   8    -0.222771939572E+03    0.70568E-06   -0.17190E-05   348   0.629E-03    0.501E-03
RMM:   9    -0.222771939030E+03    0.54269E-06   -0.17737E-06   278   0.372E-03
 104 F= -.22277194E+03 E0= -.22277544E+03  d E =-.649823E-02
       N       E                     dE             d eps       ncg     rms          rms(c)
DAV:   1    -0.222771581759E+03    0.35781E-03   -0.20647E-01   480   0.824E-01    0.107E-01
RMM:   2    -0.222771948044E+03   -0.36628E-03   -0.39201E-03   541   0.165E-01    0.296E-02
RMM:   3    -0.222772016625E+03   -0.68581E-04   -0.72909E-04   513   0.733E-02    0.292E-02
RMM:   4    -0.222772027637E+03   -0.11012E-04   -0.17980E-04   553   0.343E-02    0.210E-02
RMM:   5    -0.222772025702E+03    0.19354E-05   -0.10318E-05   409   0.759E-03    0.145E-02
RMM:   6    -0.222772025569E+03    0.13314E-06   -0.72690E-06   383   0.529E-03
 105 F= -.22277203E+03 E0= -.22277553E+03  d E =-.658476E-02
       N       E                     dE             d eps       ncg     rms          rms(c)
DAV:   1    -0.222768376636E+03    0.36491E-02   -0.27549E+00   448   0.305E+00    0.460E-01
RMM:   2    -0.222773519751E+03   -0.51431E-02   -0.55869E-02   545   0.622E-01    0.124E-01
RMM:   3    -0.222774405541E+03   -0.88579E-03   -0.98670E-03   487   0.274E-01    0.111E-01
RMM:   4    -0.222774546055E+03   -0.14051E-03   -0.24551E-03   583   0.131E-01    0.803E-02
RMM:   5    -0.222774513116E+03    0.32939E-04   -0.17881E-04   458   0.307E-02    0.480E-02
RMM:   6    -0.222774516615E+03   -0.34988E-05   -0.10004E-04   457   0.201E-02    0.191E-02
RMM:   7    -0.222774518210E+03   -0.15955E-05   -0.22658E-05   515   0.115E-02    0.123E-02
RMM:   8    -0.222774516072E+03    0.21380E-05   -0.12239E-05   358   0.616E-03    0.326E-03
RMM:   9    -0.222774516277E+03   -0.20480E-06   -0.22676E-06   280   0.393E-03
 106 F= -.22277452E+03 E0= -.22277781E+03  d E =-.249071E-02
       N       E                     dE             d eps       ncg     rms          rms(c)
DAV:   1    -0.222774474373E+03    0.41699E-04   -0.37207E-02   480   0.353E-01    0.538E-02
RMM:   2    -0.222774543208E+03   -0.68836E-04   -0.74136E-04   545   0.717E-02    0.131E-02
RMM:   3    -0.222774555506E+03   -0.12298E-04   -0.13372E-04   489   0.315E-02    0.130E-02
RMM:   4    -0.222774557586E+03   -0.20802E-05   -0.32601E-05   529   0.150E-02    0.101E-02
RMM:   5    -0.222774557041E+03    0.54499E-06   -0.23722E-06   297   0.370E-03
 107 F= -.22277456E+03 E0= -.22277783E+03  d E =-.253147E-02
       N       E                     dE             d eps       ncg     rms          rms(c)
DAV:   1    -0.222770835483E+03    0.37221E-02   -0.27284E+00   448   0.304E+00    0.439E-01
RMM:   2    -0.222775996115E+03   -0.51606E-02   -0.55830E-02   535   0.627E-01    0.110E-01
RMM:   3    -0.222776982567E+03   -0.98645E-03   -0.10702E-02   501   0.284E-01    0.129E-01
RMM:   4    -0.222777130707E+03   -0.14814E-03   -0.24726E-03   573   0.131E-01    0.965E-02
RMM:   5    -0.222777084308E+03    0.46399E-04   -0.14341E-04   462   0.281E-02    0.703E-02
RMM:   6    -0.222777070499E+03    0.13809E-04   -0.19451E-04   431   0.235E-02    0.252E-02
RMM:   7    -0.222777077276E+03   -0.67775E-05   -0.61283E-05   524   0.155E-02    0.156E-02
RMM:   8    -0.222777070603E+03    0.66727E-05   -0.19872E-05   360   0.781E-03    0.739E-03
RMM:   9    -0.222777072646E+03   -0.20430E-05   -0.17845E-05   377   0.688E-03    0.767E-03
RMM:  10    -0.222777071284E+03    0.13626E-05   -0.25610E-06   344   0.385E-03    0.407E-03
RMM:  11    -0.222777071382E+03   -0.98458E-07   -0.36493E-06   344   0.303E-03
 108 F= -.22277707E+03 E0= -.22278029E+03  d E =-.251434E-02
       N       E                     dE             d eps       ncg     rms          rms(c)
DAV:   1    -0.222774400818E+03    0.26705E-02   -0.13521E+00   464   0.214E+00    0.310E-01
RMM:   2    -0.222776947467E+03   -0.25466E-02   -0.27528E-02   533   0.440E-01    0.732E-02
RMM:   3    -0.222777445255E+03   -0.49779E-03   -0.53697E-03   504   0.200E-01    0.924E-02
RMM:   4    -0.222777514794E+03   -0.69539E-04   -0.11833E-03   570   0.908E-02    0.684E-02
RMM:   5    -0.222777490435E+03    0.24359E-04   -0.65653E-05   453   0.192E-02    0.494E-02
RMM:   6    -0.222777483978E+03    0.64574E-05   -0.10622E-04   422   0.170E-02    0.164E-02
RMM:   7    -0.222777487200E+03   -0.32223E-05   -0.29747E-05   500   0.109E-02    0.109E-02
RMM:   8    -0.222777483709E+03    0.34912E-05   -0.10728E-05   349   0.552E-03    0.512E-03
RMM:   9    -0.222777484762E+03   -0.10534E-05   -0.83058E-06   374   0.463E-03    0.537E-03
RMM:  10    -0.222777484082E+03    0.67997E-06   -0.13346E-06   256   0.264E-03
 109 F= -.22277748E+03 E0= -.22278067E+03  d E =-.292704E-02
       N       E                     dE             d eps       ncg     rms          rms(c)
DAV:   1    -0.222772821086E+03    0.46637E-02   -0.34683E+00   464   0.342E+00    0.457E-01
RMM:   2    -0.222778145451E+03   -0.53244E-02   -0.58077E-02   539   0.639E-01    0.126E-01
RMM:   3    -0.222779098355E+03   -0.95290E-03   -0.10500E-02   521   0.280E-01    0.129E-01
RMM:   4    -0.222779185625E+03   -0.87271E-04   -0.20279E-03   565   0.121E-01    0.981E-02
RMM:   5    -0.222779138151E+03    0.47475E-04   -0.15468E-04   469   0.289E-02    0.692E-02
RMM:   6    -0.222779130341E+03    0.78098E-05   -0.17919E-04   435   0.225E-02    0.258E-02
RMM:   7    -0.222779135739E+03   -0.53982E-05   -0.53270E-05   528   0.144E-02    0.149E-02
RMM:   8    -0.222779130443E+03    0.52958E-05   -0.30652E-05   353   0.833E-03    0.780E-03
RMM:   9    -0.222779131526E+03   -0.10824E-05   -0.91156E-06   441   0.587E-03    0.624E-03
RMM:  10    -0.222779130636E+03    0.88982E-06   -0.11619E-06   251   0.232E-03
 110 F= -.22277913E+03 E0= -.22278222E+03  d E =-.164655E-02
       N       E                     dE             d eps       ncg     rms          rms(c)
DAV:   1    -0.222778864926E+03    0.26660E-03   -0.13756E-01   480   0.684E-01    0.909E-02
RMM:   2    -0.222779114163E+03   -0.24924E-03   -0.27067E-03   542   0.137E-01    0.268E-02
RMM:   3    -0.222779158735E+03   -0.44572E-04   -0.48085E-04   505   0.605E-02    0.240E-02
RMM:   4    -0.222779165693E+03   -0.69576E-05   -0.11577E-04   576   0.284E-02    0.182E-02
RMM:   5    -0.222779164243E+03    0.14498E-05   -0.65103E-06   372   0.591E-03    0.133E-02
RMM:   6    -0.222779163875E+03    0.36792E-06   -0.43631E-06   354   0.412E-03
 111 F= -.22277916E+03 E0= -.22278224E+03  d E =-.167979E-02
       N       E                     dE             d eps       ncg     rms          rms(c)
DAV:   1    -0.222777144831E+03    0.20194E-02   -0.16059E+00   448   0.232E+00    0.305E-01
RMM:   2    -0.222780031658E+03   -0.28868E-02   -0.31044E-02   544   0.462E-01    0.999E-02
RMM:   3    -0.222780549998E+03   -0.51834E-03   -0.55898E-03   507   0.204E-01    0.788E-02
RMM:   4    -0.222780617561E+03   -0.67563E-04   -0.12318E-03   558   0.944E-02    0.572E-02
RMM:   5    -0.222780603688E+03    0.13874E-04   -0.96138E-05   454   0.229E-02    0.370E-02
RMM:   6    -0.222780605726E+03   -0.20385E-05   -0.48654E-05   498   0.145E-02    0.189E-02
RMM:   7    -0.222780606190E+03   -0.46416E-06   -0.89384E-06   449   0.761E-03
 112 F= -.22278061E+03 E0= -.22278364E+03  d E =-.144232E-02
       N       E                     dE             d eps       ncg     rms          rms(c)
DAV:   1    -0.222779593222E+03    0.10125E-02   -0.60173E-01   464   0.141E+00    0.190E-01
RMM:   2    -0.222780683658E+03   -0.10904E-02   -0.11669E-02   543   0.283E-01    0.603E-02
RMM:   3    -0.222780880144E+03   -0.19649E-03   -0.21200E-03   506   0.125E-01    0.491E-02
RMM:   4    -0.222780901645E+03   -0.21501E-04   -0.42587E-04   562   0.564E-02    0.357E-02
RMM:   5    -0.222780895891E+03    0.57547E-05   -0.35892E-05   440   0.140E-02    0.229E-02
RMM:   6    -0.222780896677E+03   -0.78620E-06   -0.20427E-05   449   0.906E-03    0.114E-02
RMM:   7    -0.222780896837E+03   -0.15993E-06   -0.35143E-06   328   0.478E-03
 113 F= -.22278090E+03 E0= -.22278391E+03  d E =-.173296E-02
       N       E                     dE             d eps       ncg     rms          rms(c)
DAV:   1    -0.222778498368E+03    0.23983E-02   -0.16407E+00   448   0.232E+00    0.329E-01
RMM:   2    -0.222781469401E+03   -0.29710E-02   -0.31931E-02   540   0.467E-01    0.899E-02
RMM:   3    -0.222782015064E+03   -0.54566E-03   -0.59727E-03   500   0.208E-01    0.847E-02
RMM:   4    -0.222782085525E+03   -0.70461E-04   -0.12648E-03   576   0.949E-02    0.624E-02
RMM:   5    -0.222782067033E+03    0.18492E-04   -0.80251E-05   463   0.209E-02    0.447E-02
RMM:   6    -0.222782063758E+03    0.32752E-05   -0.52259E-05   432   0.144E-02    0.204E-02
RMM:   7    -0.222782065283E+03   -0.15257E-05   -0.21018E-05   509   0.957E-03    0.926E-03
RMM:   8    -0.222782064454E+03    0.82950E-06   -0.52338E-06   342   0.450E-03
 114 F= -.22278206E+03 E0= -.22278511E+03  d E =-.116762E-02
       N       E                     dE             d eps       ncg     rms          rms(c)
DAV:   1    -0.222781977284E+03    0.87999E-04   -0.71382E-02   480   0.483E-01    0.706E-02
RMM:   2    -0.222782105774E+03   -0.12849E-03   -0.13690E-03   535   0.974E-02    0.159E-02
RMM:   3    -0.222782130375E+03   -0.24601E-04   -0.26653E-04   500   0.439E-02    0.187E-02
RMM:   4    -0.222782133666E+03   -0.32916E-05   -0.56637E-05   563   0.199E-02    0.138E-02
RMM:   5    -0.222782132829E+03    0.83728E-06   -0.34272E-06   310   0.436E-03
 115 F= -.22278213E+03 E0= -.22278518E+03  d E =-.123599E-02
       N       E                     dE             d eps       ncg     rms          rms(c)
DAV:   1    -0.222781214205E+03    0.91946E-03   -0.77398E-01   448   0.158E+00    0.228E-01
RMM:   2    -0.222782621089E+03   -0.14069E-02   -0.15183E-02   542   0.321E-01    0.615E-02
RMM:   3    -0.222782887034E+03   -0.26595E-03   -0.29177E-03   490   0.142E-01    0.621E-02
RMM:   4    -0.222782912022E+03   -0.24988E-04   -0.53266E-04   579   0.625E-02    0.448E-02
RMM:   5    -0.222782900578E+03    0.11444E-04   -0.45655E-05   429   0.152E-02    0.263E-02
RMM:   6    -0.222782902261E+03   -0.16824E-05   -0.46199E-05   427   0.115E-02    0.826E-03
RMM:   7    -0.222782901769E+03    0.49116E-06   -0.50368E-06   387   0.614E-03
 116 F= -.22278290E+03 E0= -.22278596E+03  d E =-.768940E-03
       N       E                     dE             d eps       ncg     rms          rms(c)
DAV:   1    -0.222782514432E+03    0.38783E-03   -0.24624E-01   464   0.894E-01    0.131E-01
RMM:   2    -0.222782961443E+03   -0.44701E-03   -0.47993E-03   533   0.183E-01    0.281E-02
RMM:   3    -0.222783051159E+03   -0.89716E-04   -0.99021E-04   489   0.830E-02    0.400E-02
RMM:   4    -0.222783061846E+03   -0.10687E-04   -0.18112E-04   577   0.361E-02    0.317E-02
RMM:   5    -0.222783056372E+03    0.54735E-05   -0.12102E-05   410   0.807E-03    0.233E-02
RMM:   6    -0.222783054609E+03    0.17632E-05   -0.27338E-05   374   0.787E-03    0.683E-03
RMM:   7    -0.222783055199E+03   -0.58947E-06   -0.64748E-06   390   0.497E-03
 117 F= -.22278306E+03 E0= -.22278612E+03  d E =-.922370E-03
       N       E                     dE             d eps       ncg     rms          rms(c)
DAV:   1    -0.222782291717E+03    0.76289E-03   -0.62403E-01   448   0.140E+00    0.192E-01
RMM:   2    -0.222783423542E+03   -0.11318E-02   -0.12126E-02   538   0.285E-01    0.572E-02
RMM:   3    -0.222783642091E+03   -0.21855E-03   -0.23511E-03   499   0.126E-01    0.541E-02
RMM:   4    -0.222783661271E+03   -0.19180E-04   -0.40150E-04   579   0.542E-02    0.397E-02
RMM:   5    -0.222783652737E+03    0.85345E-05   -0.31249E-05   428   0.129E-02    0.263E-02
RMM:   6    -0.222783652787E+03   -0.50139E-07   -0.37356E-05   398   0.102E-02    0.778E-03
RMM:   7    -0.222783652778E+03    0.86620E-08   -0.49738E-06   400   0.572E-03
 118 F= -.22278365E+03 E0= -.22278676E+03  d E =-.597580E-03
