   4   4   0   0
  0.1818693E+02  0.3533954E-09  0.3533954E-09  0.6726158E-09  0.1500000E-16
   1.0000000000000000E-004
  CAR 
 unknown system                          
     13.46345320    -20.21125952  301      6.17141054      1.00000000
    -20.211  0.0000E+00  0.0000E+00
    -20.099  0.0000E+00  0.0000E+00
    -19.987  0.0000E+00  0.0000E+00
    -19.875  0.0000E+00  0.0000E+00
    -19.762  0.0000E+00  0.0000E+00
    -19.650  0.0000E+00  0.0000E+00
    -19.538  0.0000E+00  0.0000E+00
    -19.426  0.0000E+00  0.0000E+00
    -19.313  0.0000E+00  0.0000E+00
    -19.201  0.0000E+00  0.0000E+00
    -19.089  0.0000E+00  0.0000E+00
    -18.977  0.9697E-18  0.1088E-18
    -18.864  0.4987E-08  0.5598E-09
    -18.752  0.2114E-02  0.2373E-03
    -18.640  0.3204E+00  0.3620E-01
    -18.528  0.3052E+00  0.7046E-01
    -18.415  0.1165E-02  0.7059E-01
    -18.303  0.8598E-09  0.7059E-01
    -18.191  0.0000E+00  0.7059E-01
    -18.079  0.0000E+00  0.7059E-01
    -17.966  0.0000E+00  0.7059E-01
    -17.854  0.0000E+00  0.7059E-01
    -17.742  0.0000E+00  0.7059E-01
    -17.630  0.0000E+00  0.7059E-01
    -17.517  0.0000E+00  0.7059E-01
    -17.405  0.0000E+00  0.7059E-01
    -17.293  0.0000E+00  0.7059E-01
    -17.181  0.0000E+00  0.7059E-01
    -17.068  0.0000E+00  0.7059E-01
    -16.956  0.0000E+00  0.7059E-01
    -16.844  0.0000E+00  0.7059E-01
    -16.732  0.0000E+00  0.7059E-01
    -16.619  0.0000E+00  0.7059E-01
    -16.507  0.0000E+00  0.7059E-01
    -16.395  0.0000E+00  0.7059E-01
    -16.283  0.0000E+00  0.7059E-01
    -16.170  0.0000E+00  0.7059E-01
    -16.058  0.0000E+00  0.7059E-01
    -15.946  0.0000E+00  0.7059E-01
    -15.834  0.0000E+00  0.7059E-01
    -15.721  0.0000E+00  0.7059E-01
    -15.609  0.0000E+00  0.7059E-01
    -15.497  0.0000E+00  0.7059E-01
    -15.385  0.0000E+00  0.7059E-01
    -15.272  0.0000E+00  0.7059E-01
    -15.160  0.0000E+00  0.7059E-01
    -15.048  0.0000E+00  0.7059E-01
    -14.936  0.0000E+00  0.7059E-01
    -14.823  0.0000E+00  0.7059E-01
    -14.711  0.0000E+00  0.7059E-01
    -14.599  0.0000E+00  0.7059E-01
    -14.487  0.0000E+00  0.7059E-01
    -14.374  0.0000E+00  0.7059E-01
    -14.262  0.0000E+00  0.7059E-01
    -14.150  0.0000E+00  0.7059E-01
    -14.038  0.0000E+00  0.7059E-01
    -13.925  0.0000E+00  0.7059E-01
    -13.813  0.0000E+00  0.7059E-01
    -13.701  0.0000E+00  0.7059E-01
    -13.589  0.0000E+00  0.7059E-01
    -13.476  0.0000E+00  0.7059E-01
    -13.364  0.0000E+00  0.7059E-01
    -13.252  0.0000E+00  0.7059E-01
    -13.140  0.0000E+00  0.7059E-01
    -13.027  0.0000E+00  0.7059E-01
    -12.915  0.0000E+00  0.7059E-01
    -12.803  0.0000E+00  0.7059E-01
    -12.691  0.0000E+00  0.7059E-01
    -12.578  0.0000E+00  0.7059E-01
    -12.466  0.0000E+00  0.7059E-01
    -12.354  0.0000E+00  0.7059E-01
    -12.242  0.0000E+00  0.7059E-01
    -12.129  0.0000E+00  0.7059E-01
    -12.017  0.0000E+00  0.7059E-01
    -11.905  0.0000E+00  0.7059E-01
    -11.793  0.0000E+00  0.7059E-01
    -11.680  0.0000E+00  0.7059E-01
    -11.568  0.0000E+00  0.7059E-01
    -11.456  0.0000E+00  0.7059E-01
    -11.344  0.0000E+00  0.7059E-01
    -11.231  0.0000E+00  0.7059E-01
    -11.119  0.0000E+00  0.7059E-01
    -11.007  0.0000E+00  0.7059E-01
    -10.895  0.0000E+00  0.7059E-01
    -10.782  0.0000E+00  0.7059E-01
    -10.670  0.0000E+00  0.7059E-01
    -10.558  0.0000E+00  0.7059E-01
    -10.446  0.0000E+00  0.7059E-01
    -10.333  0.0000E+00  0.7059E-01
    -10.221  0.0000E+00  0.7059E-01
    -10.109  0.7242E-13  0.7059E-01
     -9.997  0.8381E-06  0.7059E-01
     -9.884  0.1213E-02  0.7072E-01
     -9.772  0.4485E-02  0.7123E-01
     -9.660  0.1408E-03  0.7124E-01
     -9.548  0.1127E-01  0.7251E-01
     -9.435  0.2341E-01  0.7514E-01
     -9.323  0.2384E-03  0.7516E-01
     -9.211  0.4438E-09  0.7516E-01
     -9.099  0.1206E-06  0.7516E-01
     -8.986  0.2257E-02  0.7542E-01
     -8.874  0.3006E-01  0.7879E-01
     -8.762  0.2713E-02  0.7910E-01
     -8.650  0.2032E-01  0.8138E-01
     -8.537  0.1451E-01  0.8300E-01
     -8.425  0.1877E-04  0.8301E-01
     -8.313  0.2805E-11  0.8301E-01
     -8.201  0.1635E-10  0.8301E-01
     -8.088  0.6655E-04  0.8301E-01
     -7.976  0.3554E-01  0.8700E-01
     -7.864  0.4084E-01  0.9159E-01
     -7.752  0.2245E-01  0.9411E-01
     -7.639  0.2430E-01  0.9684E-01
     -7.527  0.4999E-02  0.9740E-01
     -7.415  0.3223E-01  0.1010E+00
     -7.303  0.7217E-01  0.1091E+00
     -7.190  0.7117E-01  0.1171E+00
     -7.078  0.4835E-02  0.1176E+00
     -6.966  0.1494E-06  0.1176E+00
     -6.854  0.3905E-15  0.1176E+00
     -6.741  0.0000E+00  0.1176E+00
     -6.629  0.0000E+00  0.1176E+00
     -6.517  0.0000E+00  0.1176E+00
     -6.405  0.0000E+00  0.1176E+00
     -6.292  0.0000E+00  0.1176E+00
     -6.180  0.0000E+00  0.1176E+00
     -6.068  0.0000E+00  0.1176E+00
     -5.956  0.0000E+00  0.1176E+00
     -5.843  0.0000E+00  0.1176E+00
     -5.731  0.0000E+00  0.1176E+00
     -5.619  0.0000E+00  0.1176E+00
     -5.507  0.0000E+00  0.1176E+00
     -5.394  0.0000E+00  0.1176E+00
     -5.282  0.0000E+00  0.1176E+00
     -5.170  0.0000E+00  0.1176E+00
     -5.058  0.0000E+00  0.1176E+00
     -4.945  0.0000E+00  0.1176E+00
     -4.833  0.0000E+00  0.1176E+00
     -4.721  0.0000E+00  0.1176E+00
     -4.609  0.0000E+00  0.1176E+00
     -4.496  0.0000E+00  0.1176E+00
     -4.384  0.0000E+00  0.1176E+00
     -4.272  0.0000E+00  0.1176E+00
     -4.160  0.0000E+00  0.1176E+00
     -4.047  0.0000E+00  0.1176E+00
     -3.935  0.0000E+00  0.1176E+00
     -3.823  0.0000E+00  0.1176E+00
     -3.711  0.0000E+00  0.1176E+00
     -3.598  0.0000E+00  0.1176E+00
     -3.486  0.2481E-12  0.1176E+00
     -3.374  0.2540E-05  0.1176E+00
     -3.262  0.3614E-02  0.1181E+00
     -3.149  0.8018E-02  0.1190E+00
     -3.037  0.1095E-01  0.1202E+00
     -2.925  0.8130E-02  0.1211E+00
     -2.813  0.5970E-01  0.1278E+00
     -2.700  0.8575E-02  0.1288E+00
     -2.588  0.5433E-06  0.1288E+00
     -2.476  0.2560E-14  0.1288E+00
     -2.364  0.2080E-09  0.1288E+00
     -2.251  0.1319E-03  0.1288E+00
     -2.139  0.1999E-01  0.1310E+00
     -2.027  0.1478E-01  0.1327E+00
     -1.915  0.3608E-04  0.1327E+00
     -1.802  0.8783E-05  0.1327E+00
     -1.690  0.7433E-02  0.1335E+00
     -1.578  0.2668E-01  0.1365E+00
     -1.466  0.3702E-02  0.1369E+00
     -1.353  0.1028E-01  0.1381E+00
     -1.241  0.4880E-03  0.1381E+00
     -1.129  0.1643E-01  0.1400E+00
     -1.017  0.1066E-01  0.1412E+00
     -0.904  0.4361E-02  0.1417E+00
     -0.792  0.9094E-02  0.1427E+00
     -0.680  0.4864E-02  0.1432E+00
     -0.568  0.2980E-01  0.1466E+00
     -0.455  0.3529E-01  0.1505E+00
     -0.343  0.1434E-01  0.1521E+00
     -0.231  0.1829E-01  0.1542E+00
     -0.119  0.2088E-01  0.1565E+00
     -0.006  0.7909E-02  0.1574E+00
      0.106  0.7894E-03  0.1575E+00
      0.218  0.1290E-01  0.1590E+00
      0.330  0.2221E-01  0.1615E+00
      0.443  0.3355E-01  0.1652E+00
      0.555  0.5766E-01  0.1717E+00
      0.667  0.2428E-02  0.1720E+00
      0.779  0.2028E-01  0.1742E+00
      0.892  0.2328E-02  0.1745E+00
      1.004  0.1133E-05  0.1745E+00
      1.116  0.5317E-02  0.1751E+00
      1.228  0.2772E-01  0.1782E+00
      1.341  0.5184E-01  0.1840E+00
      1.453  0.7130E-01  0.1920E+00
      1.565  0.9387E-02  0.1931E+00
      1.677  0.2477E-01  0.1959E+00
      1.790  0.1924E-01  0.1980E+00
      1.902  0.4328E-04  0.1980E+00
      2.014  0.5601E-06  0.1980E+00
      2.126  0.2727E-02  0.1983E+00
      2.239  0.9858E-02  0.1995E+00
      2.351  0.2362E-01  0.2021E+00
      2.463  0.4066E-01  0.2067E+00
      2.575  0.6076E-01  0.2135E+00
      2.688  0.5676E-01  0.2199E+00
      2.800  0.7023E-01  0.2277E+00
      2.912  0.2373E-01  0.2304E+00
      3.024  0.1275E-01  0.2318E+00
      3.137  0.3759E-01  0.2361E+00
      3.249  0.6657E-01  0.2435E+00
      3.361  0.2211E-01  0.2460E+00
      3.473  0.2967E-01  0.2493E+00
      3.586  0.4424E-01  0.2543E+00
      3.698  0.5699E-02  0.2549E+00
      3.810  0.2578E-01  0.2578E+00
      3.922  0.8776E-02  0.2588E+00
      4.035  0.3320E-05  0.2588E+00
      4.147  0.1183E-12  0.2588E+00
      4.259  0.0000E+00  0.2588E+00
      4.371  0.0000E+00  0.2588E+00
      4.484  0.0000E+00  0.2588E+00
      4.596  0.0000E+00  0.2588E+00
      4.708  0.2489E-16  0.2588E+00
      4.820  0.1945E-07  0.2588E+00
      4.933  0.1018E-02  0.2589E+00
      5.045  0.1547E-01  0.2607E+00
      5.157  0.9768E-03  0.2608E+00
      5.269  0.1795E-07  0.2608E+00
      5.382  0.3088E-09  0.2608E+00
      5.494  0.1368E-03  0.2608E+00
      5.606  0.1142E-01  0.2621E+00
      5.718  0.2022E-01  0.2644E+00
      5.831  0.5101E-02  0.2649E+00
      5.943  0.4145E-05  0.2649E+00
      6.055  0.1359E-02  0.2651E+00
      6.167  0.4697E-01  0.2703E+00
      6.280  0.2554E-01  0.2732E+00
      6.392  0.3578E-02  0.2736E+00
      6.504  0.4705E-03  0.2737E+00
      6.616  0.6832E-02  0.2744E+00
      6.729  0.2846E-02  0.2748E+00
      6.841  0.4638E-01  0.2800E+00
      6.953  0.2062E-01  0.2823E+00
      7.065  0.6849E-03  0.2824E+00
      7.178  0.1215E-07  0.2824E+00
      7.290  0.1293E-16  0.2824E+00
      7.402  0.1054E-09  0.2824E+00
      7.514  0.5268E-04  0.2824E+00
      7.627  0.5981E-02  0.2830E+00
      7.739  0.1120E-01  0.2843E+00
      7.851  0.2375E-03  0.2843E+00
      7.963  0.1217E-07  0.2843E+00
      8.075  0.7950E-03  0.2844E+00
      8.188  0.2412E-01  0.2871E+00
      8.300  0.1455E-01  0.2887E+00
      8.412  0.1752E-01  0.2907E+00
      8.524  0.2775E-01  0.2938E+00
      8.637  0.3341E-01  0.2976E+00
      8.749  0.3073E-01  0.3010E+00
      8.861  0.1965E-01  0.3032E+00
      8.973  0.1769E-01  0.3052E+00
      9.086  0.4190E-01  0.3099E+00
      9.198  0.2489E-01  0.3127E+00
      9.310  0.4110E-01  0.3173E+00
      9.422  0.3631E-01  0.3214E+00
      9.535  0.3722E-01  0.3256E+00
      9.647  0.4691E-01  0.3308E+00
      9.759  0.2253E-01  0.3334E+00
      9.871  0.3967E-01  0.3378E+00
      9.984  0.2379E-01  0.3405E+00
     10.096  0.4215E-01  0.3452E+00
     10.208  0.4588E-01  0.3504E+00
     10.320  0.6277E-01  0.3574E+00
     10.433  0.4007E-01  0.3619E+00
     10.545  0.3256E-01  0.3656E+00
     10.657  0.1378E-01  0.3671E+00
     10.769  0.2484E-01  0.3699E+00
     10.882  0.1506E-01  0.3716E+00
     10.994  0.5368E-02  0.3722E+00
     11.106  0.2049E-01  0.3745E+00
     11.218  0.2780E-02  0.3748E+00
     11.331  0.3031E-02  0.3752E+00
     11.443  0.6865E-03  0.3752E+00
     11.555  0.3178E-02  0.3756E+00
     11.667  0.5225E-04  0.3756E+00
     11.780  0.5818E-07  0.3756E+00
     11.892  0.9638E-03  0.3757E+00
     12.004  0.6632E-02  0.3765E+00
     12.116  0.1683E-03  0.3765E+00
     12.229  0.7936E-09  0.3765E+00
     12.341  0.0000E+00  0.3765E+00
     12.453  0.0000E+00  0.3765E+00
     12.565  0.0000E+00  0.3765E+00
     12.678  0.0000E+00  0.3765E+00
     12.790  0.0000E+00  0.3765E+00
     12.902  0.0000E+00  0.3765E+00
     13.014  0.0000E+00  0.3765E+00
     13.127  0.0000E+00  0.3765E+00
     13.239  0.0000E+00  0.3765E+00
     13.351  0.0000E+00  0.3765E+00
     13.463  0.0000E+00  0.3765E+00
