       N       E                     dE             d eps       ncg     rms          rms(c)
DAV:   1     0.314480977227E+02    0.31448E+02   -0.10678E+04  1088   0.557E+02
DAV:   2    -0.171308256307E+02   -0.48579E+02   -0.48569E+02  1600   0.737E+01
DAV:   3    -0.176358165635E+02   -0.50499E+00   -0.50496E+00  1152   0.101E+01
DAV:   4    -0.176374815773E+02   -0.16650E-02   -0.16650E-02  2080   0.672E-01
DAV:   5    -0.176374816375E+02   -0.60206E-07   -0.60059E-07  1152   0.397E-03    0.876E+00
DAV:   6    -0.173447957544E+02    0.29269E+00   -0.99333E-01  1728   0.211E+00    0.598E+00
DAV:   7    -0.173179520041E+02    0.26844E-01   -0.25299E-01  1696   0.134E+00    0.148E+00
DAV:   8    -0.173169311161E+02    0.10209E-02   -0.16674E-02  1600   0.368E-01    0.231E-01
DAV:   9    -0.173172209214E+02   -0.28981E-03   -0.18891E-03  1632   0.131E-01    0.124E-01
DAV:  10    -0.173172932865E+02   -0.72365E-04   -0.82229E-05  1504   0.313E-02    0.455E-02
DAV:  11    -0.173173452515E+02   -0.51965E-04   -0.92659E-05  1536   0.377E-02    0.148E-02
DAV:  12    -0.173173458240E+02   -0.57257E-06   -0.94105E-07  1696   0.368E-03
   1 F= -.17317346E+02 E0= -.17314250E+02  d E =-.619168E-02
 Found     6 degrees of freedom:
 Adding 6 more for cell shape distortion
