       N       E                     dE             d eps       ncg     rms          rms(c)
DAV:   1     0.126861891314E+03    0.12686E+03   -0.95162E+03  1792   0.112E+03
DAV:   2    -0.745566254612E+01   -0.13432E+03   -0.13170E+03  2056   0.279E+02
DAV:   3    -0.174734647269E+02   -0.10018E+02   -0.99236E+01  2504   0.741E+01
DAV:   4    -0.176325541364E+02   -0.15909E+00   -0.15875E+00  2136   0.105E+01
DAV:   5    -0.176372514998E+02   -0.46974E-02   -0.46969E-02  2512   0.172E+00    0.883E+00
DAV:   6    -0.173428865360E+02    0.29436E+00   -0.72982E-01  2136   0.423E+00    0.604E+00
DAV:   7    -0.173193159092E+02    0.23571E-01   -0.28332E-01  2424   0.296E+00    0.140E+00
DAV:   8    -0.173168250960E+02    0.24908E-02   -0.17431E-02  2096   0.823E-01    0.357E-01
DAV:   9    -0.173172248159E+02   -0.39972E-03   -0.26480E-03  2256   0.317E-01    0.109E-01
DAV:  10    -0.173172921104E+02   -0.67295E-04   -0.17286E-04  2216   0.899E-02    0.416E-02
DAV:  11    -0.173173435248E+02   -0.51414E-04   -0.72447E-05  2064   0.635E-02    0.863E-03
DAV:  12    -0.173173454708E+02   -0.19460E-05   -0.52325E-06  2520   0.174E-02    0.900E-03
DAV:  13    -0.173173460646E+02   -0.59377E-06   -0.78735E-07  1608   0.540E-03
   1 F= -.17317346E+02 E0= -.17314250E+02  d E =-.619141E-02
 Found    12 degrees of freedom:
 Adding 6 more for cell shape distortion
       N       E                     dE             d eps       ncg     rms          rms(c)
DAV:   1    -0.174034903033E+02   -0.86145E-01   -0.43052E+00  2016   0.201E+01    0.225E+00
DAV:   2    -0.173299022420E+02    0.73588E-01   -0.19202E-01  2384   0.411E+00    0.111E+00
DAV:   3    -0.173051483809E+02    0.24754E-01   -0.62719E-02  2344   0.201E+00    0.365E-01
DAV:   4    -0.173034873721E+02    0.16610E-02   -0.28270E-03  2312   0.375E-01    0.228E-01
DAV:   5    -0.173030252407E+02    0.46213E-03   -0.56580E-04  2408   0.189E-01    0.833E-02
DAV:   6    -0.173030135495E+02    0.11691E-04   -0.12321E-04  2296   0.101E-01    0.175E-02
DAV:   7    -0.173030119201E+02    0.16293E-05   -0.14809E-05  2360   0.343E-02    0.113E-02
DAV:   8    -0.173030119693E+02   -0.49202E-07   -0.16451E-06  1480   0.965E-03
   2 F= -.17303012E+02 E0= -.17300537E+02  d E =-.495057E-02
       N       E                     dE             d eps       ncg     rms          rms(c)
DAV:   1    -0.173382124637E+02   -0.35201E-01   -0.10456E+00  1976   0.963E+00    0.114E+00
DAV:   2    -0.173205691420E+02    0.17643E-01   -0.46128E-02  2392   0.196E+00    0.545E-01
DAV:   3    -0.173146519180E+02    0.59172E-02   -0.14281E-02  2328   0.965E-01    0.216E-01
DAV:   4    -0.173142491640E+02    0.40275E-03   -0.66697E-04  2312   0.184E-01    0.145E-01
DAV:   5    -0.173141325202E+02    0.11664E-03   -0.15291E-04  2392   0.968E-02    0.423E-02
DAV:   6    -0.173141351217E+02   -0.26015E-05   -0.20557E-05  2272   0.408E-02    0.960E-03
DAV:   7    -0.173141344916E+02    0.63014E-06   -0.23543E-06  1472   0.134E-02
   3 F= -.17314134E+02 E0= -.17311494E+02  d E =-.528046E-02
       N       E                     dE             d eps       ncg     rms          rms(c)
DAV:   1    -0.174157094681E+02   -0.10157E+00   -0.43286E+00  2016   0.195E+01    0.253E+00
DAV:   2    -0.173420655883E+02    0.73644E-01   -0.19300E-01  2352   0.398E+00    0.120E+00
DAV:   3    -0.173171003478E+02    0.24965E-01   -0.59203E-02  2392   0.198E+00    0.419E-01
DAV:   4    -0.173154294761E+02    0.16709E-02   -0.27702E-03  2320   0.372E-01    0.285E-01
DAV:   5    -0.173148971880E+02    0.53229E-03   -0.66092E-04  2464   0.199E-01    0.833E-02
DAV:   6    -0.173149021140E+02   -0.49260E-05   -0.75350E-05  2224   0.777E-02    0.190E-02
DAV:   7    -0.173148997309E+02    0.23831E-05   -0.10852E-05  2432   0.279E-02    0.872E-03
DAV:   8    -0.173148998352E+02   -0.10430E-06   -0.84079E-07  1192   0.736E-03
   4 F= -.17314900E+02 E0= -.17312570E+02  d E =-.466006E-02
       N       E                     dE             d eps       ncg     rms          rms(c)
DAV:   1    -0.173304949641E+02   -0.15595E-01   -0.11312E+00  2064   0.101E+01    0.128E+00
DAV:   2    -0.173111299750E+02    0.19365E-01   -0.50449E-02  2344   0.207E+00    0.619E-01
DAV:   3    -0.173045055628E+02    0.66244E-02   -0.15889E-02  2352   0.103E+00    0.204E-01
DAV:   4    -0.173040780462E+02    0.42752E-03   -0.75855E-04  2352   0.198E-01    0.141E-01
DAV:   5    -0.173039429400E+02    0.13511E-03   -0.16908E-04  2432   0.998E-02    0.445E-02
DAV:   6    -0.173039450338E+02   -0.20938E-05   -0.23952E-05  2320   0.440E-02    0.970E-03
DAV:   7    -0.173039440842E+02    0.94965E-06   -0.31483E-06  1648   0.158E-02
   5 F= -.17303944E+02 E0= -.17303206E+02  d E =-.147592E-02
       N       E                     dE             d eps       ncg     rms          rms(c)
DAV:   1    -0.176242467032E+02   -0.32030E+00   -0.10292E+01  2264   0.358E+01    0.402E+00
DAV:   2    -0.173764247465E+02    0.24782E+00   -0.55994E-01  2208   0.715E+00    0.182E+00
DAV:   3    -0.173134518017E+02    0.62973E-01   -0.17832E-01  2336   0.353E+00    0.594E-01
DAV:   4    -0.173082206508E+02    0.52312E-02   -0.55719E-03  2208   0.520E-01    0.358E-01
DAV:   5    -0.173065608812E+02    0.16598E-02   -0.13810E-03  2304   0.283E-01    0.136E-01
DAV:   6    -0.173064922643E+02    0.68617E-04   -0.20846E-04  2336   0.138E-01    0.446E-02
DAV:   7    -0.173064866611E+02    0.56032E-05   -0.35044E-05  2312   0.476E-02    0.118E-02
DAV:   8    -0.173064868652E+02   -0.20407E-06   -0.32299E-06  2112   0.149E-02
   6 F= -.17306487E+02 E0= -.17305107E+02  d E =-.275965E-02
       N       E                     dE             d eps       ncg     rms          rms(c)
DAV:   1    -0.173392623222E+02   -0.32776E-01   -0.10429E+00  2032   0.963E+00    0.114E+00
DAV:   2    -0.173213960768E+02    0.17866E-01   -0.45590E-02  2360   0.194E+00    0.548E-01
DAV:   3    -0.173153437775E+02    0.60523E-02   -0.14596E-02  2336   0.977E-01    0.220E-01
DAV:   4    -0.173149590059E+02    0.38477E-03   -0.66808E-04  2264   0.186E-01    0.146E-01
DAV:   5    -0.173148400456E+02    0.11896E-03   -0.16253E-04  2448   0.102E-01    0.410E-02
DAV:   6    -0.173148429074E+02   -0.28618E-05   -0.20484E-05  2208   0.409E-02    0.946E-03
DAV:   7    -0.173148421749E+02    0.73253E-06   -0.22741E-06  1456   0.134E-02
   7 F= -.17314842E+02 E0= -.17312439E+02  d E =-.480610E-02
       N       E                     dE             d eps       ncg     rms          rms(c)
DAV:   1    -0.174141036040E+02   -0.99261E-01   -0.43184E+00  2040   0.195E+01    0.253E+00
DAV:   2    -0.173411060386E+02    0.72998E-01   -0.19247E-01  2328   0.398E+00    0.120E+00
DAV:   3    -0.173162864298E+02    0.24820E-01   -0.59051E-02  2376   0.197E+00    0.424E-01
DAV:   4    -0.173146337494E+02    0.16527E-02   -0.26725E-03  2280   0.365E-01    0.287E-01
DAV:   5    -0.173140860644E+02    0.54769E-03   -0.70240E-04  2408   0.208E-01    0.805E-02
DAV:   6    -0.173140923198E+02   -0.62553E-05   -0.73033E-05  2232   0.764E-02    0.197E-02
DAV:   7    -0.173140903676E+02    0.19522E-05   -0.86526E-06  2368   0.245E-02    0.921E-03
DAV:   8    -0.173140904270E+02   -0.59491E-07   -0.92787E-07  1264   0.843E-03
   8 F= -.17314090E+02 E0= -.17311388E+02  d E =-.540468E-02
       N       E                     dE             d eps       ncg     rms          rms(c)
DAV:   1    -0.173257284670E+02   -0.11638E-01   -0.11314E+00  2136   0.101E+01    0.128E+00
DAV:   2    -0.173070234441E+02    0.18705E-01   -0.50095E-02  2376   0.207E+00    0.614E-01
DAV:   3    -0.173006528381E+02    0.63706E-02   -0.15319E-02  2360   0.102E+00    0.206E-01
DAV:   4    -0.173002353593E+02    0.41748E-03   -0.70116E-04  2312   0.190E-01    0.142E-01
DAV:   5    -0.173000953960E+02    0.13996E-03   -0.16880E-04  2360   0.106E-01    0.431E-02
DAV:   6    -0.173000975375E+02   -0.21416E-05   -0.22096E-05  2336   0.425E-02    0.988E-03
DAV:   7    -0.173000967782E+02    0.75928E-06   -0.21601E-06  1504   0.133E-02
   9 F= -.17300097E+02 E0= -.17298014E+02  d E =-.416568E-02
       N       E                     dE             d eps       ncg     rms          rms(c)
DAV:   1    -0.176375003625E+02   -0.33740E+00   -0.10698E+01  2320   0.360E+01    0.403E+00
DAV:   2    -0.173713879076E+02    0.26611E+00   -0.56429E-01  2192   0.687E+00    0.189E+00
DAV:   3    -0.172995667232E+02    0.71821E-01   -0.21575E-01  2328   0.362E+00    0.605E-01
DAV:   4    -0.172958438508E+02    0.37229E-02   -0.78327E-03  1936   0.649E-01    0.344E-01
DAV:   5    -0.172945552100E+02    0.12886E-02   -0.97917E-04  2528   0.234E-01    0.156E-01
DAV:   6    -0.172944947238E+02    0.60486E-04   -0.17173E-04  2184   0.117E-01    0.412E-02
DAV:   7    -0.172944924423E+02    0.22815E-05   -0.16726E-05  2336   0.403E-02    0.285E-02
DAV:   8    -0.172944921824E+02    0.25988E-06   -0.56975E-06  2272   0.168E-02
  10 F= -.17294492E+02 E0= -.17290954E+02  d E =-.707673E-02
       N       E                     dE             d eps       ncg     rms          rms(c)
DAV:   1    -0.173394446055E+02   -0.44952E-01   -0.10139E+00  2128   0.932E+00    0.112E+00
DAV:   2    -0.173185700979E+02    0.20875E-01   -0.47972E-02  2168   0.181E+00    0.577E-01
DAV:   3    -0.173123699053E+02    0.62002E-02   -0.19379E-02  2272   0.100E+00    0.210E-01
DAV:   4    -0.173121375355E+02    0.23237E-03   -0.83582E-04  2080   0.222E-01    0.129E-01
DAV:   5    -0.173120414117E+02    0.96124E-04   -0.18248E-04  2512   0.898E-02    0.499E-02
DAV:   6    -0.173120404887E+02    0.92297E-06   -0.18596E-05  2184   0.364E-02    0.230E-02
DAV:   7    -0.173120408786E+02   -0.38988E-06   -0.17754E-06  1864   0.103E-02
  11 F= -.17312041E+02 E0= -.17308676E+02  d E =-.673020E-02
       N       E                     dE             d eps       ncg     rms          rms(c)
DAV:   1    -0.174211255399E+02   -0.10909E+00   -0.42175E+00  2104   0.189E+01    0.232E+00
DAV:   2    -0.173360649729E+02    0.85061E-01   -0.20155E-01  2192   0.367E+00    0.119E+00
DAV:   3    -0.173106505795E+02    0.25414E-01   -0.77046E-02  2280   0.202E+00    0.444E-01
DAV:   4    -0.173096405675E+02    0.10100E-02   -0.32684E-03  2008   0.435E-01    0.281E-01
DAV:   5    -0.173091844630E+02    0.45610E-03   -0.80252E-04  2560   0.189E-01    0.100E-01
DAV:   6    -0.173091802262E+02    0.42367E-05   -0.71940E-05  2184   0.720E-02    0.481E-02
DAV:   7    -0.173091802099E+02    0.16346E-07   -0.67771E-06  2344   0.193E-02
  12 F= -.17309180E+02 E0= -.17306483E+02  d E =-.539483E-02
       N       E                     dE             d eps       ncg     rms          rms(c)
DAV:   1    -0.173166241172E+02   -0.74439E-02   -0.11143E+00  2200   0.985E+00    0.117E+00
DAV:   2    -0.172943113879E+02    0.22313E-01   -0.52914E-02  2224   0.190E+00    0.608E-01
DAV:   3    -0.172875934564E+02    0.67179E-02   -0.19994E-02  2200   0.104E+00    0.218E-01
DAV:   4    -0.172873337737E+02    0.25968E-03   -0.80908E-04  1984   0.220E-01    0.141E-01
DAV:   5    -0.172872238269E+02    0.10995E-03   -0.20608E-04  2520   0.939E-02    0.490E-02
DAV:   6    -0.172872237025E+02    0.12435E-06   -0.15414E-05  2104   0.323E-02    0.288E-02
DAV:   7    -0.172872240024E+02   -0.29989E-06   -0.27478E-06  1944   0.125E-02
  13 F= -.17287224E+02 E0= -.17284966E+02  d E =-.451543E-02
       N       E                     dE             d eps       ncg     rms          rms(c)
DAV:   1    -0.174641090643E+02   -0.17689E+00   -0.63510E+00  2096   0.233E+01    0.250E+00
DAV:   2    -0.173599597242E+02    0.10415E+00   -0.25586E-01  2240   0.435E+00    0.136E+00
DAV:   3    -0.173219631376E+02    0.37997E-01   -0.10845E-01  2256   0.237E+00    0.437E-01
DAV:   4    -0.173205748172E+02    0.13883E-02   -0.51611E-03  2056   0.543E-01    0.263E-01
DAV:   5    -0.173201002922E+02    0.47452E-03   -0.84891E-04  2544   0.213E-01    0.112E-01
DAV:   6    -0.173200697002E+02    0.30592E-04   -0.16945E-04  2208   0.107E-01    0.390E-02
DAV:   7    -0.173200692093E+02    0.49092E-06   -0.58500E-06  2352   0.197E-02
  14 F= -.17320069E+02 E0= -.17318585E+02  d E =-.296849E-02
       N       E                     dE             d eps       ncg     rms          rms(c)
DAV:   1    -0.173246892294E+02   -0.46195E-02   -0.46476E-01  1888   0.526E+00    0.623E-01
DAV:   2    -0.173211132046E+02    0.35760E-02   -0.14384E-02  2576   0.949E-01    0.318E-01
DAV:   3    -0.173189375299E+02    0.21757E-02   -0.23872E-03  2312   0.341E-01    0.125E-01
DAV:   4    -0.173187495976E+02    0.18793E-03   -0.70433E-04  2536   0.194E-01    0.305E-02
DAV:   5    -0.173187454991E+02    0.40985E-05   -0.63649E-05  2136   0.603E-02    0.149E-02
DAV:   6    -0.173187461029E+02   -0.60380E-06   -0.45811E-06  2184   0.154E-02
  15 F= -.17318746E+02 E0= -.17316216E+02  d E =-.506001E-02
       N       E                     dE             d eps       ncg     rms          rms(c)
DAV:   1    -0.173438341506E+02   -0.25089E-01   -0.18653E+00  1888   0.105E+01    0.128E+00
DAV:   2    -0.173286717865E+02    0.15162E-01   -0.58080E-02  2552   0.187E+00    0.651E-01
DAV:   3    -0.173194855261E+02    0.91863E-02   -0.98507E-03  2288   0.654E-01    0.251E-01
DAV:   4    -0.173187519492E+02    0.73358E-03   -0.28623E-03  2520   0.368E-01    0.596E-02
DAV:   5    -0.173187420457E+02    0.99035E-05   -0.25010E-04  2104   0.122E-01    0.290E-02
DAV:   6    -0.173187451868E+02   -0.31412E-05   -0.17429E-05  2504   0.313E-02    0.855E-03
DAV:   7    -0.173187458811E+02   -0.69425E-06   -0.31002E-06  1904   0.122E-02
  16 F= -.17318746E+02 E0= -.17316215E+02  d E =-.506131E-02
       N       E                     dE             d eps       ncg     rms          rms(c)
DAV:   1    -0.173260014541E+02   -0.72563E-02   -0.46535E-01  1888   0.526E+00    0.622E-01
DAV:   2    -0.173224344750E+02    0.35670E-02   -0.14370E-02  2592   0.936E-01    0.318E-01
DAV:   3    -0.173202618283E+02    0.21726E-02   -0.23773E-03  2296   0.331E-01    0.125E-01
DAV:   4    -0.173200718661E+02    0.18996E-03   -0.70602E-04  2544   0.194E-01    0.307E-02
DAV:   5    -0.173200679093E+02    0.39569E-05   -0.65627E-05  2104   0.609E-02    0.149E-02
DAV:   6    -0.173200685767E+02   -0.66747E-06   -0.48080E-06  2232   0.156E-02
  17 F= -.17320069E+02 E0= -.17318585E+02  d E =-.296638E-02
       N       E                     dE             d eps       ncg     rms          rms(c)
DAV:   1    -0.173570568620E+02   -0.36989E-01   -0.38877E+00  1904   0.152E+01    0.176E+00
DAV:   2    -0.173272875415E+02    0.29769E-01   -0.12586E-01  2584   0.278E+00    0.919E-01
DAV:   3    -0.173079535487E+02    0.19334E-01   -0.19552E-02  2312   0.937E-01    0.329E-01
DAV:   4    -0.173064940520E+02    0.14595E-02   -0.52953E-03  2552   0.528E-01    0.844E-02
DAV:   5    -0.173064671096E+02    0.26942E-04   -0.47893E-04  2128   0.172E-01    0.407E-02
DAV:   6    -0.173064720604E+02   -0.49508E-05   -0.28850E-05  2480   0.437E-02    0.113E-02
DAV:   7    -0.173064733406E+02   -0.12802E-05   -0.61146E-06  2080   0.182E-02    0.528E-03
DAV:   8    -0.173064729541E+02    0.38645E-06   -0.95811E-07  1256   0.659E-03
  18 F= -.17306473E+02 E0= -.17303443E+02  d E =-.605902E-02
       N       E                     dE             d eps       ncg     rms          rms(c)
DAV:   1    -0.173212616297E+02   -0.14788E-01   -0.51073E-01  1968   0.539E+00    0.611E-01
DAV:   2    -0.173174218709E+02    0.38398E-02   -0.16728E-02  2424   0.102E+00    0.326E-01
DAV:   3    -0.173147931227E+02    0.26287E-02   -0.26769E-03  2336   0.394E-01    0.101E-01
DAV:   4    -0.173146580089E+02    0.13511E-03   -0.62407E-04  2504   0.188E-01    0.300E-02
DAV:   5    -0.173146554311E+02    0.25778E-05   -0.55305E-05  2272   0.578E-02    0.973E-03
DAV:   6    -0.173146558493E+02   -0.41818E-06   -0.26647E-06  2264   0.133E-02
  19 F= -.17314656E+02 E0= -.17311584E+02  d E =-.614394E-02
       N       E                     dE             d eps       ncg     rms          rms(c)
DAV:   1    -0.173415262562E+02   -0.26871E-01   -0.20549E+00  1952   0.108E+01    0.122E+00
DAV:   2    -0.173259395807E+02    0.15587E-01   -0.67606E-02  2480   0.200E+00    0.653E-01
DAV:   3    -0.173152054485E+02    0.10734E-01   -0.11108E-02  2352   0.739E-01    0.195E-01
DAV:   4    -0.173147024939E+02    0.50295E-03   -0.23380E-03  2472   0.363E-01    0.598E-02
DAV:   5    -0.173146902796E+02    0.12214E-04   -0.18209E-04  2272   0.105E-01    0.221E-02
DAV:   6    -0.173146922729E+02   -0.19933E-05   -0.89755E-06  2512   0.262E-02    0.631E-03
DAV:   7    -0.173146928951E+02   -0.62226E-06   -0.19950E-06  1624   0.114E-02
  20 F= -.17314693E+02 E0= -.17311642E+02  d E =-.610266E-02
       N       E                     dE             d eps       ncg     rms          rms(c)
DAV:   1    -0.173135854711E+02    0.11068E-02   -0.51617E-01  1920   0.539E+00    0.605E-01
DAV:   2    -0.173096081134E+02    0.39774E-02   -0.16869E-02  2576   0.102E+00    0.327E-01
DAV:   3    -0.173068772579E+02    0.27309E-02   -0.28836E-03  2304   0.411E-01    0.945E-02
DAV:   4    -0.173067701843E+02    0.10707E-03   -0.60217E-04  2536   0.186E-01    0.297E-02
DAV:   5    -0.173067674177E+02    0.27666E-05   -0.45221E-05  2216   0.528E-02    0.104E-02
DAV:   6    -0.173067679550E+02   -0.53732E-06   -0.23190E-06  2280   0.133E-02
  21 F= -.17306768E+02 E0= -.17303880E+02  d E =-.577681E-02
       N       E                     dE             d eps       ncg     rms          rms(c)
DAV:   1    -0.173607674432E+02   -0.54000E-01   -0.41182E+00  1952   0.153E+01    0.169E+00
DAV:   2    -0.173293168638E+02    0.31451E-01   -0.13494E-01  2472   0.281E+00    0.926E-01
DAV:   3    -0.173077181885E+02    0.21599E-01   -0.22323E-02  2312   0.101E+00    0.278E-01
DAV:   4    -0.173067052220E+02    0.10130E-02   -0.46118E-03  2512   0.501E-01    0.848E-02
DAV:   5    -0.173066796629E+02    0.25559E-04   -0.34554E-04  2216   0.145E-01    0.335E-02
DAV:   6    -0.173066834218E+02   -0.37589E-05   -0.17097E-05  2544   0.380E-02    0.878E-03
DAV:   7    -0.173066847426E+02   -0.13209E-05   -0.47040E-06  2072   0.171E-02    0.424E-03
DAV:   8    -0.173066844433E+02    0.29932E-06   -0.74115E-07  1248   0.586E-03
  22 F= -.17306684E+02 E0= -.17303704E+02  d E =-.595990E-02
       N       E                     dE             d eps       ncg     rms          rms(c)
DAV:   1    -0.173213593398E+02   -0.14675E-01   -0.51391E-01  1936   0.540E+00    0.594E-01
DAV:   2    -0.173174718908E+02    0.38874E-02   -0.16780E-02  2520   0.102E+00    0.328E-01
DAV:   3    -0.173148093484E+02    0.26625E-02   -0.27290E-03  2288   0.396E-01    0.101E-01
DAV:   4    -0.173146824045E+02    0.12694E-03   -0.61976E-04  2512   0.188E-01    0.295E-02
DAV:   5    -0.173146799037E+02    0.25008E-05   -0.56548E-05  2216   0.584E-02    0.864E-03
DAV:   6    -0.173146802328E+02   -0.32906E-06   -0.28881E-06  2224   0.138E-02
  23 F= -.17314680E+02 E0= -.17311615E+02  d E =-.613135E-02
       N       E                     dE             d eps       ncg     rms          rms(c)
DAV:   1    -0.173413793337E+02   -0.26699E-01   -0.20549E+00  1936   0.108E+01    0.119E+00
DAV:   2    -0.173258676109E+02    0.15512E-01   -0.67381E-02  2504   0.200E+00    0.655E-01
DAV:   3    -0.173152350879E+02    0.10633E-01   -0.10783E-02  2296   0.730E-01    0.204E-01
DAV:   4    -0.173146871259E+02    0.54796E-03   -0.23913E-03  2528   0.366E-01    0.591E-02
DAV:   5    -0.173146759561E+02    0.11170E-04   -0.21848E-04  2184   0.115E-01    0.191E-02
DAV:   6    -0.173146776623E+02   -0.17061E-05   -0.10427E-05  2496   0.266E-02    0.665E-03
DAV:   7    -0.173146781727E+02   -0.51047E-06   -0.16313E-06  1688   0.985E-03
  24 F= -.17314678E+02 E0= -.17311612E+02  d E =-.613152E-02
       N       E                     dE             d eps       ncg     rms          rms(c)
DAV:   1    -0.173133588057E+02    0.13189E-02   -0.51334E-01  1936   0.539E+00    0.595E-01
DAV:   2    -0.173094742995E+02    0.38845E-02   -0.16803E-02  2512   0.102E+00    0.327E-01
DAV:   3    -0.173068114202E+02    0.26629E-02   -0.27229E-03  2320   0.396E-01    0.101E-01
DAV:   4    -0.173066821278E+02    0.12929E-03   -0.61778E-04  2528   0.190E-01    0.294E-02
DAV:   5    -0.173066796745E+02    0.24533E-05   -0.57223E-05  2208   0.591E-02    0.891E-03
DAV:   6    -0.173066800870E+02   -0.41245E-06   -0.28586E-06  2272   0.139E-02
  25 F= -.17306680E+02 E0= -.17303700E+02  d E =-.595996E-02
       N       E                     dE             d eps       ncg     rms          rms(c)
DAV:   1    -0.173356866825E+02   -0.29007E-01   -0.55140E+00  2016   0.159E+01    0.120E+00
DAV:   2    -0.173277466633E+02    0.79400E-02   -0.14399E-01  2480   0.309E+00    0.654E-01
DAV:   3    -0.173175193201E+02    0.10227E-01   -0.13295E-02  2640   0.888E-01    0.210E-01
DAV:   4    -0.173169197761E+02    0.59954E-03   -0.23621E-03  2464   0.365E-01    0.592E-02
DAV:   5    -0.173169102943E+02    0.94818E-05   -0.20366E-04  2264   0.112E-01    0.218E-02
DAV:   6    -0.173169123178E+02   -0.20235E-05   -0.89979E-06  2456   0.252E-02    0.618E-03
DAV:   7    -0.173169127806E+02   -0.46280E-06   -0.14085E-06  1576   0.102E-02
  26 F= -.17316913E+02 E0= -.17313817E+02  d E =-.619065E-02
       N       E                     dE             d eps       ncg     rms          rms(c)
DAV:   1    -0.173162015596E+02    0.71076E-03   -0.86866E-01  1896   0.488E+00    0.310E-02
DAV:   2    -0.173172144108E+02   -0.10129E-02   -0.10126E-02  2232   0.576E-01    0.772E-03
DAV:   3    -0.173172382933E+02   -0.23883E-04   -0.22712E-04  2304   0.798E-02    0.755E-03
DAV:   4    -0.173172388612E+02   -0.56788E-06   -0.74191E-06  1960   0.170E-02
  27 F= -.17317239E+02 E0= -.17314143E+02  d E =-.619100E-02
       N       E                     dE             d eps       ncg     rms          rms(c)
DAV:   1    -0.173128875931E+02    0.43507E-02   -0.34929E+00  1896   0.990E+00    0.626E-02
DAV:   2    -0.173171382882E+02   -0.42507E-02   -0.42577E-02  2248   0.119E+00    0.163E-02
DAV:   3    -0.173172369751E+02   -0.98687E-04   -0.94874E-04  2312   0.168E-01    0.159E-02
DAV:   4    -0.173172385608E+02   -0.15857E-05   -0.30601E-05  2264   0.391E-02    0.964E-03
DAV:   5    -0.173172389893E+02   -0.42850E-06   -0.34714E-06  1736   0.222E-02
  28 F= -.17317239E+02 E0= -.17314143E+02  d E =-.619104E-02
       N       E                     dE             d eps       ncg     rms          rms(c)
DAV:   1    -0.173158775179E+02    0.13610E-02   -0.86869E-01  1896   0.488E+00    0.317E-02
DAV:   2    -0.173168880785E+02   -0.10106E-02   -0.10105E-02  2264   0.574E-01    0.764E-03
DAV:   3    -0.173169121007E+02   -0.24022E-04   -0.22715E-04  2272   0.798E-02    0.731E-03
DAV:   4    -0.173169127256E+02   -0.62487E-06   -0.74218E-06  1992   0.171E-02
  29 F= -.17316913E+02 E0= -.17313817E+02  d E =-.619065E-02
       N       E                     dE             d eps       ncg     rms          rms(c)
DAV:   1    -0.173079050269E+02    0.90071E-02   -0.70324E+00  1888   0.143E+01    0.875E-02
DAV:   2    -0.173167152498E+02   -0.88102E-02   -0.88717E-02  2224   0.173E+00    0.225E-02
DAV:   3    -0.173169124438E+02   -0.19719E-03   -0.19266E-03  2320   0.246E-01    0.225E-02
DAV:   4    -0.173169149923E+02   -0.25485E-05   -0.62304E-05  2320   0.588E-02    0.139E-02
DAV:   5    -0.173169156519E+02   -0.65961E-06   -0.82831E-06  2080   0.360E-02
  30 F= -.17316916E+02 E0= -.17313820E+02  d E =-.619069E-02
       N       E                     dE             d eps       ncg     rms          rms(c)
DAV:   1    -0.173162310868E+02    0.68391E-03   -0.86887E-01  1880   0.487E+00    0.291E-02
DAV:   2    -0.173172138720E+02   -0.98279E-03   -0.98624E-03  2264   0.572E-01    0.752E-03
DAV:   3    -0.173172357865E+02   -0.21914E-04   -0.21155E-04  2352   0.790E-02    0.735E-03
DAV:   4    -0.173172363256E+02   -0.53913E-06   -0.69917E-06  1880   0.167E-02
  31 F= -.17317236E+02 E0= -.17314141E+02  d E =-.619101E-02
       N       E                     dE             d eps       ncg     rms          rms(c)
DAV:   1    -0.173130152220E+02    0.42206E-02   -0.34939E+00  1880   0.990E+00    0.597E-02
DAV:   2    -0.173171413774E+02   -0.41262E-02   -0.41421E-02  2264   0.118E+00    0.154E-02
DAV:   3    -0.173172339933E+02   -0.92616E-04   -0.89298E-04  2344   0.166E-01    0.150E-02
DAV:   4    -0.173172359323E+02   -0.19390E-05   -0.29617E-05  2264   0.383E-02    0.920E-03
DAV:   5    -0.173172365018E+02   -0.56956E-06   -0.32545E-06  1720   0.215E-02
  32 F= -.17317237E+02 E0= -.17314141E+02  d E =-.619105E-02
       N       E                     dE             d eps       ncg     rms          rms(c)
DAV:   1    -0.173159107609E+02    0.13252E-02   -0.86893E-01  1880   0.487E+00    0.301E-02
DAV:   2    -0.173168929777E+02   -0.98222E-03   -0.98526E-03  2264   0.571E-01    0.739E-03
DAV:   3    -0.173169150247E+02   -0.22047E-04   -0.21061E-04  2352   0.788E-02    0.695E-03
DAV:   4    -0.173169156751E+02   -0.65042E-06   -0.69619E-06  1888   0.168E-02
  33 F= -.17316916E+02 E0= -.17313820E+02  d E =-.619065E-02
       N       E                     dE             d eps       ncg     rms          rms(c)
DAV:   1    -0.173070446114E+02    0.98704E-02   -0.70491E+00  1968   0.146E+01    0.121E-01
DAV:   2    -0.173157725476E+02   -0.87279E-02   -0.89109E-02  2216   0.186E+00    0.293E-02
DAV:   3    -0.173159901952E+02   -0.21765E-03   -0.22677E-03  2376   0.333E-01    0.215E-02
DAV:   4    -0.173159934086E+02   -0.32134E-05   -0.92934E-05  2344   0.827E-02    0.211E-02
DAV:   5    -0.173159931051E+02    0.30351E-06   -0.44402E-06  1984   0.180E-02
  34 F= -.17315993E+02 E0= -.17312897E+02  d E =-.619184E-02
       N       E                     dE             d eps       ncg     rms          rms(c)
DAV:   1    -0.173160041251E+02   -0.10716E-04   -0.87288E-01  1800   0.504E+00    0.490E-02
DAV:   2    -0.173169746996E+02   -0.97057E-03   -0.10091E-02  2096   0.613E-01    0.122E-02
DAV:   3    -0.173169984645E+02   -0.23765E-04   -0.27147E-04  2424   0.116E-01    0.708E-03
DAV:   4    -0.173169991590E+02   -0.69444E-06   -0.12086E-05  1968   0.277E-02    0.995E-03
DAV:   5    -0.173169991369E+02    0.22045E-07   -0.45867E-07  1024   0.557E-03
  35 F= -.17316999E+02 E0= -.17313903E+02  d E =-.619129E-02
       N       E                     dE             d eps       ncg     rms          rms(c)
DAV:   1    -0.173126865768E+02    0.43126E-02   -0.35079E+00  1800   0.102E+01    0.103E-01
DAV:   2    -0.173168887416E+02   -0.42022E-02   -0.43601E-02  2096   0.127E+00    0.263E-02
DAV:   3    -0.173169969124E+02   -0.10817E-03   -0.12051E-03  2504   0.246E-01    0.168E-02
DAV:   4    -0.173169989870E+02   -0.20746E-05   -0.51381E-05  2144   0.599E-02    0.208E-02
DAV:   5    -0.173169988783E+02    0.10871E-06   -0.21829E-06  1912   0.114E-02
  36 F= -.17316999E+02 E0= -.17313903E+02  d E =-.619129E-02
       N       E                     dE             d eps       ncg     rms          rms(c)
DAV:   1    -0.173149940077E+02    0.20050E-02   -0.87269E-01  1800   0.504E+00    0.530E-02
DAV:   2    -0.173159689997E+02   -0.97499E-03   -0.10103E-02  2088   0.613E-01    0.142E-02
DAV:   3    -0.173159930046E+02   -0.24005E-04   -0.27013E-04  2480   0.115E-01    0.824E-03
DAV:   4    -0.173159938971E+02   -0.89254E-06   -0.12144E-05  1920   0.280E-02    0.106E-02
DAV:   5    -0.173159939126E+02   -0.15538E-07   -0.46684E-07  1056   0.569E-03
  37 F= -.17315994E+02 E0= -.17312898E+02  d E =-.619185E-02
       N       E                     dE             d eps       ncg     rms          rms(c)
DAV:   1    -0.173102131611E+02    0.57807E-02   -0.36907E+00  1904   0.114E+01    0.315E-01
DAV:   2    -0.173157871464E+02   -0.55740E-02   -0.58224E-02  2480   0.169E+00    0.864E-02
DAV:   3    -0.173159265618E+02   -0.13942E-03   -0.16994E-03  2216   0.313E-01    0.443E-02
DAV:   4    -0.173159325164E+02   -0.59546E-05   -0.86672E-05  2464   0.859E-02    0.294E-02
DAV:   5    -0.173159353066E+02   -0.27901E-05   -0.10970E-05  2288   0.307E-02    0.102E-02
DAV:   6    -0.173159357714E+02   -0.46483E-06   -0.59535E-07  1328   0.694E-03
  38 F= -.17315936E+02 E0= -.17312841E+02  d E =-.618945E-02
       N       E                     dE             d eps       ncg     rms          rms(c)
DAV:   1    -0.173168153471E+02   -0.88004E-03   -0.47911E-02  1816   0.122E+00    0.138E-01
DAV:   2    -0.173169603325E+02   -0.14499E-03   -0.15297E-03  2496   0.245E-01    0.341E-02
DAV:   3    -0.173169610240E+02   -0.69150E-06   -0.23303E-05  2368   0.339E-02    0.186E-02
DAV:   4    -0.173169625500E+02   -0.15260E-05   -0.68541E-06  2520   0.160E-02    0.349E-03
DAV:   5    -0.173169625607E+02   -0.10668E-07   -0.79589E-07  1376   0.575E-03
  39 F= -.17316963E+02 E0= -.17313867E+02  d E =-.619073E-02
       N       E                     dE             d eps       ncg     rms          rms(c)
DAV:   1    -0.173163737220E+02    0.58883E-03   -0.19165E-01  1816   0.244E+00    0.276E-01
DAV:   2    -0.173169508696E+02   -0.57715E-03   -0.60578E-03  2496   0.493E-01    0.685E-02
DAV:   3    -0.173169558677E+02   -0.49982E-05   -0.10451E-04  2432   0.725E-02    0.369E-02
DAV:   4    -0.173169625890E+02   -0.67213E-05   -0.27373E-05  2520   0.321E-02    0.702E-03
DAV:   5    -0.173169626101E+02   -0.21113E-07   -0.33666E-06  2072   0.116E-02
  40 F= -.17316963E+02 E0= -.17313867E+02  d E =-.619073E-02
       N       E                     dE             d eps       ncg     rms          rms(c)
DAV:   1    -0.173157874352E+02    0.11752E-02   -0.47944E-02  1816   0.122E+00    0.140E-01
DAV:   2    -0.173159325963E+02   -0.14516E-03   -0.15173E-03  2496   0.247E-01    0.343E-02
DAV:   3    -0.173159340639E+02   -0.14677E-05   -0.25993E-05  2376   0.359E-02    0.184E-02
DAV:   4    -0.173159359116E+02   -0.18477E-05   -0.68616E-06  2528   0.161E-02    0.358E-03
DAV:   5    -0.173159359033E+02    0.83116E-08   -0.79151E-07  1368   0.581E-03
  41 F= -.17315936E+02 E0= -.17312841E+02  d E =-.618941E-02
       N       E                     dE             d eps       ncg     rms          rms(c)
DAV:   1    -0.173147726699E+02    0.11632E-02   -0.38300E-01  1808   0.345E+00    0.388E-01
DAV:   2    -0.173159295926E+02   -0.11569E-02   -0.12153E-02  2480   0.700E-01    0.971E-02
DAV:   3    -0.173159396609E+02   -0.10068E-04   -0.21323E-04  2424   0.105E-01    0.526E-02
DAV:   4    -0.173159528060E+02   -0.13145E-04   -0.54858E-05  2496   0.453E-02    0.103E-02
DAV:   5    -0.173159528456E+02   -0.39561E-07   -0.61674E-06  2216   0.157E-02
  42 F= -.17315953E+02 E0= -.17312858E+02  d E =-.618941E-02
       N       E                     dE             d eps       ncg     rms          rms(c)
DAV:   1    -0.173168126871E+02   -0.85988E-03   -0.47955E-02  1800   0.122E+00    0.135E-01
DAV:   2    -0.173169560269E+02   -0.14334E-03   -0.15162E-03  2480   0.248E-01    0.341E-02
DAV:   3    -0.173169569148E+02   -0.88793E-06   -0.26482E-05  2360   0.365E-02    0.186E-02
DAV:   4    -0.173169583775E+02   -0.14627E-05   -0.68237E-06  2544   0.159E-02    0.376E-03
DAV:   5    -0.173169583875E+02   -0.99906E-08   -0.68431E-07  1352   0.541E-03
  43 F= -.17316958E+02 E0= -.17313863E+02  d E =-.619072E-02
       N       E                     dE             d eps       ncg     rms          rms(c)
DAV:   1    -0.173163651760E+02    0.59320E-03   -0.19164E-01  1800   0.244E+00    0.276E-01
DAV:   2    -0.173169463646E+02   -0.58119E-03   -0.61000E-03  2480   0.497E-01    0.691E-02
DAV:   3    -0.173169517257E+02   -0.53611E-05   -0.10624E-04  2432   0.737E-02    0.371E-02
DAV:   4    -0.173169584689E+02   -0.67432E-05   -0.26840E-05  2520   0.317E-02    0.765E-03
DAV:   5    -0.173169585179E+02   -0.48955E-07   -0.27722E-06  2056   0.106E-02
  44 F= -.17316959E+02 E0= -.17313863E+02  d E =-.619073E-02
       N       E                     dE             d eps       ncg     rms          rms(c)
DAV:   1    -0.173158034334E+02    0.11550E-02   -0.47954E-02  1800   0.122E+00    0.140E-01
DAV:   2    -0.173159498457E+02   -0.14641E-03   -0.15296E-03  2480   0.249E-01    0.347E-02
DAV:   3    -0.173159514408E+02   -0.15951E-05   -0.26451E-05  2376   0.366E-02    0.185E-02
DAV:   4    -0.173159533040E+02   -0.18632E-05   -0.67421E-06  2536   0.160E-02    0.387E-03
DAV:   5    -0.173159533082E+02   -0.42139E-08   -0.64407E-07  1288   0.528E-03
  45 F= -.17315953E+02 E0= -.17312859E+02  d E =-.618942E-02
       N       E                     dE             d eps       ncg     rms          rms(c)
DAV:   1    -0.173104400198E+02    0.55133E-02   -0.36793E-01  1920   0.349E+00    0.579E-01
DAV:   2    -0.173102551609E+02    0.18486E-03   -0.28306E-02  2552   0.992E-01    0.295E-01
DAV:   3    -0.173104933115E+02   -0.23815E-03   -0.29484E-03  2000   0.328E-01    0.950E-02
DAV:   4    -0.173104472682E+02    0.46043E-04   -0.13125E-04  2664   0.695E-02    0.580E-02
DAV:   5    -0.173104295679E+02    0.17700E-04   -0.11232E-04  2408   0.591E-02    0.275E-02
DAV:   6    -0.173104310470E+02   -0.14791E-05   -0.55749E-06  2248   0.159E-02    0.219E-02
DAV:   7    -0.173104308761E+02    0.17087E-06   -0.25147E-06  1744   0.787E-03
  46 F= -.17310431E+02 E0= -.17307336E+02  d E =-.618976E-02
       N       E                     dE             d eps       ncg     rms          rms(c)
DAV:   1    -0.173157687162E+02   -0.53377E-02   -0.44315E-02  1936   0.124E+00    0.242E-01
DAV:   2    -0.173155611767E+02    0.20754E-03   -0.52469E-03  2616   0.421E-01    0.148E-01
DAV:   3    -0.173156201764E+02   -0.59000E-04   -0.67665E-04  1984   0.154E-01    0.399E-02
DAV:   4    -0.173156078009E+02    0.12376E-04   -0.27731E-05  2656   0.318E-02    0.225E-02
DAV:   5    -0.173156027398E+02    0.50610E-05   -0.24573E-05  2392   0.273E-02    0.148E-02
DAV:   6    -0.173156030550E+02   -0.31519E-06   -0.16139E-06  1768   0.822E-03
  47 F= -.17315603E+02 E0= -.17312508E+02  d E =-.619081E-02
       N       E                     dE             d eps       ncg     rms          rms(c)
DAV:   1    -0.173162491174E+02   -0.64638E-03   -0.17673E-01  1936   0.249E+00    0.486E-01
DAV:   2    -0.173154329155E+02    0.81620E-03   -0.21234E-02  2568   0.848E-01    0.293E-01
DAV:   3    -0.173156724612E+02   -0.23955E-03   -0.27495E-03  1976   0.310E-01    0.841E-02
DAV:   4    -0.173156225966E+02    0.49865E-04   -0.11074E-04  2688   0.639E-02    0.485E-02
DAV:   5    -0.173156009812E+02    0.21615E-04   -0.10439E-04  2400   0.560E-02    0.301E-02
DAV:   6    -0.173156023799E+02   -0.13987E-05   -0.70380E-06  2440   0.168E-02    0.247E-02
DAV:   7    -0.173156020385E+02    0.34142E-06   -0.43961E-06  1920   0.101E-02
  48 F= -.17315602E+02 E0= -.17312507E+02  d E =-.619080E-02
       N       E                     dE             d eps       ncg     rms          rms(c)
DAV:   1    -0.173105889873E+02    0.50134E-02   -0.44349E-02  1936   0.125E+00    0.242E-01
DAV:   2    -0.173103883086E+02    0.20068E-03   -0.53129E-03  2624   0.422E-01    0.142E-01
DAV:   3    -0.173104460549E+02   -0.57746E-04   -0.66888E-04  1984   0.153E-01    0.412E-02
DAV:   4    -0.173104339532E+02    0.12102E-04   -0.27133E-05  2664   0.315E-02    0.233E-02
DAV:   5    -0.173104287560E+02    0.51973E-05   -0.25684E-05  2392   0.278E-02    0.142E-02
DAV:   6    -0.173104290902E+02   -0.33420E-06   -0.15415E-06  1760   0.813E-03
  49 F= -.17310429E+02 E0= -.17307334E+02  d E =-.618975E-02
       N       E                     dE             d eps       ncg     rms          rms(c)
DAV:   1    -0.173118720200E+02   -0.14433E-02   -0.11646E+00  1848   0.540E+00    0.613E-01
DAV:   2    -0.173155201705E+02   -0.36482E-02   -0.69421E-02  2600   0.162E+00    0.375E-01
DAV:   3    -0.173155934615E+02   -0.73291E-04   -0.37619E-03  2096   0.395E-01    0.157E-01
DAV:   4    -0.173154764662E+02    0.11700E-03   -0.31416E-04  2640   0.102E-01    0.829E-02
DAV:   5    -0.173154446555E+02    0.31811E-04   -0.24350E-04  2400   0.870E-02    0.653E-02
DAV:   6    -0.173154486159E+02   -0.39604E-05   -0.22751E-05  2312   0.291E-02    0.498E-02
DAV:   7    -0.173154467871E+02    0.18287E-05   -0.56097E-06  2000   0.126E-02    0.173E-02
DAV:   8    -0.173154466534E+02    0.13375E-06   -0.15760E-06  1160   0.719E-03
  50 F= -.17315447E+02 E0= -.17312342E+02  d E =-.620941E-02
       N       E                     dE             d eps       ncg     rms          rms(c)
DAV:   1    -0.173160816098E+02   -0.63482E-03   -0.25094E-01  1792   0.239E+00    0.228E-01
DAV:   2    -0.173169118737E+02   -0.83026E-03   -0.87648E-03  2496   0.606E-01    0.580E-02
DAV:   3    -0.173168810997E+02    0.30774E-04   -0.11666E-04  2160   0.765E-02    0.404E-02
DAV:   4    -0.173168680010E+02    0.13099E-04   -0.79226E-05  2400   0.477E-02    0.143E-02
DAV:   5    -0.173168686793E+02   -0.67825E-06   -0.11289E-05  2168   0.213E-02    0.651E-03
DAV:   6    -0.173168687505E+02   -0.71265E-07   -0.69045E-07  1248   0.598E-03
  51 F= -.17316869E+02 E0= -.17313771E+02  d E =-.619613E-02
       N       E                     dE             d eps       ncg     rms          rms(c)
DAV:   1    -0.173137050814E+02    0.31636E-02   -0.10050E+00  1792   0.478E+00    0.461E-01
DAV:   2    -0.173170423370E+02   -0.33373E-02   -0.35212E-02  2496   0.121E+00    0.121E-01
DAV:   3    -0.173169186801E+02    0.12366E-03   -0.46232E-04  2144   0.153E-01    0.855E-02
DAV:   4    -0.173168656774E+02    0.53003E-04   -0.31793E-04  2392   0.955E-02    0.297E-02
DAV:   5    -0.173168687401E+02   -0.30627E-05   -0.45940E-05  2160   0.430E-02    0.140E-02
DAV:   6    -0.173168689100E+02   -0.16988E-06   -0.34012E-06  2160   0.125E-02
  52 F= -.17316869E+02 E0= -.17313771E+02  d E =-.619617E-02
       N       E                     dE             d eps       ncg     rms          rms(c)
DAV:   1    -0.173146559230E+02    0.22128E-02   -0.25172E-01  1792   0.239E+00    0.232E-01
DAV:   2    -0.173154894776E+02   -0.83355E-03   -0.87940E-03  2504   0.607E-01    0.575E-02
DAV:   3    -0.173154586923E+02    0.30785E-04   -0.11641E-04  2144   0.763E-02    0.399E-02
DAV:   4    -0.173154460179E+02    0.12674E-04   -0.78448E-05  2408   0.476E-02    0.142E-02
DAV:   5    -0.173154467536E+02   -0.73575E-06   -0.11543E-05  2192   0.216E-02    0.702E-03
DAV:   6    -0.173154468159E+02   -0.62316E-07   -0.92402E-07  1256   0.661E-03
  53 F= -.17315447E+02 E0= -.17312342E+02  d E =-.620943E-02
       N       E                     dE             d eps       ncg     rms          rms(c)
DAV:   1    -0.173092697853E+02    0.61770E-02   -0.20105E+00  1792   0.674E+00    0.645E-01
DAV:   2    -0.173158148950E+02   -0.65451E-02   -0.69100E-02  2504   0.171E+00    0.172E-01
DAV:   3    -0.173155765991E+02    0.23830E-03   -0.85677E-04  2144   0.208E-01    0.124E-01
DAV:   4    -0.173154730370E+02    0.10356E-03   -0.60329E-04  2424   0.132E-01    0.419E-02
DAV:   5    -0.173154789753E+02   -0.59383E-05   -0.86125E-05  2136   0.590E-02    0.202E-02
DAV:   6    -0.173154795513E+02   -0.57604E-06   -0.59140E-06  2472   0.163E-02
  54 F= -.17315480E+02 E0= -.17312377E+02  d E =-.620528E-02
       N       E                     dE             d eps       ncg     rms          rms(c)
DAV:   1    -0.173161127622E+02   -0.63379E-03   -0.25081E-01  1792   0.237E+00    0.215E-01
DAV:   2    -0.173169188464E+02   -0.80608E-03   -0.85115E-03  2536   0.600E-01    0.569E-02
DAV:   3    -0.173168880966E+02    0.30750E-04   -0.98316E-05  2096   0.700E-02    0.409E-02
DAV:   4    -0.173168753910E+02    0.12706E-04   -0.74209E-05  2416   0.460E-02    0.139E-02
DAV:   5    -0.173168761315E+02   -0.74053E-06   -0.10786E-05  2184   0.208E-02    0.734E-03
DAV:   6    -0.173168761424E+02   -0.10889E-07   -0.92567E-07  1184   0.646E-03
  55 F= -.17316876E+02 E0= -.17313778E+02  d E =-.619557E-02
       N       E                     dE             d eps       ncg     rms          rms(c)
DAV:   1    -0.173137810852E+02    0.30950E-02   -0.10065E+00  1792   0.476E+00    0.448E-01
DAV:   2    -0.173170406644E+02   -0.32596E-02   -0.34386E-02  2568   0.121E+00    0.116E-01
DAV:   3    -0.173169157237E+02    0.12494E-03   -0.40542E-04  2088   0.143E-01    0.835E-02
DAV:   4    -0.173168655551E+02    0.50169E-04   -0.28633E-04  2416   0.909E-02    0.288E-02
DAV:   5    -0.173168688709E+02   -0.33158E-05   -0.41023E-05  2200   0.407E-02    0.160E-02
DAV:   6    -0.173168690094E+02   -0.13846E-06   -0.38307E-06  2216   0.124E-02
  56 F= -.17316869E+02 E0= -.17313771E+02  d E =-.619672E-02
       N       E                     dE             d eps       ncg     rms          rms(c)
DAV:   1    -0.173146229686E+02    0.22459E-02   -0.25170E-01  1792   0.239E+00    0.230E-01
DAV:   2    -0.173154522826E+02   -0.82931E-03   -0.87431E-03  2576   0.609E-01    0.569E-02
DAV:   3    -0.173154198506E+02    0.32432E-04   -0.10604E-04  2104   0.731E-02    0.403E-02
DAV:   4    -0.173154072326E+02    0.12618E-04   -0.74330E-05  2400   0.465E-02    0.143E-02
DAV:   5    -0.173154081014E+02   -0.86888E-06   -0.10937E-05  2152   0.210E-02    0.796E-03
DAV:   6    -0.173154081195E+02   -0.18017E-07   -0.10480E-06  1192   0.678E-03
  57 F= -.17315408E+02 E0= -.17312301E+02  d E =-.621359E-02
       N       E                     dE             d eps       ncg     rms          rms(c)
DAV:   1    -0.173070721160E+02    0.83360E-02   -0.20107E+00  1792   0.678E+00    0.821E-01
DAV:   2    -0.173133244807E+02   -0.62524E-02   -0.77506E-02  2568   0.182E+00    0.168E-01
DAV:   3    -0.173130878489E+02    0.23663E-03   -0.20386E-03  2240   0.293E-01    0.134E-01
DAV:   4    -0.173130161109E+02    0.71738E-04   -0.30762E-04  2464   0.102E-01    0.742E-02
DAV:   5    -0.173130080783E+02    0.80326E-05   -0.55250E-05  2368   0.438E-02    0.181E-02
DAV:   6    -0.173130082777E+02   -0.19938E-06   -0.15377E-05  2472   0.226E-02    0.151E-02
DAV:   7    -0.173130080196E+02    0.25803E-06   -0.47668E-06  1968   0.127E-02
  58 F= -.17313008E+02 E0= -.17309989E+02  d E =-.603857E-02
       N       E                     dE             d eps       ncg     rms          rms(c)
DAV:   1    -0.173153822926E+02   -0.23740E-02   -0.25176E-01  1792   0.238E+00    0.260E-01
DAV:   2    -0.173160674873E+02   -0.68519E-03   -0.10055E-02  2544   0.689E-01    0.834E-02
DAV:   3    -0.173160412254E+02    0.26262E-04   -0.38868E-04  2184   0.123E-01    0.488E-02
DAV:   4    -0.173160362618E+02    0.49636E-05   -0.42197E-05  2464   0.405E-02    0.211E-02
DAV:   5    -0.173160350538E+02    0.12080E-05   -0.69207E-06  2384   0.153E-02    0.992E-03
DAV:   6    -0.173160349746E+02    0.79193E-07   -0.28523E-06  1944   0.973E-03
  59 F= -.17316035E+02 E0= -.17312960E+02  d E =-.614900E-02
       N       E                     dE             d eps       ncg     rms          rms(c)
DAV:   1    -0.173142587308E+02    0.17763E-02   -0.10085E+00  1792   0.477E+00    0.493E-01
DAV:   2    -0.173169359327E+02   -0.26772E-02   -0.40146E-02  2544   0.138E+00    0.173E-01
DAV:   3    -0.173168335735E+02    0.10236E-03   -0.15864E-03  2184   0.248E-01    0.100E-01
DAV:   4    -0.173168120538E+02    0.21520E-04   -0.16779E-04  2472   0.814E-02    0.405E-02
DAV:   5    -0.173168064265E+02    0.56274E-05   -0.33165E-05  2440   0.334E-02    0.210E-02
DAV:   6    -0.173168065461E+02   -0.11964E-06   -0.99459E-06  2456   0.183E-02
  60 F= -.17316807E+02 E0= -.17313734E+02  d E =-.614533E-02
       N       E                     dE             d eps       ncg     rms          rms(c)
DAV:   1    -0.173138499294E+02    0.29565E-02   -0.25313E-01  1792   0.238E+00    0.260E-01
DAV:   2    -0.173145049303E+02   -0.65500E-03   -0.10051E-02  2520   0.687E-01    0.801E-02
DAV:   3    -0.173144802930E+02    0.24637E-04   -0.40937E-04  2208   0.125E-01    0.464E-02
DAV:   4    -0.173144748931E+02    0.53999E-05   -0.40334E-05  2344   0.400E-02    0.204E-02
DAV:   5    -0.173144732968E+02    0.15963E-05   -0.91820E-06  2416   0.175E-02    0.957E-03
DAV:   6    -0.173144733692E+02   -0.72431E-07   -0.22328E-06  1824   0.894E-03
  61 F= -.17314473E+02 E0= -.17311460E+02  d E =-.602654E-02
       N       E                     dE             d eps       ncg     rms          rms(c)
DAV:   1    -0.173077096678E+02    0.67636E-02   -0.19898E+00  1792   0.684E+00    0.859E-01
DAV:   2    -0.173158990518E+02   -0.81894E-02   -0.99220E-02  2544   0.204E+00    0.220E-01
DAV:   3    -0.173155578366E+02    0.34122E-03   -0.25192E-03  2160   0.328E-01    0.164E-01
DAV:   4    -0.173154586499E+02    0.99187E-04   -0.43349E-04  2544   0.121E-01    0.840E-02
DAV:   5    -0.173154488707E+02    0.97792E-05   -0.65077E-05  2304   0.465E-02    0.300E-02
DAV:   6    -0.173154470269E+02    0.18439E-05   -0.32065E-05  2464   0.316E-02    0.168E-02
DAV:   7    -0.173154470204E+02    0.64115E-08   -0.51015E-06  1968   0.142E-02
  62 F= -.17315447E+02 E0= -.17312342E+02  d E =-.620961E-02
       N       E                     dE             d eps       ncg     rms          rms(c)
DAV:   1    -0.173160834522E+02   -0.63643E-03   -0.25078E-01  1792   0.238E+00    0.223E-01
DAV:   2    -0.173169122551E+02   -0.82880E-03   -0.87428E-03  2496   0.605E-01    0.604E-02
DAV:   3    -0.173168815995E+02    0.30656E-04   -0.11487E-04  2152   0.759E-02    0.423E-02
DAV:   4    -0.173168680745E+02    0.13525E-04   -0.81576E-05  2400   0.483E-02    0.147E-02
DAV:   5    -0.173168687521E+02   -0.67762E-06   -0.11545E-05  2168   0.215E-02    0.627E-03
DAV:   6    -0.173168688352E+02   -0.83039E-07   -0.66649E-07  1248   0.592E-03
  63 F= -.17316869E+02 E0= -.17313771E+02  d E =-.619611E-02
       N       E                     dE             d eps       ncg     rms          rms(c)
DAV:   1    -0.173137046367E+02    0.31641E-02   -0.10051E+00  1792   0.478E+00    0.461E-01
DAV:   2    -0.173170422812E+02   -0.33376E-02   -0.35215E-02  2496   0.121E+00    0.121E-01
DAV:   3    -0.173169185620E+02    0.12372E-03   -0.46240E-04  2144   0.153E-01    0.856E-02
DAV:   4    -0.173168655209E+02    0.53041E-04   -0.31815E-04  2392   0.955E-02    0.297E-02
DAV:   5    -0.173168685853E+02   -0.30644E-05   -0.45975E-05  2160   0.430E-02    0.140E-02
DAV:   6    -0.173168687553E+02   -0.16999E-06   -0.34029E-06  2160   0.125E-02
  64 F= -.17316869E+02 E0= -.17313771E+02  d E =-.619618E-02
       N       E                     dE             d eps       ncg     rms          rms(c)
DAV:   1    -0.173146557222E+02    0.22129E-02   -0.25172E-01  1792   0.239E+00    0.232E-01
DAV:   2    -0.173154892820E+02   -0.83356E-03   -0.87940E-03  2504   0.607E-01    0.575E-02
DAV:   3    -0.173154584952E+02    0.30787E-04   -0.11641E-04  2144   0.763E-02    0.399E-02
DAV:   4    -0.173154458203E+02    0.12675E-04   -0.78447E-05  2408   0.476E-02    0.142E-02
DAV:   5    -0.173154465551E+02   -0.73482E-06   -0.11543E-05  2192   0.215E-02    0.702E-03
DAV:   6    -0.173154466163E+02   -0.61249E-07   -0.92521E-07  1256   0.662E-03
  65 F= -.17315447E+02 E0= -.17312342E+02  d E =-.620945E-02
       N       E                     dE             d eps       ncg     rms          rms(c)
DAV:   1    -0.173090157281E+02    0.64308E-02   -0.20054E+00  1792   0.675E+00    0.667E-01
DAV:   2    -0.173157774630E+02   -0.67617E-02   -0.71400E-02  2528   0.172E+00    0.176E-01
DAV:   3    -0.173155107448E+02    0.26672E-03   -0.90184E-04  2096   0.213E-01    0.127E-01
DAV:   4    -0.173154011686E+02    0.10958E-03   -0.64003E-04  2392   0.135E-01    0.432E-02
DAV:   5    -0.173154083323E+02   -0.71637E-05   -0.89134E-05  2144   0.599E-02    0.207E-02
DAV:   6    -0.173154085790E+02   -0.24668E-06   -0.59451E-06  2432   0.165E-02
  66 F= -.17315409E+02 E0= -.17312302E+02  d E =-.621366E-02
       N       E                     dE             d eps       ncg     rms          rms(c)
DAV:   1    -0.173160837449E+02   -0.67541E-03   -0.25044E-01  1792   0.238E+00    0.223E-01
DAV:   2    -0.173169152105E+02   -0.83147E-03   -0.87761E-03  2576   0.607E-01    0.593E-02
DAV:   3    -0.173168815016E+02    0.33709E-04   -0.10487E-04  2104   0.724E-02    0.424E-02
DAV:   4    -0.173168680016E+02    0.13500E-04   -0.78217E-05  2400   0.473E-02    0.148E-02
DAV:   5    -0.173168688932E+02   -0.89155E-06   -0.11182E-05  2136   0.212E-02    0.751E-03
DAV:   6    -0.173168689106E+02   -0.17478E-07   -0.85713E-07  1192   0.632E-03
  67 F= -.17316869E+02 E0= -.17313771E+02  d E =-.619667E-02
       N       E                     dE             d eps       ncg     rms          rms(c)
DAV:   1    -0.173137066422E+02    0.31623E-02   -0.10039E+00  1792   0.477E+00    0.458E-01
DAV:   2    -0.173170572881E+02   -0.33506E-02   -0.35405E-02  2536   0.121E+00    0.118E-01
DAV:   3    -0.173169252891E+02    0.13200E-03   -0.42665E-04  2112   0.147E-01    0.856E-02
DAV:   4    -0.173168724142E+02    0.52875E-04   -0.31210E-04  2400   0.942E-02    0.294E-02
DAV:   5    -0.173168760616E+02   -0.36474E-05   -0.44617E-05  2144   0.423E-02    0.154E-02
DAV:   6    -0.173168760530E+02    0.85361E-08   -0.39126E-06  2240   0.128E-02
  68 F= -.17316876E+02 E0= -.17313778E+02  d E =-.619565E-02
       N       E                     dE             d eps       ncg     rms          rms(c)
DAV:   1    -0.173146990715E+02    0.21770E-02   -0.25187E-01  1792   0.238E+00    0.225E-01
DAV:   2    -0.173155213684E+02   -0.82230E-03   -0.86926E-03  2536   0.604E-01    0.550E-02
DAV:   3    -0.173154901141E+02    0.31254E-04   -0.10270E-04  2096   0.717E-02    0.395E-02
DAV:   4    -0.173154780309E+02    0.12083E-04   -0.73714E-05  2400   0.459E-02    0.137E-02
DAV:   5    -0.173154789240E+02   -0.89312E-06   -0.11019E-05  2208   0.210E-02    0.823E-03
DAV:   6    -0.173154788963E+02    0.27707E-07   -0.11840E-06  1200   0.705E-03
  69 F= -.17315479E+02 E0= -.17312376E+02  d E =-.620527E-02
       N       E                     dE             d eps       ncg     rms          rms(c)
DAV:   1    -0.173084448407E+02    0.70341E-02   -0.20071E+00  1792   0.679E+00    0.660E-01
DAV:   2    -0.173148105248E+02   -0.63657E-02   -0.78895E-02  2544   0.185E+00    0.217E-01
DAV:   3    -0.173145556264E+02    0.25490E-03   -0.20870E-03  2224   0.298E-01    0.143E-01
DAV:   4    -0.173144794446E+02    0.76182E-04   -0.34089E-04  2456   0.108E-01    0.544E-02
DAV:   5    -0.173144716754E+02    0.77692E-05   -0.70135E-05  2392   0.487E-02    0.262E-02
DAV:   6    -0.173144730831E+02   -0.14077E-05   -0.12150E-05  2552   0.202E-02    0.193E-02
DAV:   7    -0.173144725044E+02    0.57866E-06   -0.57742E-06  1944   0.132E-02
  70 F= -.17314473E+02 E0= -.17311459E+02  d E =-.602640E-02
       N       E                     dE             d eps       ncg     rms          rms(c)
DAV:   1    -0.173161862826E+02   -0.17132E-02   -0.25250E-01  1792   0.237E+00    0.281E-01
DAV:   2    -0.173168356992E+02   -0.64942E-03   -0.99885E-03  2520   0.681E-01    0.736E-02
DAV:   3    -0.173168138131E+02    0.21886E-04   -0.41029E-04  2256   0.125E-01    0.465E-02
DAV:   4    -0.173168080055E+02    0.58076E-05   -0.37683E-05  2328   0.386E-02    0.234E-02
DAV:   5    -0.173168063135E+02    0.16920E-05   -0.92836E-06  2464   0.174E-02    0.901E-03
DAV:   6    -0.173168062528E+02    0.60668E-07   -0.24360E-06  1784   0.925E-03
  71 F= -.17316806E+02 E0= -.17313734E+02  d E =-.614529E-02
       N       E                     dE             d eps       ncg     rms          rms(c)
DAV:   1    -0.173134910083E+02    0.33153E-02   -0.10086E+00  1792   0.475E+00    0.597E-01
DAV:   2    -0.173161572774E+02   -0.26663E-02   -0.40166E-02  2528   0.137E+00    0.142E-01
DAV:   3    -0.173160657768E+02    0.91501E-04   -0.16088E-03  2256   0.248E-01    0.958E-02
DAV:   4    -0.173160422032E+02    0.23574E-04   -0.15125E-04  2344   0.769E-02    0.524E-02
DAV:   5    -0.173160356762E+02    0.65270E-05   -0.35989E-05  2376   0.343E-02    0.181E-02
DAV:   6    -0.173160354792E+02    0.19698E-06   -0.11856E-05  2488   0.197E-02    0.149E-02
DAV:   7    -0.173160353213E+02    0.15791E-06   -0.25743E-06  1888   0.935E-03
  72 F= -.17316035E+02 E0= -.17312961E+02  d E =-.614952E-02
       N       E                     dE             d eps       ncg     rms          rms(c)
DAV:   1    -0.173123522087E+02    0.36833E-02   -0.25164E-01  1792   0.238E+00    0.288E-01
DAV:   2    -0.173130405149E+02   -0.68831E-03   -0.10073E-02  2592   0.685E-01    0.730E-02
DAV:   3    -0.173130153329E+02    0.25182E-04   -0.38944E-04  2184   0.122E-01    0.466E-02
DAV:   4    -0.173130101942E+02    0.51387E-05   -0.40282E-05  2464   0.394E-02    0.243E-02
DAV:   5    -0.173130089788E+02    0.12154E-05   -0.70468E-06  2376   0.153E-02    0.901E-03
DAV:   6    -0.173130088689E+02    0.10992E-06   -0.32375E-06  1960   0.103E-02
  73 F= -.17313009E+02 E0= -.17309989E+02  d E =-.603912E-02
