 vasp.6.3.2 27Jun22 (build Jun 14 2024 17:29:11) complex                         
 executed on             LinuxGNU date 2026.03.30  07:47:11
 running on    8 total cores
 distrk:  each k-point on    8 cores,    1 groups
 distr:  one band on NCORE=   1 cores,    8 groups


--------------------------------------------------------------------------------------------------------


 INCAR:
   EDIFF = 1e-06
   ENCUT = 400.0
   IBRION = 6
   ISIF = 3
   ISMEAR = 0
   LCHARG = False
   LREAL = Auto
   LWAVE = False
   NFREE = 4
   NSW = 1
   POTIM = 0.015
   SIGMA = 0.05

 POTCAR:    PAW_PBE Na_pv 19Sep2006               
 POTCAR:    PAW_PBE Si 05Jan2001                  
 POTCAR:    PAW_PBE S 06Sep2000                   
 -----------------------------------------------------------------------------
|                                                                             |
|           W    W    AA    RRRRR   N    N  II  N    N   GGGG   !!!           |
|           W    W   A  A   R    R  NN   N  II  NN   N  G    G  !!!           |
|           W    W  A    A  R    R  N N  N  II  N N  N  G       !!!           |
|           W WW W  AAAAAA  RRRRR   N  N N  II  N  N N  G  GGG   !            |
|           WW  WW  A    A  R   R   N   NN  II  N   NN  G    G                |
|           W    W  A    A  R    R  N    N  II  N    N   GGGG   !!!           |
|                                                                             |
|     For optimal performance we recommend to set                             |
|       NCORE = 2 up to number-of-cores-per-socket                            |
|     NCORE specifies how many cores store one orbital (NPAR=cpu/NCORE).      |
|     This setting can greatly improve the performance of VASP for DFT.       |
|     The default, NCORE=1 might be grossly inefficient on modern             |
|     multi-core architectures or massively parallel machines. Do your        |
|     own testing! More info at https://www.vasp.at/wiki/index.php/NCORE      |
|     Unfortunately you need to use the default for GW and RPA                |
|     calculations (for HF NCORE is supported but not extensively tested      |
|     yet).                                                                   |
|                                                                             |
 -----------------------------------------------------------------------------

 POTCAR:    PAW_PBE Na_pv 19Sep2006               
   SHA256 =  6a2f546d9e11350984debacf3dc457d8cffc0868e817d445faca461816a32b94 Na_pv/POTCAR          
   COPYR  = (c) Copyright 19Sep2006 Georg Kresse                                                    
   COPYR  = This file is part of the software VASP. Any use, copying, and all other rights are regul
   COPYR  = If you do not have a valid VASP license, you may not use, copy or distribute this file. 
   VRHFIN =Na: p6s1                                                                                 
   LEXCH  = PE                                                                                      
   EATOM  =   766.0439 eV,   56.3026 Ry                                                             
                                                                                                    
   TITEL  = PAW_PBE Na_pv 19Sep2006                                                                 
   LULTRA =        F    use ultrasoft PP ?                                                          
   IUNSCR =        1    unscreen: 0-lin 1-nonlin 2-no                                               
   RPACOR =    1.800    partial core radius                                                         
   POMASS =   22.990; ZVAL   =    7.000    mass and valenz                                          
   RCORE  =    2.200    outmost cutoff radius                                                       
   RWIGS  =    2.200; RWIGS  =    1.164    wigner-seitz radius (au A)                               
   ENMAX  =  259.561; ENMIN  =  194.671 eV                                                          
   ICORE  =        2    local potential                                                             
   LCOR   =        T    correct aug charges                                                         
   LPAW   =        T    paw PP                                                                      
   EAUG   =  368.056                                                                                
   DEXC   =    0.000                                                                                
   RMAX   =    2.245    core radius for proj-oper                                                   
   RAUG   =    1.300    factor for augmentation sphere                                              
   RDEP   =    2.259    radius for radial grids                                                     
   RDEPT  =    1.738    core radius for aug-charge                                                  
                                                                                                    
   Atomic configuration                                                                             
    5 entries                                                                                       
     n  l   j            E        occ.                                                              
     1  0  0.50     -1033.6933   2.0000                                                             
     2  0  0.50       -56.7526   2.0000                                                             
     2  1  1.50       -28.6721   6.0000                                                             
     3  0  0.50        -2.7440   1.0000                                                             
     3  2  1.50        -1.3606   0.0000                                                             
   Description                                                                                      
     l       E           TYP  RCUT    TYP  RCUT                                                     
     1    -28.6720912     23  2.000                                                                 
     1      6.8029130     23  2.000                                                                 
     0     -2.7439560     23  2.200                                                                 
     0     34.0145650     23  2.200                                                                 
     2     -1.3605826     23  2.200                                                                 
  local pseudopotential read in
  partial core-charges read in
  partial kinetic energy density read in
  atomic valenz-charges read in
  non local Contribution for L=           1  read in
    real space projection operators read in
  non local Contribution for L=           1  read in
    real space projection operators read in
  non local Contribution for L=           0  read in
    real space projection operators read in
  non local Contribution for L=           0  read in
    real space projection operators read in
    PAW grid and wavefunctions read in

   number of l-projection  operators is LMAX  =           4
   number of lm-projection operators is LMMAX =           8

 POTCAR:    PAW_PBE Si 05Jan2001                  
   SHA256 =  79d9987ad8750f624c4d6acb2a16d13abf6a777132adc04dc6c8399be72b42bb Si/POTCAR             
   COPYR  = (c) Copyright 05Jan2001 Georg Kresse                                                    
   COPYR  = This file is part of the software VASP. Any use, copying, and all other rights are regul
   COPYR  = If you do not have a valid VASP license, you may not use, copy or distribute this file. 
   VRHFIN =Si: s2p2                                                                                 
   LEXCH  = PE                                                                                      
   EATOM  =   103.0669 eV,    7.5752 Ry                                                             
                                                                                                    
   TITEL  = PAW_PBE Si 05Jan2001                                                                    
   LULTRA =        F    use ultrasoft PP ?                                                          
   IUNSCR =        1    unscreen: 0-lin 1-nonlin 2-no                                               
   RPACOR =    1.500    partial core radius                                                         
   POMASS =   28.085; ZVAL   =    4.000    mass and valenz                                          
   RCORE  =    1.900    outmost cutoff radius                                                       
   RWIGS  =    2.480; RWIGS  =    1.312    wigner-seitz radius (au A)                               
   ENMAX  =  245.345; ENMIN  =  184.009 eV                                                          
   ICORE  =        2    local potential                                                             
   LCOR   =        T    correct aug charges                                                         
   LPAW   =        T    paw PP                                                                      
   EAUG   =  322.069                                                                                
   DEXC   =    0.000                                                                                
   RMAX   =    1.950    core radius for proj-oper                                                   
   RAUG   =    1.300    factor for augmentation sphere                                              
   RDEP   =    1.993    radius for radial grids                                                     
   RDEPT  =    1.837    core radius for aug-charge                                                  
                                                                                                    
   Atomic configuration                                                                             
    6 entries                                                                                       
     n  l   j            E        occ.                                                              
     1  0  0.50     -1785.8828   2.0000                                                             
     2  0  0.50      -139.4969   2.0000                                                             
     2  1  1.50       -95.5546   6.0000                                                             
     3  0  0.50       -10.8127   2.0000                                                             
     3  1  0.50        -4.0811   2.0000                                                             
     3  2  1.50        -4.0817   0.0000                                                             
   Description                                                                                      
     l       E           TYP  RCUT    TYP  RCUT                                                     
     0    -10.8127223     23  1.900                                                                 
     0     -7.6451159     23  1.900                                                                 
     1     -4.0811372     23  1.900                                                                 
     1      2.4879257     23  1.900                                                                 
     2     -4.0817478      7  1.900                                                                 
  local pseudopotential read in
  partial core-charges read in
  partial kinetic energy density read in
  atomic valenz-charges read in
  non local Contribution for L=           0  read in
    real space projection operators read in
  non local Contribution for L=           0  read in
    real space projection operators read in
  non local Contribution for L=           1  read in
    real space projection operators read in
  non local Contribution for L=           1  read in
    real space projection operators read in
    PAW grid and wavefunctions read in

   number of l-projection  operators is LMAX  =           4
   number of lm-projection operators is LMMAX =           8

 POTCAR:    PAW_PBE S 06Sep2000                   
   SHA256 =  0fc7481fb0695f01bdc6462160264c5c84044ae9ec85a907d398b887a2bc3132 S/POTCAR              
   COPYR  = (c) Copyright 06Sep2000 Georg Kresse                                                    
   COPYR  = This file is part of the software VASP. Any use, copying, and all other rights are regul
   COPYR  = If you do not have a valid VASP license, you may not use, copy or distribute this file. 
   VRHFIN =S : s2p4                                                                                 
   LEXCH  = PE                                                                                      
   EATOM  =   276.8230 eV,   20.3459 Ry                                                             
                                                                                                    
   TITEL  = PAW_PBE S 06Sep2000                                                                     
   LULTRA =        F    use ultrasoft PP ?                                                          
   IUNSCR =        1    unscreen: 0-lin 1-nonlin 2-no                                               
   RPACOR =    1.500    partial core radius                                                         
   POMASS =   32.066; ZVAL   =    6.000    mass and valenz                                          
   RCORE  =    1.900    outmost cutoff radius                                                       
   RWIGS  =    2.200; RWIGS  =    1.164    wigner-seitz radius (au A)                               
   ENMAX  =  258.689; ENMIN  =  194.016 eV                                                          
   ICORE  =        2    local potential                                                             
   LCOR   =        T    correct aug charges                                                         
   LPAW   =        T    paw PP                                                                      
   EAUG   =  335.092                                                                                
   DEXC   =    0.000                                                                                
   RMAX   =    1.942    core radius for proj-oper                                                   
   RAUG   =    1.300    factor for augmentation sphere                                              
   RDEP   =    1.954    radius for radial grids                                                     
   RDEPT  =    1.744    core radius for aug-charge                                                  
                                                                                                    
   Atomic configuration                                                                             
    6 entries                                                                                       
     n  l   j            E        occ.                                                              
     1  0  0.50     -2405.8406   2.0000                                                             
     2  0  0.50      -211.7007   2.0000                                                             
     2  1  1.50      -156.4958   6.0000                                                             
     3  0  0.50       -17.2562   2.0000                                                             
     3  1  0.50        -7.0085   4.0000                                                             
     3  2  1.50        -6.8029   0.0000                                                             
   Description                                                                                      
     l       E           TYP  RCUT    TYP  RCUT                                                     
     0    -17.2561641     23  1.900                                                                 
     0    -15.8743224     23  1.900                                                                 
     1     -7.0085400     23  1.900                                                                 
     1     -2.7779785     23  1.900                                                                 
     2     -6.8029130     23  1.900                                                                 
  local pseudopotential read in
  partial core-charges read in
  partial kinetic energy density read in
  atomic valenz-charges read in
  non local Contribution for L=           0  read in
    real space projection operators read in
  non local Contribution for L=           0  read in
    real space projection operators read in
  non local Contribution for L=           1  read in
    real space projection operators read in
  non local Contribution for L=           1  read in
    real space projection operators read in
    PAW grid and wavefunctions read in

   number of l-projection  operators is LMAX  =           4
   number of lm-projection operators is LMMAX =           8

 -----------------------------------------------------------------------------
|                                                                             |
|               ----> ADVICE to this user running VASP <----                  |
|                                                                             |
|     You have a (more or less) 'small supercell' and for smaller cells       |
|     it is recommended to use the reciprocal-space projection scheme!        |
|     The real-space optimization is not efficient for small cells and it     |
|     is also less accurate ...                                               |
|     Therefore, set LREAL=.FALSE. in the INCAR file.                         |
|                                                                             |
 -----------------------------------------------------------------------------

 Optimization of the real space projectors (new method)

 maximal supplied QI-value         = 17.01
 optimisation between [QCUT,QGAM] = [ 10.20, 20.41] = [ 29.16,116.64] Ry 
 Optimized for a Real-space Cutoff    1.30 Angstroem

   l    n(q)    QCUT    max X(q) W(low)/X(q) W(high)/X(q)  e(spline) 
   1      7    10.205     4.940    0.23E-03    0.84E-03    0.11E-06
   1      7    10.205     6.253    0.40E-03    0.13E-02    0.18E-06
   0      8    10.205    37.438    0.23E-03    0.37E-03    0.42E-07
   0      8    10.205     9.606    0.16E-03    0.26E-03    0.31E-07
 Optimization of the real space projectors (new method)

 maximal supplied QI-value         = 19.84
 optimisation between [QCUT,QGAM] = [ 10.12, 20.44] = [ 28.68,116.96] Ry 
 Optimized for a Real-space Cutoff    1.23 Angstroem

   l    n(q)    QCUT    max X(q) W(low)/X(q) W(high)/X(q)  e(spline) 
   0      7    10.119   159.560    0.56E-04    0.22E-03    0.45E-07
   0      7    10.119   115.863    0.56E-04    0.21E-03    0.45E-07
   1      7    10.119    88.339    0.34E-03    0.49E-03    0.11E-06
   1      7    10.119    48.592    0.33E-03    0.48E-03    0.11E-06
 Optimization of the real space projectors (new method)

 maximal supplied QI-value         = 19.84
 optimisation between [QCUT,QGAM] = [ 10.12, 20.44] = [ 28.68,116.96] Ry 
 Optimized for a Real-space Cutoff    1.23 Angstroem

   l    n(q)    QCUT    max X(q) W(low)/X(q) W(high)/X(q)  e(spline) 
   0      7    10.119   187.594    0.62E-04    0.28E-03    0.52E-07
   0      7    10.119   164.243    0.61E-04    0.28E-03    0.52E-07
   1      7    10.119    67.533    0.45E-03    0.63E-03    0.13E-06
   1      7    10.119    50.729    0.44E-03    0.62E-03    0.12E-06
  PAW_PBE Na_pv 19Sep2006               :
 energy of atom  1       EATOM= -766.0439
 kinetic energy error for atom=    0.0103 (will be added to EATOM!!)
  PAW_PBE Si 05Jan2001                  :
 energy of atom  2       EATOM= -103.0669
 kinetic energy error for atom=    0.0012 (will be added to EATOM!!)
  PAW_PBE S 06Sep2000                   :
 energy of atom  3       EATOM= -276.8230
 kinetic energy error for atom=    0.0046 (will be added to EATOM!!)


 POSCAR: Na1 Si1 S2
  positions in direct lattice
  velocities in cartesian coordinates
 exchange correlation table for  LEXCH =        8
   RHO(1)=    0.500       N(1)  =     2000
   RHO(2)=  100.500       N(2)  =     4000



--------------------------------------------------------------------------------------------------------


 ion  position               nearest neighbor table
   1  0.000  0.000  0.500-
   2  0.000  0.000  0.000-   3 2.44   4 2.44   3 2.44   3 2.44   4 2.44   4 2.44
   3  0.333  0.667  0.800-   2 2.44   2 2.44   2 2.44
   4  0.667  0.333  0.200-   2 2.44   2 2.44   2 2.44

  LATTYP: Found a hexagonal cell.
 ALAT       =     3.5339536071
 C/A-ratio  =     1.9032954514
  
  Lattice vectors:
  
 A1 = (   3.5339536071,  -0.0000000000,  -0.0000000000)
 A2 = (  -1.7669768036,   3.0604935996,   0.0000000000)
 A3 = (   0.0000000000,   0.0000000000,   6.7261578258)


Analysis of symmetry for initial positions (statically):
=====================================================================
 Subroutine PRICEL returns:
 Original cell was already a primitive cell.
 

 Routine SETGRP: Setting up the symmetry group for a 
 hexagonal supercell.


 Subroutine GETGRP returns: Found 12 space group operations
 (whereof 12 operations were pure point group operations)
 out of a pool of 24 trial point group operations.


The static configuration has the point symmetry D_3d.


Analysis of symmetry for dynamics (positions and initial velocities):
=====================================================================
 Subroutine PRICEL returns:
 Original cell was already a primitive cell.
 

 Routine SETGRP: Setting up the symmetry group for a 
 hexagonal supercell.


 Subroutine GETGRP returns: Found 12 space group operations
 (whereof 12 operations were pure point group operations)
 out of a pool of 24 trial point group operations.


The dynamic configuration has the point symmetry D_3d.


 Subroutine INISYM returns: Found 12 space group operations
 (whereof 12 operations are pure point group operations),
 and found     1 'primitive' translations


----------------------------------------------------------------------------------------

                                     Primitive cell                                     

  volume of cell :      72.7477

  direct lattice vectors                    reciprocal lattice vectors
     3.533953607 -0.000000000 -0.000000000     0.282969193  0.163372340 -0.000000000
    -1.766976804  3.060493600  0.000000000     0.000000000  0.326744679 -0.000000000
     0.000000000  0.000000000  6.726157826     0.000000000  0.000000000  0.148673288

  length of vectors
     3.533953607  3.533953607  6.726157826     0.326744679  0.326744679  0.148673288

  position of ions in fractional coordinates (direct lattice)
     0.000000000  0.000000000  0.500000319
     0.000000000  0.000000000  0.000000000
     0.333332921  0.666665842  0.799949691
     0.666665888  0.333332921  0.200050948

  ion indices of the primitive-cell ions
   primitive index   ion index
                 1           1
                 2           2
                 3           3
                 4           4

----------------------------------------------------------------------------------------



 KPOINTS: pymatgen with grid density = 600 / numbe

Automatic generation of k-mesh.
 Grid dimensions read from file:
 generate k-points for:    6    6    3

 Generating k-lattice:

  Cartesian coordinates                     Fractional coordinates (reciprocal lattice)
     0.047161532  0.027228723 -0.000000000     0.166666667 -0.000000000  0.000000000
     0.000000000  0.054457447 -0.000000000     0.000000000  0.166666667  0.000000000
     0.000000000  0.000000000  0.049557763     0.000000000  0.000000000  0.333333333

  Length of vectors
     0.054457447  0.054457447  0.049557763

  Shift w.r.t. Gamma in fractional coordinates (k-lattice)
     0.000000000  0.000000000  0.000000000

 
 Subroutine IBZKPT returns following result:
 ===========================================
 
 Found     17 irreducible k-points:
 
 Following reciprocal coordinates:
            Coordinates               Weight
  0.000000  0.000000  0.000000      1.000000
  0.166667  0.000000  0.000000      6.000000
  0.333333  0.000000  0.000000      6.000000
  0.500000  0.000000  0.000000      3.000000
  0.166667  0.166667  0.000000      6.000000
  0.333333  0.166667  0.000000     12.000000
  0.333333  0.333333  0.000000      2.000000
  0.000000  0.000000  0.333333      2.000000
  0.166667  0.000000  0.333333      6.000000
  0.000000  0.166667  0.333333      6.000000
  0.333333  0.000000  0.333333      6.000000
  0.000000  0.333333  0.333333      6.000000
  0.500000  0.000000  0.333333      6.000000
  0.166667  0.166667  0.333333     12.000000
  0.333333  0.166667  0.333333     12.000000
 -0.166667  0.500000  0.333333     12.000000
  0.333333  0.333333  0.333333      4.000000
 
 Following cartesian coordinates:
            Coordinates               Weight
  0.000000  0.000000  0.000000      1.000000
  0.047162  0.027229  0.000000      6.000000
  0.094323  0.054457  0.000000      6.000000
  0.141485  0.081686  0.000000      3.000000
  0.047162  0.081686  0.000000      6.000000
  0.094323  0.108915  0.000000     12.000000
  0.094323  0.163372  0.000000      2.000000
  0.000000  0.000000  0.049558      2.000000
  0.047162  0.027229  0.049558      6.000000
  0.000000  0.054457  0.049558      6.000000
  0.094323  0.054457  0.049558      6.000000
  0.000000  0.108915  0.049558      6.000000
  0.141485  0.081686  0.049558      6.000000
  0.047162  0.081686  0.049558     12.000000
  0.094323  0.108915  0.049558     12.000000
 -0.047162  0.136144  0.049558     12.000000
  0.094323  0.163372  0.049558      4.000000
 
 
 Subroutine IBZKPT_HF returns following result:
 ==============================================
 
 Found    108 k-points in 1st BZ
 the following    108 k-points will be used (e.g. in the exchange kernel)
 Following reciprocal coordinates:   # in IRBZ
  0.000000  0.000000  0.000000    0.00925926   1 t-inv F
  0.166667  0.000000  0.000000    0.00925926   2 t-inv F
  0.333333  0.000000  0.000000    0.00925926   3 t-inv F
  0.500000  0.000000  0.000000    0.00925926   4 t-inv F
  0.166667  0.166667  0.000000    0.00925926   5 t-inv F
  0.333333  0.166667  0.000000    0.00925926   6 t-inv F
  0.333333  0.333333  0.000000    0.00925926   7 t-inv F
  0.000000  0.000000  0.333333    0.00925926   8 t-inv F
  0.166667  0.000000  0.333333    0.00925926   9 t-inv F
  0.000000  0.166667  0.333333    0.00925926  10 t-inv F
  0.333333  0.000000  0.333333    0.00925926  11 t-inv F
  0.000000  0.333333  0.333333    0.00925926  12 t-inv F
  0.500000  0.000000  0.333333    0.00925926  13 t-inv F
  0.166667  0.166667  0.333333    0.00925926  14 t-inv F
  0.333333  0.166667  0.333333    0.00925926  15 t-inv F
 -0.166667  0.500000  0.333333    0.00925926  16 t-inv F
  0.333333  0.333333  0.333333    0.00925926  17 t-inv F
 -0.166667 -0.000000 -0.000000    0.00925926   2 t-inv F
 -0.166667  0.166667  0.000000    0.00925926   2 t-inv F
  0.166667 -0.166667 -0.000000    0.00925926   2 t-inv F
  0.000000 -0.166667  0.000000    0.00925926   2 t-inv F
 -0.000000  0.166667 -0.000000    0.00925926   2 t-inv F
 -0.333333 -0.000000 -0.000000    0.00925926   3 t-inv F
 -0.333333  0.333333  0.000000    0.00925926   3 t-inv F
  0.333333 -0.333333 -0.000000    0.00925926   3 t-inv F
  0.000000 -0.333333  0.000000    0.00925926   3 t-inv F
 -0.000000  0.333333 -0.000000    0.00925926   3 t-inv F
 -0.500000  0.500000  0.000000    0.00925926   4 t-inv F
  0.000000 -0.500000  0.000000    0.00925926   4 t-inv F
 -0.166667 -0.166667 -0.000000    0.00925926   5 t-inv F
 -0.333333  0.166667  0.000000    0.00925926   5 t-inv F
  0.333333 -0.166667 -0.000000    0.00925926   5 t-inv F
  0.166667 -0.333333  0.000000    0.00925926   5 t-inv F
 -0.166667  0.333333 -0.000000    0.00925926   5 t-inv F
 -0.333333 -0.166667 -0.000000    0.00925926   6 t-inv F
 -0.500000  0.333333  0.000000    0.00925926   6 t-inv F
  0.500000 -0.333333 -0.000000    0.00925926   6 t-inv F
  0.166667 -0.500000  0.000000    0.00925926   6 t-inv F
 -0.166667  0.500000 -0.000000    0.00925926   6 t-inv F
  0.333333 -0.500000 -0.000000    0.00925926   6 t-inv F
 -0.333333  0.500000  0.000000    0.00925926   6 t-inv F
 -0.500000  0.166667 -0.000000    0.00925926   6 t-inv F
  0.500000 -0.166667  0.000000    0.00925926   6 t-inv F
  0.166667  0.333333 -0.000000    0.00925926   6 t-inv F
 -0.166667 -0.333333  0.000000    0.00925926   6 t-inv F
 -0.333333 -0.333333 -0.000000    0.00925926   7 t-inv F
 -0.000000 -0.000000 -0.333333    0.00925926   8 t-inv F
 -0.166667 -0.000000 -0.333333    0.00925926   9 t-inv F
 -0.166667  0.166667  0.333333    0.00925926   9 t-inv F
  0.166667 -0.166667 -0.333333    0.00925926   9 t-inv F
  0.000000 -0.166667  0.333333    0.00925926   9 t-inv F
 -0.000000  0.166667 -0.333333    0.00925926   9 t-inv F
 -0.000000 -0.166667 -0.333333    0.00925926  10 t-inv F
 -0.166667  0.000000  0.333333    0.00925926  10 t-inv F
  0.166667 -0.000000 -0.333333    0.00925926  10 t-inv F
  0.166667 -0.166667  0.333333    0.00925926  10 t-inv F
 -0.166667  0.166667 -0.333333    0.00925926  10 t-inv F
 -0.333333 -0.000000 -0.333333    0.00925926  11 t-inv F
 -0.333333  0.333333  0.333333    0.00925926  11 t-inv F
  0.333333 -0.333333 -0.333333    0.00925926  11 t-inv F
  0.000000 -0.333333  0.333333    0.00925926  11 t-inv F
 -0.000000  0.333333 -0.333333    0.00925926  11 t-inv F
 -0.000000 -0.333333 -0.333333    0.00925926  12 t-inv F
 -0.333333  0.000000  0.333333    0.00925926  12 t-inv F
  0.333333 -0.000000 -0.333333    0.00925926  12 t-inv F
  0.333333 -0.333333  0.333333    0.00925926  12 t-inv F
 -0.333333  0.333333 -0.333333    0.00925926  12 t-inv F
 -0.500000 -0.000000 -0.333333    0.00925926  13 t-inv F
 -0.500000  0.500000  0.333333    0.00925926  13 t-inv F
  0.500000 -0.500000 -0.333333    0.00925926  13 t-inv F
  0.000000 -0.500000  0.333333    0.00925926  13 t-inv F
 -0.000000  0.500000 -0.333333    0.00925926  13 t-inv F
 -0.166667 -0.166667 -0.333333    0.00925926  14 t-inv F
 -0.333333  0.166667  0.333333    0.00925926  14 t-inv F
  0.333333 -0.166667 -0.333333    0.00925926  14 t-inv F
  0.166667 -0.333333  0.333333    0.00925926  14 t-inv F
 -0.166667  0.333333 -0.333333    0.00925926  14 t-inv F
  0.166667 -0.333333 -0.333333    0.00925926  14 t-inv F
 -0.166667  0.333333  0.333333    0.00925926  14 t-inv F
 -0.333333  0.166667 -0.333333    0.00925926  14 t-inv F
  0.333333 -0.166667  0.333333    0.00925926  14 t-inv F
  0.166667  0.166667 -0.333333    0.00925926  14 t-inv F
 -0.166667 -0.166667  0.333333    0.00925926  14 t-inv F
 -0.333333 -0.166667 -0.333333    0.00925926  15 t-inv F
 -0.500000  0.333333  0.333333    0.00925926  15 t-inv F
  0.500000 -0.333333 -0.333333    0.00925926  15 t-inv F
  0.166667 -0.500000  0.333333    0.00925926  15 t-inv F
 -0.166667  0.500000 -0.333333    0.00925926  15 t-inv F
  0.333333 -0.500000 -0.333333    0.00925926  15 t-inv F
 -0.333333  0.500000  0.333333    0.00925926  15 t-inv F
 -0.500000  0.166667 -0.333333    0.00925926  15 t-inv F
  0.500000 -0.166667  0.333333    0.00925926  15 t-inv F
  0.166667  0.333333 -0.333333    0.00925926  15 t-inv F
 -0.166667 -0.333333  0.333333    0.00925926  15 t-inv F
  0.166667 -0.500000 -0.333333    0.00925926  16 t-inv F
 -0.333333 -0.166667  0.333333    0.00925926  16 t-inv F
  0.333333  0.166667 -0.333333    0.00925926  16 t-inv F
  0.500000 -0.333333  0.333333    0.00925926  16 t-inv F
 -0.500000  0.333333 -0.333333    0.00925926  16 t-inv F
 -0.166667 -0.333333 -0.333333    0.00925926  16 t-inv F
  0.166667  0.333333  0.333333    0.00925926  16 t-inv F
 -0.333333  0.500000 -0.333333    0.00925926  16 t-inv F
  0.333333 -0.500000  0.333333    0.00925926  16 t-inv F
  0.500000 -0.166667 -0.333333    0.00925926  16 t-inv F
 -0.500000  0.166667  0.333333    0.00925926  16 t-inv F
 -0.333333 -0.333333 -0.333333    0.00925926  17 t-inv F
  0.333333 -0.666667 -0.333333    0.00925926  17 t-inv F
 -0.333333  0.666667  0.333333    0.00925926  17 t-inv F


--------------------------------------------------------------------------------------------------------




 Dimension of arrays:
   k-points           NKPTS =     17   k-points in BZ     NKDIM =     17   number of bands    NBANDS=     16
   number of dos      NEDOS =    301   number of ions     NIONS =      4
   non local maximal  LDIM  =      4   non local SUM 2l+1 LMDIM =      8
   total plane-waves  NPLWV =  11664
   max r-space proj   IRMAX =   1529   max aug-charges    IRDMAX=   5560
   dimension x,y,z NGX =    18 NGY =   18 NGZ =   36
   dimension x,y,z NGXF=    36 NGYF=   36 NGZF=   72
   support grid    NGXF=    36 NGYF=   36 NGZF=   72
   ions per type =               1   1   2
   NGX,Y,Z   is equivalent  to a cutoff of   8.47,  8.47,  8.90 a.u.
   NGXF,Y,Z  is equivalent  to a cutoff of  16.94, 16.94, 17.80 a.u.

 SYSTEM =  unknown system                          
 POSCAR =  Na1 Si1 S2                              

 Startparameter for this run:
   NWRITE =      2    write-flag & timer
   PREC   = normal    normal or accurate (medium, high low for compatibility)
   ISTART =      0    job   : 0-new  1-cont  2-samecut
   ICHARG =      2    charge: 1-file 2-atom 10-const
   ISPIN  =      1    spin polarized calculation?
   LNONCOLLINEAR =      F non collinear calculations
   LSORBIT =      F    spin-orbit coupling
   INIWAV =      1    electr: 0-lowe 1-rand  2-diag
   LASPH  =      F    aspherical Exc in radial PAW
 Electronic Relaxation 1
   ENCUT  =  400.0 eV  29.40 Ry    5.42 a.u.   5.76  5.76 10.97*2*pi/ulx,y,z
   ENINI  =  400.0     initial cutoff
   ENAUG  =  368.1 eV  augmentation charge cutoff
   NELM   =     60;   NELMIN=  2; NELMDL=  0     # of ELM steps 
   EDIFF  = 0.1E-05   stopping-criterion for ELM
   LREAL  =      T    real-space projection
   NLSPLINE    = F    spline interpolate recip. space projectors
   LCOMPAT=      F    compatible to vasp.4.4
   GGA_COMPAT  = T    GGA compatible to vasp.4.4-vasp.4.6
   LMAXPAW     = -100 max onsite density
   LMAXMIX     =    2 max onsite mixed and CHGCAR
   VOSKOWN=      0    Vosko Wilk Nusair interpolation
   ROPT   =   -0.00050  -0.00050  -0.00050
 Ionic relaxation
   EDIFFG = 0.1E-04   stopping-criterion for IOM
   NSW    =     85    number of steps for IOM
   NBLOCK =      1;   KBLOCK =     85    inner block; outer block 
   IBRION =      6    ionic relax: 0-MD 1-quasi-New 2-CG
   NFREE  =      4    steps in history (QN), initial steepest desc. (CG)
   ISIF   =      3    stress and relaxation
   IWAVPR =     11    prediction:  0-non 1-charg 2-wave 3-comb
   ISYM   =      2    0-nonsym 1-usesym 2-fastsym
   LCORR  =      T    Harris-Foulkes like correction to forces

   POTIM  = 0.0150    time-step for ionic-motion
   TEIN   =    0.0    initial temperature
   TEBEG  =    0.0;   TEEND  =   0.0 temperature during run
   SMASS  =  -3.00    Nose mass-parameter (am)
   estimated Nose-frequenzy (Omega)   =  0.10E-29 period in steps = 0.42E+48 mass=  -0.285E-27a.u.
   SCALEE = 1.0000    scale energy and forces
   NPACO  =    256;   APACO  = 10.0  distance and # of slots for P.C.
   PSTRESS=    0.0 pullay stress

  Mass of Ions in am
   POMASS =  22.99 28.09 32.07
  Ionic Valenz
   ZVAL   =   7.00  4.00  6.00
  Atomic Wigner-Seitz radii
   RWIGS  =  -1.00 -1.00 -1.00
  virtual crystal weights 
   VCA    =   1.00  1.00  1.00
   NELECT =      23.0000    total number of electrons
   NUPDOWN=      -1.0000    fix difference up-down

 DOS related values:
   EMIN   =  10.00;   EMAX   =-10.00  energy-range for DOS
   EFERMI =   0.00
   ISMEAR =     0;   SIGMA  =   0.05  broadening in eV -4-tet -1-fermi 0-gaus

 Electronic relaxation 2 (details)
   IALGO  =     38    algorithm
   LDIAG  =      T    sub-space diagonalisation (order eigenvalues)
   LSUBROT=      F    optimize rotation matrix (better conditioning)
   TURBO    =      0    0=normal 1=particle mesh
   IRESTART =      0    0=no restart 2=restart with 2 vectors
   NREBOOT  =      0    no. of reboots
   NMIN     =      0    reboot dimension
   EREF     =   0.00    reference energy to select bands
   IMIX   =      4    mixing-type and parameters
     AMIX     =   0.40;   BMIX     =  1.00
     AMIX_MAG =   1.60;   BMIX_MAG =  1.00
     AMIN     =   0.10
     WC   =   100.;   INIMIX=   1;  MIXPRE=   1;  MAXMIX= -45

 Intra band minimization:
   WEIMIN = 0.0010     energy-eigenvalue tresh-hold
   EBREAK =  0.16E-07  absolut break condition
   DEPER  =   0.30     relativ break condition  

   TIME   =   0.40     timestep for ELM

  volume/ion in A,a.u.               =      18.19       122.73
  Fermi-wavevector in a.u.,A,eV,Ry     =   1.115264  2.107543 16.923112  1.243814
  Thomas-Fermi vector in A             =   2.251867

 Write flags
   LWAVE        =      F    write WAVECAR
   LDOWNSAMPLE  =      F    k-point downsampling of WAVECAR
   LCHARG       =      F    write CHGCAR
   LVTOT        =      F    write LOCPOT, total local potential
   LVHAR        =      F    write LOCPOT, Hartree potential only
   LELF         =      F    write electronic localiz. function (ELF)
   LORBIT       =      0    0 simple, 1 ext, 2 COOP (PROOUT), +10 PAW based schemes


 Dipole corrections
   LMONO  =      F    monopole corrections only (constant potential shift)
   LDIPOL =      F    correct potential (dipole corrections)
   IDIPOL =      0    1-x, 2-y, 3-z, 4-all directions 
   EPSILON=  1.0000000 bulk dielectric constant

 Exchange correlation treatment:
   GGA     =    --    GGA type
   LEXCH   =     8    internal setting for exchange type
   LIBXC   =     F    Libxc                    
   VOSKOWN =     0    Vosko Wilk Nusair interpolation
   LHFCALC =     F    Hartree Fock is set to
   LHFONE  =     F    Hartree Fock one center treatment
   AEXX    =    0.0000 exact exchange contribution

 Linear response parameters
   LEPSILON=     F    determine dielectric tensor
   LRPA    =     F    only Hartree local field effects (RPA)
   LNABLA  =     F    use nabla operator in PAW spheres
   LVEL    =     F    velocity operator in full k-point grid
   CSHIFT  =0.1000    complex shift for real part using Kramers Kronig
   OMEGAMAX=  -1.0    maximum frequency
   DEG_THRESHOLD= 0.2000000E-02 threshold for treating states as degnerate
   RTIME   =   -0.100 relaxation time in fs
  (WPLASMAI=    0.000 imaginary part of plasma frequency in eV, 0.658/RTIME)
   DFIELD  = 0.0000000 0.0000000 0.0000000 field for delta impulse in time

  Optional k-point grid parameters
   LKPOINTS_OPT  =     F    use optional k-point grid
   KPOINTS_OPT_MODE=     1    mode for optional k-point grid

 Orbital magnetization related:
   ORBITALMAG=     F  switch on orbital magnetization
   LCHIMAG   =     F  perturbation theory with respect to B field
   DQ        =  0.001000  dq finite difference perturbation B field
   LLRAUG    =     F  two centre corrections for induced B field



--------------------------------------------------------------------------------------------------------


 finite differences with symmetry
 charge density and potential will be updated during run
 non-spin polarized calculation
 Variant of blocked Davidson
 Davidson routine will perform the subspace rotation
 perform sub-space diagonalisation
    after iterative eigenvector-optimisation
 modified Broyden-mixing scheme, WC =      100.0
 initial mixing is a Kerker type mixing with AMIX =  0.4000 and BMIX =      1.0000
 Hartree-type preconditioning will be used
 using additional bands            4
 real space projection scheme for non local part
 use partial core corrections
 calculate Harris-corrections to forces   (improved forces if not selfconsistent)
 use gradient corrections 
 use of overlap-Matrix (Vanderbilt PP)
 Gauss-broadening in eV      SIGMA  =   0.05


--------------------------------------------------------------------------------------------------------


  energy-cutoff  :      400.00
  volume of cell :       72.75
      direct lattice vectors                 reciprocal lattice vectors
     3.533953607 -0.000000000 -0.000000000     0.282969193  0.163372340 -0.000000000
    -1.766976804  3.060493600  0.000000000     0.000000000  0.326744679 -0.000000000
     0.000000000  0.000000000  6.726157826     0.000000000  0.000000000  0.148673288

  length of vectors
     3.533953607  3.533953607  6.726157826     0.326744679  0.326744679  0.148673288



 k-points in units of 2pi/SCALE and weight: pymatgen with grid density = 600 / numbe
   0.00000000  0.00000000  0.00000000       0.009
   0.04716153  0.02722872  0.00000000       0.056
   0.09432306  0.05445745  0.00000000       0.056
   0.14148460  0.08168617  0.00000000       0.028
   0.04716153  0.08168617  0.00000000       0.056
   0.09432306  0.10891489  0.00000000       0.111
   0.09432306  0.16337234  0.00000000       0.019
   0.00000000  0.00000000  0.04955776       0.019
   0.04716153  0.02722872  0.04955776       0.056
   0.00000000  0.05445745  0.04955776       0.056
   0.09432306  0.05445745  0.04955776       0.056
   0.00000000  0.10891489  0.04955776       0.056
   0.14148460  0.08168617  0.04955776       0.056
   0.04716153  0.08168617  0.04955776       0.111
   0.09432306  0.10891489  0.04955776       0.111
  -0.04716153  0.13614362  0.04955776       0.111
   0.09432306  0.16337234  0.04955776       0.037

 k-points in reciprocal lattice and weights: pymatgen with grid density = 600 / numbe
   0.00000000  0.00000000  0.00000000       0.009
   0.16666667  0.00000000  0.00000000       0.056
   0.33333333  0.00000000  0.00000000       0.056
   0.50000000  0.00000000  0.00000000       0.028
   0.16666667  0.16666667  0.00000000       0.056
   0.33333333  0.16666667  0.00000000       0.111
   0.33333333  0.33333333  0.00000000       0.019
   0.00000000  0.00000000  0.33333333       0.019
   0.16666667  0.00000000  0.33333333       0.056
   0.00000000  0.16666667  0.33333333       0.056
   0.33333333  0.00000000  0.33333333       0.056
   0.00000000  0.33333333  0.33333333       0.056
   0.50000000  0.00000000  0.33333333       0.056
   0.16666667  0.16666667  0.33333333       0.111
   0.33333333  0.16666667  0.33333333       0.111
  -0.16666667  0.50000000  0.33333333       0.111
   0.33333333  0.33333333  0.33333333       0.037

 position of ions in fractional coordinates (direct lattice) 
   0.00000000  0.00000000  0.50000032
   0.00000000  0.00000000  0.00000000
   0.33333292  0.66666584  0.79994969
   0.66666589  0.33333292  0.20005095

 position of ions in cartesian coordinates  (Angst):
   0.00000000  0.00000000  3.36308106
   0.00000000  0.00000000  0.00000000
  -0.00000000  2.04032654  5.38058788
   1.76697478  1.02016327  1.34557425



--------------------------------------------------------------------------------------------------------


 k-point   1 :   0.0000 0.0000 0.0000  plane waves:    1317
 k-point   2 :   0.1667 0.0000 0.0000  plane waves:    1318
 k-point   3 :   0.3333 0.0000 0.0000  plane waves:    1318
 k-point   4 :   0.5000 0.0000 0.0000  plane waves:    1316
 k-point   5 :   0.1667 0.1667 0.0000  plane waves:    1324
 k-point   6 :   0.3333 0.1667 0.0000  plane waves:    1322
 k-point   7 :   0.3333 0.3333 0.0000  plane waves:    1308
 k-point   8 :   0.0000 0.0000 0.3333  plane waves:    1312
 k-point   9 :   0.1667 0.0000 0.3333  plane waves:    1324
 k-point  10 :   0.0000 0.1667 0.3333  plane waves:    1324
 k-point  11 :   0.3333 0.0000 0.3333  plane waves:    1328
 k-point  12 :   0.0000 0.3333 0.3333  plane waves:    1328
 k-point  13 :   0.5000 0.0000 0.3333  plane waves:    1332
 k-point  14 :   0.1667 0.1667 0.3333  plane waves:    1318
 k-point  15 :   0.3333 0.1667 0.3333  plane waves:    1324
 k-point  16 :  -0.1667 0.5000 0.3333  plane waves:    1324
 k-point  17 :   0.3333 0.3333 0.3333  plane waves:    1335

 maximum and minimum number of plane-waves per node :      1335     1308

 maximum number of plane-waves:      1335
 maximum index in each direction: 
   IXMAX=    5   IYMAX=    5   IZMAX=   10
   IXMIN=   -6   IYMIN=   -6   IZMIN=  -11


 serial   3D FFT for wavefunctions
 parallel 3D FFT for charge:
    minimum data exchange during FFTs selected (reduces bandwidth)


 total amount of memory used by VASP MPI-rank0    33017. kBytes
=======================================================================

   base      :      30000. kBytes
   nonlr-proj:        457. kBytes
   fftplans  :        486. kBytes
   grid      :       1318. kBytes
   one-center:         12. kBytes
   wavefun   :        744. kBytes

     INWAV:  cpu time      0.0001: real time      0.0002
 Broyden mixing: mesh for mixing (old mesh)
   NGX = 11   NGY = 11   NGZ = 21
  (NGX  = 36   NGY  = 36   NGZ  = 72)
  gives a total of   2541 points

 initial charge density was supplied:
 charge density of overlapping atoms calculated
 number of electron      23.0000000 magnetization 
 keeping initial charge density in first step


--------------------------------------------------------------------------------------------------------


 Maximum index for non-local projection operator         1447
 Maximum index for augmentation-charges          815 (set IRDMAX)


--------------------------------------------------------------------------------------------------------


 First call to EWALD:  gamma=   0.425
 Maximum number of real-space cells 4x 4x 2
 Maximum number of reciprocal cells 2x 2x 4

    FEWALD:  cpu time      0.0005: real time      0.0005


--------------------------------------- Iteration      1(   1)  ---------------------------------------


    POTLOK:  cpu time      0.0089: real time      0.0636
    SETDIJ:  cpu time      0.0012: real time      0.0013
     EDDAV:  cpu time      0.1454: real time      0.1455
       DOS:  cpu time      0.0003: real time      0.0003
    --------------------------------------------
      LOOP:  cpu time      0.1559: real time      0.2106

 eigenvalue-minimisations  :   544
 total energy-change (2. order) : 0.1262039E+03  (-0.9436688E+03)
 number of electron      23.0000000 magnetization 
 augmentation part       23.0000000 magnetization 

 Free energy of the ion-electron system (eV)
  ---------------------------------------------------
  alpha Z        PSCENC =        32.33957086
  Ewald energy   TEWEN  =     -1049.14558693
  -Hartree energ DENC   =      -271.84492402
  -exchange      EXHF   =         0.00000000
  -V(xc)+E(xc)   XCENC  =        40.67781534
  PAW double counting   =      1025.43992223    -1090.03883641
  entropy T*S    EENTRO =        -0.00190739
  eigenvalues    EBANDS =        16.04172395
  atomic energy  EATOM  =      1422.73612946
  Solvation  Ediel_sol  =         0.00000000
  ---------------------------------------------------
  free energy    TOTEN  =       126.20390711 eV

  energy without entropy =      126.20581450  energy(sigma->0) =      126.20486080


--------------------------------------------------------------------------------------------------------




--------------------------------------- Iteration      1(   2)  ---------------------------------------


     EDDAV:  cpu time      0.1573: real time      0.1577
       DOS:  cpu time      0.0002: real time      0.0003
    --------------------------------------------
      LOOP:  cpu time      0.1575: real time      0.1579

 eigenvalue-minimisations  :   608
 total energy-change (2. order) :-0.1326541E+03  (-0.1308903E+03)
 number of electron      23.0000000 magnetization 
 augmentation part       23.0000000 magnetization 

 Free energy of the ion-electron system (eV)
  ---------------------------------------------------
  alpha Z        PSCENC =        32.33957086
  Ewald energy   TEWEN  =     -1049.14558693
  -Hartree energ DENC   =      -271.84492402
  -exchange      EXHF   =         0.00000000
  -V(xc)+E(xc)   XCENC  =        40.67781534
  PAW double counting   =      1025.43992223    -1090.03883641
  entropy T*S    EENTRO =        -0.00122327
  eigenvalues    EBANDS =      -116.61303072
  atomic energy  EATOM  =      1422.73612946
  Solvation  Ediel_sol  =         0.00000000
  ---------------------------------------------------
  free energy    TOTEN  =        -6.45016344 eV

  energy without entropy =       -6.44894017  energy(sigma->0) =       -6.44955181


--------------------------------------------------------------------------------------------------------




--------------------------------------- Iteration      1(   3)  ---------------------------------------


     EDDAV:  cpu time      0.1867: real time      0.1869
       DOS:  cpu time      0.0002: real time      0.0003
    --------------------------------------------
      LOOP:  cpu time      0.1869: real time      0.1872

 eigenvalue-minimisations  :   744
 total energy-change (2. order) :-0.1100074E+02  (-0.1096141E+02)
 number of electron      23.0000000 magnetization 
 augmentation part       23.0000000 magnetization 

 Free energy of the ion-electron system (eV)
  ---------------------------------------------------
  alpha Z        PSCENC =        32.33957086
  Ewald energy   TEWEN  =     -1049.14558693
  -Hartree energ DENC   =      -271.84492402
  -exchange      EXHF   =         0.00000000
  -V(xc)+E(xc)   XCENC  =        40.67781534
  PAW double counting   =      1025.43992223    -1090.03883641
  entropy T*S    EENTRO =        -0.00687282
  eigenvalues    EBANDS =      -127.60811655
  atomic energy  EATOM  =      1422.73612946
  Solvation  Ediel_sol  =         0.00000000
  ---------------------------------------------------
  free energy    TOTEN  =       -17.45089883 eV

  energy without entropy =      -17.44402601  energy(sigma->0) =      -17.44746242


--------------------------------------------------------------------------------------------------------




--------------------------------------- Iteration      1(   4)  ---------------------------------------


     EDDAV:  cpu time      0.1620: real time      0.1622
       DOS:  cpu time      0.0002: real time      0.0003
    --------------------------------------------
      LOOP:  cpu time      0.1623: real time      0.1625

 eigenvalue-minimisations  :   632
 total energy-change (2. order) :-0.1812535E+00  (-0.1791836E+00)
 number of electron      23.0000000 magnetization 
 augmentation part       23.0000000 magnetization 

 Free energy of the ion-electron system (eV)
  ---------------------------------------------------
  alpha Z        PSCENC =        32.33957086
  Ewald energy   TEWEN  =     -1049.14558693
  -Hartree energ DENC   =      -271.84492402
  -exchange      EXHF   =         0.00000000
  -V(xc)+E(xc)   XCENC  =        40.67781534
  PAW double counting   =      1025.43992223    -1090.03883641
  entropy T*S    EENTRO =        -0.00622181
  eigenvalues    EBANDS =      -127.79002105
  atomic energy  EATOM  =      1422.73612946
  Solvation  Ediel_sol  =         0.00000000
  ---------------------------------------------------
  free energy    TOTEN  =       -17.63215231 eV

  energy without entropy =      -17.62593050  energy(sigma->0) =      -17.62904141


--------------------------------------------------------------------------------------------------------




--------------------------------------- Iteration      1(   5)  ---------------------------------------


     EDDAV:  cpu time      0.1916: real time      0.1917
       DOS:  cpu time      0.0002: real time      0.0003
    CHARGE:  cpu time      0.0137: real time      0.0137
    MIXING:  cpu time      0.0003: real time      0.0004
    --------------------------------------------
      LOOP:  cpu time      0.2058: real time      0.2060

 eigenvalue-minimisations  :   760
 total energy-change (2. order) :-0.5096971E-02  (-0.5095646E-02)
 number of electron      22.9999903 magnetization 
 augmentation part        2.5311879 magnetization 

 Broyden mixing:
  rms(total) = 0.88349E+00    rms(broyden)= 0.88348E+00
  rms(prec ) = 0.99426E+00
  weight for this iteration     100.00

 Free energy of the ion-electron system (eV)
  ---------------------------------------------------
  alpha Z        PSCENC =        32.33957086
  Ewald energy   TEWEN  =     -1049.14558693
  -Hartree energ DENC   =      -271.84492402
  -exchange      EXHF   =         0.00000000
  -V(xc)+E(xc)   XCENC  =        40.67781534
  PAW double counting   =      1025.43992223    -1090.03883641
  entropy T*S    EENTRO =        -0.00619295
  eigenvalues    EBANDS =      -127.79514688
  atomic energy  EATOM  =      1422.73612946
  Solvation  Ediel_sol  =         0.00000000
  ---------------------------------------------------
  free energy    TOTEN  =       -17.63724928 eV

  energy without entropy =      -17.63105633  energy(sigma->0) =      -17.63415280


--------------------------------------------------------------------------------------------------------




--------------------------------------- Iteration      1(   6)  ---------------------------------------


    POTLOK:  cpu time      0.0082: real time      0.0084
    SETDIJ:  cpu time      0.0011: real time      0.0011
     EDDAV:  cpu time      0.1610: real time      0.1611
       DOS:  cpu time      0.0002: real time      0.0003
    CHARGE:  cpu time      0.0133: real time      0.0133
    MIXING:  cpu time      0.0003: real time      0.0003
    --------------------------------------------
      LOOP:  cpu time      0.1842: real time      0.1845

 eigenvalue-minimisations  :   632
 total energy-change (2. order) : 0.2943427E+00  (-0.7291875E-01)
 number of electron      22.9999903 magnetization 
 augmentation part        2.5651285 magnetization 

 Broyden mixing:
  rms(total) = 0.60335E+00    rms(broyden)= 0.60335E+00
  rms(prec ) = 0.63389E+00
  weight for this iteration     100.00

 eigenvalues of (default mixing * dielectric matrix)
  average eigenvalue GAMMA=   2.7587
  2.7587

 Free energy of the ion-electron system (eV)
  ---------------------------------------------------
  alpha Z        PSCENC =        32.33957086
  Ewald energy   TEWEN  =     -1049.14558693
  -Hartree energ DENC   =      -274.65195682
  -exchange      EXHF   =         0.00000000
  -V(xc)+E(xc)   XCENC  =        41.09274912
  PAW double counting   =      1315.96705555    -1380.61463658
  entropy T*S    EENTRO =        -0.00611902
  eigenvalues    EBANDS =      -125.06011227
  atomic energy  EATOM  =      1422.73612946
  Solvation  Ediel_sol  =         0.00000000
  ---------------------------------------------------
  free energy    TOTEN  =       -17.34290662 eV

  energy without entropy =      -17.33678760  energy(sigma->0) =      -17.33984711


--------------------------------------------------------------------------------------------------------




--------------------------------------- Iteration      1(   7)  ---------------------------------------


    POTLOK:  cpu time      0.0080: real time      0.0081
    SETDIJ:  cpu time      0.0011: real time      0.0011
     EDDAV:  cpu time      0.1823: real time      0.1823
       DOS:  cpu time      0.0002: real time      0.0003
    CHARGE:  cpu time      0.0133: real time      0.0133
    MIXING:  cpu time      0.0003: real time      0.0003
    --------------------------------------------
      LOOP:  cpu time      0.2052: real time      0.2054

 eigenvalue-minimisations  :   728
 total energy-change (2. order) : 0.2359983E-01  (-0.2828772E-01)
 number of electron      22.9999903 magnetization 
 augmentation part        2.5869990 magnetization 

 Broyden mixing:
  rms(total) = 0.13954E+00    rms(broyden)= 0.13954E+00
  rms(prec ) = 0.15228E+00
  weight for this iteration     100.00

 eigenvalues of (default mixing * dielectric matrix)
  average eigenvalue GAMMA=   1.7568
  1.2234  2.2903

 Free energy of the ion-electron system (eV)
  ---------------------------------------------------
  alpha Z        PSCENC =        32.33957086
  Ewald energy   TEWEN  =     -1049.14558693
  -Hartree energ DENC   =      -276.15420623
  -exchange      EXHF   =         0.00000000
  -V(xc)+E(xc)   XCENC  =        41.46870808
  PAW double counting   =      1844.91188361    -1909.80902337
  entropy T*S    EENTRO =        -0.00622705
  eigenvalues    EBANDS =      -123.66055523
  atomic energy  EATOM  =      1422.73612946
  Solvation  Ediel_sol  =         0.00000000
  ---------------------------------------------------
  free energy    TOTEN  =       -17.31930679 eV

  energy without entropy =      -17.31307974  energy(sigma->0) =      -17.31619327


--------------------------------------------------------------------------------------------------------




--------------------------------------- Iteration      1(   8)  ---------------------------------------


    POTLOK:  cpu time      0.0080: real time      0.0082
    SETDIJ:  cpu time      0.0011: real time      0.0011
     EDDAV:  cpu time      0.1561: real time      0.1561
       DOS:  cpu time      0.0002: real time      0.0003
    CHARGE:  cpu time      0.0134: real time      0.0134
    MIXING:  cpu time      0.0003: real time      0.0003
    --------------------------------------------
      LOOP:  cpu time      0.1791: real time      0.1794

 eigenvalue-minimisations  :   616
 total energy-change (2. order) : 0.2481911E-02  (-0.1748089E-02)
 number of electron      22.9999903 magnetization 
 augmentation part        2.5836233 magnetization 

 Broyden mixing:
  rms(total) = 0.35737E-01    rms(broyden)= 0.35737E-01
  rms(prec ) = 0.40643E-01
  weight for this iteration     100.00

 eigenvalues of (default mixing * dielectric matrix)
  average eigenvalue GAMMA=   1.7022
  2.4744  1.1162  1.5159

 Free energy of the ion-electron system (eV)
  ---------------------------------------------------
  alpha Z        PSCENC =        32.33957086
  Ewald energy   TEWEN  =     -1049.14558693
  -Hartree energ DENC   =      -275.61348863
  -exchange      EXHF   =         0.00000000
  -V(xc)+E(xc)   XCENC  =        41.48566941
  PAW double counting   =      1953.79502667    -2018.83530904
  entropy T*S    EENTRO =        -0.00621839
  eigenvalues    EBANDS =      -124.07261830
  atomic energy  EATOM  =      1422.73612946
  Solvation  Ediel_sol  =         0.00000000
  ---------------------------------------------------
  free energy    TOTEN  =       -17.31682488 eV

  energy without entropy =      -17.31060649  energy(sigma->0) =      -17.31371569


--------------------------------------------------------------------------------------------------------




--------------------------------------- Iteration      1(   9)  ---------------------------------------


    POTLOK:  cpu time      0.0081: real time      0.0082
    SETDIJ:  cpu time      0.0011: real time      0.0011
     EDDAV:  cpu time      0.1845: real time      0.1845
       DOS:  cpu time      0.0002: real time      0.0003
    CHARGE:  cpu time      0.0140: real time      0.0140
    MIXING:  cpu time      0.0004: real time      0.0004
    --------------------------------------------
      LOOP:  cpu time      0.2083: real time      0.2085

 eigenvalue-minimisations  :   704
 total energy-change (2. order) :-0.4008006E-03  (-0.2651201E-03)
 number of electron      22.9999903 magnetization 
 augmentation part        2.5816355 magnetization 

 Broyden mixing:
  rms(total) = 0.10904E-01    rms(broyden)= 0.10903E-01
  rms(prec ) = 0.12124E-01
  weight for this iteration     100.00

 eigenvalues of (default mixing * dielectric matrix)
  average eigenvalue GAMMA=   1.6024
  2.2386  1.0960  1.6287  1.4461

 Free energy of the ion-electron system (eV)
  ---------------------------------------------------
  alpha Z        PSCENC =        32.33957086
  Ewald energy   TEWEN  =     -1049.14558693
  -Hartree energ DENC   =      -275.42851202
  -exchange      EXHF   =         0.00000000
  -V(xc)+E(xc)   XCENC  =        41.49868414
  PAW double counting   =      1980.74869202    -2045.83941930
  entropy T*S    EENTRO =        -0.00619602
  eigenvalues    EBANDS =      -124.22058790
  atomic energy  EATOM  =      1422.73612946
  Solvation  Ediel_sol  =         0.00000000
  ---------------------------------------------------
  free energy    TOTEN  =       -17.31722568 eV

  energy without entropy =      -17.31102966  energy(sigma->0) =      -17.31412767


--------------------------------------------------------------------------------------------------------




--------------------------------------- Iteration      1(  10)  ---------------------------------------


    POTLOK:  cpu time      0.0084: real time      0.0085
    SETDIJ:  cpu time      0.0012: real time      0.0012
     EDDAV:  cpu time      0.1746: real time      0.1747
       DOS:  cpu time      0.0003: real time      0.0004
    CHARGE:  cpu time      0.0135: real time      0.0135
    MIXING:  cpu time      0.0004: real time      0.0004
    --------------------------------------------
      LOOP:  cpu time      0.1983: real time      0.1987

 eigenvalue-minimisations  :   680
 total energy-change (2. order) :-0.6682542E-04  (-0.1706484E-04)
 number of electron      22.9999903 magnetization 
 augmentation part        2.5817938 magnetization 

 Broyden mixing:
  rms(total) = 0.41316E-02    rms(broyden)= 0.41316E-02
  rms(prec ) = 0.55945E-02
  weight for this iteration     100.00

 eigenvalues of (default mixing * dielectric matrix)
  average eigenvalue GAMMA=   1.7085
  2.4838  2.4838  1.0931  1.2409  1.2409

 Free energy of the ion-electron system (eV)
  ---------------------------------------------------
  alpha Z        PSCENC =        32.33957086
  Ewald energy   TEWEN  =     -1049.14558693
  -Hartree energ DENC   =      -275.43284998
  -exchange      EXHF   =         0.00000000
  -V(xc)+E(xc)   XCENC  =        41.49948480
  PAW double counting   =      1965.63333434    -2030.72432228
  entropy T*S    EENTRO =        -0.00619418
  eigenvalues    EBANDS =      -124.21685861
  atomic energy  EATOM  =      1422.73612946
  Solvation  Ediel_sol  =         0.00000000
  ---------------------------------------------------
  free energy    TOTEN  =       -17.31729251 eV

  energy without entropy =      -17.31109833  energy(sigma->0) =      -17.31419542


--------------------------------------------------------------------------------------------------------




--------------------------------------- Iteration      1(  11)  ---------------------------------------


    POTLOK:  cpu time      0.0084: real time      0.0085
    SETDIJ:  cpu time      0.0011: real time      0.0011
     EDDAV:  cpu time      0.1588: real time      0.1588
       DOS:  cpu time      0.0002: real time      0.0003
    CHARGE:  cpu time      0.0132: real time      0.0132
    MIXING:  cpu time      0.0003: real time      0.0003
    --------------------------------------------
      LOOP:  cpu time      0.1820: real time      0.1822

 eigenvalue-minimisations  :   632
 total energy-change (2. order) :-0.5166130E-04  (-0.7412304E-05)
 number of electron      22.9999903 magnetization 
 augmentation part        2.5817452 magnetization 

 Broyden mixing:
  rms(total) = 0.88231E-03    rms(broyden)= 0.88227E-03
  rms(prec ) = 0.12030E-02
  weight for this iteration     100.00

 eigenvalues of (default mixing * dielectric matrix)
  average eigenvalue GAMMA=   1.7447
  2.8146  2.4555  1.6685  1.0300  1.2498  1.2498

 Free energy of the ion-electron system (eV)
  ---------------------------------------------------
  alpha Z        PSCENC =        32.33957086
  Ewald energy   TEWEN  =     -1049.14558693
  -Hartree energ DENC   =      -275.39528910
  -exchange      EXHF   =         0.00000000
  -V(xc)+E(xc)   XCENC  =        41.50238181
  PAW double counting   =      1961.10119749    -2026.20629905
  entropy T*S    EENTRO =        -0.00619224
  eigenvalues    EBANDS =      -124.24325647
  atomic energy  EATOM  =      1422.73612946
  Solvation  Ediel_sol  =         0.00000000
  ---------------------------------------------------
  free energy    TOTEN  =       -17.31734417 eV

  energy without entropy =      -17.31115193  energy(sigma->0) =      -17.31424805


--------------------------------------------------------------------------------------------------------




--------------------------------------- Iteration      1(  12)  ---------------------------------------


    POTLOK:  cpu time      0.0079: real time      0.0081
    SETDIJ:  cpu time      0.0011: real time      0.0011
     EDDAV:  cpu time      0.1817: real time      0.1817
       DOS:  cpu time      0.0002: real time      0.0003
    CHARGE:  cpu time      0.0132: real time      0.0132
    MIXING:  cpu time      0.0004: real time      0.0004
    --------------------------------------------
      LOOP:  cpu time      0.2045: real time      0.2047

 eigenvalue-minimisations  :   744
 total energy-change (2. order) :-0.1765760E-05  (-0.5001847E-06)
 number of electron      22.9999903 magnetization 
 augmentation part        2.5817789 magnetization 

 Broyden mixing:
  rms(total) = 0.88934E-03    rms(broyden)= 0.88932E-03
  rms(prec ) = 0.92446E-03
  weight for this iteration     100.00

 eigenvalues of (default mixing * dielectric matrix)
  average eigenvalue GAMMA=   1.7179
  2.8787  2.6064  2.2132  1.2210  1.2210  1.0913  0.7940

 Free energy of the ion-electron system (eV)
  ---------------------------------------------------
  alpha Z        PSCENC =        32.33957086
  Ewald energy   TEWEN  =     -1049.14558693
  -Hartree energ DENC   =      -275.40053079
  -exchange      EXHF   =         0.00000000
  -V(xc)+E(xc)   XCENC  =        41.50365418
  PAW double counting   =      1961.65833548    -2026.76543387
  entropy T*S    EENTRO =        -0.00619179
  eigenvalues    EBANDS =      -124.23729255
  atomic energy  EATOM  =      1422.73612946
  Solvation  Ediel_sol  =         0.00000000
  ---------------------------------------------------
  free energy    TOTEN  =       -17.31734594 eV

  energy without entropy =      -17.31115415  energy(sigma->0) =      -17.31425004


--------------------------------------------------------------------------------------------------------




--------------------------------------- Iteration      1(  13)  ---------------------------------------


    POTLOK:  cpu time      0.0079: real time      0.0080
    SETDIJ:  cpu time      0.0011: real time      0.0011
     EDDAV:  cpu time      0.1322: real time      0.1322
       DOS:  cpu time      0.0002: real time      0.0003
    --------------------------------------------
      LOOP:  cpu time      0.1414: real time      0.1416

 eigenvalue-minimisations  :   496
 total energy-change (2. order) :-0.6392352E-06  (-0.9028136E-07)
 number of electron      22.9999903 magnetization 
 augmentation part        2.5817789 magnetization 

 Free energy of the ion-electron system (eV)
  ---------------------------------------------------
  alpha Z        PSCENC =        32.33957086
  Ewald energy   TEWEN  =     -1049.14558693
  -Hartree energ DENC   =      -275.40475485
  -exchange      EXHF   =         0.00000000
  -V(xc)+E(xc)   XCENC  =        41.50376693
  PAW double counting   =      1960.85371078    -2025.96089821
  entropy T*S    EENTRO =        -0.00619143
  eigenvalues    EBANDS =      -124.23309319
  atomic energy  EATOM  =      1422.73612946
  Solvation  Ediel_sol  =         0.00000000
  ---------------------------------------------------
  free energy    TOTEN  =       -17.31734658 eV

  energy without entropy =      -17.31115515  energy(sigma->0) =      -17.31425086


--------------------------------------------------------------------------------------------------------




 average (electrostatic) potential at core
  the test charge radii are     0.9254  0.9892  0.9698
  (the norm of the test charge is              1.0000)
       1 -44.4156       2 -84.8495       3 -86.3530       4 -86.3530



 E-fermi :   6.1150     XC(G=0):  -9.6050     alpha+bet :-11.3217

 Fermi energy:         6.1149749823

 k-point     1 :       0.0000    0.0000    0.0000
  band No.  band energies     occupation 
      1     -18.6070      2.00000
      2     -18.6041      2.00000
      3     -18.6040      2.00000
      4      -9.8316      2.00000
      5      -7.8383      2.00000
      6      -1.5863      2.00000
      7       3.2420      2.00000
      8       3.4616      2.00000
      9       3.4616      2.00000
     10       3.4807      2.00000
     11       3.4807      2.00000
     12       5.6375      2.00000
     13       7.6327      0.00000
     14       8.8219      0.00000
     15       8.8219      0.00000
     16       9.1374      0.00000

 k-point     2 :       0.1667    0.0000    0.0000
  band No.  band energies     occupation 
      1     -18.6175      2.00000
      2     -18.6071      2.00000
      3     -18.6038      2.00000
      4      -9.5084      2.00000
      5      -7.6577      2.00000
      6      -1.4606      2.00000
      7       1.2515      2.00000
      8       2.4042      2.00000
      9       2.5373      2.00000
     10       3.2563      2.00000
     11       3.8038      2.00000
     12       6.8020      0.00000
     13       7.6804      0.00000
     14       9.1458      0.00000
     15       9.3624      0.00000
     16      10.4713      0.00000

 k-point     3 :       0.3333    0.0000    0.0000
  band No.  band energies     occupation 
      1     -18.6440      2.00000
      2     -18.6131      2.00000
      3     -18.5974      2.00000
      4      -8.6336      2.00000
      5      -7.3195      2.00000
      6      -2.1344      2.00000
      7      -0.2739      2.00000
      8       1.1312      2.00000
      9       1.7321      2.00000
     10       3.0740      2.00000
     11       3.5622      2.00000
     12       5.6173      2.00000
     13       8.2444      0.00000
     14       9.6562      0.00000
     15       9.9686      0.00000
     16      10.3036      0.00000

 k-point     4 :       0.5000    0.0000    0.0000
  band No.  band energies     occupation 
      1     -18.6572      2.00000
      2     -18.6162      2.00000
      3     -18.5942      2.00000
      4      -7.7947      2.00000
      5      -7.3998      2.00000
      6      -3.0115      2.00000
      7      -0.7592      2.00000
      8       1.3335      2.00000
      9       1.4349      2.00000
     10       2.6783      2.00000
     11       3.4035      2.00000
     12       4.9728      2.00000
     13       8.1468      0.00000
     14       9.3837      0.00000
     15      10.0179      0.00000
     16      10.7698      0.00000

 k-point     5 :       0.1667    0.1667    0.0000
  band No.  band energies     occupation 
      1     -18.6349      2.00000
      2     -18.6142      2.00000
      3     -18.5991      2.00000
      4      -8.9052      2.00000
      5      -7.3841      2.00000
      6      -1.6999      2.00000
      7       0.3651      2.00000
      8       0.4633      2.00000
      9       2.4585      2.00000
     10       2.6240      2.00000
     11       3.4449      2.00000
     12       6.7604      0.00000
     13       8.7986      0.00000
     14       8.9847      0.00000
     15       9.9179      0.00000
     16      10.8643      0.00000

 k-point     6 :       0.3333    0.1667    0.0000
  band No.  band energies     occupation 
      1     -18.6503      2.00000
      2     -18.6231      2.00000
      3     -18.5942      2.00000
      4      -7.9511      2.00000
      5      -7.2318      2.00000
      6      -2.8242      2.00000
      7      -0.4659      2.00000
      8       0.5173      2.00000
      9       1.2805      2.00000
     10       2.4548      2.00000
     11       3.0802      2.00000
     12       6.0613      1.87081
     13       9.2324      0.00000
     14       9.5548      0.00000
     15      10.1384      0.00000
     16      10.9784      0.00000

 k-point     7 :       0.3333    0.3333    0.0000
  band No.  band energies     occupation 
      1     -18.6407      2.00000
      2     -18.6407      2.00000
      3     -18.5926      2.00000
      4      -7.3545      2.00000
      5      -7.3545      2.00000
      6      -3.2150      2.00000
      7      -0.0529      2.00000
      8      -0.0529      2.00000
      9       0.4319      2.00000
     10       2.6245      2.00000
     11       2.6245      2.00000
     12       6.1134      1.03578
     13      10.0872      0.00000
     14      10.0872      0.00000
     15      11.1854      0.00000
     16      11.5361      0.00000

 k-point     8 :       0.0000    0.0000    0.3333
  band No.  band energies     occupation 
      1     -18.6071      2.00000
      2     -18.6041      2.00000
      3     -18.6040      2.00000
      4      -9.7883      2.00000
      5      -7.9378      2.00000
      6      -1.1827      2.00000
      7       2.2242      2.00000
      8       3.4555      2.00000
      9       3.4555      2.00000
     10       3.4917      2.00000
     11       3.4917      2.00000
     12       6.3310      0.00000
     13       7.6116      0.00000
     14       8.7521      0.00000
     15       8.7521      0.00000
     16       9.6753      0.00000

 k-point     9 :       0.1667    0.0000    0.3333
  band No.  band energies     occupation 
      1     -18.6175      2.00000
      2     -18.6071      2.00000
      3     -18.6040      2.00000
      4      -9.4691      2.00000
      5      -7.7430      2.00000
      6      -1.1883      2.00000
      7       1.4025      2.00000
      8       2.1420      2.00000
      9       2.5536      2.00000
     10       2.7408      2.00000
     11       3.7731      2.00000
     12       6.7761      0.00000
     13       8.5264      0.00000
     14       9.3090      0.00000
     15       9.3955      0.00000
     16       9.7571      0.00000

 k-point    10 :       0.0000    0.1667    0.3333
  band No.  band energies     occupation 
      1     -18.6175      2.00000
      2     -18.6071      2.00000
      3     -18.6040      2.00000
      4      -9.4697      2.00000
      5      -7.7418      2.00000
      6      -1.1679      2.00000
      7       1.1822      2.00000
      8       2.4717      2.00000
      9       2.5406      2.00000
     10       2.6477      2.00000
     11       3.8000      2.00000
     12       6.8715      0.00000
     13       8.1392      0.00000
     14       9.2179      0.00000
     15       9.3007      0.00000
     16      10.4560      0.00000

 k-point    11 :       0.3333    0.0000    0.3333
  band No.  band energies     occupation 
      1     -18.6441      2.00000
      2     -18.6132      2.00000
      3     -18.5975      2.00000
      4      -8.6049      2.00000
      5      -7.3665      2.00000
      6      -2.1563      2.00000
      7      -0.1934      2.00000
      8       1.3943      2.00000
      9       1.7443      2.00000
     10       2.6943      2.00000
     11       3.5282      2.00000
     12       5.5358      2.00000
     13       8.6489      0.00000
     14       9.0827      0.00000
     15      10.1516      0.00000
     16      10.5168      0.00000

 k-point    12 :       0.0000    0.3333    0.3333
  band No.  band energies     occupation 
      1     -18.6441      2.00000
      2     -18.6132      2.00000
      3     -18.5975      2.00000
      4      -8.6093      2.00000
      5      -7.3594      2.00000
      6      -2.1105      2.00000
      7      -0.3627      2.00000
      8       1.4279      2.00000
      9       1.7393      2.00000
     10       2.8643      2.00000
     11       3.5413      2.00000
     12       5.6775      2.00000
     13       8.1710      0.00000
     14       8.9839      0.00000
     15      10.0533      0.00000
     16      10.3998      0.00000

 k-point    13 :       0.5000    0.0000    0.3333
  band No.  band energies     occupation 
      1     -18.6573      2.00000
      2     -18.6162      2.00000
      3     -18.5944      2.00000
      4      -7.7917      2.00000
      5      -7.3969      2.00000
      6      -3.0309      2.00000
      7      -0.8813      2.00000
      8       1.4442      2.00000
      9       1.5672      2.00000
     10       2.7834      2.00000
     11       3.3745      2.00000
     12       4.9466      2.00000
     13       8.3964      0.00000
     14       8.8782      0.00000
     15       9.3889      0.00000
     16      10.2130      0.00000

 k-point    14 :       0.1667    0.1667    0.3333
  band No.  band energies     occupation 
      1     -18.6349      2.00000
      2     -18.6142      2.00000
      3     -18.5991      2.00000
      4      -8.8743      2.00000
      5      -7.4415      2.00000
      6      -1.6436      2.00000
      7       0.2572      2.00000
      8       0.7589      2.00000
      9       2.3016      2.00000
     10       2.7194      2.00000
     11       3.1530      2.00000
     12       6.7327      0.00000
     13       8.4141      0.00000
     14       9.5056      0.00000
     15      10.2682      0.00000
     16      10.7124      0.00000

 k-point    15 :       0.3333    0.1667    0.3333
  band No.  band energies     occupation 
      1     -18.6503      2.00000
      2     -18.6231      2.00000
      3     -18.5944      2.00000
      4      -7.9348      2.00000
      5      -7.2495      2.00000
      6      -2.8297      2.00000
      7      -0.5362      2.00000
      8       0.4667      2.00000
      9       1.3818      2.00000
     10       2.5796      2.00000
     11       3.1633      2.00000
     12       6.0800      1.67750
     13       8.6444      0.00000
     14       9.7787      0.00000
     15       9.9957      0.00000
     16      10.2374      0.00000

 k-point    16 :      -0.1667    0.5000    0.3333
  band No.  band energies     occupation 
      1     -18.6503      2.00000
      2     -18.6231      2.00000
      3     -18.5944      2.00000
      4      -7.9388      2.00000
      5      -7.2441      2.00000
      6      -2.8200      2.00000
      7      -0.5986      2.00000
      8       0.5380      2.00000
      9       1.3043      2.00000
     10       2.6973      2.00000
     11       3.1300      2.00000
     12       6.1329      0.61239
     13       8.5387      0.00000
     14       9.5763      0.00000
     15       9.8783      0.00000
     16      10.3683      0.00000

 k-point    17 :       0.3333    0.3333    0.3333
  band No.  band energies     occupation 
      1     -18.6408      2.00000
      2     -18.6407      2.00000
      3     -18.5930      2.00000
      4      -7.3533      2.00000
      5      -7.3532      2.00000
      6      -3.1912      2.00000
      7      -0.1465      2.00000
      8      -0.1465      2.00000
      9       0.3315      2.00000
     10       2.8910      2.00000
     11       2.8910      2.00000
     12       6.4829      0.00000
     13       8.9790      0.00000
     14       8.9791      0.00000
     15      10.5987      0.00000
     16      11.9910      0.00000


--------------------------------------------------------------------------------------------------------


 soft charge-density along one line, spin component           1
         0         1         2         3         4         5         6         7         8         9
 total charge-density along one line

 pseudopotential strength for first ion, spin component:           1
-23.382   0.000   0.000   1.605  -0.000  -0.000   0.000   0.000
  0.000 -23.361  -0.000  -0.000   1.596   0.000   0.000   0.000
  0.000  -0.000 -23.382  -0.000   0.000   1.605   0.000   0.000
  1.605  -0.000  -0.000   6.915  -0.000  -0.000  -0.000   0.000
 -0.000   1.596   0.000  -0.000   6.916   0.000  -0.000   0.000
 -0.000   0.000   1.605  -0.000   0.000   6.915  -0.000   0.000
  0.000   0.000   0.000  -0.000  -0.000  -0.000   1.438   6.970
  0.000   0.000   0.000   0.000   0.000   0.000   6.970  33.636
 total augmentation occupancy for first ion, spin component:           1
  2.001   0.000  -0.000   0.000  -0.000  -0.000   0.000   0.000
  0.000   2.001  -0.000   0.000  -0.003  -0.000   0.000   0.000
 -0.000  -0.000   2.001  -0.000  -0.000   0.000   0.000   0.000
  0.000  -0.000  -0.000   0.019  -0.000  -0.000   0.000   0.000
 -0.000  -0.003  -0.000  -0.000   0.024   0.000   0.000   0.000
 -0.000  -0.000   0.000  -0.000   0.000   0.019   0.000   0.000
  0.000   0.000   0.000   0.000   0.000   0.000   0.544  -0.001
  0.000   0.000   0.000   0.000   0.000   0.000  -0.001   0.000


------------------------ aborting loop because EDIFF is reached ----------------------------------------


    CHARGE:  cpu time      0.0134: real time      0.0134
    FORLOC:  cpu time      0.0008: real time      0.0008
    FORNL :  cpu time      0.0507: real time      0.0507
    STRESS:  cpu time      0.1527: real time      0.1527
    FORCOR:  cpu time      0.0082: real time      0.0082
    FORHAR:  cpu time      0.0025: real time      0.0025
    MIXING:  cpu time      0.0003: real time      0.0003
    OFIELD:  cpu time      0.0000: real time      0.0000

  FORCE on cell =-STRESS in cart. coord.  units (eV):
  Direction    XX          YY          ZZ          XY          YZ          ZX
  --------------------------------------------------------------------------------------
  Alpha Z    32.33957    32.33957    32.33957
  Ewald    -363.35986  -363.35965  -322.42660     0.00017    -0.00002     0.00003
  Hartree    82.27684    82.27683   110.84826    -0.00001    -0.00000     0.00000
  E(xc)     -93.10981   -93.10992   -93.15744    -0.00010     0.00000    -0.00000
  Local     -59.58876   -59.58877  -130.39223    -0.00000    -0.00000    -0.00000
  n-local   161.42768   159.98759   161.77735    -1.34602    -0.58042     0.53074
  augment     0.90936     0.90931     0.98533    -0.00005    -0.00001     0.00001
  Kinetic   238.85665   240.78766   240.11068    -7.29514    -1.06454     0.70542
  Fock        0.00000     0.00000     0.00000     0.00000     0.00000     0.00000
  -------------------------------------------------------------------------------------
  Total      -0.00286    -0.00286     0.08493     0.00000     0.00000     0.00000
  in kB      -0.06290    -0.06290     1.87049     0.00000     0.00000     0.00000
  external pressure =        0.58 kB  Pullay stress =        0.00 kB


 VOLUME and BASIS-vectors are now :
 -----------------------------------------------------------------------------
  energy-cutoff  :      400.00
  volume of cell :       72.75
      direct lattice vectors                 reciprocal lattice vectors
     3.533953607 -0.000000000 -0.000000000     0.282969193  0.163372340 -0.000000000
    -1.766976804  3.060493600  0.000000000     0.000000000  0.326744679 -0.000000000
     0.000000000  0.000000000  6.726157826     0.000000000  0.000000000  0.148673288

  length of vectors
     3.533953607  3.533953607  6.726157826     0.326744679  0.326744679  0.148673288


 FORCES acting on ions
    electron-ion (+dipol)            ewald-force                    non-local-force                 convergence-correction
 -----------------------------------------------------------------------------------------------
   -.423E-05 -.792E-05 -.915E-04   -.303E-04 -.568E-04 -.162E-03   -.690E-21 0.988E-22 -.594E-22   0.402E-07 0.753E-07 -.500E-05
   -.748E-05 -.140E-04 -.100E-03   -.552E-04 -.103E-03 0.184E-03   0.621E-21 -.947E-21 0.539E-21   0.132E-07 0.247E-07 0.218E-05
   -.410E-06 0.136E-02 0.184E+02   -.756E-05 0.111E-03 -.213E+02   0.731E-17 -.620E-17 0.290E+01   0.192E-07 -.126E-06 0.790E-03
   0.109E-02 0.677E-03 -.184E+02   0.931E-04 0.487E-04 0.213E+02   0.689E-17 0.369E-16 -.290E+01   -.111E-06 -.454E-07 -.787E-03
 -----------------------------------------------------------------------------------------------
   0.108E-02 0.201E-02 -.266E-02   0.110E-14 0.712E-15 0.000E+00   0.142E-16 0.307E-16 0.000E+00   -.381E-07 -.714E-07 -.254E-06


 POSITION                                       TOTAL-FORCE (eV/Angst)
 -----------------------------------------------------------------------------------
      0.00000      0.00000      3.36308         0.000000      0.000000     -0.000000
      0.00000      0.00000      0.00000         0.000000      0.000000      0.000000
     -0.00000      2.04033      5.38059         0.000000      0.000000     -0.030602
      1.76697      1.02016      1.34557        -0.000000     -0.000000      0.030602
 -----------------------------------------------------------------------------------
    total drift:                                0.001076      0.002015     -0.002663


--------------------------------------------------------------------------------------------------------



  FREE ENERGIE OF THE ION-ELECTRON SYSTEM (eV)
  ---------------------------------------------------
  free  energy   TOTEN  =       -17.31734658 eV

  energy  without entropy=      -17.31115515  energy(sigma->0) =      -17.31425086



--------------------------------------------------------------------------------------------------------


    POTLOK:  cpu time      0.0091: real time      0.0092


--------------------------------------------------------------------------------------------------------




Found     6 degrees of freedom:


        Directions for atom     1:
        --------------------------

              1.0000000000000000      0.0000000000000000      0.0000000000000000
              0.0000000000000000      0.0000000000000000      1.0000000000000000


        Directions for atom     2:
        --------------------------

              1.0000000000000000      0.0000000000000000      0.0000000000000000
              0.0000000000000000      0.0000000000000000      1.0000000000000000


        Directions for atom     3:
        --------------------------

              1.0000000000000000      0.0000000000000000      0.0000000000000000
              0.0000000000000000      0.0000000000000000      1.0000000000000000
        Strain: 6 additional degrees of freedom
        ---------------------------------------
 Finite differences:
   Step               POTIM =    1.4999999999999999E-002
   Degrees of freedom DOF   =           12
  Warning from LATTYP: Monoclinic adjustment (A1->A3, A2->A1, A3->A2)!
  LATTYP: Found a base centered orthorhombic cell.
 ALAT       =     3.6399722153
 B/A-ratio  =     1.6816027258
 C/A-ratio  =     1.8478596616
  
  Lattice vectors:
  
 A1 = (   1.8199861077,  -3.0604935996,   0.0000000000)
 A2 = (   1.8199861076,   3.0604935996,   0.0000000000)
 A3 = (   0.0000000000,   0.0000000000,   6.7261578258)


Analysis of symmetry for initial positions (statically):
=====================================================================
 Subroutine PRICEL returns:
 Original cell was already a primitive cell.
 

 Routine SETGRP: Setting up the symmetry group for a 
 base centered orthorhombic supercell.


 Subroutine GETGRP returns: Found  4 space group operations
 (whereof  4 operations were pure point group operations)
 out of a pool of  8 trial point group operations.


The static configuration has the point symmetry C_2h.


Analysis of symmetry for dynamics (positions and initial velocities):
=====================================================================
 Subroutine PRICEL returns:
 Original cell was already a primitive cell.
 

 Routine SETGRP: Setting up the symmetry group for a 
 base centered orthorhombic supercell.


 Subroutine GETGRP returns: Found  4 space group operations
 (whereof  4 operations were pure point group operations)
 out of a pool of  8 trial point group operations.


The dynamic configuration has the point symmetry C_2h.


 Subroutine INISYM returns: Found  4 space group operations
 (whereof  4 operations are pure point group operations),
 and found     1 'primitive' translations


 KPOINTS: pymatgen with grid density = 600 / numbe

Automatic generation of k-mesh.
 Grid dimensions read from file:
 generate k-points for:    6    6    3

 Generating k-lattice:

  Cartesian coordinates                     Fractional coordinates (reciprocal lattice)
     0.045787895  0.027228723 -0.000000000     0.166666667 -0.000000000  0.000000000
     0.000000000  0.054457447 -0.000000000    -0.000000000  0.166666667  0.000000000
    -0.000000000 -0.000000000  0.049557763     0.000000000  0.000000000  0.333333333

  Length of vectors
     0.053272270  0.054457447  0.049557763

  Shift w.r.t. Gamma in fractional coordinates (k-lattice)
     0.000000000  0.000000000  0.000000000

 
 Subroutine IBZKPT returns following result:
 ===========================================
 
 Found     34 irreducible k-points:
 
 Following reciprocal coordinates:
            Coordinates               Weight
  0.000000  0.000000  0.000000      1.000000
  0.166667  0.000000  0.000000      4.000000
  0.333333  0.000000  0.000000      4.000000
  0.500000  0.000000  0.000000      2.000000
  0.000000  0.166667  0.000000      2.000000
  0.166667  0.166667  0.000000      4.000000
  0.333333  0.166667  0.000000      4.000000
  0.500000  0.166667  0.000000      4.000000
 -0.333333  0.166667  0.000000      2.000000
  0.000000  0.333333  0.000000      2.000000
  0.166667  0.333333  0.000000      4.000000
  0.333333  0.333333  0.000000      2.000000
  0.000000  0.500000  0.000000      1.000000
  0.000000  0.000000  0.333333      2.000000
  0.166667  0.000000  0.333333      4.000000
 -0.166667  0.000000  0.333333      4.000000
  0.333333  0.000000  0.333333      4.000000
 -0.333333  0.000000  0.333333      4.000000
  0.500000  0.000000  0.333333      4.000000
  0.000000  0.166667  0.333333      2.000000
  0.000000 -0.166667  0.333333      2.000000
  0.166667  0.166667  0.333333      4.000000
 -0.166667 -0.166667  0.333333      4.000000
  0.333333  0.166667  0.333333      4.000000
 -0.333333 -0.166667  0.333333      4.000000
  0.500000  0.166667  0.333333      4.000000
  0.500000 -0.166667  0.333333      4.000000
 -0.333333  0.166667  0.333333      4.000000
  0.000000  0.333333  0.333333      2.000000
  0.000000 -0.333333  0.333333      2.000000
  0.166667  0.333333  0.333333      4.000000
 -0.166667 -0.333333  0.333333      4.000000
  0.333333  0.333333  0.333333      4.000000
  0.000000  0.500000  0.333333      2.000000
 
 Following cartesian coordinates:
            Coordinates               Weight
  0.000000  0.000000  0.000000      1.000000
  0.045788  0.027229  0.000000      4.000000
  0.091576  0.054457  0.000000      4.000000
  0.137364  0.081686  0.000000      2.000000
  0.000000  0.054457  0.000000      2.000000
  0.045788  0.081686  0.000000      4.000000
  0.091576  0.108915  0.000000      4.000000
  0.137364  0.136144  0.000000      4.000000
 -0.091576 -0.000000  0.000000      2.000000
  0.000000  0.108915  0.000000      2.000000
  0.045788  0.136144  0.000000      4.000000
  0.091576  0.163372  0.000000      2.000000
  0.000000  0.163372  0.000000      1.000000
  0.000000  0.000000  0.049558      2.000000
  0.045788  0.027229  0.049558      4.000000
 -0.045788 -0.027229  0.049558      4.000000
  0.091576  0.054457  0.049558      4.000000
 -0.091576 -0.054457  0.049558      4.000000
  0.137364  0.081686  0.049558      4.000000
  0.000000  0.054457  0.049558      2.000000
 -0.000000 -0.054457  0.049558      2.000000
  0.045788  0.081686  0.049558      4.000000
 -0.045788 -0.081686  0.049558      4.000000
  0.091576  0.108915  0.049558      4.000000
 -0.091576 -0.108915  0.049558      4.000000
  0.137364  0.136144  0.049558      4.000000
  0.137364  0.027229  0.049558      4.000000
 -0.091576 -0.000000  0.049558      4.000000
  0.000000  0.108915  0.049558      2.000000
 -0.000000 -0.108915  0.049558      2.000000
  0.045788  0.136144  0.049558      4.000000
 -0.045788 -0.136144  0.049558      4.000000
  0.091576  0.163372  0.049558      4.000000
  0.000000  0.163372  0.049558      2.000000
 
