 vasp.6.3.2 27Jun22 (build Jun 14 2024 17:29:11) complex                         
 executed on             LinuxGNU date 2026.03.30  17:48:08
 running on    8 total cores
 distrk:  each k-point on    8 cores,    1 groups
 distr:  one band on NCORE=   1 cores,    8 groups


--------------------------------------------------------------------------------------------------------


 INCAR:
   EDIFF = 1e-06
   ENCUT = 400.0
   IBRION = 6
   ISIF = 3
   ISMEAR = 0
   ISYM = 0
   LCHARG = False
   LREAL = Auto
   LWAVE = False
   NFREE = 4
   NSW = 1
   POTIM = 0.015
   SIGMA = 0.05

 POTCAR:    PAW_PBE Na_pv 19Sep2006               
 POTCAR:    PAW_PBE Si 05Jan2001                  
 POTCAR:    PAW_PBE S 06Sep2000                   
 -----------------------------------------------------------------------------
|                                                                             |
|           W    W    AA    RRRRR   N    N  II  N    N   GGGG   !!!           |
|           W    W   A  A   R    R  NN   N  II  NN   N  G    G  !!!           |
|           W    W  A    A  R    R  N N  N  II  N N  N  G       !!!           |
|           W WW W  AAAAAA  RRRRR   N  N N  II  N  N N  G  GGG   !            |
|           WW  WW  A    A  R   R   N   NN  II  N   NN  G    G                |
|           W    W  A    A  R    R  N    N  II  N    N   GGGG   !!!           |
|                                                                             |
|     For optimal performance we recommend to set                             |
|       NCORE = 2 up to number-of-cores-per-socket                            |
|     NCORE specifies how many cores store one orbital (NPAR=cpu/NCORE).      |
|     This setting can greatly improve the performance of VASP for DFT.       |
|     The default, NCORE=1 might be grossly inefficient on modern             |
|     multi-core architectures or massively parallel machines. Do your        |
|     own testing! More info at https://www.vasp.at/wiki/index.php/NCORE      |
|     Unfortunately you need to use the default for GW and RPA                |
|     calculations (for HF NCORE is supported but not extensively tested      |
|     yet).                                                                   |
|                                                                             |
 -----------------------------------------------------------------------------

 POTCAR:    PAW_PBE Na_pv 19Sep2006               
   SHA256 =  6a2f546d9e11350984debacf3dc457d8cffc0868e817d445faca461816a32b94 Na_pv/POTCAR          
   COPYR  = (c) Copyright 19Sep2006 Georg Kresse                                                    
   COPYR  = This file is part of the software VASP. Any use, copying, and all other rights are regul
   COPYR  = If you do not have a valid VASP license, you may not use, copy or distribute this file. 
   VRHFIN =Na: p6s1                                                                                 
   LEXCH  = PE                                                                                      
   EATOM  =   766.0439 eV,   56.3026 Ry                                                             
                                                                                                    
   TITEL  = PAW_PBE Na_pv 19Sep2006                                                                 
   LULTRA =        F    use ultrasoft PP ?                                                          
   IUNSCR =        1    unscreen: 0-lin 1-nonlin 2-no                                               
   RPACOR =    1.800    partial core radius                                                         
   POMASS =   22.990; ZVAL   =    7.000    mass and valenz                                          
   RCORE  =    2.200    outmost cutoff radius                                                       
   RWIGS  =    2.200; RWIGS  =    1.164    wigner-seitz radius (au A)                               
   ENMAX  =  259.561; ENMIN  =  194.671 eV                                                          
   ICORE  =        2    local potential                                                             
   LCOR   =        T    correct aug charges                                                         
   LPAW   =        T    paw PP                                                                      
   EAUG   =  368.056                                                                                
   DEXC   =    0.000                                                                                
   RMAX   =    2.245    core radius for proj-oper                                                   
   RAUG   =    1.300    factor for augmentation sphere                                              
   RDEP   =    2.259    radius for radial grids                                                     
   RDEPT  =    1.738    core radius for aug-charge                                                  
                                                                                                    
   Atomic configuration                                                                             
    5 entries                                                                                       
     n  l   j            E        occ.                                                              
     1  0  0.50     -1033.6933   2.0000                                                             
     2  0  0.50       -56.7526   2.0000                                                             
     2  1  1.50       -28.6721   6.0000                                                             
     3  0  0.50        -2.7440   1.0000                                                             
     3  2  1.50        -1.3606   0.0000                                                             
   Description                                                                                      
     l       E           TYP  RCUT    TYP  RCUT                                                     
     1    -28.6720912     23  2.000                                                                 
     1      6.8029130     23  2.000                                                                 
     0     -2.7439560     23  2.200                                                                 
     0     34.0145650     23  2.200                                                                 
     2     -1.3605826     23  2.200                                                                 
  local pseudopotential read in
  partial core-charges read in
  partial kinetic energy density read in
  atomic valenz-charges read in
  non local Contribution for L=           1  read in
    real space projection operators read in
  non local Contribution for L=           1  read in
    real space projection operators read in
  non local Contribution for L=           0  read in
    real space projection operators read in
  non local Contribution for L=           0  read in
    real space projection operators read in
    PAW grid and wavefunctions read in

   number of l-projection  operators is LMAX  =           4
   number of lm-projection operators is LMMAX =           8

 POTCAR:    PAW_PBE Si 05Jan2001                  
   SHA256 =  79d9987ad8750f624c4d6acb2a16d13abf6a777132adc04dc6c8399be72b42bb Si/POTCAR             
   COPYR  = (c) Copyright 05Jan2001 Georg Kresse                                                    
   COPYR  = This file is part of the software VASP. Any use, copying, and all other rights are regul
   COPYR  = If you do not have a valid VASP license, you may not use, copy or distribute this file. 
   VRHFIN =Si: s2p2                                                                                 
   LEXCH  = PE                                                                                      
   EATOM  =   103.0669 eV,    7.5752 Ry                                                             
                                                                                                    
   TITEL  = PAW_PBE Si 05Jan2001                                                                    
   LULTRA =        F    use ultrasoft PP ?                                                          
   IUNSCR =        1    unscreen: 0-lin 1-nonlin 2-no                                               
   RPACOR =    1.500    partial core radius                                                         
   POMASS =   28.085; ZVAL   =    4.000    mass and valenz                                          
   RCORE  =    1.900    outmost cutoff radius                                                       
   RWIGS  =    2.480; RWIGS  =    1.312    wigner-seitz radius (au A)                               
   ENMAX  =  245.345; ENMIN  =  184.009 eV                                                          
   ICORE  =        2    local potential                                                             
   LCOR   =        T    correct aug charges                                                         
   LPAW   =        T    paw PP                                                                      
   EAUG   =  322.069                                                                                
   DEXC   =    0.000                                                                                
   RMAX   =    1.950    core radius for proj-oper                                                   
   RAUG   =    1.300    factor for augmentation sphere                                              
   RDEP   =    1.993    radius for radial grids                                                     
   RDEPT  =    1.837    core radius for aug-charge                                                  
                                                                                                    
   Atomic configuration                                                                             
    6 entries                                                                                       
     n  l   j            E        occ.                                                              
     1  0  0.50     -1785.8828   2.0000                                                             
     2  0  0.50      -139.4969   2.0000                                                             
     2  1  1.50       -95.5546   6.0000                                                             
     3  0  0.50       -10.8127   2.0000                                                             
     3  1  0.50        -4.0811   2.0000                                                             
     3  2  1.50        -4.0817   0.0000                                                             
   Description                                                                                      
     l       E           TYP  RCUT    TYP  RCUT                                                     
     0    -10.8127223     23  1.900                                                                 
     0     -7.6451159     23  1.900                                                                 
     1     -4.0811372     23  1.900                                                                 
     1      2.4879257     23  1.900                                                                 
     2     -4.0817478      7  1.900                                                                 
  local pseudopotential read in
  partial core-charges read in
  partial kinetic energy density read in
  atomic valenz-charges read in
  non local Contribution for L=           0  read in
    real space projection operators read in
  non local Contribution for L=           0  read in
    real space projection operators read in
  non local Contribution for L=           1  read in
    real space projection operators read in
  non local Contribution for L=           1  read in
    real space projection operators read in
    PAW grid and wavefunctions read in

   number of l-projection  operators is LMAX  =           4
   number of lm-projection operators is LMMAX =           8

 POTCAR:    PAW_PBE S 06Sep2000                   
   SHA256 =  0fc7481fb0695f01bdc6462160264c5c84044ae9ec85a907d398b887a2bc3132 S/POTCAR              
   COPYR  = (c) Copyright 06Sep2000 Georg Kresse                                                    
   COPYR  = This file is part of the software VASP. Any use, copying, and all other rights are regul
   COPYR  = If you do not have a valid VASP license, you may not use, copy or distribute this file. 
   VRHFIN =S : s2p4                                                                                 
   LEXCH  = PE                                                                                      
   EATOM  =   276.8230 eV,   20.3459 Ry                                                             
                                                                                                    
   TITEL  = PAW_PBE S 06Sep2000                                                                     
   LULTRA =        F    use ultrasoft PP ?                                                          
   IUNSCR =        1    unscreen: 0-lin 1-nonlin 2-no                                               
   RPACOR =    1.500    partial core radius                                                         
   POMASS =   32.066; ZVAL   =    6.000    mass and valenz                                          
   RCORE  =    1.900    outmost cutoff radius                                                       
   RWIGS  =    2.200; RWIGS  =    1.164    wigner-seitz radius (au A)                               
   ENMAX  =  258.689; ENMIN  =  194.016 eV                                                          
   ICORE  =        2    local potential                                                             
   LCOR   =        T    correct aug charges                                                         
   LPAW   =        T    paw PP                                                                      
   EAUG   =  335.092                                                                                
   DEXC   =    0.000                                                                                
   RMAX   =    1.942    core radius for proj-oper                                                   
   RAUG   =    1.300    factor for augmentation sphere                                              
   RDEP   =    1.954    radius for radial grids                                                     
   RDEPT  =    1.744    core radius for aug-charge                                                  
                                                                                                    
   Atomic configuration                                                                             
    6 entries                                                                                       
     n  l   j            E        occ.                                                              
     1  0  0.50     -2405.8406   2.0000                                                             
     2  0  0.50      -211.7007   2.0000                                                             
     2  1  1.50      -156.4958   6.0000                                                             
     3  0  0.50       -17.2562   2.0000                                                             
     3  1  0.50        -7.0085   4.0000                                                             
     3  2  1.50        -6.8029   0.0000                                                             
   Description                                                                                      
     l       E           TYP  RCUT    TYP  RCUT                                                     
     0    -17.2561641     23  1.900                                                                 
     0    -15.8743224     23  1.900                                                                 
     1     -7.0085400     23  1.900                                                                 
     1     -2.7779785     23  1.900                                                                 
     2     -6.8029130     23  1.900                                                                 
  local pseudopotential read in
  partial core-charges read in
  partial kinetic energy density read in
  atomic valenz-charges read in
  non local Contribution for L=           0  read in
    real space projection operators read in
  non local Contribution for L=           0  read in
    real space projection operators read in
  non local Contribution for L=           1  read in
    real space projection operators read in
  non local Contribution for L=           1  read in
    real space projection operators read in
    PAW grid and wavefunctions read in

   number of l-projection  operators is LMAX  =           4
   number of lm-projection operators is LMMAX =           8

 -----------------------------------------------------------------------------
|                                                                             |
|               ----> ADVICE to this user running VASP <----                  |
|                                                                             |
|     You have a (more or less) 'small supercell' and for smaller cells       |
|     it is recommended to use the reciprocal-space projection scheme!        |
|     The real-space optimization is not efficient for small cells and it     |
|     is also less accurate ...                                               |
|     Therefore, set LREAL=.FALSE. in the INCAR file.                         |
|                                                                             |
 -----------------------------------------------------------------------------

 Optimization of the real space projectors (new method)

 maximal supplied QI-value         = 17.01
 optimisation between [QCUT,QGAM] = [ 10.20, 20.41] = [ 29.16,116.64] Ry 
 Optimized for a Real-space Cutoff    1.30 Angstroem

   l    n(q)    QCUT    max X(q) W(low)/X(q) W(high)/X(q)  e(spline) 
   1      7    10.205     4.940    0.23E-03    0.84E-03    0.11E-06
   1      7    10.205     6.253    0.40E-03    0.13E-02    0.18E-06
   0      8    10.205    37.438    0.23E-03    0.37E-03    0.42E-07
   0      8    10.205     9.606    0.16E-03    0.26E-03    0.31E-07
 Optimization of the real space projectors (new method)

 maximal supplied QI-value         = 19.84
 optimisation between [QCUT,QGAM] = [ 10.12, 20.44] = [ 28.68,116.96] Ry 
 Optimized for a Real-space Cutoff    1.23 Angstroem

   l    n(q)    QCUT    max X(q) W(low)/X(q) W(high)/X(q)  e(spline) 
   0      7    10.119   159.560    0.56E-04    0.22E-03    0.45E-07
   0      7    10.119   115.863    0.56E-04    0.21E-03    0.45E-07
   1      7    10.119    88.339    0.34E-03    0.49E-03    0.11E-06
   1      7    10.119    48.592    0.33E-03    0.48E-03    0.11E-06
 Optimization of the real space projectors (new method)

 maximal supplied QI-value         = 19.84
 optimisation between [QCUT,QGAM] = [ 10.12, 20.44] = [ 28.68,116.96] Ry 
 Optimized for a Real-space Cutoff    1.23 Angstroem

   l    n(q)    QCUT    max X(q) W(low)/X(q) W(high)/X(q)  e(spline) 
   0      7    10.119   187.594    0.62E-04    0.28E-03    0.52E-07
   0      7    10.119   164.243    0.61E-04    0.28E-03    0.52E-07
   1      7    10.119    67.533    0.45E-03    0.63E-03    0.13E-06
   1      7    10.119    50.729    0.44E-03    0.62E-03    0.12E-06
  PAW_PBE Na_pv 19Sep2006               :
 energy of atom  1       EATOM= -766.0439
 kinetic energy error for atom=    0.0103 (will be added to EATOM!!)
  PAW_PBE Si 05Jan2001                  :
 energy of atom  2       EATOM= -103.0669
 kinetic energy error for atom=    0.0012 (will be added to EATOM!!)
  PAW_PBE S 06Sep2000                   :
 energy of atom  3       EATOM= -276.8230
 kinetic energy error for atom=    0.0046 (will be added to EATOM!!)


 POSCAR: Na1 Si1 S2
  positions in direct lattice
  velocities in cartesian coordinates
 exchange correlation table for  LEXCH =        8
   RHO(1)=    0.500       N(1)  =     2000
   RHO(2)=  100.500       N(2)  =     4000



--------------------------------------------------------------------------------------------------------


 ion  position               nearest neighbor table
   1  0.000  0.000  0.500-
   2  0.000  0.000  0.000-   3 2.44   4 2.44   3 2.44   3 2.44   4 2.44   4 2.44
   3  0.333  0.667  0.800-   2 2.44   2 2.44   2 2.44
   4  0.667  0.333  0.200-   2 2.44   2 2.44   2 2.44


IMPORTANT INFORMATION: All symmetrisations will be switched off!
NOSYMM: (Re-)initialisation of all symmetry stuff for point group C_1.


----------------------------------------------------------------------------------------

                                     Primitive cell                                     

  volume of cell :      72.7477

  direct lattice vectors                    reciprocal lattice vectors
     3.533953607 -0.000000000 -0.000000000     0.282969193  0.163372340 -0.000000000
    -1.766976804  3.060493600  0.000000000     0.000000000  0.326744679 -0.000000000
     0.000000000  0.000000000  6.726157826     0.000000000  0.000000000  0.148673288

  length of vectors
     3.533953607  3.533953607  6.726157826     0.326744679  0.326744679  0.148673288

  position of ions in fractional coordinates (direct lattice)
     0.000000000  0.000000000  0.500000319
     0.000000000  0.000000000  0.000000000
     0.333332921  0.666665842  0.799949691
     0.666665888  0.333332921  0.200050948

  ion indices of the primitive-cell ions
   primitive index   ion index
                 1           1
                 2           2
                 3           3
                 4           4

----------------------------------------------------------------------------------------



 KPOINTS: pymatgen with grid density = 600 / numbe

Automatic generation of k-mesh.
 Grid dimensions read from file:
 generate k-points for:    6    6    3

 Generating k-lattice:

  Cartesian coordinates                     Fractional coordinates (reciprocal lattice)
     0.047161532  0.027228723 -0.000000000     0.166666667 -0.000000000  0.000000000
     0.000000000  0.054457447 -0.000000000     0.000000000  0.166666667  0.000000000
     0.000000000  0.000000000  0.049557763     0.000000000  0.000000000  0.333333333

  Length of vectors
     0.054457447  0.054457447  0.049557763

  Shift w.r.t. Gamma in fractional coordinates (k-lattice)
     0.000000000  0.000000000  0.000000000

 
 Subroutine IBZKPT returns following result:
 ===========================================
 
 Found     56 irreducible k-points:
 
 Following reciprocal coordinates:
            Coordinates               Weight
  0.000000  0.000000  0.000000      1.000000
  0.166667  0.000000  0.000000      2.000000
  0.000000  0.166667  0.000000      2.000000
 -0.166667  0.166667  0.000000      2.000000
  0.333333  0.000000  0.000000      2.000000
  0.000000  0.333333  0.000000      2.000000
 -0.333333  0.333333  0.000000      2.000000
  0.500000  0.000000  0.000000      1.000000
  0.000000  0.500000  0.000000      1.000000
  0.500000  0.500000  0.000000      1.000000
  0.166667  0.166667  0.000000      2.000000
 -0.166667  0.333333  0.000000      2.000000
 -0.333333  0.166667  0.000000      2.000000
  0.333333  0.166667  0.000000      2.000000
 -0.166667  0.500000  0.000000      2.000000
  0.500000  0.333333  0.000000      2.000000
 -0.333333  0.500000  0.000000      2.000000
  0.166667  0.333333  0.000000      2.000000
  0.500000 -0.166667  0.000000      2.000000
  0.333333  0.333333  0.000000      2.000000
  0.000000  0.000000  0.333333      2.000000
  0.166667  0.000000  0.333333      2.000000
  0.000000  0.166667  0.333333      2.000000
 -0.166667  0.166667  0.333333      2.000000
 -0.166667  0.000000  0.333333      2.000000
  0.000000 -0.166667  0.333333      2.000000
  0.166667 -0.166667  0.333333      2.000000
  0.333333  0.000000  0.333333      2.000000
  0.000000  0.333333  0.333333      2.000000
 -0.333333  0.333333  0.333333      2.000000
 -0.333333  0.000000  0.333333      2.000000
  0.000000 -0.333333  0.333333      2.000000
  0.333333 -0.333333  0.333333      2.000000
  0.500000  0.000000  0.333333      2.000000
  0.000000  0.500000  0.333333      2.000000
  0.500000  0.500000  0.333333      2.000000
  0.166667  0.166667  0.333333      2.000000
 -0.166667  0.333333  0.333333      2.000000
 -0.333333  0.166667  0.333333      2.000000
 -0.166667 -0.166667  0.333333      2.000000
  0.166667 -0.333333  0.333333      2.000000
  0.333333 -0.166667  0.333333      2.000000
  0.333333  0.166667  0.333333      2.000000
 -0.166667  0.500000  0.333333      2.000000
  0.500000  0.333333  0.333333      2.000000
 -0.333333 -0.166667  0.333333      2.000000
  0.166667  0.500000  0.333333      2.000000
  0.500000 -0.333333  0.333333      2.000000
 -0.333333  0.500000 -0.333333      2.000000
  0.166667  0.333333 -0.333333      2.000000
  0.500000 -0.166667 -0.333333      2.000000
  0.333333  0.500000 -0.333333      2.000000
 -0.166667 -0.333333 -0.333333      2.000000
  0.500000  0.166667 -0.333333      2.000000
  0.333333  0.333333  0.333333      2.000000
 -0.333333 -0.333333  0.333333      2.000000
 
 Following cartesian coordinates:
            Coordinates               Weight
  0.000000  0.000000  0.000000      1.000000
  0.047162  0.027229  0.000000      2.000000
  0.000000  0.054457  0.000000      2.000000
 -0.047162  0.027229  0.000000      2.000000
  0.094323  0.054457  0.000000      2.000000
  0.000000  0.108915  0.000000      2.000000
 -0.094323  0.054457  0.000000      2.000000
  0.141485  0.081686  0.000000      1.000000
  0.000000  0.163372  0.000000      1.000000
  0.141485  0.245059  0.000000      1.000000
  0.047162  0.081686  0.000000      2.000000
 -0.047162  0.081686  0.000000      2.000000
 -0.094323 -0.000000  0.000000      2.000000
  0.094323  0.108915  0.000000      2.000000
 -0.047162  0.136144  0.000000      2.000000
  0.141485  0.190601  0.000000      2.000000
 -0.094323  0.108915  0.000000      2.000000
  0.047162  0.136144  0.000000      2.000000
  0.141485  0.027229  0.000000      2.000000
  0.094323  0.163372  0.000000      2.000000
  0.000000  0.000000  0.049558      2.000000
  0.047162  0.027229  0.049558      2.000000
  0.000000  0.054457  0.049558      2.000000
 -0.047162  0.027229  0.049558      2.000000
 -0.047162 -0.027229  0.049558      2.000000
 -0.000000 -0.054457  0.049558      2.000000
  0.047162 -0.027229  0.049558      2.000000
  0.094323  0.054457  0.049558      2.000000
  0.000000  0.108915  0.049558      2.000000
 -0.094323  0.054457  0.049558      2.000000
 -0.094323 -0.054457  0.049558      2.000000
 -0.000000 -0.108915  0.049558      2.000000
  0.094323 -0.054457  0.049558      2.000000
  0.141485  0.081686  0.049558      2.000000
  0.000000  0.163372  0.049558      2.000000
  0.141485  0.245059  0.049558      2.000000
  0.047162  0.081686  0.049558      2.000000
 -0.047162  0.081686  0.049558      2.000000
 -0.094323 -0.000000  0.049558      2.000000
 -0.047162 -0.081686  0.049558      2.000000
  0.047162 -0.081686  0.049558      2.000000
  0.094323  0.000000  0.049558      2.000000
  0.094323  0.108915  0.049558      2.000000
 -0.047162  0.136144  0.049558      2.000000
  0.141485  0.190601  0.049558      2.000000
 -0.094323 -0.108915  0.049558      2.000000
  0.047162  0.190601  0.049558      2.000000
  0.141485 -0.027229  0.049558      2.000000
 -0.094323  0.108915 -0.049558      2.000000
  0.047162  0.136144 -0.049558      2.000000
  0.141485  0.027229 -0.049558      2.000000
  0.094323  0.217830 -0.049558      2.000000
 -0.047162 -0.136144 -0.049558      2.000000
  0.141485  0.136144 -0.049558      2.000000
  0.094323  0.163372  0.049558      2.000000
 -0.094323 -0.163372  0.049558      2.000000
 
 
 Subroutine IBZKPT_HF returns following result:
 ==============================================
 
 Found    108 k-points in 1st BZ
 the following    108 k-points will be used (e.g. in the exchange kernel)
 Following reciprocal coordinates:   # in IRBZ
  0.000000  0.000000  0.000000    0.00925926   1 t-inv F
  0.166667  0.000000  0.000000    0.00925926   2 t-inv F
  0.000000  0.166667  0.000000    0.00925926   3 t-inv F
 -0.166667  0.166667  0.000000    0.00925926   4 t-inv F
  0.333333  0.000000  0.000000    0.00925926   5 t-inv F
  0.000000  0.333333  0.000000    0.00925926   6 t-inv F
 -0.333333  0.333333  0.000000    0.00925926   7 t-inv F
  0.500000  0.000000  0.000000    0.00925926   8 t-inv F
  0.000000  0.500000  0.000000    0.00925926   9 t-inv F
  0.500000  0.500000  0.000000    0.00925926  10 t-inv F
  0.166667  0.166667  0.000000    0.00925926  11 t-inv F
 -0.166667  0.333333  0.000000    0.00925926  12 t-inv F
 -0.333333  0.166667  0.000000    0.00925926  13 t-inv F
  0.333333  0.166667  0.000000    0.00925926  14 t-inv F
 -0.166667  0.500000  0.000000    0.00925926  15 t-inv F
  0.500000  0.333333  0.000000    0.00925926  16 t-inv F
 -0.333333  0.500000  0.000000    0.00925926  17 t-inv F
  0.166667  0.333333  0.000000    0.00925926  18 t-inv F
  0.500000 -0.166667  0.000000    0.00925926  19 t-inv F
  0.333333  0.333333  0.000000    0.00925926  20 t-inv F
  0.000000  0.000000  0.333333    0.00925926  21 t-inv F
  0.166667  0.000000  0.333333    0.00925926  22 t-inv F
  0.000000  0.166667  0.333333    0.00925926  23 t-inv F
 -0.166667  0.166667  0.333333    0.00925926  24 t-inv F
 -0.166667  0.000000  0.333333    0.00925926  25 t-inv F
  0.000000 -0.166667  0.333333    0.00925926  26 t-inv F
  0.166667 -0.166667  0.333333    0.00925926  27 t-inv F
  0.333333  0.000000  0.333333    0.00925926  28 t-inv F
  0.000000  0.333333  0.333333    0.00925926  29 t-inv F
 -0.333333  0.333333  0.333333    0.00925926  30 t-inv F
 -0.333333  0.000000  0.333333    0.00925926  31 t-inv F
  0.000000 -0.333333  0.333333    0.00925926  32 t-inv F
  0.333333 -0.333333  0.333333    0.00925926  33 t-inv F
  0.500000  0.000000  0.333333    0.00925926  34 t-inv F
  0.000000  0.500000  0.333333    0.00925926  35 t-inv F
  0.500000  0.500000  0.333333    0.00925926  36 t-inv F
  0.166667  0.166667  0.333333    0.00925926  37 t-inv F
 -0.166667  0.333333  0.333333    0.00925926  38 t-inv F
 -0.333333  0.166667  0.333333    0.00925926  39 t-inv F
 -0.166667 -0.166667  0.333333    0.00925926  40 t-inv F
  0.166667 -0.333333  0.333333    0.00925926  41 t-inv F
  0.333333 -0.166667  0.333333    0.00925926  42 t-inv F
  0.333333  0.166667  0.333333    0.00925926  43 t-inv F
 -0.166667  0.500000  0.333333    0.00925926  44 t-inv F
  0.500000  0.333333  0.333333    0.00925926  45 t-inv F
 -0.333333 -0.166667  0.333333    0.00925926  46 t-inv F
  0.166667  0.500000  0.333333    0.00925926  47 t-inv F
  0.500000 -0.333333  0.333333    0.00925926  48 t-inv F
 -0.333333  0.500000 -0.333333    0.00925926  49 t-inv F
  0.166667  0.333333 -0.333333    0.00925926  50 t-inv F
  0.500000 -0.166667 -0.333333    0.00925926  51 t-inv F
  0.333333  0.500000 -0.333333    0.00925926  52 t-inv F
 -0.166667 -0.333333 -0.333333    0.00925926  53 t-inv F
  0.500000  0.166667 -0.333333    0.00925926  54 t-inv F
  0.333333  0.333333  0.333333    0.00925926  55 t-inv F
 -0.333333 -0.333333  0.333333    0.00925926  56 t-inv F
 -0.166667 -0.000000 -0.000000    0.00925926   2 t-inv T
 -0.000000 -0.166667 -0.000000    0.00925926   3 t-inv T
  0.166667 -0.166667 -0.000000    0.00925926   4 t-inv T
 -0.333333 -0.000000 -0.000000    0.00925926   5 t-inv T
 -0.000000 -0.333333 -0.000000    0.00925926   6 t-inv T
  0.333333 -0.333333 -0.000000    0.00925926   7 t-inv T
 -0.166667 -0.166667 -0.000000    0.00925926  11 t-inv T
  0.166667 -0.333333 -0.000000    0.00925926  12 t-inv T
  0.333333 -0.166667 -0.000000    0.00925926  13 t-inv T
 -0.333333 -0.166667 -0.000000    0.00925926  14 t-inv T
  0.166667 -0.500000 -0.000000    0.00925926  15 t-inv T
 -0.500000 -0.333333 -0.000000    0.00925926  16 t-inv T
  0.333333 -0.500000 -0.000000    0.00925926  17 t-inv T
 -0.166667 -0.333333 -0.000000    0.00925926  18 t-inv T
 -0.500000  0.166667 -0.000000    0.00925926  19 t-inv T
 -0.333333 -0.333333 -0.000000    0.00925926  20 t-inv T
 -0.000000 -0.000000 -0.333333    0.00925926  21 t-inv T
 -0.166667 -0.000000 -0.333333    0.00925926  22 t-inv T
 -0.000000 -0.166667 -0.333333    0.00925926  23 t-inv T
  0.166667 -0.166667 -0.333333    0.00925926  24 t-inv T
  0.166667 -0.000000 -0.333333    0.00925926  25 t-inv T
 -0.000000  0.166667 -0.333333    0.00925926  26 t-inv T
 -0.166667  0.166667 -0.333333    0.00925926  27 t-inv T
 -0.333333 -0.000000 -0.333333    0.00925926  28 t-inv T
 -0.000000 -0.333333 -0.333333    0.00925926  29 t-inv T
  0.333333 -0.333333 -0.333333    0.00925926  30 t-inv T
  0.333333 -0.000000 -0.333333    0.00925926  31 t-inv T
 -0.000000  0.333333 -0.333333    0.00925926  32 t-inv T
 -0.333333  0.333333 -0.333333    0.00925926  33 t-inv T
 -0.500000 -0.000000 -0.333333    0.00925926  34 t-inv T
 -0.000000 -0.500000 -0.333333    0.00925926  35 t-inv T
 -0.500000 -0.500000 -0.333333    0.00925926  36 t-inv T
 -0.166667 -0.166667 -0.333333    0.00925926  37 t-inv T
  0.166667 -0.333333 -0.333333    0.00925926  38 t-inv T
  0.333333 -0.166667 -0.333333    0.00925926  39 t-inv T
  0.166667  0.166667 -0.333333    0.00925926  40 t-inv T
 -0.166667  0.333333 -0.333333    0.00925926  41 t-inv T
 -0.333333  0.166667 -0.333333    0.00925926  42 t-inv T
 -0.333333 -0.166667 -0.333333    0.00925926  43 t-inv T
  0.166667 -0.500000 -0.333333    0.00925926  44 t-inv T
 -0.500000 -0.333333 -0.333333    0.00925926  45 t-inv T
  0.333333  0.166667 -0.333333    0.00925926  46 t-inv T
 -0.166667 -0.500000 -0.333333    0.00925926  47 t-inv T
 -0.500000  0.333333 -0.333333    0.00925926  48 t-inv T
  0.333333 -0.500000  0.333333    0.00925926  49 t-inv T
 -0.166667 -0.333333  0.333333    0.00925926  50 t-inv T
 -0.500000  0.166667  0.333333    0.00925926  51 t-inv T
 -0.333333 -0.500000  0.333333    0.00925926  52 t-inv T
  0.166667  0.333333  0.333333    0.00925926  53 t-inv T
 -0.500000 -0.166667  0.333333    0.00925926  54 t-inv T
 -0.333333 -0.333333 -0.333333    0.00925926  55 t-inv T
  0.333333  0.333333 -0.333333    0.00925926  56 t-inv T


--------------------------------------------------------------------------------------------------------




 Dimension of arrays:
   k-points           NKPTS =     56   k-points in BZ     NKDIM =     56   number of bands    NBANDS=     16
   number of dos      NEDOS =    301   number of ions     NIONS =      4
   non local maximal  LDIM  =      4   non local SUM 2l+1 LMDIM =      8
   total plane-waves  NPLWV =  11664
   max r-space proj   IRMAX =   1529   max aug-charges    IRDMAX=   5560
   dimension x,y,z NGX =    18 NGY =   18 NGZ =   36
   dimension x,y,z NGXF=    36 NGYF=   36 NGZF=   72
   support grid    NGXF=    36 NGYF=   36 NGZF=   72
   ions per type =               1   1   2
   NGX,Y,Z   is equivalent  to a cutoff of   8.47,  8.47,  8.90 a.u.
   NGXF,Y,Z  is equivalent  to a cutoff of  16.94, 16.94, 17.80 a.u.

 SYSTEM =  unknown system                          
 POSCAR =  Na1 Si1 S2                              

 Startparameter for this run:
   NWRITE =      2    write-flag & timer
   PREC   = normal    normal or accurate (medium, high low for compatibility)
   ISTART =      0    job   : 0-new  1-cont  2-samecut
   ICHARG =      2    charge: 1-file 2-atom 10-const
   ISPIN  =      1    spin polarized calculation?
   LNONCOLLINEAR =      F non collinear calculations
   LSORBIT =      F    spin-orbit coupling
   INIWAV =      1    electr: 0-lowe 1-rand  2-diag
   LASPH  =      F    aspherical Exc in radial PAW
 Electronic Relaxation 1
   ENCUT  =  400.0 eV  29.40 Ry    5.42 a.u.   5.76  5.76 10.97*2*pi/ulx,y,z
   ENINI  =  400.0     initial cutoff
   ENAUG  =  368.1 eV  augmentation charge cutoff
   NELM   =     60;   NELMIN=  2; NELMDL=  0     # of ELM steps 
   EDIFF  = 0.1E-05   stopping-criterion for ELM
   LREAL  =      T    real-space projection
   NLSPLINE    = F    spline interpolate recip. space projectors
   LCOMPAT=      F    compatible to vasp.4.4
   GGA_COMPAT  = T    GGA compatible to vasp.4.4-vasp.4.6
   LMAXPAW     = -100 max onsite density
   LMAXMIX     =    2 max onsite mixed and CHGCAR
   VOSKOWN=      0    Vosko Wilk Nusair interpolation
   ROPT   =   -0.00050  -0.00050  -0.00050
 Ionic relaxation
   EDIFFG = 0.1E-04   stopping-criterion for IOM
   NSW    =     85    number of steps for IOM
   NBLOCK =      1;   KBLOCK =     85    inner block; outer block 
   IBRION =      6    ionic relax: 0-MD 1-quasi-New 2-CG
   NFREE  =      4    steps in history (QN), initial steepest desc. (CG)
   ISIF   =      3    stress and relaxation
   IWAVPR =     11    prediction:  0-non 1-charg 2-wave 3-comb
   ISYM   =      0    0-nonsym 1-usesym 2-fastsym
   LCORR  =      T    Harris-Foulkes like correction to forces

   POTIM  = 0.0150    time-step for ionic-motion
   TEIN   =    0.0    initial temperature
   TEBEG  =    0.0;   TEEND  =   0.0 temperature during run
   SMASS  =  -3.00    Nose mass-parameter (am)
   estimated Nose-frequenzy (Omega)   =  0.10E-29 period in steps = 0.42E+48 mass=  -0.285E-27a.u.
   SCALEE = 1.0000    scale energy and forces
   NPACO  =    256;   APACO  = 10.0  distance and # of slots for P.C.
   PSTRESS=    0.0 pullay stress

  Mass of Ions in am
   POMASS =  22.99 28.09 32.07
  Ionic Valenz
   ZVAL   =   7.00  4.00  6.00
  Atomic Wigner-Seitz radii
   RWIGS  =  -1.00 -1.00 -1.00
  virtual crystal weights 
   VCA    =   1.00  1.00  1.00
   NELECT =      23.0000    total number of electrons
   NUPDOWN=      -1.0000    fix difference up-down

 DOS related values:
   EMIN   =  10.00;   EMAX   =-10.00  energy-range for DOS
   EFERMI =   0.00
   ISMEAR =     0;   SIGMA  =   0.05  broadening in eV -4-tet -1-fermi 0-gaus

 Electronic relaxation 2 (details)
   IALGO  =     38    algorithm
   LDIAG  =      T    sub-space diagonalisation (order eigenvalues)
   LSUBROT=      F    optimize rotation matrix (better conditioning)
   TURBO    =      0    0=normal 1=particle mesh
   IRESTART =      0    0=no restart 2=restart with 2 vectors
   NREBOOT  =      0    no. of reboots
   NMIN     =      0    reboot dimension
   EREF     =   0.00    reference energy to select bands
   IMIX   =      4    mixing-type and parameters
     AMIX     =   0.40;   BMIX     =  1.00
     AMIX_MAG =   1.60;   BMIX_MAG =  1.00
     AMIN     =   0.10
     WC   =   100.;   INIMIX=   1;  MIXPRE=   1;  MAXMIX= -45

 Intra band minimization:
   WEIMIN = 0.0010     energy-eigenvalue tresh-hold
   EBREAK =  0.16E-07  absolut break condition
   DEPER  =   0.30     relativ break condition  

   TIME   =   0.40     timestep for ELM

  volume/ion in A,a.u.               =      18.19       122.73
  Fermi-wavevector in a.u.,A,eV,Ry     =   1.115264  2.107543 16.923112  1.243814
  Thomas-Fermi vector in A             =   2.251867

 Write flags
   LWAVE        =      F    write WAVECAR
   LDOWNSAMPLE  =      F    k-point downsampling of WAVECAR
   LCHARG       =      F    write CHGCAR
   LVTOT        =      F    write LOCPOT, total local potential
   LVHAR        =      F    write LOCPOT, Hartree potential only
   LELF         =      F    write electronic localiz. function (ELF)
   LORBIT       =      0    0 simple, 1 ext, 2 COOP (PROOUT), +10 PAW based schemes


 Dipole corrections
   LMONO  =      F    monopole corrections only (constant potential shift)
   LDIPOL =      F    correct potential (dipole corrections)
   IDIPOL =      0    1-x, 2-y, 3-z, 4-all directions 
   EPSILON=  1.0000000 bulk dielectric constant

 Exchange correlation treatment:
   GGA     =    --    GGA type
   LEXCH   =     8    internal setting for exchange type
   LIBXC   =     F    Libxc                    
   VOSKOWN =     0    Vosko Wilk Nusair interpolation
   LHFCALC =     F    Hartree Fock is set to
   LHFONE  =     F    Hartree Fock one center treatment
   AEXX    =    0.0000 exact exchange contribution

 Linear response parameters
   LEPSILON=     F    determine dielectric tensor
   LRPA    =     F    only Hartree local field effects (RPA)
   LNABLA  =     F    use nabla operator in PAW spheres
   LVEL    =     F    velocity operator in full k-point grid
   CSHIFT  =0.1000    complex shift for real part using Kramers Kronig
   OMEGAMAX=  -1.0    maximum frequency
   DEG_THRESHOLD= 0.2000000E-02 threshold for treating states as degnerate
   RTIME   =   -0.100 relaxation time in fs
  (WPLASMAI=    0.000 imaginary part of plasma frequency in eV, 0.658/RTIME)
   DFIELD  = 0.0000000 0.0000000 0.0000000 field for delta impulse in time

  Optional k-point grid parameters
   LKPOINTS_OPT  =     F    use optional k-point grid
   KPOINTS_OPT_MODE=     1    mode for optional k-point grid

 Orbital magnetization related:
   ORBITALMAG=     F  switch on orbital magnetization
   LCHIMAG   =     F  perturbation theory with respect to B field
   DQ        =  0.001000  dq finite difference perturbation B field
   LLRAUG    =     F  two centre corrections for induced B field



--------------------------------------------------------------------------------------------------------


 finite differences with symmetry
 charge density and potential will be updated during run
 non-spin polarized calculation
 Variant of blocked Davidson
 Davidson routine will perform the subspace rotation
 perform sub-space diagonalisation
    after iterative eigenvector-optimisation
 modified Broyden-mixing scheme, WC =      100.0
 initial mixing is a Kerker type mixing with AMIX =  0.4000 and BMIX =      1.0000
 Hartree-type preconditioning will be used
 using additional bands            4
 real space projection scheme for non local part
 use partial core corrections
 calculate Harris-corrections to forces   (improved forces if not selfconsistent)
 use gradient corrections 
 use of overlap-Matrix (Vanderbilt PP)
 Gauss-broadening in eV      SIGMA  =   0.05


--------------------------------------------------------------------------------------------------------


  energy-cutoff  :      400.00
  volume of cell :       72.75
      direct lattice vectors                 reciprocal lattice vectors
     3.533953607 -0.000000000 -0.000000000     0.282969193  0.163372340 -0.000000000
    -1.766976804  3.060493600  0.000000000     0.000000000  0.326744679 -0.000000000
     0.000000000  0.000000000  6.726157826     0.000000000  0.000000000  0.148673288

  length of vectors
     3.533953607  3.533953607  6.726157826     0.326744679  0.326744679  0.148673288



 k-points in units of 2pi/SCALE and weight: pymatgen with grid density = 600 / numbe
   0.00000000  0.00000000  0.00000000       0.009
   0.04716153  0.02722872  0.00000000       0.019
   0.00000000  0.05445745  0.00000000       0.019
  -0.04716153  0.02722872  0.00000000       0.019
   0.09432306  0.05445745  0.00000000       0.019
   0.00000000  0.10891489  0.00000000       0.019
  -0.09432306  0.05445745  0.00000000       0.019
   0.14148460  0.08168617  0.00000000       0.009
   0.00000000  0.16337234  0.00000000       0.009
   0.14148460  0.24505851  0.00000000       0.009
   0.04716153  0.08168617  0.00000000       0.019
  -0.04716153  0.08168617  0.00000000       0.019
  -0.09432306 -0.00000000  0.00000000       0.019
   0.09432306  0.10891489  0.00000000       0.019
  -0.04716153  0.13614362  0.00000000       0.019
   0.14148460  0.19060106  0.00000000       0.019
  -0.09432306  0.10891489  0.00000000       0.019
   0.04716153  0.13614362  0.00000000       0.019
   0.14148460  0.02722872  0.00000000       0.019
   0.09432306  0.16337234  0.00000000       0.019
   0.00000000  0.00000000  0.04955776       0.019
   0.04716153  0.02722872  0.04955776       0.019
   0.00000000  0.05445745  0.04955776       0.019
  -0.04716153  0.02722872  0.04955776       0.019
  -0.04716153 -0.02722872  0.04955776       0.019
  -0.00000000 -0.05445745  0.04955776       0.019
   0.04716153 -0.02722872  0.04955776       0.019
   0.09432306  0.05445745  0.04955776       0.019
   0.00000000  0.10891489  0.04955776       0.019
  -0.09432306  0.05445745  0.04955776       0.019
  -0.09432306 -0.05445745  0.04955776       0.019
  -0.00000000 -0.10891489  0.04955776       0.019
   0.09432306 -0.05445745  0.04955776       0.019
   0.14148460  0.08168617  0.04955776       0.019
   0.00000000  0.16337234  0.04955776       0.019
   0.14148460  0.24505851  0.04955776       0.019
   0.04716153  0.08168617  0.04955776       0.019
  -0.04716153  0.08168617  0.04955776       0.019
  -0.09432306 -0.00000000  0.04955776       0.019
  -0.04716153 -0.08168617  0.04955776       0.019
   0.04716153 -0.08168617  0.04955776       0.019
   0.09432306  0.00000000  0.04955776       0.019
   0.09432306  0.10891489  0.04955776       0.019
  -0.04716153  0.13614362  0.04955776       0.019
   0.14148460  0.19060106  0.04955776       0.019
  -0.09432306 -0.10891489  0.04955776       0.019
   0.04716153  0.19060106  0.04955776       0.019
   0.14148460 -0.02722872  0.04955776       0.019
  -0.09432306  0.10891489 -0.04955776       0.019
   0.04716153  0.13614362 -0.04955776       0.019
   0.14148460  0.02722872 -0.04955776       0.019
   0.09432306  0.21782979 -0.04955776       0.019
  -0.04716153 -0.13614362 -0.04955776       0.019
   0.14148460  0.13614362 -0.04955776       0.019
   0.09432306  0.16337234  0.04955776       0.019
  -0.09432306 -0.16337234  0.04955776       0.019

 k-points in reciprocal lattice and weights: pymatgen with grid density = 600 / numbe
   0.00000000  0.00000000  0.00000000       0.009
   0.16666667  0.00000000  0.00000000       0.019
   0.00000000  0.16666667  0.00000000       0.019
  -0.16666667  0.16666667  0.00000000       0.019
   0.33333333  0.00000000  0.00000000       0.019
   0.00000000  0.33333333  0.00000000       0.019
  -0.33333333  0.33333333  0.00000000       0.019
   0.50000000  0.00000000  0.00000000       0.009
   0.00000000  0.50000000  0.00000000       0.009
   0.50000000  0.50000000  0.00000000       0.009
   0.16666667  0.16666667  0.00000000       0.019
  -0.16666667  0.33333333  0.00000000       0.019
  -0.33333333  0.16666667  0.00000000       0.019
   0.33333333  0.16666667  0.00000000       0.019
  -0.16666667  0.50000000  0.00000000       0.019
   0.50000000  0.33333333  0.00000000       0.019
  -0.33333333  0.50000000  0.00000000       0.019
   0.16666667  0.33333333  0.00000000       0.019
   0.50000000 -0.16666667  0.00000000       0.019
   0.33333333  0.33333333  0.00000000       0.019
   0.00000000  0.00000000  0.33333333       0.019
   0.16666667  0.00000000  0.33333333       0.019
   0.00000000  0.16666667  0.33333333       0.019
  -0.16666667  0.16666667  0.33333333       0.019
  -0.16666667  0.00000000  0.33333333       0.019
   0.00000000 -0.16666667  0.33333333       0.019
   0.16666667 -0.16666667  0.33333333       0.019
   0.33333333  0.00000000  0.33333333       0.019
   0.00000000  0.33333333  0.33333333       0.019
  -0.33333333  0.33333333  0.33333333       0.019
  -0.33333333  0.00000000  0.33333333       0.019
   0.00000000 -0.33333333  0.33333333       0.019
   0.33333333 -0.33333333  0.33333333       0.019
   0.50000000  0.00000000  0.33333333       0.019
   0.00000000  0.50000000  0.33333333       0.019
   0.50000000  0.50000000  0.33333333       0.019
   0.16666667  0.16666667  0.33333333       0.019
  -0.16666667  0.33333333  0.33333333       0.019
  -0.33333333  0.16666667  0.33333333       0.019
  -0.16666667 -0.16666667  0.33333333       0.019
   0.16666667 -0.33333333  0.33333333       0.019
   0.33333333 -0.16666667  0.33333333       0.019
   0.33333333  0.16666667  0.33333333       0.019
  -0.16666667  0.50000000  0.33333333       0.019
   0.50000000  0.33333333  0.33333333       0.019
  -0.33333333 -0.16666667  0.33333333       0.019
   0.16666667  0.50000000  0.33333333       0.019
   0.50000000 -0.33333333  0.33333333       0.019
  -0.33333333  0.50000000 -0.33333333       0.019
   0.16666667  0.33333333 -0.33333333       0.019
   0.50000000 -0.16666667 -0.33333333       0.019
   0.33333333  0.50000000 -0.33333333       0.019
  -0.16666667 -0.33333333 -0.33333333       0.019
   0.50000000  0.16666667 -0.33333333       0.019
   0.33333333  0.33333333  0.33333333       0.019
  -0.33333333 -0.33333333  0.33333333       0.019

 position of ions in fractional coordinates (direct lattice) 
   0.00000000  0.00000000  0.50000032
   0.00000000  0.00000000  0.00000000
   0.33333292  0.66666584  0.79994969
   0.66666589  0.33333292  0.20005095

 position of ions in cartesian coordinates  (Angst):
   0.00000000  0.00000000  3.36308106
   0.00000000  0.00000000  0.00000000
  -0.00000000  2.04032654  5.38058788
   1.76697478  1.02016327  1.34557425



--------------------------------------------------------------------------------------------------------


 k-point   1 :   0.0000 0.0000 0.0000  plane waves:    1317
 k-point   2 :   0.1667 0.0000 0.0000  plane waves:    1318
 k-point   3 :   0.0000 0.1667 0.0000  plane waves:    1318
 k-point   4 :  -0.1667 0.1667 0.0000  plane waves:    1318
 k-point   5 :   0.3333 0.0000 0.0000  plane waves:    1318
 k-point   6 :   0.0000 0.3333 0.0000  plane waves:    1318
 k-point   7 :  -0.3333 0.3333 0.0000  plane waves:    1318
 k-point   8 :   0.5000 0.0000 0.0000  plane waves:    1316
 k-point   9 :   0.0000 0.5000 0.0000  plane waves:    1316
 k-point  10 :   0.5000 0.5000 0.0000  plane waves:    1316
 k-point  11 :   0.1667 0.1667 0.0000  plane waves:    1324
 k-point  12 :  -0.1667 0.3333 0.0000  plane waves:    1324
 k-point  13 :  -0.3333 0.1667 0.0000  plane waves:    1324
 k-point  14 :   0.3333 0.1667 0.0000  plane waves:    1322
 k-point  15 :  -0.1667 0.5000 0.0000  plane waves:    1322
 k-point  16 :   0.5000 0.3333 0.0000  plane waves:    1322
 k-point  17 :  -0.3333 0.5000 0.0000  plane waves:    1322
 k-point  18 :   0.1667 0.3333 0.0000  plane waves:    1322
 k-point  19 :   0.5000-0.1667 0.0000  plane waves:    1322
 k-point  20 :   0.3333 0.3333 0.0000  plane waves:    1308
 k-point  21 :   0.0000 0.0000 0.3333  plane waves:    1312
 k-point  22 :   0.1667 0.0000 0.3333  plane waves:    1324
 k-point  23 :   0.0000 0.1667 0.3333  plane waves:    1324
 k-point  24 :  -0.1667 0.1667 0.3333  plane waves:    1324
 k-point  25 :  -0.1667 0.0000 0.3333  plane waves:    1324
 k-point  26 :   0.0000-0.1667 0.3333  plane waves:    1324
 k-point  27 :   0.1667-0.1667 0.3333  plane waves:    1324
 k-point  28 :   0.3333 0.0000 0.3333  plane waves:    1328
 k-point  29 :   0.0000 0.3333 0.3333  plane waves:    1328
 k-point  30 :  -0.3333 0.3333 0.3333  plane waves:    1328
 k-point  31 :  -0.3333 0.0000 0.3333  plane waves:    1328
 k-point  32 :   0.0000-0.3333 0.3333  plane waves:    1328
 k-point  33 :   0.3333-0.3333 0.3333  plane waves:    1328
 k-point  34 :   0.5000 0.0000 0.3333  plane waves:    1332
 k-point  35 :   0.0000 0.5000 0.3333  plane waves:    1332
 k-point  36 :   0.5000 0.5000 0.3333  plane waves:    1332
 k-point  37 :   0.1667 0.1667 0.3333  plane waves:    1318
 k-point  38 :  -0.1667 0.3333 0.3333  plane waves:    1318
 k-point  39 :  -0.3333 0.1667 0.3333  plane waves:    1318
 k-point  40 :  -0.1667-0.1667 0.3333  plane waves:    1318
 k-point  41 :   0.1667-0.3333 0.3333  plane waves:    1318
 k-point  42 :   0.3333-0.1667 0.3333  plane waves:    1318
 k-point  43 :   0.3333 0.1667 0.3333  plane waves:    1324
 k-point  44 :  -0.1667 0.5000 0.3333  plane waves:    1324
 k-point  45 :   0.5000 0.3333 0.3333  plane waves:    1324
 k-point  46 :  -0.3333-0.1667 0.3333  plane waves:    1324
 k-point  47 :   0.1667 0.5000 0.3333  plane waves:    1324
 k-point  48 :   0.5000-0.3333 0.3333  plane waves:    1324
 k-point  49 :  -0.3333 0.5000-0.3333  plane waves:    1324
 k-point  50 :   0.1667 0.3333-0.3333  plane waves:    1324
 k-point  51 :   0.5000-0.1667-0.3333  plane waves:    1324
 k-point  52 :   0.3333 0.5000-0.3333  plane waves:    1324
 k-point  53 :  -0.1667-0.3333-0.3333  plane waves:    1324
 k-point  54 :   0.5000 0.1667-0.3333  plane waves:    1324
 k-point  55 :   0.3333 0.3333 0.3333  plane waves:    1335
 k-point  56 :  -0.3333-0.3333 0.3333  plane waves:    1335

 maximum and minimum number of plane-waves per node :      1335     1308

 maximum number of plane-waves:      1335
 maximum index in each direction: 
   IXMAX=    6   IYMAX=    6   IZMAX=   11
   IXMIN=   -6   IYMIN=   -6   IZMIN=  -11


 serial   3D FFT for wavefunctions
 parallel 3D FFT for charge:
    minimum data exchange during FFTs selected (reduces bandwidth)


 total amount of memory used by VASP MPI-rank0    34724. kBytes
=======================================================================

   base      :      30000. kBytes
   nonlr-proj:        457. kBytes
   fftplans  :        486. kBytes
   grid      :       1318. kBytes
   one-center:         12. kBytes
   wavefun   :       2451. kBytes

     INWAV:  cpu time      0.0000: real time      0.0002
 Broyden mixing: mesh for mixing (old mesh)
   NGX = 11   NGY = 11   NGZ = 21
  (NGX  = 36   NGY  = 36   NGZ  = 72)
  gives a total of   2541 points

 initial charge density was supplied:
 charge density of overlapping atoms calculated
 number of electron      23.0000000 magnetization 
 keeping initial charge density in first step


--------------------------------------------------------------------------------------------------------


 Maximum index for non-local projection operator         1447
 Maximum index for augmentation-charges          815 (set IRDMAX)


--------------------------------------------------------------------------------------------------------


 First call to EWALD:  gamma=   0.425
 Maximum number of real-space cells 4x 4x 2
 Maximum number of reciprocal cells 2x 2x 4

    FEWALD:  cpu time      0.0005: real time      0.0005


--------------------------------------- Iteration      1(   1)  ---------------------------------------


    POTLOK:  cpu time      0.0089: real time      0.0298
    SETDIJ:  cpu time      0.0012: real time      0.0013
     EDDAV:  cpu time      0.4649: real time      0.4651
       DOS:  cpu time      0.0004: real time      0.0005
    --------------------------------------------
      LOOP:  cpu time      0.4755: real time      0.4967

 eigenvalue-minimisations  :  1792
 total energy-change (2. order) : 0.1268619E+03  (-0.9516228E+03)
 number of electron      23.0000000 magnetization 
 augmentation part       23.0000000 magnetization 

 Free energy of the ion-electron system (eV)
  ---------------------------------------------------
  alpha Z        PSCENC =        32.33957086
  Ewald energy   TEWEN  =     -1049.14558693
  -Hartree energ DENC   =      -271.84492402
  -exchange      EXHF   =         0.00000000
  -V(xc)+E(xc)   XCENC  =        40.67781534
  PAW double counting   =      1025.43992223    -1090.03883641
  entropy T*S    EENTRO =        -0.00110815
  eigenvalues    EBANDS =        16.69890892
  atomic energy  EATOM  =      1422.73612946
  Solvation  Ediel_sol  =         0.00000000
  ---------------------------------------------------
  free energy    TOTEN  =       126.86189131 eV

  energy without entropy =      126.86299947  energy(sigma->0) =      126.86244539


--------------------------------------------------------------------------------------------------------




--------------------------------------- Iteration      1(   2)  ---------------------------------------


     EDDAV:  cpu time      0.5210: real time      0.5241
       DOS:  cpu time      0.0004: real time      0.0004
    --------------------------------------------
      LOOP:  cpu time      0.5213: real time      0.5245

 eigenvalue-minimisations  :  2056
 total energy-change (2. order) :-0.1343176E+03  (-0.1317038E+03)
 number of electron      23.0000000 magnetization 
 augmentation part       23.0000000 magnetization 

 Free energy of the ion-electron system (eV)
  ---------------------------------------------------
  alpha Z        PSCENC =        32.33957086
  Ewald energy   TEWEN  =     -1049.14558693
  -Hartree energ DENC   =      -271.84492402
  -exchange      EXHF   =         0.00000000
  -V(xc)+E(xc)   XCENC  =        40.67781534
  PAW double counting   =      1025.43992223    -1090.03883641
  entropy T*S    EENTRO =        -0.00210162
  eigenvalues    EBANDS =      -117.61765148
  atomic energy  EATOM  =      1422.73612946
  Solvation  Ediel_sol  =         0.00000000
  ---------------------------------------------------
  free energy    TOTEN  =        -7.45566255 eV

  energy without entropy =       -7.45356093  energy(sigma->0) =       -7.45461174


--------------------------------------------------------------------------------------------------------




--------------------------------------- Iteration      1(   3)  ---------------------------------------


     EDDAV:  cpu time      0.6384: real time      0.6387
       DOS:  cpu time      0.0005: real time      0.0005
    --------------------------------------------
      LOOP:  cpu time      0.6389: real time      0.6392

 eigenvalue-minimisations  :  2504
 total energy-change (2. order) :-0.1001780E+02  (-0.9923554E+01)
 number of electron      23.0000000 magnetization 
 augmentation part       23.0000000 magnetization 

 Free energy of the ion-electron system (eV)
  ---------------------------------------------------
  alpha Z        PSCENC =        32.33957086
  Ewald energy   TEWEN  =     -1049.14558693
  -Hartree energ DENC   =      -271.84492402
  -exchange      EXHF   =         0.00000000
  -V(xc)+E(xc)   XCENC  =        40.67781534
  PAW double counting   =      1025.43992223    -1090.03883641
  entropy T*S    EENTRO =        -0.00613965
  eigenvalues    EBANDS =      -127.63141563
  atomic energy  EATOM  =      1422.73612946
  Solvation  Ediel_sol  =         0.00000000
  ---------------------------------------------------
  free energy    TOTEN  =       -17.47346473 eV

  energy without entropy =      -17.46732508  energy(sigma->0) =      -17.47039490


--------------------------------------------------------------------------------------------------------




--------------------------------------- Iteration      1(   4)  ---------------------------------------


     EDDAV:  cpu time      0.5431: real time      0.5433
       DOS:  cpu time      0.0004: real time      0.0005
    --------------------------------------------
      LOOP:  cpu time      0.5435: real time      0.5438

 eigenvalue-minimisations  :  2136
 total energy-change (2. order) :-0.1590894E+00  (-0.1587454E+00)
 number of electron      23.0000000 magnetization 
 augmentation part       23.0000000 magnetization 

 Free energy of the ion-electron system (eV)
  ---------------------------------------------------
  alpha Z        PSCENC =        32.33957086
  Ewald energy   TEWEN  =     -1049.14558693
  -Hartree energ DENC   =      -271.84492402
  -exchange      EXHF   =         0.00000000
  -V(xc)+E(xc)   XCENC  =        40.67781534
  PAW double counting   =      1025.43992223    -1090.03883641
  entropy T*S    EENTRO =        -0.00619483
  eigenvalues    EBANDS =      -127.79044985
  atomic energy  EATOM  =      1422.73612946
  Solvation  Ediel_sol  =         0.00000000
  ---------------------------------------------------
  free energy    TOTEN  =       -17.63255414 eV

  energy without entropy =      -17.62635930  energy(sigma->0) =      -17.62945672


--------------------------------------------------------------------------------------------------------




--------------------------------------- Iteration      1(   5)  ---------------------------------------


     EDDAV:  cpu time      0.6306: real time      0.6309
       DOS:  cpu time      0.0004: real time      0.0004
    CHARGE:  cpu time      0.0399: real time      0.0399
    MIXING:  cpu time      0.0004: real time      0.0004
    --------------------------------------------
      LOOP:  cpu time      0.6712: real time      0.6716

 eigenvalue-minimisations  :  2512
 total energy-change (2. order) :-0.4697363E-02  (-0.4696908E-02)
 number of electron      22.9999903 magnetization 
 augmentation part        2.5311310 magnetization 

 Broyden mixing:
  rms(total) = 0.88307E+00    rms(broyden)= 0.88306E+00
  rms(prec ) = 0.99389E+00
  weight for this iteration     100.00

 Free energy of the ion-electron system (eV)
  ---------------------------------------------------
  alpha Z        PSCENC =        32.33957086
  Ewald energy   TEWEN  =     -1049.14558693
  -Hartree energ DENC   =      -271.84492402
  -exchange      EXHF   =         0.00000000
  -V(xc)+E(xc)   XCENC  =        40.67781534
  PAW double counting   =      1025.43992223    -1090.03883641
  entropy T*S    EENTRO =        -0.00619298
  eigenvalues    EBANDS =      -127.79514906
  atomic energy  EATOM  =      1422.73612946
  Solvation  Ediel_sol  =         0.00000000
  ---------------------------------------------------
  free energy    TOTEN  =       -17.63725150 eV

  energy without entropy =      -17.63105852  energy(sigma->0) =      -17.63415501


--------------------------------------------------------------------------------------------------------




--------------------------------------- Iteration      1(   6)  ---------------------------------------


    POTLOK:  cpu time      0.0085: real time      0.0087
    SETDIJ:  cpu time      0.0011: real time      0.0011
     EDDAV:  cpu time      0.5413: real time      0.5414
       DOS:  cpu time      0.0004: real time      0.0004
    CHARGE:  cpu time      0.0388: real time      0.0388
    MIXING:  cpu time      0.0004: real time      0.0004
    --------------------------------------------
      LOOP:  cpu time      0.5905: real time      0.5908

 eigenvalue-minimisations  :  2136
 total energy-change (2. order) : 0.2943650E+00  (-0.7298177E-01)
 number of electron      22.9999903 magnetization 
 augmentation part        2.5650876 magnetization 

 Broyden mixing:
  rms(total) = 0.60354E+00    rms(broyden)= 0.60354E+00
  rms(prec ) = 0.63407E+00
  weight for this iteration     100.00

 eigenvalues of (default mixing * dielectric matrix)
  average eigenvalue GAMMA=   2.7613
  2.7613

 Free energy of the ion-electron system (eV)
  ---------------------------------------------------
  alpha Z        PSCENC =        32.33957086
  Ewald energy   TEWEN  =     -1049.14558693
  -Hartree energ DENC   =      -274.65152038
  -exchange      EXHF   =         0.00000000
  -V(xc)+E(xc)   XCENC  =        41.09271862
  PAW double counting   =      1315.95239861    -1380.59935323
  entropy T*S    EENTRO =        -0.00612023
  eigenvalues    EBANDS =      -125.06112332
  atomic energy  EATOM  =      1422.73612946
  Solvation  Ediel_sol  =         0.00000000
  ---------------------------------------------------
  free energy    TOTEN  =       -17.34288654 eV

  energy without entropy =      -17.33676630  energy(sigma->0) =      -17.33982642


--------------------------------------------------------------------------------------------------------




--------------------------------------- Iteration      1(   7)  ---------------------------------------


    POTLOK:  cpu time      0.0081: real time      0.0082
    SETDIJ:  cpu time      0.0011: real time      0.0011
     EDDAV:  cpu time      0.6067: real time      0.6069
       DOS:  cpu time      0.0004: real time      0.0005
    CHARGE:  cpu time      0.0392: real time      0.0392
    MIXING:  cpu time      0.0003: real time      0.0003
    --------------------------------------------
      LOOP:  cpu time      0.6558: real time      0.6562

 eigenvalue-minimisations  :  2424
 total energy-change (2. order) : 0.2357063E-01  (-0.2833241E-01)
 number of electron      22.9999903 magnetization 
 augmentation part        2.5870211 magnetization 

 Broyden mixing:
  rms(total) = 0.13977E+00    rms(broyden)= 0.13977E+00
  rms(prec ) = 0.15249E+00
  weight for this iteration     100.00

 eigenvalues of (default mixing * dielectric matrix)
  average eigenvalue GAMMA=   1.7569
  1.2224  2.2914

 Free energy of the ion-electron system (eV)
  ---------------------------------------------------
  alpha Z        PSCENC =        32.33957086
  Ewald energy   TEWEN  =     -1049.14558693
  -Hartree energ DENC   =      -276.15518699
  -exchange      EXHF   =         0.00000000
  -V(xc)+E(xc)   XCENC  =        41.46874858
  PAW double counting   =      1844.85588895    -1909.75308030
  entropy T*S    EENTRO =        -0.00622676
  eigenvalues    EBANDS =      -123.65957279
  atomic energy  EATOM  =      1422.73612946
  Solvation  Ediel_sol  =         0.00000000
  ---------------------------------------------------
  free energy    TOTEN  =       -17.31931591 eV

  energy without entropy =      -17.31308915  energy(sigma->0) =      -17.31620253


--------------------------------------------------------------------------------------------------------




--------------------------------------- Iteration      1(   8)  ---------------------------------------


    POTLOK:  cpu time      0.0122: real time      0.0124
    SETDIJ:  cpu time      0.0012: real time      0.0012
     EDDAV:  cpu time      0.5330: real time      0.5331
       DOS:  cpu time      0.0005: real time      0.0005
    CHARGE:  cpu time      0.0398: real time      0.0398
    MIXING:  cpu time      0.0004: real time      0.0004
    --------------------------------------------
      LOOP:  cpu time      0.5871: real time      0.5874

 eigenvalue-minimisations  :  2096
 total energy-change (2. order) : 0.2490813E-02  (-0.1743085E-02)
 number of electron      22.9999903 magnetization 
 augmentation part        2.5836255 magnetization 

 Broyden mixing:
  rms(total) = 0.35732E-01    rms(broyden)= 0.35732E-01
  rms(prec ) = 0.40635E-01
  weight for this iteration     100.00

 eigenvalues of (default mixing * dielectric matrix)
  average eigenvalue GAMMA=   1.7020
  2.4718  1.1162  1.5181

 Free energy of the ion-electron system (eV)
  ---------------------------------------------------
  alpha Z        PSCENC =        32.33957086
  Ewald energy   TEWEN  =     -1049.14558693
  -Hartree energ DENC   =      -275.61367865
  -exchange      EXHF   =         0.00000000
  -V(xc)+E(xc)   XCENC  =        41.48569317
  PAW double counting   =      1953.87909806    -2018.91943667
  entropy T*S    EENTRO =        -0.00621826
  eigenvalues    EBANDS =      -124.07239615
  atomic energy  EATOM  =      1422.73612946
  Solvation  Ediel_sol  =         0.00000000
  ---------------------------------------------------
  free energy    TOTEN  =       -17.31682510 eV

  energy without entropy =      -17.31060683  energy(sigma->0) =      -17.31371596


--------------------------------------------------------------------------------------------------------




--------------------------------------- Iteration      1(   9)  ---------------------------------------


    POTLOK:  cpu time      0.0085: real time      0.0086
    SETDIJ:  cpu time      0.0011: real time      0.0011
     EDDAV:  cpu time      0.5686: real time      0.5688
       DOS:  cpu time      0.0004: real time      0.0005
    CHARGE:  cpu time      0.0389: real time      0.0389
    MIXING:  cpu time      0.0003: real time      0.0003
    --------------------------------------------
      LOOP:  cpu time      0.6179: real time      0.6182

 eigenvalue-minimisations  :  2256
 total energy-change (2. order) :-0.3997198E-03  (-0.2648005E-03)
 number of electron      22.9999903 magnetization 
 augmentation part        2.5816393 magnetization 

 Broyden mixing:
  rms(total) = 0.10856E-01    rms(broyden)= 0.10856E-01
  rms(prec ) = 0.12086E-01
  weight for this iteration     100.00

 eigenvalues of (default mixing * dielectric matrix)
  average eigenvalue GAMMA=   1.6014
  2.2408  1.0966  1.4400  1.6282

 Free energy of the ion-electron system (eV)
  ---------------------------------------------------
  alpha Z        PSCENC =        32.33957086
  Ewald energy   TEWEN  =     -1049.14558693
  -Hartree energ DENC   =      -275.42847135
  -exchange      EXHF   =         0.00000000
  -V(xc)+E(xc)   XCENC  =        41.49860645
  PAW double counting   =      1980.60707523    -2045.69774054
  entropy T*S    EENTRO =        -0.00619592
  eigenvalues    EBANDS =      -124.22061208
  atomic energy  EATOM  =      1422.73612946
  Solvation  Ediel_sol  =         0.00000000
  ---------------------------------------------------
  free energy    TOTEN  =       -17.31722482 eV

  energy without entropy =      -17.31102889  energy(sigma->0) =      -17.31412685


--------------------------------------------------------------------------------------------------------




--------------------------------------- Iteration      1(  10)  ---------------------------------------


    POTLOK:  cpu time      0.0081: real time      0.0082
    SETDIJ:  cpu time      0.0011: real time      0.0011
     EDDAV:  cpu time      0.5582: real time      0.5584
       DOS:  cpu time      0.0004: real time      0.0004
    CHARGE:  cpu time      0.0392: real time      0.0392
    MIXING:  cpu time      0.0004: real time      0.0004
    --------------------------------------------
      LOOP:  cpu time      0.6073: real time      0.6077

 eigenvalue-minimisations  :  2216
 total energy-change (2. order) :-0.6729451E-04  (-0.1728620E-04)
 number of electron      22.9999903 magnetization 
 augmentation part        2.5817941 magnetization 

 Broyden mixing:
  rms(total) = 0.41600E-02    rms(broyden)= 0.41600E-02
  rms(prec ) = 0.56139E-02
  weight for this iteration     100.00

 eigenvalues of (default mixing * dielectric matrix)
  average eigenvalue GAMMA=   1.7039
  2.4759  2.4759  1.0941  1.2368  1.2368

 Free energy of the ion-electron system (eV)
  ---------------------------------------------------
  alpha Z        PSCENC =        32.33957086
  Ewald energy   TEWEN  =     -1049.14558693
  -Hartree energ DENC   =      -275.43283412
  -exchange      EXHF   =         0.00000000
  -V(xc)+E(xc)   XCENC  =        41.49949022
  PAW double counting   =      1965.64930242    -2030.74035215
  entropy T*S    EENTRO =        -0.00619407
  eigenvalues    EBANDS =      -124.21681781
  atomic energy  EATOM  =      1422.73612946
  Solvation  Ediel_sol  =         0.00000000
  ---------------------------------------------------
  free energy    TOTEN  =       -17.31729211 eV

  energy without entropy =      -17.31109804  energy(sigma->0) =      -17.31419508


--------------------------------------------------------------------------------------------------------




--------------------------------------- Iteration      1(  11)  ---------------------------------------


    POTLOK:  cpu time      0.0081: real time      0.0083
    SETDIJ:  cpu time      0.0011: real time      0.0011
     EDDAV:  cpu time      0.5235: real time      0.5235
       DOS:  cpu time      0.0004: real time      0.0004
    CHARGE:  cpu time      0.0390: real time      0.0390
    MIXING:  cpu time      0.0003: real time      0.0003
    --------------------------------------------
      LOOP:  cpu time      0.5724: real time      0.5727

 eigenvalue-minimisations  :  2064
 total energy-change (2. order) :-0.5141440E-04  (-0.7244657E-05)
 number of electron      22.9999903 magnetization 
 augmentation part        2.5817471 magnetization 

 Broyden mixing:
  rms(total) = 0.86344E-03    rms(broyden)= 0.86342E-03
  rms(prec ) = 0.12055E-02
  weight for this iteration     100.00

 eigenvalues of (default mixing * dielectric matrix)
  average eigenvalue GAMMA=   1.7400
  2.8108  2.4581  1.6371  1.0271  1.2535  1.2535

 Free energy of the ion-electron system (eV)
  ---------------------------------------------------
  alpha Z        PSCENC =        32.33957086
  Ewald energy   TEWEN  =     -1049.14558693
  -Hartree energ DENC   =      -275.39568353
  -exchange      EXHF   =         0.00000000
  -V(xc)+E(xc)   XCENC  =        41.50232081
  PAW double counting   =      1961.04502677    -2026.14993728
  entropy T*S    EENTRO =        -0.00619224
  eigenvalues    EBANDS =      -124.24299145
  atomic energy  EATOM  =      1422.73612946
  Solvation  Ediel_sol  =         0.00000000
  ---------------------------------------------------
  free energy    TOTEN  =       -17.31734352 eV

  energy without entropy =      -17.31115129  energy(sigma->0) =      -17.31424741


--------------------------------------------------------------------------------------------------------




--------------------------------------- Iteration      1(  12)  ---------------------------------------


    POTLOK:  cpu time      0.0081: real time      0.0083
    SETDIJ:  cpu time      0.0011: real time      0.0011
     EDDAV:  cpu time      0.6296: real time      0.6298
       DOS:  cpu time      0.0004: real time      0.0004
    CHARGE:  cpu time      0.0390: real time      0.0390
    MIXING:  cpu time      0.0003: real time      0.0003
    --------------------------------------------
      LOOP:  cpu time      0.6785: real time      0.6789

 eigenvalue-minimisations  :  2520
 total energy-change (2. order) :-0.1946026E-05  (-0.5232484E-06)
 number of electron      22.9999903 magnetization 
 augmentation part        2.5817785 magnetization 

 Broyden mixing:
  rms(total) = 0.90040E-03    rms(broyden)= 0.90040E-03
  rms(prec ) = 0.93624E-03
  weight for this iteration     100.00

 eigenvalues of (default mixing * dielectric matrix)
  average eigenvalue GAMMA=   1.7005
  2.8611  2.5798  2.1665  1.2177  1.2177  1.0876  0.7734

 Free energy of the ion-electron system (eV)
  ---------------------------------------------------
  alpha Z        PSCENC =        32.33957086
  Ewald energy   TEWEN  =     -1049.14558693
  -Hartree energ DENC   =      -275.40045756
  -exchange      EXHF   =         0.00000000
  -V(xc)+E(xc)   XCENC  =        41.50365081
  PAW double counting   =      1961.66712590    -2026.77420981
  entropy T*S    EENTRO =        -0.00619175
  eigenvalues    EBANDS =      -124.23737645
  atomic energy  EATOM  =      1422.73612946
  Solvation  Ediel_sol  =         0.00000000
  ---------------------------------------------------
  free energy    TOTEN  =       -17.31734547 eV

  energy without entropy =      -17.31115372  energy(sigma->0) =      -17.31424960


--------------------------------------------------------------------------------------------------------




--------------------------------------- Iteration      1(  13)  ---------------------------------------


    POTLOK:  cpu time      0.0082: real time      0.0084
    SETDIJ:  cpu time      0.0011: real time      0.0011
     EDDAV:  cpu time      0.4379: real time      0.4379
       DOS:  cpu time      0.0004: real time      0.0004
    --------------------------------------------
      LOOP:  cpu time      0.4475: real time      0.4478

 eigenvalue-minimisations  :  1608
 total energy-change (2. order) :-0.5937698E-06  (-0.7873544E-07)
 number of electron      22.9999903 magnetization 
 augmentation part        2.5817785 magnetization 

 Free energy of the ion-electron system (eV)
  ---------------------------------------------------
  alpha Z        PSCENC =        32.33957086
  Ewald energy   TEWEN  =     -1049.14558693
  -Hartree energ DENC   =      -275.40441250
  -exchange      EXHF   =         0.00000000
  -V(xc)+E(xc)   XCENC  =        41.50375761
  PAW double counting   =      1960.91684663    -2026.02401599
  entropy T*S    EENTRO =        -0.00619141
  eigenvalues    EBANDS =      -124.23344381
  atomic energy  EATOM  =      1422.73612946
  Solvation  Ediel_sol  =         0.00000000
  ---------------------------------------------------
  free energy    TOTEN  =       -17.31734606 eV

  energy without entropy =      -17.31115465  energy(sigma->0) =      -17.31425036


--------------------------------------------------------------------------------------------------------




 average (electrostatic) potential at core
  the test charge radii are     0.9254  0.9892  0.9698
  (the norm of the test charge is              1.0000)
       1 -44.4156       2 -84.8495       3 -86.3531       4 -86.3531



 E-fermi :   6.1150     XC(G=0):  -9.6050     alpha+bet :-11.3217

 Fermi energy:         6.1149562339

 k-point     1 :       0.0000    0.0000    0.0000
  band No.  band energies     occupation 
      1     -18.6070      2.00000
      2     -18.6041      2.00000
      3     -18.6040      2.00000
      4      -9.8316      2.00000
      5      -7.8383      2.00000
      6      -1.5864      2.00000
      7       3.2419      2.00000
      8       3.4616      2.00000
      9       3.4616      2.00000
     10       3.4807      2.00000
     11       3.4807      2.00000
     12       5.6375      2.00000
     13       7.6327      0.00000
     14       8.8219      0.00000
     15       8.8219      0.00000
     16       9.1373      0.00000

 k-point     2 :       0.1667    0.0000    0.0000
  band No.  band energies     occupation 
      1     -18.6175      2.00000
      2     -18.6071      2.00000
      3     -18.6037      2.00000
      4      -9.5085      2.00000
      5      -7.6577      2.00000
      6      -1.4607      2.00000
      7       1.2515      2.00000
      8       2.4042      2.00000
      9       2.5373      2.00000
     10       3.2563      2.00000
     11       3.8037      2.00000
     12       6.8020      0.00000
     13       7.6804      0.00000
     14       9.1458      0.00000
     15       9.3624      0.00000
     16      10.4712      0.00000

 k-point     3 :       0.0000    0.1667    0.0000
  band No.  band energies     occupation 
      1     -18.6175      2.00000
      2     -18.6071      2.00000
      3     -18.6037      2.00000
      4      -9.5085      2.00000
      5      -7.6577      2.00000
      6      -1.4607      2.00000
      7       1.2515      2.00000
      8       2.4042      2.00000
      9       2.5373      2.00000
     10       3.2563      2.00000
     11       3.8037      2.00000
     12       6.8020      0.00000
     13       7.6804      0.00000
     14       9.1458      0.00000
     15       9.3624      0.00000
     16      10.4712      0.00000

 k-point     4 :      -0.1667    0.1667    0.0000
  band No.  band energies     occupation 
      1     -18.6175      2.00000
      2     -18.6070      2.00000
      3     -18.6037      2.00000
      4      -9.5085      2.00000
      5      -7.6577      2.00000
      6      -1.4607      2.00000
      7       1.2515      2.00000
      8       2.4042      2.00000
      9       2.5373      2.00000
     10       3.2563      2.00000
     11       3.8037      2.00000
     12       6.8020      0.00000
     13       7.6804      0.00000
     14       9.1458      0.00000
     15       9.3624      0.00000
     16      10.4713      0.00000

 k-point     5 :       0.3333    0.0000    0.0000
  band No.  band energies     occupation 
      1     -18.6440      2.00000
      2     -18.6131      2.00000
      3     -18.5974      2.00000
      4      -8.6337      2.00000
      5      -7.3195      2.00000
      6      -2.1344      2.00000
      7      -0.2740      2.00000
      8       1.1312      2.00000
      9       1.7321      2.00000
     10       3.0740      2.00000
     11       3.5621      2.00000
     12       5.6173      2.00000
     13       8.2444      0.00000
     14       9.6562      0.00000
     15       9.9686      0.00000
     16      10.3036      0.00000

 k-point     6 :       0.0000    0.3333    0.0000
  band No.  band energies     occupation 
[...]
  0.000 -23.379  -0.000  -0.000   1.605   0.000  -0.001  -0.003
  0.000  -0.000 -23.401  -0.000   0.000   1.614  -0.000  -0.000
  1.614  -0.000  -0.000   6.911   0.000   0.000   0.000   0.000
 -0.000   1.605   0.000   0.000   6.913  -0.000   0.000   0.000
 -0.000   0.000   1.614   0.000  -0.000   6.911   0.000   0.000
 -0.000  -0.001  -0.000   0.000   0.000   0.000   1.438   6.970
 -0.000  -0.003  -0.000   0.000   0.000   0.000   6.970  33.639
 total augmentation occupancy for first ion, spin component:           1
  2.001   0.000   0.000   0.000  -0.000   0.000   0.000  -0.000
  0.000   2.001  -0.000  -0.000  -0.003   0.000   0.003  -0.001
  0.000  -0.000   2.001   0.000   0.000   0.000   0.000  -0.000
  0.000  -0.000   0.000   0.018   0.000   0.000   0.000   0.000
 -0.000  -0.003   0.000   0.000   0.024  -0.000   0.002   0.000
  0.000   0.000   0.000   0.000  -0.000   0.018   0.000  -0.000
  0.000   0.003   0.000   0.000   0.002   0.000   0.536  -0.001
 -0.000  -0.001  -0.000   0.000   0.000  -0.000  -0.001   0.000


------------------------ aborting loop because EDIFF is reached ----------------------------------------


    CHARGE:  cpu time      0.0389: real time      0.0389
    FORLOC:  cpu time      0.0007: real time      0.0007
    FORNL :  cpu time      0.1615: real time      0.1618
    STRESS:  cpu time      0.4842: real time      0.4844
    FORCOR:  cpu time      0.0082: real time      0.0082
    FORHAR:  cpu time      0.0024: real time      0.0024
    MIXING:  cpu time      0.0003: real time      0.0003
    OFIELD:  cpu time      0.0000: real time      0.0000

  FORCE on cell =-STRESS in cart. coord.  units (eV):
  Direction    XX          YY          ZZ          XY          YZ          ZX
  --------------------------------------------------------------------------------------
  Alpha Z    32.33957    32.33957    32.33957
  Ewald    -362.14923  -362.14903  -324.13626     0.00017    -0.00002     0.00004
  Hartree    82.61450    82.61467   110.69795     0.00014     0.00001    -0.00002
  E(xc)     -93.14943   -93.14953   -93.20831    -0.00009     0.00000    -0.00001
  Local     -61.12702   -61.12722  -128.83243    -0.00016     0.00002    -0.00005
  n-local   160.69814   160.69806   161.77888    -0.00007    -0.00001     0.00003
  augment     0.94589     0.94585     0.99269    -0.00003    -0.00000     0.00000
  Kinetic   239.88608   239.88617   240.68612     0.00008    -0.00005     0.00009
  Fock        0.00000     0.00000     0.00000     0.00000     0.00000     0.00000
  -------------------------------------------------------------------------------------
  Total       0.05851     0.05854     0.31821     0.00002    -0.00004     0.00008
  in kB       1.28867     1.28920     7.00818     0.00043    -0.00096     0.00168
  external pressure =        3.20 kB  Pullay stress =        0.00 kB


 VOLUME and BASIS-vectors are now :
 -----------------------------------------------------------------------------
  energy-cutoff  :      400.00
  volume of cell :       72.75
      direct lattice vectors                 reciprocal lattice vectors
     3.533953607 -0.000000000 -0.000000000     0.282969193  0.163372340 -0.000000000
    -1.766976804  3.060493600  0.000000000     0.000000000  0.326744679 -0.000000000
     0.000000000  0.000000000  6.726157826     0.000000000  0.000000000  0.148673288

  length of vectors
     3.533953607  3.533953607  6.726157826     0.326744679  0.326744679  0.148673288


 FORCES acting on ions
    electron-ion (+dipol)            ewald-force                    non-local-force                 convergence-correction
 -----------------------------------------------------------------------------------------------
   0.345E-04 0.585E-04 0.251E+01   -.287E-04 -.558E-04 -.226E+01   0.839E-07 -.788E-05 -.262E+00   -.109E-05 -.608E-06 0.331E-03
   0.549E-04 0.989E-04 -.338E-01   -.578E-04 -.105E-03 -.115E+00   0.547E-06 -.152E-06 -.376E-01   -.743E-07 0.191E-07 0.129E-03
   -.161E-04 -.879E-04 0.209E+02   -.796E-05 0.112E-03 -.238E+02   0.225E-04 -.115E-04 0.277E+01   -.115E-05 -.470E-06 0.133E-02
   -.805E-04 -.658E-04 -.232E+02   0.945E-04 0.490E-04 0.261E+02   -.132E-04 0.191E-04 -.267E+01   0.106E-04 0.329E-05 -.487E-02
 -----------------------------------------------------------------------------------------------
   -.728E-05 0.372E-05 0.197E+00   0.110E-14 0.712E-15 0.000E+00   0.994E-05 -.421E-06 -.200E+00   0.833E-05 0.223E-05 -.308E-02


 POSITION                                       TOTAL-FORCE (eV/Angst)
 -----------------------------------------------------------------------------------
      0.00000      0.00000      3.36308         0.000002     -0.000007     -0.005755
      0.00000      0.00000      0.00000        -0.000005     -0.000008     -0.184685
     -0.00000      2.04033      5.38059        -0.000005      0.000010     -0.076878
      1.76697      1.02016      1.31557         0.000009      0.000004      0.267318
 -----------------------------------------------------------------------------------
    total drift:                                0.000011      0.000006     -0.006244


--------------------------------------------------------------------------------------------------------



  FREE ENERGIE OF THE ION-ELECTRON SYSTEM (eV)
  ---------------------------------------------------
  free  energy   TOTEN  =       -17.31300887 eV

  energy  without entropy=      -17.30696975  energy(sigma->0) =      -17.30998931

 d Force =-0.3022793E-02[-0.401E-02,-0.204E-02]  d Energy =-0.3026452E-02 0.366E-05
 d Force =-0.3738415E+00[-0.392E+00,-0.356E+00]  d Ewald  =-0.3738550E+00 0.135E-04


--------------------------------------------------------------------------------------------------------


    POTLOK:  cpu time      0.0091: real time      0.0091


--------------------------------------------------------------------------------------------------------


 Finite differences progress:
  Degree of freedom:  18/ 18
  Displacement:        4/  4
  Total:              72/ 72


--------------------------------------------------------------------------------------------------------



  ELASTIC MODULI  (kBar)
 Direction    XX          YY          ZZ          XY          YZ          ZX
 --------------------------------------------------------------------------------
 XX         546.1478   1145.2339    285.2982     -0.0103   -145.6284     -0.0131
 YY        1126.6301    582.0567    287.9176     -0.0634    137.0863     -0.0021
 ZZ         272.0201    272.3228   1284.3161     -0.0045     -0.0250     -0.0075
 XY          -0.6167     -0.3761     -1.3300   -298.3440     -0.1424   -141.8798
 YZ        -151.5278    152.2671      0.8596      0.0772    516.8624      0.0114
 ZX           0.6664      0.5656      0.4057   -151.5307      0.1163    518.4897
 --------------------------------------------------------------------------------


  SYMMETRIZED ELASTIC MODULI (kBar)
 Direction    XX          YY          ZZ          XY          YZ          ZX
 --------------------------------------------------------------------------------
 XX         546.1478   1135.9320    278.6592     -0.3135   -148.5781      0.3267
 YY        1135.9320    582.0567    280.1202     -0.2198    144.6767      0.2818
 ZZ         278.6592    280.1202   1284.3161     -0.6672      0.4173      0.1991
 XY          -0.3135     -0.2198     -0.6672   -298.3440     -0.0326   -146.7052
 YZ        -148.5781    144.6767      0.4173     -0.0326    516.8624      0.0638
 ZX           0.3267      0.2818      0.1991   -146.7052      0.0638    518.4897
 --------------------------------------------------------------------------------

 INTERNAL STRAIN TENSORS FROM STRAINED CELLS
 ============================================

 INTERNAL STRAIN TENSOR FOR ION    1 for displacements in x,y,z  (eV/Angst):
          X           Y           Z          XY          YZ          ZX
  --------------------------------------------------------------------------------
  x     0.00001    -0.00000     0.00000    -0.00000    -0.00001     0.00000
  y     0.00000     0.00001     0.00001    -0.00000     0.00002    -0.00001
  z    -0.00001     0.00002     0.00003    -0.00001     0.00001     0.00001

 INTERNAL STRAIN TENSOR FOR ION    2 for displacements in x,y,z  (eV/Angst):
          X           Y           Z          XY          YZ          ZX
  --------------------------------------------------------------------------------
  x     0.00005    -0.00001     0.00001    -0.00000     0.00002    -0.00001
  y    -0.00005     0.00014     0.00002     0.00002    -0.00010     0.00002
  z    -0.00002    -0.00010     0.00002     0.00002     0.00003     0.00002

 INTERNAL STRAIN TENSOR FOR ION    3 for displacements in x,y,z  (eV/Angst):
          X           Y           Z          XY          YZ          ZX
  --------------------------------------------------------------------------------
  x     0.00012     0.00015     0.00016    -0.14259     0.00180     6.29105
  y    -0.25784     0.04742    -0.00026    -0.00105     6.27942     0.00003
  z     1.57667     1.72360     7.78706     0.00000    -0.00616    -0.00110

 INTERNAL STRAIN TENSOR FOR ION    4 for displacements in x,y,z  (eV/Angst):
          X           Y           Z          XY          YZ          ZX
  --------------------------------------------------------------------------------
  x    -0.00017    -0.00014    -0.00017     0.14259    -0.00181    -6.29105
  y     0.25788    -0.04757     0.00024     0.00104    -6.27934    -0.00004
  z    -1.57664    -1.72353    -7.78711    -0.00002     0.00613     0.00108

 INTERNAL STRAIN TENSORS FROM DISPLACED ATOMS
 ============================================

 INTERNAL STRAIN TENSOR FOR ION    1 for displacements in x,y,z  (eV/Angst):
          X           Y           Z          XY          YZ          ZX
  --------------------------------------------------------------------------------
  x     0.75651     0.75576     0.75164    -0.00175    -0.00107    -0.01035
  y     0.90983     0.91125     0.90751    -0.00013     0.00188    -0.00019
  z    -0.89015    -0.89210    -0.88963     0.00008    -0.00066    -0.00004

 INTERNAL STRAIN TENSOR FOR ION    2 for displacements in x,y,z  (eV/Angst):
          X           Y           Z          XY          YZ          ZX
  --------------------------------------------------------------------------------
  x     0.03801     0.04096     0.03723    -0.00008    -0.00308    -0.00012
  y     0.00668     0.00320     0.00605    -0.00004     0.00330    -0.00004
  z    -0.01060    -0.01040    -0.01121     0.00004    -0.00015     0.00002

 INTERNAL STRAIN TENSOR FOR ION    3 for displacements in x,y,z  (eV/Angst):
          X           Y           Z          XY          YZ          ZX
  --------------------------------------------------------------------------------
  x     0.01698     0.01159     0.01389    -0.02764     0.00051     6.61173
  y    -0.00269     0.05837     0.02281    -0.00213     6.51814    -0.00394
  z     1.55007     1.54873     6.67733     0.00011    -0.00103     0.00007

 INTERNAL STRAIN TENSOR FOR ION    4 for displacements in x,y,z  (eV/Angst):
          X           Y           Z          XY          YZ          ZX
  --------------------------------------------------------------------------------
  x     0.01765     0.01424     0.01920     0.02924     0.00026    -6.60936
  y     0.03518    -0.02705     0.00811     0.00218    -6.51700     0.00310
  z    -1.62637    -1.62340    -6.81863    -0.00000     0.00120    -0.00023


--------------------------------------------------------------------------------------------------------



 Eigenvectors and eigenvalues of the dynamical matrix
 ----------------------------------------------------


   1 f  =   13.260855 THz    83.320407 2PiTHz  442.334497 cm-1    54.842463 meV
             X         Y         Z           dx          dy          dz
      0.000000  0.000000  3.363081     0.000004   -0.000053    0.141516  
      0.000000  0.000000  0.000000     0.000032    0.000051   -0.871706  
     -0.000000  2.040327  5.380588    -0.000043   -0.000064    0.331365  
      1.766975  1.020163  1.345574     0.000031    0.000020    0.332114  

   2 f  =    8.088352 THz    50.820615 2PiTHz  269.798384 cm-1    33.450721 meV
             X         Y         Z           dx          dy          dz
      0.000000  0.000000  3.363081    -0.000134   -0.000127   -0.001060  
      0.000000  0.000000  0.000000     0.000179    0.000072    0.000545  
     -0.000000  2.040327  5.380588     0.000081    0.001386   -0.706961  
      1.766975  1.020163  1.345574     0.000027   -0.001167    0.707249  

   3 f  =    7.054311 THz    44.323546 2PiTHz  235.306500 cm-1    29.174275 meV
             X         Y         Z           dx          dy          dz
      0.000000  0.000000  3.363081    -0.000023   -0.000630   -0.000109  
      0.000000  0.000000  0.000000    -0.000634   -0.001650   -0.000048  
     -0.000000  2.040327  5.380588    -0.001391    0.708505    0.001329  
      1.766975  1.020163  1.345574     0.001654   -0.705697   -0.001225  

   4 f  =    6.968235 THz    43.782712 2PiTHz  232.435299 cm-1    28.818291 meV
             X         Y         Z           dx          dy          dz
      0.000000  0.000000  3.363081    -0.000181    0.000204   -0.000159  
      0.000000  0.000000  0.000000    -0.000510    0.000810   -0.000034  
     -0.000000  2.040327  5.380588     0.707428    0.001023    0.000098  
      1.766975  1.020163  1.345574    -0.706781   -0.002026    0.000039  

   5 f  =    6.646240 THz    41.759558 2PiTHz  221.694707 cm-1    27.486628 meV
             X         Y         Z           dx          dy          dz
      0.000000  0.000000  3.363081     0.167068   -0.007950   -0.000971  
      0.000000  0.000000  0.000000     0.778775   -0.032648    0.000131  
     -0.000000  2.040327  5.380588    -0.425945    0.019130    0.000390  
      1.766975  1.020163  1.345574    -0.427005    0.018424    0.000283  

   6 f  =    6.623424 THz    41.616199 2PiTHz  220.933638 cm-1    27.392268 meV
             X         Y         Z           dx          dy          dz
      0.000000  0.000000  3.363081    -0.006868   -0.182870    0.001619  
      0.000000  0.000000  0.000000    -0.033506   -0.762251   -0.000225  
     -0.000000  2.040327  5.380588     0.018982    0.436142   -0.000528  
      1.766975  1.020163  1.345574     0.017468    0.439857   -0.000605  

   7 f  =    5.865309 THz    36.852826 2PiTHz  195.645661 cm-1    24.256960 meV
             X         Y         Z           dx          dy          dz
      0.000000  0.000000  3.363081    -0.000132    0.003195   -0.890892  
      0.000000  0.000000  0.000000    -0.000850   -0.002671    0.094468  
     -0.000000  2.040327  5.380588     0.000435    0.000269    0.314906  
      1.766975  1.020163  1.345574     0.000690    0.000455    0.313371  

   8 f  =    3.376538 THz    21.215413 2PiTHz  112.629179 cm-1    13.964232 meV
             X         Y         Z           dx          dy          dz
      0.000000  0.000000  3.363081     0.061020   -0.804516   -0.003144  
      0.000000  0.000000  0.000000    -0.034734    0.475567    0.000536  
     -0.000000  2.040327  5.380588    -0.019615    0.245538    0.001417  
      1.766975  1.020163  1.345574    -0.019660    0.246144    0.001167  

   9 f  =    3.334393 THz    20.950612 2PiTHz  111.223393 cm-1    13.789937 meV
             X         Y         Z           dx          dy          dz
      0.000000  0.000000  3.363081    -0.800422   -0.060343   -0.000218  
      0.000000  0.000000  0.000000     0.461818    0.036253    0.000057  
     -0.000000  2.040327  5.380588     0.264847    0.019438    0.000268  
      1.766975  1.020163  1.345574     0.264959    0.019195   -0.000062  

  10 f/i=    0.255564 THz     1.605758 2PiTHz    8.524710 cm-1     1.056929 meV
             X         Y         Z           dx          dy          dz
      0.000000  0.000000  3.363081     0.000261   -0.000063    0.431588  
      0.000000  0.000000  0.000000     0.000164   -0.000390    0.480837  
     -0.000000  2.040327  5.380588     0.000218   -0.000319    0.539660  
      1.766975  1.020163  1.345574     0.000202   -0.000339    0.539717  

  11 f/i=    0.461691 THz     2.900890 2PiTHz   15.400353 cm-1     1.909400 meV
             X         Y         Z           dx          dy          dz
      0.000000  0.000000  3.363081     0.031095   -0.560867   -0.001118  
      0.000000  0.000000  0.000000     0.024062   -0.435705   -0.000149  
     -0.000000  2.040327  5.380588     0.028097   -0.495983   -0.000047  
      1.766975  1.020163  1.345574     0.028141   -0.496449    0.000043  

  12 f/i=    0.510997 THz     3.210690 2PiTHz   17.045033 cm-1     2.113314 meV
             X         Y         Z           dx          dy          dz
      0.000000  0.000000  3.363081    -0.571555   -0.032025    0.000009  
      0.000000  0.000000  0.000000    -0.421099   -0.024086    0.000201  
     -0.000000  2.040327  5.380588    -0.496422   -0.027669    0.000235  
      1.766975  1.020163  1.345574    -0.496425   -0.027482    0.000314  



--------------------------------------------------------------------------------------------------------



 ELASTIC MODULI CONTR FROM IONIC RELAXATION (kBar)
 Direction    XX          YY          ZZ          XY          YZ          ZX
 --------------------------------------------------------------------------------
 XX         -31.2144    -31.2488    -73.1045      0.0197      0.7845      0.1023
 YY         -31.2488    -31.3092    -73.0932      0.0205     -1.9260      0.1493
 ZZ         -73.1045    -73.0932   -251.6239      0.0180     -0.4397      0.2021
 XY           0.0197      0.0205      0.0180     -0.0057      0.0948      1.2995
 YZ           0.7845     -1.9260     -0.4397      0.0948   -286.5766      0.1336
 ZX           0.1023      0.1493      0.2021      1.2995      0.1336   -302.1403
 --------------------------------------------------------------------------------


 TOTAL ELASTIC MODULI (kBar)
 Direction    XX          YY          ZZ          XY          YZ          ZX
 --------------------------------------------------------------------------------
 XX         514.9334   1104.6832    205.5547     -0.2938   -147.7935      0.4290
 YY        1104.6832    550.7475    207.0270     -0.1993    142.7507      0.4311
 ZZ         205.5547    207.0270   1032.6922     -0.6493     -0.0224      0.4012
 XY          -0.2938     -0.1993     -0.6493   -298.3497      0.0622   -145.4057
 YZ        -147.7935    142.7507     -0.0224      0.0622    230.2857      0.1974
 ZX           0.4290      0.4311      0.4012   -145.4057      0.1974    216.3494
 --------------------------------------------------------------------------------



--------------------------------------------------------------------------------------------------------


     LOOP+:  cpu time      4.2287: real time      4.2365
    4ORBIT:  cpu time      0.0000: real time      0.0000

 total amount of memory used by VASP MPI-rank0    34724. kBytes
=======================================================================

   base      :      30000. kBytes
   nonlr-proj:        457. kBytes
   fftplans  :        486. kBytes
   grid      :       1318. kBytes
   one-center:         12. kBytes
   wavefun   :       2451. kBytes

  
  
 General timing and accounting informations for this job:
 ========================================================
  
                  Total CPU time used (sec):      321.632
                            User time (sec):      320.965
                          System time (sec):        0.666
                         Elapsed time (sec):      343.311
  
                   Maximum memory used (kb):      107656.
                   Average memory used (kb):          N/A
  
                          Minor page faults:        34055
                          Major page faults:          344
                 Voluntary context switches:         2382
