 vasp.6.3.2 27Jun22 (build Jun 14 2024 17:29:11) complex                         
 executed on             LinuxGNU date 2026.03.30  04:35:31
 running on   32 total cores
 distrk:  each k-point on   32 cores,    1 groups
 distr:  one band on NCORE=   1 cores,   32 groups


--------------------------------------------------------------------------------------------------------


 INCAR:
   EDIFF = 1e-06
   ENCUT = 400.0
   IBRION = 6
   ISIF = 3
   ISMEAR = 0
   LCHARG = False
   LREAL = Auto
   LWAVE = False
   NFREE = 4
   NSW = 1
   POTIM = 0.015
   SIGMA = 0.05

 POTCAR:    PAW_PBE Na_pv 19Sep2006               
 POTCAR:    PAW_PBE Si 05Jan2001                  
 POTCAR:    PAW_PBE S 06Sep2000                   
 -----------------------------------------------------------------------------
|                                                                             |
|           W    W    AA    RRRRR   N    N  II  N    N   GGGG   !!!           |
|           W    W   A  A   R    R  NN   N  II  NN   N  G    G  !!!           |
|           W    W  A    A  R    R  N N  N  II  N N  N  G       !!!           |
|           W WW W  AAAAAA  RRRRR   N  N N  II  N  N N  G  GGG   !            |
|           WW  WW  A    A  R   R   N   NN  II  N   NN  G    G                |
|           W    W  A    A  R    R  N    N  II  N    N   GGGG   !!!           |
|                                                                             |
|     For optimal performance we recommend to set                             |
|       NCORE = 2 up to number-of-cores-per-socket                            |
|     NCORE specifies how many cores store one orbital (NPAR=cpu/NCORE).      |
|     This setting can greatly improve the performance of VASP for DFT.       |
|     The default, NCORE=1 might be grossly inefficient on modern             |
|     multi-core architectures or massively parallel machines. Do your        |
|     own testing! More info at https://www.vasp.at/wiki/index.php/NCORE      |
|     Unfortunately you need to use the default for GW and RPA                |
|     calculations (for HF NCORE is supported but not extensively tested      |
|     yet).                                                                   |
|                                                                             |
 -----------------------------------------------------------------------------

 POTCAR:    PAW_PBE Na_pv 19Sep2006               
   SHA256 =  6a2f546d9e11350984debacf3dc457d8cffc0868e817d445faca461816a32b94 Na_pv/POTCAR          
   COPYR  = (c) Copyright 19Sep2006 Georg Kresse                                                    
   COPYR  = This file is part of the software VASP. Any use, copying, and all other rights are regul
   COPYR  = If you do not have a valid VASP license, you may not use, copy or distribute this file. 
   VRHFIN =Na: p6s1                                                                                 
   LEXCH  = PE                                                                                      
   EATOM  =   766.0439 eV,   56.3026 Ry                                                             
                                                                                                    
   TITEL  = PAW_PBE Na_pv 19Sep2006                                                                 
   LULTRA =        F    use ultrasoft PP ?                                                          
   IUNSCR =        1    unscreen: 0-lin 1-nonlin 2-no                                               
   RPACOR =    1.800    partial core radius                                                         
   POMASS =   22.990; ZVAL   =    7.000    mass and valenz                                          
   RCORE  =    2.200    outmost cutoff radius                                                       
   RWIGS  =    2.200; RWIGS  =    1.164    wigner-seitz radius (au A)                               
   ENMAX  =  259.561; ENMIN  =  194.671 eV                                                          
   ICORE  =        2    local potential                                                             
   LCOR   =        T    correct aug charges                                                         
   LPAW   =        T    paw PP                                                                      
   EAUG   =  368.056                                                                                
   DEXC   =    0.000                                                                                
   RMAX   =    2.245    core radius for proj-oper                                                   
   RAUG   =    1.300    factor for augmentation sphere                                              
   RDEP   =    2.259    radius for radial grids                                                     
   RDEPT  =    1.738    core radius for aug-charge                                                  
                                                                                                    
   Atomic configuration                                                                             
    5 entries                                                                                       
     n  l   j            E        occ.                                                              
     1  0  0.50     -1033.6933   2.0000                                                             
     2  0  0.50       -56.7526   2.0000                                                             
     2  1  1.50       -28.6721   6.0000                                                             
     3  0  0.50        -2.7440   1.0000                                                             
     3  2  1.50        -1.3606   0.0000                                                             
   Description                                                                                      
     l       E           TYP  RCUT    TYP  RCUT                                                     
     1    -28.6720912     23  2.000                                                                 
     1      6.8029130     23  2.000                                                                 
     0     -2.7439560     23  2.200                                                                 
     0     34.0145650     23  2.200                                                                 
     2     -1.3605826     23  2.200                                                                 
  local pseudopotential read in
  partial core-charges read in
  partial kinetic energy density read in
  atomic valenz-charges read in
  non local Contribution for L=           1  read in
    real space projection operators read in
  non local Contribution for L=           1  read in
    real space projection operators read in
  non local Contribution for L=           0  read in
    real space projection operators read in
  non local Contribution for L=           0  read in
    real space projection operators read in
    PAW grid and wavefunctions read in

   number of l-projection  operators is LMAX  =           4
   number of lm-projection operators is LMMAX =           8

 POTCAR:    PAW_PBE Si 05Jan2001                  
   SHA256 =  79d9987ad8750f624c4d6acb2a16d13abf6a777132adc04dc6c8399be72b42bb Si/POTCAR             
   COPYR  = (c) Copyright 05Jan2001 Georg Kresse                                                    
   COPYR  = This file is part of the software VASP. Any use, copying, and all other rights are regul
   COPYR  = If you do not have a valid VASP license, you may not use, copy or distribute this file. 
   VRHFIN =Si: s2p2                                                                                 
   LEXCH  = PE                                                                                      
   EATOM  =   103.0669 eV,    7.5752 Ry                                                             
                                                                                                    
   TITEL  = PAW_PBE Si 05Jan2001                                                                    
   LULTRA =        F    use ultrasoft PP ?                                                          
   IUNSCR =        1    unscreen: 0-lin 1-nonlin 2-no                                               
   RPACOR =    1.500    partial core radius                                                         
   POMASS =   28.085; ZVAL   =    4.000    mass and valenz                                          
   RCORE  =    1.900    outmost cutoff radius                                                       
   RWIGS  =    2.480; RWIGS  =    1.312    wigner-seitz radius (au A)                               
   ENMAX  =  245.345; ENMIN  =  184.009 eV                                                          
   ICORE  =        2    local potential                                                             
   LCOR   =        T    correct aug charges                                                         
   LPAW   =        T    paw PP                                                                      
   EAUG   =  322.069                                                                                
   DEXC   =    0.000                                                                                
   RMAX   =    1.950    core radius for proj-oper                                                   
   RAUG   =    1.300    factor for augmentation sphere                                              
   RDEP   =    1.993    radius for radial grids                                                     
   RDEPT  =    1.837    core radius for aug-charge                                                  
                                                                                                    
   Atomic configuration                                                                             
    6 entries                                                                                       
     n  l   j            E        occ.                                                              
     1  0  0.50     -1785.8828   2.0000                                                             
     2  0  0.50      -139.4969   2.0000                                                             
     2  1  1.50       -95.5546   6.0000                                                             
     3  0  0.50       -10.8127   2.0000                                                             
     3  1  0.50        -4.0811   2.0000                                                             
     3  2  1.50        -4.0817   0.0000                                                             
   Description                                                                                      
     l       E           TYP  RCUT    TYP  RCUT                                                     
     0    -10.8127223     23  1.900                                                                 
     0     -7.6451159     23  1.900                                                                 
     1     -4.0811372     23  1.900                                                                 
     1      2.4879257     23  1.900                                                                 
     2     -4.0817478      7  1.900                                                                 
  local pseudopotential read in
  partial core-charges read in
  partial kinetic energy density read in
  atomic valenz-charges read in
  non local Contribution for L=           0  read in
    real space projection operators read in
  non local Contribution for L=           0  read in
    real space projection operators read in
  non local Contribution for L=           1  read in
    real space projection operators read in
  non local Contribution for L=           1  read in
    real space projection operators read in
    PAW grid and wavefunctions read in

   number of l-projection  operators is LMAX  =           4
   number of lm-projection operators is LMMAX =           8

 POTCAR:    PAW_PBE S 06Sep2000                   
   SHA256 =  0fc7481fb0695f01bdc6462160264c5c84044ae9ec85a907d398b887a2bc3132 S/POTCAR              
   COPYR  = (c) Copyright 06Sep2000 Georg Kresse                                                    
   COPYR  = This file is part of the software VASP. Any use, copying, and all other rights are regul
   COPYR  = If you do not have a valid VASP license, you may not use, copy or distribute this file. 
   VRHFIN =S : s2p4                                                                                 
   LEXCH  = PE                                                                                      
   EATOM  =   276.8230 eV,   20.3459 Ry                                                             
                                                                                                    
   TITEL  = PAW_PBE S 06Sep2000                                                                     
   LULTRA =        F    use ultrasoft PP ?                                                          
   IUNSCR =        1    unscreen: 0-lin 1-nonlin 2-no                                               
   RPACOR =    1.500    partial core radius                                                         
   POMASS =   32.066; ZVAL   =    6.000    mass and valenz                                          
   RCORE  =    1.900    outmost cutoff radius                                                       
   RWIGS  =    2.200; RWIGS  =    1.164    wigner-seitz radius (au A)                               
   ENMAX  =  258.689; ENMIN  =  194.016 eV                                                          
   ICORE  =        2    local potential                                                             
   LCOR   =        T    correct aug charges                                                         
   LPAW   =        T    paw PP                                                                      
   EAUG   =  335.092                                                                                
   DEXC   =    0.000                                                                                
   RMAX   =    1.942    core radius for proj-oper                                                   
   RAUG   =    1.300    factor for augmentation sphere                                              
   RDEP   =    1.954    radius for radial grids                                                     
   RDEPT  =    1.744    core radius for aug-charge                                                  
                                                                                                    
   Atomic configuration                                                                             
    6 entries                                                                                       
     n  l   j            E        occ.                                                              
     1  0  0.50     -2405.8406   2.0000                                                             
     2  0  0.50      -211.7007   2.0000                                                             
     2  1  1.50      -156.4958   6.0000                                                             
     3  0  0.50       -17.2562   2.0000                                                             
     3  1  0.50        -7.0085   4.0000                                                             
     3  2  1.50        -6.8029   0.0000                                                             
   Description                                                                                      
     l       E           TYP  RCUT    TYP  RCUT                                                     
     0    -17.2561641     23  1.900                                                                 
     0    -15.8743224     23  1.900                                                                 
     1     -7.0085400     23  1.900                                                                 
     1     -2.7779785     23  1.900                                                                 
     2     -6.8029130     23  1.900                                                                 
  local pseudopotential read in
  partial core-charges read in
  partial kinetic energy density read in
  atomic valenz-charges read in
  non local Contribution for L=           0  read in
    real space projection operators read in
  non local Contribution for L=           0  read in
    real space projection operators read in
  non local Contribution for L=           1  read in
    real space projection operators read in
  non local Contribution for L=           1  read in
    real space projection operators read in
    PAW grid and wavefunctions read in

   number of l-projection  operators is LMAX  =           4
   number of lm-projection operators is LMMAX =           8

 -----------------------------------------------------------------------------
|                                                                             |
|               ----> ADVICE to this user running VASP <----                  |
|                                                                             |
|     You have a (more or less) 'small supercell' and for smaller cells       |
|     it is recommended to use the reciprocal-space projection scheme!        |
|     The real-space optimization is not efficient for small cells and it     |
|     is also less accurate ...                                               |
|     Therefore, set LREAL=.FALSE. in the INCAR file.                         |
|                                                                             |
 -----------------------------------------------------------------------------

 Optimization of the real space projectors (new method)

 maximal supplied QI-value         = 17.01
 optimisation between [QCUT,QGAM] = [ 10.20, 20.41] = [ 29.16,116.64] Ry 
 Optimized for a Real-space Cutoff    1.30 Angstroem

   l    n(q)    QCUT    max X(q) W(low)/X(q) W(high)/X(q)  e(spline) 
   1      7    10.205     4.940    0.23E-03    0.84E-03    0.11E-06
   1      7    10.205     6.253    0.40E-03    0.13E-02    0.18E-06
   0      8    10.205    37.438    0.23E-03    0.37E-03    0.42E-07
   0      8    10.205     9.606    0.16E-03    0.26E-03    0.31E-07
 Optimization of the real space projectors (new method)

 maximal supplied QI-value         = 19.84
 optimisation between [QCUT,QGAM] = [ 10.12, 20.44] = [ 28.68,116.96] Ry 
 Optimized for a Real-space Cutoff    1.23 Angstroem

   l    n(q)    QCUT    max X(q) W(low)/X(q) W(high)/X(q)  e(spline) 
   0      7    10.119   159.560    0.56E-04    0.22E-03    0.45E-07
   0      7    10.119   115.863    0.56E-04    0.21E-03    0.45E-07
   1      7    10.119    88.339    0.34E-03    0.49E-03    0.11E-06
   1      7    10.119    48.592    0.33E-03    0.48E-03    0.11E-06
 Optimization of the real space projectors (new method)

 maximal supplied QI-value         = 19.84
 optimisation between [QCUT,QGAM] = [ 10.12, 20.44] = [ 28.68,116.96] Ry 
 Optimized for a Real-space Cutoff    1.23 Angstroem

   l    n(q)    QCUT    max X(q) W(low)/X(q) W(high)/X(q)  e(spline) 
   0      7    10.119   187.594    0.62E-04    0.28E-03    0.52E-07
   0      7    10.119   164.243    0.61E-04    0.28E-03    0.52E-07
   1      7    10.119    67.533    0.45E-03    0.63E-03    0.13E-06
   1      7    10.119    50.729    0.44E-03    0.62E-03    0.12E-06
  PAW_PBE Na_pv 19Sep2006               :
 energy of atom  1       EATOM= -766.0439
 kinetic energy error for atom=    0.0103 (will be added to EATOM!!)
  PAW_PBE Si 05Jan2001                  :
 energy of atom  2       EATOM= -103.0669
 kinetic energy error for atom=    0.0012 (will be added to EATOM!!)
  PAW_PBE S 06Sep2000                   :
 energy of atom  3       EATOM= -276.8230
 kinetic energy error for atom=    0.0046 (will be added to EATOM!!)


 POSCAR: Na1 Si1 S2
  positions in direct lattice
  velocities in cartesian coordinates
 exchange correlation table for  LEXCH =        8
   RHO(1)=    0.500       N(1)  =     2000
   RHO(2)=  100.500       N(2)  =     4000



--------------------------------------------------------------------------------------------------------


 ion  position               nearest neighbor table
   1  0.000  0.000  0.500-
   2  0.000  0.000  0.000-   3 2.44   4 2.44   3 2.44   3 2.44   4 2.44   4 2.44
   3  0.333  0.667  0.800-   2 2.44   2 2.44   2 2.44
   4  0.667  0.333  0.200-   2 2.44   2 2.44   2 2.44

  LATTYP: Found a hexagonal cell.
 ALAT       =     3.5339536071
 C/A-ratio  =     1.9032954514
  
  Lattice vectors:
  
 A1 = (   3.5339536071,  -0.0000000000,  -0.0000000000)
 A2 = (  -1.7669768036,   3.0604935996,   0.0000000000)
 A3 = (   0.0000000000,   0.0000000000,   6.7261578258)


Analysis of symmetry for initial positions (statically):
=====================================================================
 Subroutine PRICEL returns:
 Original cell was already a primitive cell.
 

 Routine SETGRP: Setting up the symmetry group for a 
 hexagonal supercell.


 Subroutine GETGRP returns: Found 12 space group operations
 (whereof 12 operations were pure point group operations)
 out of a pool of 24 trial point group operations.


The static configuration has the point symmetry D_3d.


Analysis of symmetry for dynamics (positions and initial velocities):
=====================================================================
 Subroutine PRICEL returns:
 Original cell was already a primitive cell.
 

 Routine SETGRP: Setting up the symmetry group for a 
 hexagonal supercell.


 Subroutine GETGRP returns: Found 12 space group operations
 (whereof 12 operations were pure point group operations)
 out of a pool of 24 trial point group operations.


The dynamic configuration has the point symmetry D_3d.


 Subroutine INISYM returns: Found 12 space group operations
 (whereof 12 operations are pure point group operations),
 and found     1 'primitive' translations


----------------------------------------------------------------------------------------

                                     Primitive cell                                     

  volume of cell :      72.7477

  direct lattice vectors                    reciprocal lattice vectors
     3.533953607 -0.000000000 -0.000000000     0.282969193  0.163372340 -0.000000000
    -1.766976804  3.060493600  0.000000000     0.000000000  0.326744679 -0.000000000
     0.000000000  0.000000000  6.726157826     0.000000000  0.000000000  0.148673288

  length of vectors
     3.533953607  3.533953607  6.726157826     0.326744679  0.326744679  0.148673288

  position of ions in fractional coordinates (direct lattice)
     0.000000000  0.000000000  0.500000319
     0.000000000  0.000000000  0.000000000
     0.333332921  0.666665842  0.799949691
     0.666665888  0.333332921  0.200050948

  ion indices of the primitive-cell ions
   primitive index   ion index
                 1           1
                 2           2
                 3           3
                 4           4

----------------------------------------------------------------------------------------



 KPOINTS: pymatgen with grid density = 600 / numbe

Automatic generation of k-mesh.
 Grid dimensions read from file:
 generate k-points for:    6    6    3

 Generating k-lattice:

  Cartesian coordinates                     Fractional coordinates (reciprocal lattice)
     0.047161532  0.027228723 -0.000000000     0.166666667 -0.000000000  0.000000000
     0.000000000  0.054457447 -0.000000000     0.000000000  0.166666667  0.000000000
     0.000000000  0.000000000  0.049557763     0.000000000  0.000000000  0.333333333

  Length of vectors
     0.054457447  0.054457447  0.049557763

  Shift w.r.t. Gamma in fractional coordinates (k-lattice)
     0.000000000  0.000000000  0.000000000

 
 Subroutine IBZKPT returns following result:
 ===========================================
 
 Found     17 irreducible k-points:
 
 Following reciprocal coordinates:
            Coordinates               Weight
  0.000000  0.000000  0.000000      1.000000
  0.166667  0.000000  0.000000      6.000000
  0.333333  0.000000  0.000000      6.000000
  0.500000  0.000000  0.000000      3.000000
  0.166667  0.166667  0.000000      6.000000
  0.333333  0.166667  0.000000     12.000000
  0.333333  0.333333  0.000000      2.000000
  0.000000  0.000000  0.333333      2.000000
  0.166667  0.000000  0.333333      6.000000
  0.000000  0.166667  0.333333      6.000000
  0.333333  0.000000  0.333333      6.000000
  0.000000  0.333333  0.333333      6.000000
  0.500000  0.000000  0.333333      6.000000
  0.166667  0.166667  0.333333     12.000000
  0.333333  0.166667  0.333333     12.000000
 -0.166667  0.500000  0.333333     12.000000
  0.333333  0.333333  0.333333      4.000000
 
 Following cartesian coordinates:
            Coordinates               Weight
  0.000000  0.000000  0.000000      1.000000
  0.047162  0.027229  0.000000      6.000000
  0.094323  0.054457  0.000000      6.000000
  0.141485  0.081686  0.000000      3.000000
  0.047162  0.081686  0.000000      6.000000
  0.094323  0.108915  0.000000     12.000000
  0.094323  0.163372  0.000000      2.000000
  0.000000  0.000000  0.049558      2.000000
  0.047162  0.027229  0.049558      6.000000
  0.000000  0.054457  0.049558      6.000000
  0.094323  0.054457  0.049558      6.000000
  0.000000  0.108915  0.049558      6.000000
  0.141485  0.081686  0.049558      6.000000
  0.047162  0.081686  0.049558     12.000000
  0.094323  0.108915  0.049558     12.000000
 -0.047162  0.136144  0.049558     12.000000
  0.094323  0.163372  0.049558      4.000000
 
 
 Subroutine IBZKPT_HF returns following result:
 ==============================================
 
 Found    108 k-points in 1st BZ
 the following    108 k-points will be used (e.g. in the exchange kernel)
 Following reciprocal coordinates:   # in IRBZ
  0.000000  0.000000  0.000000    0.00925926   1 t-inv F
  0.166667  0.000000  0.000000    0.00925926   2 t-inv F
  0.333333  0.000000  0.000000    0.00925926   3 t-inv F
  0.500000  0.000000  0.000000    0.00925926   4 t-inv F
  0.166667  0.166667  0.000000    0.00925926   5 t-inv F
  0.333333  0.166667  0.000000    0.00925926   6 t-inv F
  0.333333  0.333333  0.000000    0.00925926   7 t-inv F
  0.000000  0.000000  0.333333    0.00925926   8 t-inv F
  0.166667  0.000000  0.333333    0.00925926   9 t-inv F
  0.000000  0.166667  0.333333    0.00925926  10 t-inv F
  0.333333  0.000000  0.333333    0.00925926  11 t-inv F
  0.000000  0.333333  0.333333    0.00925926  12 t-inv F
  0.500000  0.000000  0.333333    0.00925926  13 t-inv F
  0.166667  0.166667  0.333333    0.00925926  14 t-inv F
  0.333333  0.166667  0.333333    0.00925926  15 t-inv F
 -0.166667  0.500000  0.333333    0.00925926  16 t-inv F
  0.333333  0.333333  0.333333    0.00925926  17 t-inv F
 -0.166667 -0.000000 -0.000000    0.00925926   2 t-inv F
 -0.166667  0.166667  0.000000    0.00925926   2 t-inv F
  0.166667 -0.166667 -0.000000    0.00925926   2 t-inv F
  0.000000 -0.166667  0.000000    0.00925926   2 t-inv F
 -0.000000  0.166667 -0.000000    0.00925926   2 t-inv F
 -0.333333 -0.000000 -0.000000    0.00925926   3 t-inv F
 -0.333333  0.333333  0.000000    0.00925926   3 t-inv F
  0.333333 -0.333333 -0.000000    0.00925926   3 t-inv F
  0.000000 -0.333333  0.000000    0.00925926   3 t-inv F
 -0.000000  0.333333 -0.000000    0.00925926   3 t-inv F
 -0.500000  0.500000  0.000000    0.00925926   4 t-inv F
  0.000000 -0.500000  0.000000    0.00925926   4 t-inv F
 -0.166667 -0.166667 -0.000000    0.00925926   5 t-inv F
 -0.333333  0.166667  0.000000    0.00925926   5 t-inv F
  0.333333 -0.166667 -0.000000    0.00925926   5 t-inv F
  0.166667 -0.333333  0.000000    0.00925926   5 t-inv F
 -0.166667  0.333333 -0.000000    0.00925926   5 t-inv F
 -0.333333 -0.166667 -0.000000    0.00925926   6 t-inv F
 -0.500000  0.333333  0.000000    0.00925926   6 t-inv F
  0.500000 -0.333333 -0.000000    0.00925926   6 t-inv F
  0.166667 -0.500000  0.000000    0.00925926   6 t-inv F
 -0.166667  0.500000 -0.000000    0.00925926   6 t-inv F
  0.333333 -0.500000 -0.000000    0.00925926   6 t-inv F
 -0.333333  0.500000  0.000000    0.00925926   6 t-inv F
 -0.500000  0.166667 -0.000000    0.00925926   6 t-inv F
  0.500000 -0.166667  0.000000    0.00925926   6 t-inv F
  0.166667  0.333333 -0.000000    0.00925926   6 t-inv F
 -0.166667 -0.333333  0.000000    0.00925926   6 t-inv F
 -0.333333 -0.333333 -0.000000    0.00925926   7 t-inv F
 -0.000000 -0.000000 -0.333333    0.00925926   8 t-inv F
 -0.166667 -0.000000 -0.333333    0.00925926   9 t-inv F
 -0.166667  0.166667  0.333333    0.00925926   9 t-inv F
  0.166667 -0.166667 -0.333333    0.00925926   9 t-inv F
  0.000000 -0.166667  0.333333    0.00925926   9 t-inv F
 -0.000000  0.166667 -0.333333    0.00925926   9 t-inv F
 -0.000000 -0.166667 -0.333333    0.00925926  10 t-inv F
 -0.166667  0.000000  0.333333    0.00925926  10 t-inv F
  0.166667 -0.000000 -0.333333    0.00925926  10 t-inv F
  0.166667 -0.166667  0.333333    0.00925926  10 t-inv F
 -0.166667  0.166667 -0.333333    0.00925926  10 t-inv F
 -0.333333 -0.000000 -0.333333    0.00925926  11 t-inv F
 -0.333333  0.333333  0.333333    0.00925926  11 t-inv F
  0.333333 -0.333333 -0.333333    0.00925926  11 t-inv F
  0.000000 -0.333333  0.333333    0.00925926  11 t-inv F
 -0.000000  0.333333 -0.333333    0.00925926  11 t-inv F
 -0.000000 -0.333333 -0.333333    0.00925926  12 t-inv F
 -0.333333  0.000000  0.333333    0.00925926  12 t-inv F
  0.333333 -0.000000 -0.333333    0.00925926  12 t-inv F
  0.333333 -0.333333  0.333333    0.00925926  12 t-inv F
 -0.333333  0.333333 -0.333333    0.00925926  12 t-inv F
 -0.500000 -0.000000 -0.333333    0.00925926  13 t-inv F
 -0.500000  0.500000  0.333333    0.00925926  13 t-inv F
  0.500000 -0.500000 -0.333333    0.00925926  13 t-inv F
  0.000000 -0.500000  0.333333    0.00925926  13 t-inv F
 -0.000000  0.500000 -0.333333    0.00925926  13 t-inv F
 -0.166667 -0.166667 -0.333333    0.00925926  14 t-inv F
 -0.333333  0.166667  0.333333    0.00925926  14 t-inv F
  0.333333 -0.166667 -0.333333    0.00925926  14 t-inv F
  0.166667 -0.333333  0.333333    0.00925926  14 t-inv F
 -0.166667  0.333333 -0.333333    0.00925926  14 t-inv F
  0.166667 -0.333333 -0.333333    0.00925926  14 t-inv F
 -0.166667  0.333333  0.333333    0.00925926  14 t-inv F
 -0.333333  0.166667 -0.333333    0.00925926  14 t-inv F
  0.333333 -0.166667  0.333333    0.00925926  14 t-inv F
  0.166667  0.166667 -0.333333    0.00925926  14 t-inv F
 -0.166667 -0.166667  0.333333    0.00925926  14 t-inv F
 -0.333333 -0.166667 -0.333333    0.00925926  15 t-inv F
 -0.500000  0.333333  0.333333    0.00925926  15 t-inv F
  0.500000 -0.333333 -0.333333    0.00925926  15 t-inv F
  0.166667 -0.500000  0.333333    0.00925926  15 t-inv F
 -0.166667  0.500000 -0.333333    0.00925926  15 t-inv F
  0.333333 -0.500000 -0.333333    0.00925926  15 t-inv F
 -0.333333  0.500000  0.333333    0.00925926  15 t-inv F
 -0.500000  0.166667 -0.333333    0.00925926  15 t-inv F
  0.500000 -0.166667  0.333333    0.00925926  15 t-inv F
  0.166667  0.333333 -0.333333    0.00925926  15 t-inv F
 -0.166667 -0.333333  0.333333    0.00925926  15 t-inv F
  0.166667 -0.500000 -0.333333    0.00925926  16 t-inv F
 -0.333333 -0.166667  0.333333    0.00925926  16 t-inv F
  0.333333  0.166667 -0.333333    0.00925926  16 t-inv F
  0.500000 -0.333333  0.333333    0.00925926  16 t-inv F
 -0.500000  0.333333 -0.333333    0.00925926  16 t-inv F
 -0.166667 -0.333333 -0.333333    0.00925926  16 t-inv F
  0.166667  0.333333  0.333333    0.00925926  16 t-inv F
 -0.333333  0.500000 -0.333333    0.00925926  16 t-inv F
  0.333333 -0.500000  0.333333    0.00925926  16 t-inv F
  0.500000 -0.166667 -0.333333    0.00925926  16 t-inv F
 -0.500000  0.166667  0.333333    0.00925926  16 t-inv F
 -0.333333 -0.333333 -0.333333    0.00925926  17 t-inv F
  0.333333 -0.666667 -0.333333    0.00925926  17 t-inv F
 -0.333333  0.666667  0.333333    0.00925926  17 t-inv F


--------------------------------------------------------------------------------------------------------




 Dimension of arrays:
   k-points           NKPTS =     17   k-points in BZ     NKDIM =     17   number of bands    NBANDS=     32
   number of dos      NEDOS =    301   number of ions     NIONS =      4
   non local maximal  LDIM  =      4   non local SUM 2l+1 LMDIM =      8
   total plane-waves  NPLWV =  11664
   max r-space proj   IRMAX =   1529   max aug-charges    IRDMAX=   5560
   dimension x,y,z NGX =    18 NGY =   18 NGZ =   36
   dimension x,y,z NGXF=    36 NGYF=   36 NGZF=   72
   support grid    NGXF=    36 NGYF=   36 NGZF=   72
   ions per type =               1   1   2
   NGX,Y,Z   is equivalent  to a cutoff of   8.47,  8.47,  8.90 a.u.
   NGXF,Y,Z  is equivalent  to a cutoff of  16.94, 16.94, 17.80 a.u.

 SYSTEM =  unknown system                          
 POSCAR =  Na1 Si1 S2                              

 Startparameter for this run:
   NWRITE =      2    write-flag & timer
   PREC   = normal    normal or accurate (medium, high low for compatibility)
   ISTART =      0    job   : 0-new  1-cont  2-samecut
   ICHARG =      2    charge: 1-file 2-atom 10-const
   ISPIN  =      1    spin polarized calculation?
   LNONCOLLINEAR =      F non collinear calculations
   LSORBIT =      F    spin-orbit coupling
   INIWAV =      1    electr: 0-lowe 1-rand  2-diag
   LASPH  =      F    aspherical Exc in radial PAW
 Electronic Relaxation 1
   ENCUT  =  400.0 eV  29.40 Ry    5.42 a.u.   5.76  5.76 10.97*2*pi/ulx,y,z
   ENINI  =  400.0     initial cutoff
   ENAUG  =  368.1 eV  augmentation charge cutoff
   NELM   =     60;   NELMIN=  2; NELMDL= -5     # of ELM steps 
   EDIFF  = 0.1E-05   stopping-criterion for ELM
   LREAL  =      T    real-space projection
   NLSPLINE    = F    spline interpolate recip. space projectors
   LCOMPAT=      F    compatible to vasp.4.4
   GGA_COMPAT  = T    GGA compatible to vasp.4.4-vasp.4.6
   LMAXPAW     = -100 max onsite density
   LMAXMIX     =    2 max onsite mixed and CHGCAR
   VOSKOWN=      0    Vosko Wilk Nusair interpolation
   ROPT   =   -0.00050  -0.00050  -0.00050
 Ionic relaxation
   EDIFFG = 0.1E-04   stopping-criterion for IOM
   NSW    =     85    number of steps for IOM
   NBLOCK =      1;   KBLOCK =     85    inner block; outer block 
   IBRION =      6    ionic relax: 0-MD 1-quasi-New 2-CG
   NFREE  =      4    steps in history (QN), initial steepest desc. (CG)
   ISIF   =      3    stress and relaxation
   IWAVPR =     11    prediction:  0-non 1-charg 2-wave 3-comb
   ISYM   =      2    0-nonsym 1-usesym 2-fastsym
   LCORR  =      T    Harris-Foulkes like correction to forces

   POTIM  = 0.0150    time-step for ionic-motion
   TEIN   =    0.0    initial temperature
   TEBEG  =    0.0;   TEEND  =   0.0 temperature during run
   SMASS  =  -3.00    Nose mass-parameter (am)
   estimated Nose-frequenzy (Omega)   =  0.10E-29 period in steps = 0.42E+48 mass=  -0.285E-27a.u.
   SCALEE = 1.0000    scale energy and forces
   NPACO  =    256;   APACO  = 10.0  distance and # of slots for P.C.
   PSTRESS=    0.0 pullay stress

  Mass of Ions in am
   POMASS =  22.99 28.09 32.07
  Ionic Valenz
   ZVAL   =   7.00  4.00  6.00
  Atomic Wigner-Seitz radii
   RWIGS  =  -1.00 -1.00 -1.00
  virtual crystal weights 
   VCA    =   1.00  1.00  1.00
   NELECT =      23.0000    total number of electrons
   NUPDOWN=      -1.0000    fix difference up-down

 DOS related values:
   EMIN   =  10.00;   EMAX   =-10.00  energy-range for DOS
   EFERMI =   0.00
   ISMEAR =     0;   SIGMA  =   0.05  broadening in eV -4-tet -1-fermi 0-gaus

 Electronic relaxation 2 (details)
   IALGO  =     38    algorithm
   LDIAG  =      T    sub-space diagonalisation (order eigenvalues)
   LSUBROT=      F    optimize rotation matrix (better conditioning)
   TURBO    =      0    0=normal 1=particle mesh
   IRESTART =      0    0=no restart 2=restart with 2 vectors
   NREBOOT  =      0    no. of reboots
   NMIN     =      0    reboot dimension
   EREF     =   0.00    reference energy to select bands
   IMIX   =      4    mixing-type and parameters
     AMIX     =   0.40;   BMIX     =  1.00
     AMIX_MAG =   1.60;   BMIX_MAG =  1.00
     AMIN     =   0.10
     WC   =   100.;   INIMIX=   1;  MIXPRE=   1;  MAXMIX= -45

 Intra band minimization:
   WEIMIN = 0.0010     energy-eigenvalue tresh-hold
   EBREAK =  0.78E-08  absolut break condition
   DEPER  =   0.30     relativ break condition  

   TIME   =   0.40     timestep for ELM

  volume/ion in A,a.u.               =      18.19       122.73
  Fermi-wavevector in a.u.,A,eV,Ry     =   1.115264  2.107543 16.923112  1.243814
  Thomas-Fermi vector in A             =   2.251867

 Write flags
   LWAVE        =      F    write WAVECAR
   LDOWNSAMPLE  =      F    k-point downsampling of WAVECAR
   LCHARG       =      F    write CHGCAR
   LVTOT        =      F    write LOCPOT, total local potential
   LVHAR        =      F    write LOCPOT, Hartree potential only
   LELF         =      F    write electronic localiz. function (ELF)
   LORBIT       =      0    0 simple, 1 ext, 2 COOP (PROOUT), +10 PAW based schemes


 Dipole corrections
   LMONO  =      F    monopole corrections only (constant potential shift)
   LDIPOL =      F    correct potential (dipole corrections)
   IDIPOL =      0    1-x, 2-y, 3-z, 4-all directions 
   EPSILON=  1.0000000 bulk dielectric constant

 Exchange correlation treatment:
   GGA     =    --    GGA type
   LEXCH   =     8    internal setting for exchange type
   LIBXC   =     F    Libxc                    
   VOSKOWN =     0    Vosko Wilk Nusair interpolation
   LHFCALC =     F    Hartree Fock is set to
   LHFONE  =     F    Hartree Fock one center treatment
   AEXX    =    0.0000 exact exchange contribution

 Linear response parameters
   LEPSILON=     F    determine dielectric tensor
   LRPA    =     F    only Hartree local field effects (RPA)
   LNABLA  =     F    use nabla operator in PAW spheres
   LVEL    =     F    velocity operator in full k-point grid
   CSHIFT  =0.1000    complex shift for real part using Kramers Kronig
   OMEGAMAX=  -1.0    maximum frequency
   DEG_THRESHOLD= 0.2000000E-02 threshold for treating states as degnerate
   RTIME   =   -0.100 relaxation time in fs
  (WPLASMAI=    0.000 imaginary part of plasma frequency in eV, 0.658/RTIME)
   DFIELD  = 0.0000000 0.0000000 0.0000000 field for delta impulse in time

  Optional k-point grid parameters
   LKPOINTS_OPT  =     F    use optional k-point grid
   KPOINTS_OPT_MODE=     1    mode for optional k-point grid

 Orbital magnetization related:
   ORBITALMAG=     F  switch on orbital magnetization
   LCHIMAG   =     F  perturbation theory with respect to B field
   DQ        =  0.001000  dq finite difference perturbation B field
   LLRAUG    =     F  two centre corrections for induced B field



--------------------------------------------------------------------------------------------------------


 finite differences with symmetry
 charge density and potential will be updated during run
 non-spin polarized calculation
 Variant of blocked Davidson
 Davidson routine will perform the subspace rotation
 perform sub-space diagonalisation
    after iterative eigenvector-optimisation
 modified Broyden-mixing scheme, WC =      100.0
 initial mixing is a Kerker type mixing with AMIX =  0.4000 and BMIX =      1.0000
 Hartree-type preconditioning will be used
 using additional bands           20
 real space projection scheme for non local part
 use partial core corrections
 calculate Harris-corrections to forces   (improved forces if not selfconsistent)
 use gradient corrections 
 use of overlap-Matrix (Vanderbilt PP)
 Gauss-broadening in eV      SIGMA  =   0.05


--------------------------------------------------------------------------------------------------------


  energy-cutoff  :      400.00
  volume of cell :       72.75
      direct lattice vectors                 reciprocal lattice vectors
     3.533953607 -0.000000000 -0.000000000     0.282969193  0.163372340 -0.000000000
    -1.766976804  3.060493600  0.000000000     0.000000000  0.326744679 -0.000000000
     0.000000000  0.000000000  6.726157826     0.000000000  0.000000000  0.148673288

  length of vectors
     3.533953607  3.533953607  6.726157826     0.326744679  0.326744679  0.148673288



 k-points in units of 2pi/SCALE and weight: pymatgen with grid density = 600 / numbe
   0.00000000  0.00000000  0.00000000       0.009
   0.04716153  0.02722872  0.00000000       0.056
   0.09432306  0.05445745  0.00000000       0.056
   0.14148460  0.08168617  0.00000000       0.028
   0.04716153  0.08168617  0.00000000       0.056
   0.09432306  0.10891489  0.00000000       0.111
   0.09432306  0.16337234  0.00000000       0.019
   0.00000000  0.00000000  0.04955776       0.019
   0.04716153  0.02722872  0.04955776       0.056
   0.00000000  0.05445745  0.04955776       0.056
   0.09432306  0.05445745  0.04955776       0.056
   0.00000000  0.10891489  0.04955776       0.056
   0.14148460  0.08168617  0.04955776       0.056
   0.04716153  0.08168617  0.04955776       0.111
   0.09432306  0.10891489  0.04955776       0.111
  -0.04716153  0.13614362  0.04955776       0.111
   0.09432306  0.16337234  0.04955776       0.037

 k-points in reciprocal lattice and weights: pymatgen with grid density = 600 / numbe
   0.00000000  0.00000000  0.00000000       0.009
   0.16666667  0.00000000  0.00000000       0.056
   0.33333333  0.00000000  0.00000000       0.056
   0.50000000  0.00000000  0.00000000       0.028
   0.16666667  0.16666667  0.00000000       0.056
   0.33333333  0.16666667  0.00000000       0.111
   0.33333333  0.33333333  0.00000000       0.019
   0.00000000  0.00000000  0.33333333       0.019
   0.16666667  0.00000000  0.33333333       0.056
   0.00000000  0.16666667  0.33333333       0.056
   0.33333333  0.00000000  0.33333333       0.056
   0.00000000  0.33333333  0.33333333       0.056
   0.50000000  0.00000000  0.33333333       0.056
   0.16666667  0.16666667  0.33333333       0.111
   0.33333333  0.16666667  0.33333333       0.111
  -0.16666667  0.50000000  0.33333333       0.111
   0.33333333  0.33333333  0.33333333       0.037

 position of ions in fractional coordinates (direct lattice) 
   0.00000000  0.00000000  0.50000032
   0.00000000  0.00000000  0.00000000
   0.33333292  0.66666584  0.79994969
   0.66666589  0.33333292  0.20005095

 position of ions in cartesian coordinates  (Angst):
   0.00000000  0.00000000  3.36308106
   0.00000000  0.00000000  0.00000000
  -0.00000000  2.04032654  5.38058788
   1.76697478  1.02016327  1.34557425



--------------------------------------------------------------------------------------------------------


 k-point   1 :   0.0000 0.0000 0.0000  plane waves:    1317
 k-point   2 :   0.1667 0.0000 0.0000  plane waves:    1318
 k-point   3 :   0.3333 0.0000 0.0000  plane waves:    1318
 k-point   4 :   0.5000 0.0000 0.0000  plane waves:    1316
 k-point   5 :   0.1667 0.1667 0.0000  plane waves:    1324
 k-point   6 :   0.3333 0.1667 0.0000  plane waves:    1322
 k-point   7 :   0.3333 0.3333 0.0000  plane waves:    1308
 k-point   8 :   0.0000 0.0000 0.3333  plane waves:    1312
 k-point   9 :   0.1667 0.0000 0.3333  plane waves:    1324
 k-point  10 :   0.0000 0.1667 0.3333  plane waves:    1324
 k-point  11 :   0.3333 0.0000 0.3333  plane waves:    1328
 k-point  12 :   0.0000 0.3333 0.3333  plane waves:    1328
 k-point  13 :   0.5000 0.0000 0.3333  plane waves:    1332
 k-point  14 :   0.1667 0.1667 0.3333  plane waves:    1318
 k-point  15 :   0.3333 0.1667 0.3333  plane waves:    1324
 k-point  16 :  -0.1667 0.5000 0.3333  plane waves:    1324
 k-point  17 :   0.3333 0.3333 0.3333  plane waves:    1335

 maximum and minimum number of plane-waves per node :      1335     1308

 maximum number of plane-waves:      1335
 maximum index in each direction: 
   IXMAX=    5   IYMAX=    5   IZMAX=   10
   IXMIN=   -6   IYMIN=   -6   IZMIN=  -11


 serial   3D FFT for wavefunctions
 parallel 3D FFT for charge:
    minimum data exchange during FFTs selected (reduces bandwidth)


 total amount of memory used by VASP MPI-rank0    31867. kBytes
=======================================================================

   base      :      30000. kBytes
   nonlr-proj:        457. kBytes
   fftplans  :        214. kBytes
   grid      :        810. kBytes
   one-center:         12. kBytes
   wavefun   :        374. kBytes

     INWAV:  cpu time      0.0000: real time      0.0001
 Broyden mixing: mesh for mixing (old mesh)
   NGX = 11   NGY = 11   NGZ = 21
  (NGX  = 36   NGY  = 36   NGZ  = 72)
  gives a total of   2541 points

 initial charge density was supplied:
 charge density of overlapping atoms calculated
 number of electron      23.0000000 magnetization 
 keeping initial charge density in first step


--------------------------------------------------------------------------------------------------------


 Maximum index for non-local projection operator         1447
 Maximum index for augmentation-charges          634 (set IRDMAX)


--------------------------------------------------------------------------------------------------------


 First call to EWALD:  gamma=   0.425
 Maximum number of real-space cells 4x 4x 2
 Maximum number of reciprocal cells 2x 2x 4

    FEWALD:  cpu time      0.0006: real time      0.0008


--------------------------------------- Iteration      1(   1)  ---------------------------------------


    POTLOK:  cpu time      0.0068: real time      0.0070
    SETDIJ:  cpu time      0.0016: real time      0.0017
     EDDAV:  cpu time      0.2897: real time      0.2899
       DOS:  cpu time      0.0007: real time      0.0009
    --------------------------------------------
      LOOP:  cpu time      0.2989: real time      0.2995

 eigenvalue-minimisations  :  1088
 total energy-change (2. order) : 0.3144810E+02  (-0.1067751E+04)
 number of electron      23.0000000 magnetization 
 augmentation part       23.0000000 magnetization 

 Free energy of the ion-electron system (eV)
  ---------------------------------------------------
  alpha Z        PSCENC =        32.33957086
  Ewald energy   TEWEN  =     -1049.14558693
  -Hartree energ DENC   =      -271.84492402
  -exchange      EXHF   =         0.00000000
  -V(xc)+E(xc)   XCENC  =        40.67781534
  PAW double counting   =      1025.43992223    -1090.03883641
  entropy T*S    EENTRO =        -0.00120480
  eigenvalues    EBANDS =       -78.71478803
  atomic energy  EATOM  =      1422.73612946
  Solvation  Ediel_sol  =         0.00000000
  ---------------------------------------------------
  free energy    TOTEN  =        31.44809772 eV

  energy without entropy =       31.44930252  energy(sigma->0) =       31.44870012


--------------------------------------------------------------------------------------------------------




--------------------------------------- Iteration      1(   2)  ---------------------------------------


     EDDAV:  cpu time      0.4789: real time      0.4794
       DOS:  cpu time      0.0003: real time      0.0004
    --------------------------------------------
      LOOP:  cpu time      0.4792: real time      0.4797

 eigenvalue-minimisations  :  1600
 total energy-change (2. order) :-0.4857892E+02  (-0.4856858E+02)
 number of electron      23.0000000 magnetization 
 augmentation part       23.0000000 magnetization 

 Free energy of the ion-electron system (eV)
  ---------------------------------------------------
  alpha Z        PSCENC =        32.33957086
  Ewald energy   TEWEN  =     -1049.14558693
  -Hartree energ DENC   =      -271.84492402
  -exchange      EXHF   =         0.00000000
  -V(xc)+E(xc)   XCENC  =        40.67781534
  PAW double counting   =      1025.43992223    -1090.03883641
  entropy T*S    EENTRO =        -0.00587132
  eigenvalues    EBANDS =      -127.28904486
  atomic energy  EATOM  =      1422.73612946
  Solvation  Ediel_sol  =         0.00000000
  ---------------------------------------------------
  free energy    TOTEN  =       -17.13082563 eV

  energy without entropy =      -17.12495432  energy(sigma->0) =      -17.12788997


--------------------------------------------------------------------------------------------------------




--------------------------------------- Iteration      1(   3)  ---------------------------------------


     EDDAV:  cpu time      0.2914: real time      0.2916
       DOS:  cpu time      0.0003: real time      0.0004
    --------------------------------------------
      LOOP:  cpu time      0.2917: real time      0.2921

 eigenvalue-minimisations  :  1152
 total energy-change (2. order) :-0.5049909E+00  (-0.5049567E+00)
 number of electron      23.0000000 magnetization 
 augmentation part       23.0000000 magnetization 

 Free energy of the ion-electron system (eV)
  ---------------------------------------------------
  alpha Z        PSCENC =        32.33957086
  Ewald energy   TEWEN  =     -1049.14558693
  -Hartree energ DENC   =      -271.84492402
  -exchange      EXHF   =         0.00000000
  -V(xc)+E(xc)   XCENC  =        40.67781534
  PAW double counting   =      1025.43992223    -1090.03883641
  entropy T*S    EENTRO =        -0.00619175
  eigenvalues    EBANDS =      -127.79371536
  atomic energy  EATOM  =      1422.73612946
  Solvation  Ediel_sol  =         0.00000000
  ---------------------------------------------------
  free energy    TOTEN  =       -17.63581656 eV

  energy without entropy =      -17.62962482  energy(sigma->0) =      -17.63272069


--------------------------------------------------------------------------------------------------------




--------------------------------------- Iteration      1(   4)  ---------------------------------------


     EDDAV:  cpu time      0.9012: real time      0.9015
       DOS:  cpu time      0.0005: real time      0.0006
    --------------------------------------------
      LOOP:  cpu time      0.9016: real time      0.9021

 eigenvalue-minimisations  :  2080
 total energy-change (2. order) :-0.1665014E-02  (-0.1665013E-02)
 number of electron      23.0000000 magnetization 
 augmentation part       23.0000000 magnetization 

 Free energy of the ion-electron system (eV)
  ---------------------------------------------------
  alpha Z        PSCENC =        32.33957086
  Ewald energy   TEWEN  =     -1049.14558693
  -Hartree energ DENC   =      -271.84492402
  -exchange      EXHF   =         0.00000000
  -V(xc)+E(xc)   XCENC  =        40.67781534
  PAW double counting   =      1025.43992223    -1090.03883641
  entropy T*S    EENTRO =        -0.00619292
  eigenvalues    EBANDS =      -127.79537920
  atomic energy  EATOM  =      1422.73612946
  Solvation  Ediel_sol  =         0.00000000
  ---------------------------------------------------
  free energy    TOTEN  =       -17.63748158 eV

  energy without entropy =      -17.63128865  energy(sigma->0) =      -17.63438511


--------------------------------------------------------------------------------------------------------




--------------------------------------- Iteration      1(   5)  ---------------------------------------


     EDDAV:  cpu time      0.3085: real time      0.3087
       DOS:  cpu time      0.0004: real time      0.0005
    CHARGE:  cpu time      0.0088: real time      0.0089
    MIXING:  cpu time      0.0009: real time      0.0011
    --------------------------------------------
      LOOP:  cpu time      0.3186: real time      0.3191

 eigenvalue-minimisations  :  1152
 total energy-change (2. order) :-0.6020605E-07  (-0.6005922E-07)
 number of electron      22.9999903 magnetization 
 augmentation part        2.5305804 magnetization 

 Broyden mixing:
  rms(total) = 0.87599E+00    rms(broyden)= 0.87598E+00
  rms(prec ) = 0.98790E+00
  weight for this iteration     100.00

 Free energy of the ion-electron system (eV)
  ---------------------------------------------------
  alpha Z        PSCENC =        32.33957086
  Ewald energy   TEWEN  =     -1049.14558693
  -Hartree energ DENC   =      -271.84492402
  -exchange      EXHF   =         0.00000000
  -V(xc)+E(xc)   XCENC  =        40.67781534
  PAW double counting   =      1025.43992223    -1090.03883641
  entropy T*S    EENTRO =        -0.00619292
  eigenvalues    EBANDS =      -127.79537926
  atomic energy  EATOM  =      1422.73612946
  Solvation  Ediel_sol  =         0.00000000
  ---------------------------------------------------
  free energy    TOTEN  =       -17.63748164 eV

  energy without entropy =      -17.63128871  energy(sigma->0) =      -17.63438518


--------------------------------------------------------------------------------------------------------




--------------------------------------- Iteration      1(   6)  ---------------------------------------


    POTLOK:  cpu time      0.0054: real time      0.0056
    SETDIJ:  cpu time      0.0011: real time      0.0011
     EDDAV:  cpu time      0.6444: real time      0.6453
       DOS:  cpu time      0.0004: real time      0.0005
    CHARGE:  cpu time      0.0079: real time      0.0079
    MIXING:  cpu time      0.0004: real time      0.0004
    --------------------------------------------
      LOOP:  cpu time      0.6595: real time      0.6607

 eigenvalue-minimisations  :  1728
 total energy-change (2. order) : 0.2926859E+00  (-0.9933308E-01)
 number of electron      22.9999903 magnetization 
 augmentation part        2.5675929 magnetization 

 Broyden mixing:
  rms(total) = 0.59833E+00    rms(broyden)= 0.59833E+00
  rms(prec ) = 0.62871E+00
  weight for this iteration     100.00

 eigenvalues of (default mixing * dielectric matrix)
  average eigenvalue GAMMA=   2.6926
  2.6926

 Free energy of the ion-electron system (eV)
  ---------------------------------------------------
  alpha Z        PSCENC =        32.33957086
  Ewald energy   TEWEN  =     -1049.14558693
  -Hartree energ DENC   =      -274.65574808
  -exchange      EXHF   =         0.00000000
  -V(xc)+E(xc)   XCENC  =        41.09256788
  PAW double counting   =      1314.21484504    -1378.85958792
  entropy T*S    EENTRO =        -0.00612461
  eigenvalues    EBANDS =      -125.06086147
  atomic energy  EATOM  =      1422.73612946
  Solvation  Ediel_sol  =         0.00000000
  ---------------------------------------------------
  free energy    TOTEN  =       -17.34479575 eV

  energy without entropy =      -17.33867114  energy(sigma->0) =      -17.34173345


--------------------------------------------------------------------------------------------------------




--------------------------------------- Iteration      1(   7)  ---------------------------------------


    POTLOK:  cpu time      0.0053: real time      0.0054
    SETDIJ:  cpu time      0.0010: real time      0.0010
     EDDAV:  cpu time      0.5701: real time      0.5713
       DOS:  cpu time      0.0003: real time      0.0005
    CHARGE:  cpu time      0.0079: real time      0.0079
    MIXING:  cpu time      0.0002: real time      0.0002
    --------------------------------------------
      LOOP:  cpu time      0.5848: real time      0.5863

 eigenvalue-minimisations  :  1696
 total energy-change (2. order) : 0.2684375E-01  (-0.2529947E-01)
 number of electron      22.9999903 magnetization 
 augmentation part        2.5864130 magnetization 

 Broyden mixing:
  rms(total) = 0.14797E+00    rms(broyden)= 0.14797E+00
  rms(prec ) = 0.15834E+00
  weight for this iteration     100.00

 eigenvalues of (default mixing * dielectric matrix)
  average eigenvalue GAMMA=   1.8152
  1.2927  2.3377

 Free energy of the ion-electron system (eV)
  ---------------------------------------------------
  alpha Z        PSCENC =        32.33957086
  Ewald energy   TEWEN  =     -1049.14558693
  -Hartree energ DENC   =      -276.04507749
  -exchange      EXHF   =         0.00000000
  -V(xc)+E(xc)   XCENC  =        41.45716762
  PAW double counting   =      1826.88348835    -1891.77511226
  entropy T*S    EENTRO =        -0.00623287
  eigenvalues    EBANDS =      -123.76229877
  atomic energy  EATOM  =      1422.73612946
  Solvation  Ediel_sol  =         0.00000000
  ---------------------------------------------------
  free energy    TOTEN  =       -17.31795200 eV

  energy without entropy =      -17.31171914  energy(sigma->0) =      -17.31483557


--------------------------------------------------------------------------------------------------------




--------------------------------------- Iteration      1(   8)  ---------------------------------------


    POTLOK:  cpu time      0.0052: real time      0.0053
    SETDIJ:  cpu time      0.0011: real time      0.0011
     EDDAV:  cpu time      0.5210: real time      0.5237
       DOS:  cpu time      0.0003: real time      0.0004
    CHARGE:  cpu time      0.0078: real time      0.0078
    MIXING:  cpu time      0.0002: real time      0.0002
    --------------------------------------------
      LOOP:  cpu time      0.5356: real time      0.5386

 eigenvalue-minimisations  :  1600
 total energy-change (2. order) : 0.1020888E-02  (-0.1667381E-02)
 number of electron      22.9999903 magnetization 
 augmentation part        2.5833624 magnetization 

 Broyden mixing:
  rms(total) = 0.23114E-01    rms(broyden)= 0.23114E-01
  rms(prec ) = 0.28341E-01
  weight for this iteration     100.00

 eigenvalues of (default mixing * dielectric matrix)
  average eigenvalue GAMMA=   1.7185
  1.0860  2.4610  1.6084

 Free energy of the ion-electron system (eV)
  ---------------------------------------------------
  alpha Z        PSCENC =        32.33957086
  Ewald energy   TEWEN  =     -1049.14558693
  -Hartree energ DENC   =      -275.61600603
  -exchange      EXHF   =         0.00000000
  -V(xc)+E(xc)   XCENC  =        41.49635740
  PAW double counting   =      1967.79082990    -2032.83976943
  entropy T*S    EENTRO =        -0.00621313
  eigenvalues    EBANDS =      -124.07224322
  atomic energy  EATOM  =      1422.73612946
  Solvation  Ediel_sol  =         0.00000000
  ---------------------------------------------------
  free energy    TOTEN  =       -17.31693112 eV

  energy without entropy =      -17.31071799  energy(sigma->0) =      -17.31382455


--------------------------------------------------------------------------------------------------------




--------------------------------------- Iteration      1(   9)  ---------------------------------------


    POTLOK:  cpu time      0.0053: real time      0.0055
    SETDIJ:  cpu time      0.0010: real time      0.0010
     EDDAV:  cpu time      0.5729: real time      0.5759
       DOS:  cpu time      0.0005: real time      0.0006
    CHARGE:  cpu time      0.0088: real time      0.0088
    MIXING:  cpu time      0.0002: real time      0.0002
    --------------------------------------------
      LOOP:  cpu time      0.5888: real time      0.5921

 eigenvalue-minimisations  :  1632
 total energy-change (2. order) :-0.2898053E-03  (-0.1889070E-03)
 number of electron      22.9999903 magnetization 
 augmentation part        2.5816457 magnetization 

 Broyden mixing:
  rms(total) = 0.12420E-01    rms(broyden)= 0.12420E-01
  rms(prec ) = 0.13413E-01
  weight for this iteration     100.00

 eigenvalues of (default mixing * dielectric matrix)
  average eigenvalue GAMMA=   1.6566
  2.0974  2.0974  1.0793  1.3522

 Free energy of the ion-electron system (eV)
  ---------------------------------------------------
  alpha Z        PSCENC =        32.33957086
  Ewald energy   TEWEN  =     -1049.14558693
  -Hartree energ DENC   =      -275.43785037
  -exchange      EXHF   =         0.00000000
  -V(xc)+E(xc)   XCENC  =        41.50039900
  PAW double counting   =      1979.93140062    -2045.02301855
  entropy T*S    EENTRO =        -0.00619428
  eigenvalues    EBANDS =      -124.21207073
  atomic energy  EATOM  =      1422.73612946
  Solvation  Ediel_sol  =         0.00000000
  ---------------------------------------------------
  free energy    TOTEN  =       -17.31722092 eV

  energy without entropy =      -17.31102664  energy(sigma->0) =      -17.31412378


--------------------------------------------------------------------------------------------------------




--------------------------------------- Iteration      1(  10)  ---------------------------------------


    POTLOK:  cpu time      0.0056: real time      0.0058
    SETDIJ:  cpu time      0.0011: real time      0.0011
     EDDAV:  cpu time      0.4969: real time      0.4982
       DOS:  cpu time      0.0003: real time      0.0004
    CHARGE:  cpu time      0.0079: real time      0.0079
    MIXING:  cpu time      0.0003: real time      0.0003
    --------------------------------------------
      LOOP:  cpu time      0.5121: real time      0.5137

 eigenvalue-minimisations  :  1504
 total energy-change (2. order) :-0.7236514E-04  (-0.8222851E-05)
 number of electron      22.9999903 magnetization 
 augmentation part        2.5817713 magnetization 

 Broyden mixing:
  rms(total) = 0.45456E-02    rms(broyden)= 0.45456E-02
  rms(prec ) = 0.60602E-02
  weight for this iteration     100.00

 eigenvalues of (default mixing * dielectric matrix)
  average eigenvalue GAMMA=   1.7737
  2.7579  2.4965  1.0708  1.2716  1.2716

 Free energy of the ion-electron system (eV)
  ---------------------------------------------------
  alpha Z        PSCENC =        32.33957086
  Ewald energy   TEWEN  =     -1049.14558693
  -Hartree energ DENC   =      -275.42532301
  -exchange      EXHF   =         0.00000000
  -V(xc)+E(xc)   XCENC  =        41.49793456
  PAW double counting   =      1960.30755819    -2025.39796035
  entropy T*S    EENTRO =        -0.00619546
  eigenvalues    EBANDS =      -124.22342062
  atomic energy  EATOM  =      1422.73612946
  Solvation  Ediel_sol  =         0.00000000
  ---------------------------------------------------
  free energy    TOTEN  =       -17.31729329 eV

  energy without entropy =      -17.31109783  energy(sigma->0) =      -17.31419556


--------------------------------------------------------------------------------------------------------




--------------------------------------- Iteration      1(  11)  ---------------------------------------


    POTLOK:  cpu time      0.0053: real time      0.0054
    SETDIJ:  cpu time      0.0011: real time      0.0011
     EDDAV:  cpu time      0.5031: real time      0.5052
       DOS:  cpu time      0.0003: real time      0.0005
    CHARGE:  cpu time      0.0079: real time      0.0079
    MIXING:  cpu time      0.0003: real time      0.0003
    --------------------------------------------
      LOOP:  cpu time      0.5180: real time      0.5203

 eigenvalue-minimisations  :  1536
 total energy-change (2. order) :-0.5196495E-04  (-0.9265911E-05)
 number of electron      22.9999903 magnetization 
 augmentation part        2.5817553 magnetization 

 Broyden mixing:
  rms(total) = 0.14796E-02    rms(broyden)= 0.14796E-02
  rms(prec ) = 0.15445E-02
  weight for this iteration     100.00

 eigenvalues of (default mixing * dielectric matrix)
  average eigenvalue GAMMA=   1.6874
  2.7550  2.3404  1.7524  1.2829  1.0627  0.9311

 Free energy of the ion-electron system (eV)
  ---------------------------------------------------
  alpha Z        PSCENC =        32.33957086
  Ewald energy   TEWEN  =     -1049.14558693
  -Hartree energ DENC   =      -275.39694527
  -exchange      EXHF   =         0.00000000
  -V(xc)+E(xc)   XCENC  =        41.50355267
  PAW double counting   =      1962.13005320    -2027.23688719
  entropy T*S    EENTRO =        -0.00619198
  eigenvalues    EBANDS =      -124.24104009
  atomic energy  EATOM  =      1422.73612946
  Solvation  Ediel_sol  =         0.00000000
  ---------------------------------------------------
  free energy    TOTEN  =       -17.31734525 eV

  energy without entropy =      -17.31115327  energy(sigma->0) =      -17.31424926


--------------------------------------------------------------------------------------------------------




--------------------------------------- Iteration      1(  12)  ---------------------------------------


    POTLOK:  cpu time      0.0052: real time      0.0053
    SETDIJ:  cpu time      0.0011: real time      0.0011
     EDDAV:  cpu time      0.6094: real time      0.6118
       DOS:  cpu time      0.0003: real time      0.0004
    --------------------------------------------
      LOOP:  cpu time      0.6160: real time      0.6186

 eigenvalue-minimisations  :  1696
 total energy-change (2. order) :-0.5725672E-06  (-0.9410528E-07)
 number of electron      22.9999903 magnetization 
 augmentation part        2.5817553 magnetization 

 Free energy of the ion-electron system (eV)
  ---------------------------------------------------
  alpha Z        PSCENC =        32.33957086
  Ewald energy   TEWEN  =     -1049.14558693
  -Hartree energ DENC   =      -275.40137522
  -exchange      EXHF   =         0.00000000
  -V(xc)+E(xc)   XCENC  =        41.50378865
  PAW double counting   =      1961.97720240    -2027.08433534
  entropy T*S    EENTRO =        -0.00619168
  eigenvalues    EBANDS =      -124.23654803
  atomic energy  EATOM  =      1422.73612946
  Solvation  Ediel_sol  =         0.00000000
  ---------------------------------------------------
  free energy    TOTEN  =       -17.31734582 eV

  energy without entropy =      -17.31115414  energy(sigma->0) =      -17.31424998


--------------------------------------------------------------------------------------------------------




 average (electrostatic) potential at core
  the test charge radii are     0.9254  0.9892  0.9698
  (the norm of the test charge is              1.0000)
       1 -44.4155       2 -84.8501       3 -86.3539       4 -86.3539



 E-fermi :   6.1148     XC(G=0):  -9.6051     alpha+bet :-11.3217

 Fermi energy:         6.1147704624

 k-point     1 :       0.0000    0.0000    0.0000
  band No.  band energies     occupation 
      1     -18.6070      2.00000
      2     -18.6040      2.00000
      3     -18.6039      2.00000
      4      -9.8318      2.00000
      5      -7.8386      2.00000
      6      -1.5865      2.00000
      7       3.2417      2.00000
      8       3.4613      2.00000
      9       3.4613      2.00000
     10       3.4805      2.00000
     11       3.4805      2.00000
     12       5.6373      2.00000
     13       7.6325      0.00000
     14       8.8218      0.00000
     15       8.8218      0.00000
     16       9.1370      0.00000
     17      12.2674      0.00000
     18      12.2674      0.00000
     19      13.4966      0.00000
     20      14.3324      0.00000
     21      14.3324      0.00000
     22      15.3775      0.00000
     23      15.9816      0.00000
     24      16.4458      0.00000
     25      16.4458      0.00000
     26      17.2893      0.00000
     27      21.2055      0.00000
     28      21.2057      0.00000
     29      21.4905      0.00000
     30      21.5066      0.00000
     31      21.5066      0.00000
     32      21.7608      0.00000

 k-point     2 :       0.1667    0.0000    0.0000
  band No.  band energies     occupation 
      1     -18.6174      2.00000
      2     -18.6070      2.00000
      3     -18.6037      2.00000
      4      -9.5087      2.00000
      5      -7.6580      2.00000
      6      -1.4609      2.00000
      7       1.2513      2.00000
      8       2.4040      2.00000
      9       2.5371      2.00000
     10       3.2561      2.00000
     11       3.8035      2.00000
     12       6.8018      0.00000
     13       7.6801      0.00000
     14       9.1456      0.00000
     15       9.3622      0.00000
     16      10.4710      0.00000
     17      11.4273      0.00000
     18      12.4747      0.00000
     19      12.9421      0.00000
     20      13.1743      0.00000
     21      14.3545      0.00000
     22      15.8803      0.00000
     23      17.3591      0.00000
     24      17.5982      0.00000
     25      18.3503      0.00000
     26      18.6224      0.00000
     27      18.9133      0.00000
     28      20.0460      0.00000
     29      20.1864      0.00000
     30      21.1381      0.00000
     31      22.1339      0.00000
     32      22.8566      0.00000

 k-point     3 :       0.3333    0.0000    0.0000
  band No.  band energies     occupation 
      1     -18.6439      2.00000
      2     -18.6131      2.00000
      3     -18.5974      2.00000
      4      -8.6339      2.00000
      5      -7.3198      2.00000
      6      -2.1346      2.00000
      7      -0.2741      2.00000
      8       1.1310      2.00000
      9       1.7319      2.00000
     10       3.0738      2.00000
     11       3.5619      2.00000
     12       5.6172      2.00000
     13       8.2441      0.00000
     14       9.6561      0.00000
     15       9.9685      0.00000
     16      10.3033      0.00000
     17      11.4933      0.00000
     18      13.0265      0.00000
     19      14.4310      0.00000
     20      14.4769      0.00000
     21      15.8242      0.00000
     22      16.3368      0.00000
     23      16.6737      0.00000
     24      17.1737      0.00000
     25      17.4784      0.00000
     26      19.7924      0.00000
     27      20.1691      0.00000
     28      21.8805      0.00000
     29      22.2188      0.00000
     30      22.2724      0.00000
     31      22.4897      0.00000
     32      23.8820      0.00000

 k-point     4 :       0.5000    0.0000    0.0000
  band No.  band energies     occupation 
      1     -18.6571      2.00000
      2     -18.6161      2.00000
      3     -18.5942      2.00000
      4      -7.7950      2.00000
      5      -7.4001      2.00000
      6      -3.0117      2.00000
      7      -0.7594      2.00000
      8       1.3333      2.00000
      9       1.4347      2.00000
     10       2.6781      2.00000
     11       3.4032      2.00000
     12       4.9726      2.00000
     13       8.1466      0.00000
     14       9.3836      0.00000
     15      10.0178      0.00000
     16      10.7697      0.00000
     17      11.9134      0.00000
     18      12.1324      0.00000
     19      15.4336      0.00000
     20      16.3767      0.00000
     21      16.4793      0.00000
     22      16.8236      0.00000
     23      17.6100      0.00000
     24      17.7498      0.00000
     25      19.0589      0.00000
     26      19.3984      0.00000
     27      19.4753      0.00000
     28      20.0069      0.00000
     29      20.3798      0.00000
     30      21.9736      0.00000
     31      24.3388      0.00000
     32      24.5777      0.00000

 k-point     5 :       0.1667    0.1667    0.0000
  band No.  band energies     occupation 
      1     -18.6348      2.00000
      2     -18.6141      2.00000
      3     -18.5991      2.00000
      4      -8.9055      2.00000
      5      -7.3845      2.00000
      6      -1.7001      2.00000
      7       0.3649      2.00000
      8       0.4631      2.00000
      9       2.4583      2.00000
     10       2.6237      2.00000
     11       3.4447      2.00000
     12       6.7602      0.00000
     13       8.7982      0.00000
     14       8.9846      0.00000
     15       9.9177      0.00000
     16      10.8642      0.00000
     17      11.1572      0.00000
     18      12.2121      0.00000
     19      13.4176      0.00000
     20      13.6681      0.00000
     21      15.7154      0.00000
     22      15.9764      0.00000
     23      17.7999      0.00000
     24      18.0652      0.00000
     25      18.2638      0.00000
     26      18.5604      0.00000
     27      19.2035      0.00000
     28      21.1066      0.00000
     29      21.3024      0.00000
     30      21.9071      0.00000
     31      22.8294      0.00000
     32      23.8240      0.00000

 k-point     6 :       0.3333    0.1667    0.0000
  band No.  band energies     occupation 
      1     -18.6503      2.00000
      2     -18.6230      2.00000
      3     -18.5942      2.00000
      4      -7.9514      2.00000
      5      -7.2321      2.00000
      6      -2.8244      2.00000
      7      -0.4661      2.00000
      8       0.5171      2.00000
      9       1.2803      2.00000
     10       2.4546      2.00000
     11       3.0800      2.00000
     12       6.0611      1.87076
     13       9.2322      0.00000
     14       9.5545      0.00000
     15      10.1383      0.00000
     16      10.9782      0.00000
     17      11.4351      0.00000
     18      12.4953      0.00000
     19      13.7063      0.00000
     20      14.9290      0.00000
     21      15.5777      0.00000
     22      16.6122      0.00000
     23      17.4861      0.00000
     24      18.0738      0.00000
     25      18.9696      0.00000
     26      19.9021      0.00000
     27      20.0719      0.00000
     28      20.6121      0.00000
     29      22.3095      0.00000
     30      22.7707      0.00000
     31      23.5632      0.00000
     32      23.8355      0.00000

 k-point     7 :       0.3333    0.3333    0.0000
  band No.  band energies     occupation 
      1     -18.6406      2.00000
      2     -18.6406      2.00000
      3     -18.5926      2.00000
      4      -7.3549      2.00000
      5      -7.3548      2.00000
      6      -3.2152      2.00000
      7      -0.0531      2.00000
      8      -0.0530      2.00000
      9       0.4318      2.00000
     10       2.6243      2.00000
     11       2.6243      2.00000
     12       6.1132      1.03461
     13      10.0870      0.00000
     14      10.0870      0.00000
     15      11.1852      0.00000
     16      11.5358      0.00000
     17      11.6861      0.00000
     18      11.6862      0.00000
     19      13.8848      0.00000
     20      13.8849      0.00000
     21      14.5364      0.00000
     22      16.1560      0.00000
     23      16.7234      0.00000
     24      16.7235      0.00000
     25      20.8054      0.00000
     26      20.8055      0.00000
     27      22.0513      0.00000
     28      22.0513      0.00000
     29      22.1108      0.00000
     30      23.5988      0.00000
     31      23.5989      0.00000
     32      23.7712      0.00000

 k-point     8 :       0.0000    0.0000    0.3333
  band No.  band energies     occupation 
      1     -18.6071      2.00000
      2     -18.6040      2.00000
      3     -18.6039      2.00000
      4      -9.7885      2.00000
      5      -7.9381      2.00000
      6      -1.1829      2.00000
      7       2.2239      2.00000
      8       3.4552      2.00000
      9       3.4552      2.00000
     10       3.4914      2.00000
     11       3.4914      2.00000
     12       6.3307      0.00000
     13       7.6114      0.00000
     14       8.7519      0.00000
     15       8.7519      0.00000
     16       9.6748      0.00000
     17      12.2332      0.00000
     18      12.2332      0.00000
     19      13.0243      0.00000
     20      14.8409      0.00000
     21      14.9145      0.00000
     22      14.9145      0.00000
     23      16.0403      0.00000
     24      16.7448      0.00000
     25      16.7448      0.00000
     26      18.2432      0.00000
     27      18.5621      0.00000
     28      18.5622      0.00000
     29      19.5470      0.00000
     30      20.8529      0.00000
     31      20.8530      0.00000
     32      22.6624      0.00000

 k-point     9 :       0.1667    0.0000    0.3333
  band No.  band energies     occupation 
      1     -18.6174      2.00000
      2     -18.6070      2.00000
      3     -18.6039      2.00000
      4      -9.4694      2.00000
      5      -7.7433      2.00000
      6      -1.1885      2.00000
      7       1.4023      2.00000
      8       2.1418      2.00000
      9       2.5534      2.00000
     10       2.7406      2.00000
     11       3.7728      2.00000
     12       6.7759      0.00000
     13       8.5262      0.00000
     14       9.3087      0.00000
     15       9.3953      0.00000
     16       9.7568      0.00000
     17      11.7060      0.00000
     18      12.5624      0.00000
     19      12.9157      0.00000
     20      14.0700      0.00000
     21      14.5662      0.00000
     22      15.3220      0.00000
     23      16.3230      0.00000
     24      17.1631      0.00000
     25      17.2265      0.00000
     26      18.8376      0.00000
     27      19.2141      0.00000
     28      19.3095      0.00000
     29      21.0478      0.00000
     30      21.9493      0.00000
     31      22.0837      0.00000
     32      23.5321      0.00000

 k-point    10 :       0.0000    0.1667    0.3333
  band No.  band energies     occupation 
      1     -18.6174      2.00000
      2     -18.6070      2.00000
      3     -18.6039      2.00000
      4      -9.4700      2.00000
      5      -7.7421      2.00000
      6      -1.1682      2.00000
      7       1.1820      2.00000
      8       2.4714      2.00000
      9       2.5404      2.00000
     10       2.6475      2.00000
     11       3.7997      2.00000
     12       6.8712      0.00000
     13       8.1389      0.00000
     14       9.2177      0.00000
     15       9.3006      0.00000
     16      10.4558      0.00000
     17      11.3321      0.00000
     18      12.9011      0.00000
     19      13.0012      0.00000
     20      13.0279      0.00000
     21      14.9701      0.00000
     22      16.1947      0.00000
     23      16.4167      0.00000
     24      16.7260      0.00000
     25      17.8387      0.00000
     26      18.4777      0.00000
     27      18.8124      0.00000
     28      19.4652      0.00000
     29      20.5208      0.00000
     30      21.2915      0.00000
     31      22.3442      0.00000
     32      22.6052      0.00000

 k-point    11 :       0.3333    0.0000    0.3333
  band No.  band energies     occupation 
      1     -18.6440      2.00000
      2     -18.6131      2.00000
      3     -18.5975      2.00000
      4      -8.6052      2.00000
      5      -7.3668      2.00000
      6      -2.1565      2.00000
      7      -0.1936      2.00000
      8       1.3941      2.00000
      9       1.7441      2.00000
     10       2.6941      2.00000
     11       3.5280      2.00000
     12       5.5356      2.00000
     13       8.6486      0.00000
     14       9.0826      0.00000
     15      10.1515      0.00000
     16      10.5166      0.00000
     17      11.6551      0.00000
     18      13.0459      0.00000
     19      14.1351      0.00000
     20      14.5684      0.00000
     21      15.6275      0.00000
     22      15.9868      0.00000
     23      16.1962      0.00000
     24      17.5707      0.00000
     25      18.2950      0.00000
     26      19.7482      0.00000
     27      20.5948      0.00000
     28      21.5771      0.00000
     29      22.5848      0.00000
     30      22.7155      0.00000
     31      23.3187      0.00000
     32      23.3581      0.00000

 k-point    12 :       0.0000    0.3333    0.3333
  band No.  band energies     occupation 
      1     -18.6440      2.00000
      2     -18.6131      2.00000
      3     -18.5975      2.00000
      4      -8.6096      2.00000
      5      -7.3597      2.00000
      6      -2.1107      2.00000
      7      -0.3629      2.00000
      8       1.4277      2.00000
      9       1.7391      2.00000
     10       2.8641      2.00000
     11       3.5410      2.00000
     12       5.6773      2.00000
     13       8.1708      0.00000
     14       8.9837      0.00000
     15      10.0532      0.00000
     16      10.3997      0.00000
     17      12.0930      0.00000
     18      13.5301      0.00000
     19      14.0594      0.00000
     20      14.6709      0.00000
     21      15.8678      0.00000
     22      15.9594      0.00000
     23      16.1902      0.00000
     24      16.7603      0.00000
     25      18.8648      0.00000
     26      19.1697      0.00000
     27      21.0980      0.00000
     28      21.6915      0.00000
     29      22.1675      0.00000
     30      22.1695      0.00000
     31      22.8544      0.00000
     32      23.4376      0.00000

 k-point    13 :       0.5000    0.0000    0.3333
  band No.  band energies     occupation 
      1     -18.6572      2.00000
      2     -18.6161      2.00000
      3     -18.5944      2.00000
      4      -7.7920      2.00000
      5      -7.3973      2.00000
      6      -3.0311      2.00000
      7      -0.8815      2.00000
      8       1.4440      2.00000
      9       1.5671      2.00000
     10       2.7832      2.00000
     11       3.3742      2.00000
     12       4.9464      2.00000
     13       8.3962      0.00000
     14       8.8780      0.00000
     15       9.3888      0.00000
     16      10.2129      0.00000
     17      12.0680      0.00000
     18      14.1535      0.00000
     19      15.0598      0.00000
     20      15.3567      0.00000
     21      16.2142      0.00000
     22      17.3932      0.00000
     23      17.8974      0.00000
     24      18.5626      0.00000
     25      18.7823      0.00000
     26      19.4058      0.00000
     27      19.7264      0.00000
     28      20.6643      0.00000
     29      21.4523      0.00000
     30      21.5382      0.00000
     31      22.0962      0.00000
     32      23.3320      0.00000

 k-point    14 :       0.1667    0.1667    0.3333
  band No.  band energies     occupation 
      1     -18.6348      2.00000
      2     -18.6141      2.00000
      3     -18.5991      2.00000
      4      -8.8746      2.00000
      5      -7.4418      2.00000
      6      -1.6438      2.00000
      7       0.2570      2.00000
      8       0.7587      2.00000
      9       2.3013      2.00000
     10       2.7192      2.00000
     11       3.1528      2.00000
     12       6.7325      0.00000
     13       8.4138      0.00000
     14       9.5054      0.00000
     15      10.2680      0.00000
     16      10.7122      0.00000
     17      11.4485      0.00000
     18      12.2009      0.00000
     19      12.6033      0.00000
     20      14.3618      0.00000
     21      15.3880      0.00000
     22      15.9226      0.00000
     23      17.1050      0.00000
     24      17.5101      0.00000
     25      18.2161      0.00000
     26      19.6536      0.00000
     27      20.3849      0.00000
     28      20.8930      0.00000
     29      21.3047      0.00000
     30      22.4554      0.00000
     31      22.7827      0.00000
     32      23.3235      0.00000

 k-point    15 :       0.3333    0.1667    0.3333
  band No.  band energies     occupation 
      1     -18.6502      2.00000
      2     -18.6230      2.00000
      3     -18.5944      2.00000
      4      -7.9351      2.00000
      5      -7.2498      2.00000
      6      -2.8299      2.00000
      7      -0.5364      2.00000
      8       0.4665      2.00000
      9       1.3816      2.00000
     10       2.5793      2.00000
     11       3.1630      2.00000
     12       6.0798      1.67760
     13       8.6441      0.00000
     14       9.7785      0.00000
     15       9.9955      0.00000
     16      10.2372      0.00000
     17      12.2501      0.00000
     18      12.7640      0.00000
     19      13.4953      0.00000
     20      14.1723      0.00000
     21      16.3850      0.00000
     22      17.1860      0.00000
     23      17.8602      0.00000
     24      18.7923      0.00000
     25      19.0272      0.00000
     26      19.9284      0.00000
     27      20.2112      0.00000
     28      20.7043      0.00000
     29      21.3727      0.00000
     30      22.5769      0.00000
     31      22.8563      0.00000
     32      23.7833      0.00000

 k-point    16 :      -0.1667    0.5000    0.3333
  band No.  band energies     occupation 
      1     -18.6502      2.00000
      2     -18.6230      2.00000
      3     -18.5944      2.00000
      4      -7.9391      2.00000
      5      -7.2444      2.00000
      6      -2.8202      2.00000
      7      -0.5988      2.00000
      8       0.5378      2.00000
      9       1.3041      2.00000
     10       2.6971      2.00000
     11       3.1297      2.00000
     12       6.1327      0.61254
     13       8.5384      0.00000
     14       9.5761      0.00000
     15       9.8782      0.00000
     16      10.3682      0.00000
     17      12.3067      0.00000
     18      13.1655      0.00000
     19      13.5996      0.00000
     20      14.1171      0.00000
     21      15.9515      0.00000
     22      17.0034      0.00000
     23      18.2675      0.00000
     24      18.6088      0.00000
     25      19.2745      0.00000
     26      19.6619      0.00000
     27      20.4417      0.00000
     28      20.6330      0.00000
     29      21.2142      0.00000
     30      22.6802      0.00000
     31      23.2075      0.00000
     32      23.8061      0.00000

 k-point    17 :       0.3333    0.3333    0.3333
  band No.  band energies     occupation 
      1     -18.6407      2.00000
      2     -18.6406      2.00000
      3     -18.5929      2.00000
      4      -7.3536      2.00000
      5      -7.3536      2.00000
      6      -3.1914      2.00000
      7      -0.1467      2.00000
      8      -0.1467      2.00000
      9       0.3313      2.00000
     10       2.8907      2.00000
     11       2.8908      2.00000
     12       6.4827      0.00000
     13       8.9787      0.00000
     14       8.9788      0.00000
     15      10.5986      0.00000
     16      11.9909      0.00000
     17      12.8375      0.00000
     18      12.8375      0.00000
     19      13.0091      0.00000
     20      13.9524      0.00000
     21      13.9525      0.00000
     22      17.1371      0.00000
     23      17.1372      0.00000
     24      18.8674      0.00000
     25      19.6326      0.00000
     26      19.6327      0.00000
     27      22.4144      0.00000
     28      22.4145      0.00000
     29      22.4252      0.00000
     30      22.7558      0.00000
     31      24.0250      0.00000
     32      24.0250      0.00000


--------------------------------------------------------------------------------------------------------


 soft charge-density along one line, spin component           1
         0         1         2         3         4         5         6         7         8         9
 total charge-density along one line

 pseudopotential strength for first ion, spin component:           1
-23.382   0.000   0.000   1.605  -0.000  -0.000   0.000   0.000
  0.000 -23.361  -0.000  -0.000   1.596   0.000   0.000   0.000
  0.000  -0.000 -23.382  -0.000   0.000   1.605   0.000   0.000
  1.605  -0.000  -0.000   6.915  -0.000  -0.000  -0.000   0.000
 -0.000   1.596   0.000  -0.000   6.916   0.000  -0.000   0.000
 -0.000   0.000   1.605  -0.000   0.000   6.915  -0.000   0.000
  0.000   0.000   0.000  -0.000  -0.000  -0.000   1.438   6.970
  0.000   0.000   0.000   0.000   0.000   0.000   6.970  33.636
 total augmentation occupancy for first ion, spin component:           1
  2.001   0.000  -0.000   0.000   0.000  -0.000   0.000   0.000
  0.000   2.001  -0.000  -0.000  -0.003  -0.000   0.000   0.000
 -0.000  -0.000   2.001  -0.000  -0.000   0.000   0.000   0.000
  0.000   0.000  -0.000   0.019  -0.000  -0.000   0.000   0.000
 -0.000  -0.003  -0.000  -0.000   0.024   0.000   0.000   0.000
 -0.000  -0.000   0.000  -0.000   0.000   0.019   0.000   0.000
  0.000   0.000   0.000   0.000   0.000   0.000   0.544  -0.001
  0.000   0.000   0.000   0.000   0.000   0.000  -0.001   0.000


------------------------ aborting loop because EDIFF is reached ----------------------------------------


    CHARGE:  cpu time      0.0079: real time      0.0079
    FORLOC:  cpu time      0.0003: real time      0.0003
    FORNL :  cpu time      0.0338: real time      0.0339
    STRESS:  cpu time      0.1007: real time      0.1007
    FORCOR:  cpu time      0.0046: real time      0.0046
    FORHAR:  cpu time      0.0013: real time      0.0013
    MIXING:  cpu time      0.0003: real time      0.0004
    OFIELD:  cpu time      0.0000: real time      0.0000

  FORCE on cell =-STRESS in cart. coord.  units (eV):
  Direction    XX          YY          ZZ          XY          YZ          ZX
  --------------------------------------------------------------------------------------
  Alpha Z    32.33957    32.33957    32.33957
  Ewald    -363.35986  -363.35965  -322.42660     0.00017    -0.00002     0.00003
  Hartree    82.27758    82.27757   110.84874    -0.00001    -0.00000     0.00000
  E(xc)     -93.10943   -93.10954   -93.15706    -0.00010     0.00000    -0.00000
  Local     -59.59051   -59.59052  -130.39311    -0.00000    -0.00000    -0.00000
  n-local   161.43050   159.99043   161.77992    -1.34604    -0.58044     0.53078
  augment     0.90839     0.90834     0.98384    -0.00005    -0.00001     0.00001
  Kinetic   238.85953   240.79034   240.11380    -7.29520    -1.06452     0.70545
  Fock        0.00000     0.00000     0.00000     0.00000     0.00000     0.00000
  -------------------------------------------------------------------------------------
  Total       0.00115     0.00115     0.08912    -0.00000    -0.00000    -0.00000
  in kB       0.02533     0.02533     1.96286    -0.00000    -0.00000    -0.00000
  external pressure =        0.67 kB  Pullay stress =        0.00 kB


 VOLUME and BASIS-vectors are now :
 -----------------------------------------------------------------------------
  energy-cutoff  :      400.00
  volume of cell :       72.75
      direct lattice vectors                 reciprocal lattice vectors
     3.533953607 -0.000000000 -0.000000000     0.282969193  0.163372340 -0.000000000
    -1.766976804  3.060493600  0.000000000     0.000000000  0.326744679 -0.000000000
     0.000000000  0.000000000  6.726157826     0.000000000  0.000000000  0.148673288

  length of vectors
     3.533953607  3.533953607  6.726157826     0.326744679  0.326744679  0.148673288


 FORCES acting on ions
    electron-ion (+dipol)            ewald-force                    non-local-force                 convergence-correction
 -----------------------------------------------------------------------------------------------
   -.423E-05 -.792E-05 -.915E-04   -.303E-04 -.568E-04 -.162E-03   -.843E-22 0.106E-22 0.197E-21   0.140E-06 0.263E-06 -.913E-05
   -.748E-05 -.140E-04 -.100E-03   -.552E-04 -.103E-03 0.184E-03   0.145E-20 0.144E-21 -.471E-21   0.330E-07 0.617E-07 0.371E-05
   -.410E-06 0.136E-02 0.184E+02   -.756E-05 0.111E-03 -.213E+02   -.271E-16 0.359E-16 0.290E+01   0.510E-07 -.260E-06 0.377E-03
   0.109E-02 0.677E-03 -.184E+02   0.931E-04 0.487E-04 0.213E+02   0.299E-16 -.216E-16 -.290E+01   -.234E-06 -.830E-07 -.372E-03
 -----------------------------------------------------------------------------------------------
   0.108E-02 0.201E-02 -.266E-02   0.110E-14 0.712E-15 0.000E+00   0.284E-17 0.143E-16 0.000E+00   -.985E-08 -.184E-07 -.799E-06


 POSITION                                       TOTAL-FORCE (eV/Angst)
 -----------------------------------------------------------------------------------
      0.00000      0.00000      3.36308        -0.000000     -0.000000      0.000000
      0.00000      0.00000      0.00000        -0.000000     -0.000000      0.000000
     -0.00000      2.04033      5.38059        -0.000000      0.000000     -0.030502
      1.76697      1.02016      1.34557         0.000000     -0.000000      0.030502
 -----------------------------------------------------------------------------------
    total drift:                                0.001076      0.002015     -0.002664


--------------------------------------------------------------------------------------------------------



  FREE ENERGIE OF THE ION-ELECTRON SYSTEM (eV)
  ---------------------------------------------------
  free  energy   TOTEN  =       -17.31734582 eV

  energy  without entropy=      -17.31115414  energy(sigma->0) =      -17.31424998



--------------------------------------------------------------------------------------------------------


    POTLOK:  cpu time      0.0062: real time      0.0062


--------------------------------------------------------------------------------------------------------




Found     6 degrees of freedom:


        Directions for atom     1:
        --------------------------

              1.0000000000000000      0.0000000000000000      0.0000000000000000
              0.0000000000000000      0.0000000000000000      1.0000000000000000


        Directions for atom     2:
        --------------------------

              1.0000000000000000      0.0000000000000000      0.0000000000000000
              0.0000000000000000      0.0000000000000000      1.0000000000000000


        Directions for atom     3:
        --------------------------

              1.0000000000000000      0.0000000000000000      0.0000000000000000
              0.0000000000000000      0.0000000000000000      1.0000000000000000
        Strain: 6 additional degrees of freedom
        ---------------------------------------
 Finite differences:
   Step               POTIM =    1.4999999999999999E-002
   Degrees of freedom DOF   =           12
  Warning from LATTYP: Monoclinic adjustment (A1->A3, A2->A1, A3->A2)!
  LATTYP: Found a base centered orthorhombic cell.
 ALAT       =     3.6399722153
 B/A-ratio  =     1.6816027258
 C/A-ratio  =     1.8478596616
  
  Lattice vectors:
  
 A1 = (   1.8199861077,  -3.0604935996,   0.0000000000)
 A2 = (   1.8199861076,   3.0604935996,   0.0000000000)
 A3 = (   0.0000000000,   0.0000000000,   6.7261578258)


Analysis of symmetry for initial positions (statically):
=====================================================================
 Subroutine PRICEL returns:
 Original cell was already a primitive cell.
 

 Routine SETGRP: Setting up the symmetry group for a 
 base centered orthorhombic supercell.


 Subroutine GETGRP returns: Found  4 space group operations
 (whereof  4 operations were pure point group operations)
 out of a pool of  8 trial point group operations.


The static configuration has the point symmetry C_2h.


Analysis of symmetry for dynamics (positions and initial velocities):
=====================================================================
 Subroutine PRICEL returns:
 Original cell was already a primitive cell.
 

 Routine SETGRP: Setting up the symmetry group for a 
 base centered orthorhombic supercell.


 Subroutine GETGRP returns: Found  4 space group operations
 (whereof  4 operations were pure point group operations)
 out of a pool of  8 trial point group operations.


The dynamic configuration has the point symmetry C_2h.


 Subroutine INISYM returns: Found  4 space group operations
 (whereof  4 operations are pure point group operations),
 and found     1 'primitive' translations


 KPOINTS: pymatgen with grid density = 600 / numbe

Automatic generation of k-mesh.
 Grid dimensions read from file:
 generate k-points for:    6    6    3

 Generating k-lattice:

  Cartesian coordinates                     Fractional coordinates (reciprocal lattice)
     0.045787895  0.027228723 -0.000000000     0.166666667 -0.000000000  0.000000000
     0.000000000  0.054457447 -0.000000000    -0.000000000  0.166666667  0.000000000
    -0.000000000 -0.000000000  0.049557763     0.000000000  0.000000000  0.333333333

  Length of vectors
     0.053272270  0.054457447  0.049557763

  Shift w.r.t. Gamma in fractional coordinates (k-lattice)
     0.000000000  0.000000000  0.000000000

 
 Subroutine IBZKPT returns following result:
 ===========================================
 
 Found     34 irreducible k-points:
 
 Following reciprocal coordinates:
            Coordinates               Weight
  0.000000  0.000000  0.000000      1.000000
  0.166667  0.000000  0.000000      4.000000
  0.333333  0.000000  0.000000      4.000000
  0.500000  0.000000  0.000000      2.000000
  0.000000  0.166667  0.000000      2.000000
  0.166667  0.166667  0.000000      4.000000
  0.333333  0.166667  0.000000      4.000000
  0.500000  0.166667  0.000000      4.000000
 -0.333333  0.166667  0.000000      2.000000
  0.000000  0.333333  0.000000      2.000000
  0.166667  0.333333  0.000000      4.000000
  0.333333  0.333333  0.000000      2.000000
  0.000000  0.500000  0.000000      1.000000
  0.000000  0.000000  0.333333      2.000000
  0.166667  0.000000  0.333333      4.000000
 -0.166667  0.000000  0.333333      4.000000
  0.333333  0.000000  0.333333      4.000000
 -0.333333  0.000000  0.333333      4.000000
  0.500000  0.000000  0.333333      4.000000
  0.000000  0.166667  0.333333      2.000000
  0.000000 -0.166667  0.333333      2.000000
  0.166667  0.166667  0.333333      4.000000
 -0.166667 -0.166667  0.333333      4.000000
  0.333333  0.166667  0.333333      4.000000
 -0.333333 -0.166667  0.333333      4.000000
  0.500000  0.166667  0.333333      4.000000
  0.500000 -0.166667  0.333333      4.000000
 -0.333333  0.166667  0.333333      4.000000
  0.000000  0.333333  0.333333      2.000000
  0.000000 -0.333333  0.333333      2.000000
  0.166667  0.333333  0.333333      4.000000
 -0.166667 -0.333333  0.333333      4.000000
  0.333333  0.333333  0.333333      4.000000
  0.000000  0.500000  0.333333      2.000000
 
 Following cartesian coordinates:
            Coordinates               Weight
  0.000000  0.000000  0.000000      1.000000
  0.045788  0.027229  0.000000      4.000000
  0.091576  0.054457  0.000000      4.000000
  0.137364  0.081686  0.000000      2.000000
  0.000000  0.054457  0.000000      2.000000
  0.045788  0.081686  0.000000      4.000000
  0.091576  0.108915  0.000000      4.000000
  0.137364  0.136144  0.000000      4.000000
 -0.091576 -0.000000  0.000000      2.000000
  0.000000  0.108915  0.000000      2.000000
  0.045788  0.136144  0.000000      4.000000
  0.091576  0.163372  0.000000      2.000000
  0.000000  0.163372  0.000000      1.000000
  0.000000  0.000000  0.049558      2.000000
  0.045788  0.027229  0.049558      4.000000
 -0.045788 -0.027229  0.049558      4.000000
  0.091576  0.054457  0.049558      4.000000
 -0.091576 -0.054457  0.049558      4.000000
  0.137364  0.081686  0.049558      4.000000
  0.000000  0.054457  0.049558      2.000000
 -0.000000 -0.054457  0.049558      2.000000
  0.045788  0.081686  0.049558      4.000000
 -0.045788 -0.081686  0.049558      4.000000
  0.091576  0.108915  0.049558      4.000000
 -0.091576 -0.108915  0.049558      4.000000
  0.137364  0.136144  0.049558      4.000000
  0.137364  0.027229  0.049558      4.000000
 -0.091576 -0.000000  0.049558      4.000000
  0.000000  0.108915  0.049558      2.000000
 -0.000000 -0.108915  0.049558      2.000000
  0.045788  0.136144  0.049558      4.000000
 -0.045788 -0.136144  0.049558      4.000000
  0.091576  0.163372  0.049558      4.000000
  0.000000  0.163372  0.049558      2.000000
 
