  16  16   1   0
  0.2002645E+02  0.7786711E-09  0.6617013E-09  0.6218819E-09  0.1000000E-14
   1000.00000000000     
  CAR 
 unknown system                          
     10.23197994    -14.09569581  301      2.29000746      1.00000000
    -14.096  0.0000E+00  0.0000E+00
    -14.015  0.0000E+00  0.0000E+00
    -13.934  0.0000E+00  0.0000E+00
    -13.852  0.0000E+00  0.0000E+00
    -13.771  0.0000E+00  0.0000E+00
    -13.690  0.0000E+00  0.0000E+00
    -13.609  0.0000E+00  0.0000E+00
    -13.528  0.0000E+00  0.0000E+00
    -13.447  0.0000E+00  0.0000E+00
    -13.366  0.0000E+00  0.0000E+00
    -13.285  0.1308E-14  0.1044E-15
    -13.204  0.1911E-07  0.1539E-08
    -13.123  0.2087E-02  0.1692E-03
    -13.041  0.1755E+01  0.1429E+00
    -12.960  0.1787E+02  0.1598E+01
    -12.879  0.5340E+01  0.2032E+01
    -12.798  0.4077E+01  0.2360E+01
    -12.717  0.5930E+01  0.2839E+01
    -12.636  0.3287E+01  0.3104E+01
    -12.555  0.3368E+01  0.3377E+01
    -12.474  0.1939E+01  0.3537E+01
    -12.393  0.1059E+01  0.3624E+01
    -12.312  0.9036E+00  0.3699E+01
    -12.231  0.9197E+00  0.3775E+01
    -12.149  0.1175E+01  0.3873E+01
    -12.068  0.1346E+01  0.3986E+01
    -11.987  0.1698E+00  0.4000E+01
    -11.906  0.3741E-03  0.4000E+01
    -11.825  0.5365E-08  0.4000E+01
    -11.744  0.3721E-15  0.4000E+01
    -11.663  0.0000E+00  0.4000E+01
    -11.582  0.0000E+00  0.4000E+01
    -11.501  0.0000E+00  0.4000E+01
    -11.420  0.0000E+00  0.4000E+01
    -11.339  0.0000E+00  0.4000E+01
    -11.257  0.0000E+00  0.4000E+01
    -11.176  0.0000E+00  0.4000E+01
    -11.095  0.0000E+00  0.4000E+01
    -11.014  0.0000E+00  0.4000E+01
    -10.933  0.0000E+00  0.4000E+01
    -10.852  0.0000E+00  0.4000E+01
    -10.771  0.1232E-12  0.4000E+01
    -10.690  0.2578E-06  0.4000E+01
    -10.609  0.3571E-02  0.4000E+01
    -10.528  0.4954E+00  0.4041E+01
    -10.447  0.2456E+01  0.4240E+01
    -10.365  0.4541E+01  0.4605E+01
    -10.284  0.3888E+01  0.4917E+01
    -10.203  0.4188E+01  0.5256E+01
    -10.122  0.1019E+02  0.6082E+01
    -10.041  0.6834E+01  0.6639E+01
     -9.960  0.1157E+02  0.7581E+01
     -9.879  0.9532E+01  0.8350E+01
     -9.798  0.9029E+01  0.9078E+01
     -9.717  0.8034E+01  0.9731E+01
     -9.636  0.6136E+01  0.1023E+02
     -9.555  0.6822E+01  0.1079E+02
     -9.473  0.9456E+01  0.1156E+02
     -9.392  0.9974E+01  0.1237E+02
     -9.311  0.9295E+01  0.1313E+02
     -9.230  0.1008E+02  0.1395E+02
     -9.149  0.5634E+01  0.1441E+02
     -9.068  0.3502E+01  0.1470E+02
     -8.987  0.3181E+01  0.1496E+02
     -8.906  0.1617E+01  0.1510E+02
     -8.825  0.3904E+01  0.1542E+02
     -8.744  0.5449E+01  0.1587E+02
     -8.663  0.1579E+01  0.1600E+02
     -8.581  0.3015E-01  0.1600E+02
     -8.500  0.8331E-05  0.1600E+02
     -8.419  0.1522E-10  0.1600E+02
     -8.338  0.0000E+00  0.1600E+02
     -8.257  0.0000E+00  0.1600E+02
     -8.176  0.0000E+00  0.1600E+02
     -8.095  0.0000E+00  0.1600E+02
     -8.014  0.0000E+00  0.1600E+02
     -7.933  0.0000E+00  0.1600E+02
     -7.852  0.0000E+00  0.1600E+02
     -7.771  0.0000E+00  0.1600E+02
     -7.689  0.0000E+00  0.1600E+02
     -7.608  0.0000E+00  0.1600E+02
     -7.527  0.0000E+00  0.1600E+02
     -7.446  0.0000E+00  0.1600E+02
     -7.365  0.0000E+00  0.1600E+02
     -7.284  0.0000E+00  0.1600E+02
     -7.203  0.0000E+00  0.1600E+02
     -7.122  0.0000E+00  0.1600E+02
     -7.041  0.0000E+00  0.1600E+02
     -6.960  0.0000E+00  0.1600E+02
     -6.878  0.0000E+00  0.1600E+02
     -6.797  0.0000E+00  0.1600E+02
     -6.716  0.0000E+00  0.1600E+02
     -6.635  0.6469E-15  0.1600E+02
     -6.554  0.4552E-08  0.1600E+02
     -6.473  0.2726E-03  0.1600E+02
     -6.392  0.1769E+00  0.1601E+02
     -6.311  0.2592E+01  0.1622E+02
     -6.230  0.3831E+01  0.1653E+02
     -6.149  0.2164E+01  0.1670E+02
     -6.068  0.1625E+01  0.1683E+02
     -5.986  0.2192E+01  0.1701E+02
     -5.905  0.2660E+01  0.1723E+02
     -5.824  0.1956E+01  0.1739E+02
     -5.743  0.1599E+01  0.1752E+02
     -5.662  0.2589E+01  0.1773E+02
     -5.581  0.2821E+01  0.1796E+02
     -5.500  0.5349E+01  0.1840E+02
     -5.419  0.4521E+01  0.1876E+02
     -5.338  0.1815E+01  0.1891E+02
     -5.257  0.1584E+01  0.1904E+02
     -5.176  0.2543E+01  0.1925E+02
     -5.094  0.2676E+01  0.1947E+02
     -5.013  0.1910E+01  0.1962E+02
     -4.932  0.1775E+01  0.1977E+02
     -4.851  0.1964E+01  0.1993E+02
     -4.770  0.7825E+00  0.2000E+02
     -4.689  0.1234E-01  0.2000E+02
     -4.608  0.1767E-05  0.2000E+02
     -4.527  0.1334E-11  0.2000E+02
     -4.446  0.0000E+00  0.2000E+02
     -4.365  0.0000E+00  0.2000E+02
     -4.284  0.0000E+00  0.2000E+02
     -4.202  0.0000E+00  0.2000E+02
     -4.121  0.0000E+00  0.2000E+02
     -4.040  0.0000E+00  0.2000E+02
     -3.959  0.0000E+00  0.2000E+02
     -3.878  0.0000E+00  0.2000E+02
     -3.797  0.0000E+00  0.2000E+02
     -3.716  0.0000E+00  0.2000E+02
     -3.635  0.0000E+00  0.2000E+02
     -3.554  0.0000E+00  0.2000E+02
     -3.473  0.2137E-09  0.2000E+02
     -3.392  0.4460E-04  0.2000E+02
     -3.310  0.7611E-01  0.2001E+02
     -3.229  0.2299E+01  0.2019E+02
     -3.148  0.3893E+01  0.2051E+02
     -3.067  0.4647E+01  0.2090E+02
     -2.986  0.7403E+01  0.2150E+02
     -2.905  0.6048E+01  0.2198E+02
     -2.824  0.3587E+01  0.2227E+02
     -2.743  0.9388E+01  0.2303E+02
     -2.662  0.9929E+01  0.2384E+02
     -2.581  0.1096E+02  0.2474E+02
     -2.500  0.1175E+02  0.2569E+02
     -2.418  0.1017E+02  0.2652E+02
     -2.337  0.1455E+02  0.2771E+02
     -2.256  0.1057E+02  0.2857E+02
     -2.175  0.9524E+01  0.2933E+02
     -2.094  0.8216E+01  0.3000E+02
     -2.013  0.1152E+02  0.3093E+02
     -1.932  0.7060E+01  0.3151E+02
     -1.851  0.4276E+01  0.3187E+02
     -1.770  0.1506E+01  0.3200E+02
     -1.689  0.5654E-01  0.3200E+02
     -1.607  0.2666E-04  0.3200E+02
     -1.526  0.7212E-10  0.3200E+02
     -1.445  0.0000E+00  0.3200E+02
     -1.364  0.0000E+00  0.3200E+02
     -1.283  0.0000E+00  0.3200E+02
     -1.202  0.7986E-11  0.3200E+02
     -1.121  0.4511E-05  0.3200E+02
     -1.040  0.1818E-01  0.3200E+02
     -0.959  0.9152E+00  0.3208E+02
     -0.878  0.2160E+01  0.3225E+02
     -0.797  0.1322E+01  0.3236E+02
     -0.715  0.8367E+00  0.3243E+02
     -0.634  0.1585E+01  0.3256E+02
     -0.553  0.5046E+01  0.3297E+02
     -0.472  0.7520E+01  0.3357E+02
     -0.391  0.4690E+01  0.3395E+02
     -0.310  0.8792E+01  0.3467E+02
     -0.229  0.1350E+02  0.3577E+02
     -0.148  0.1051E+02  0.3663E+02
     -0.067  0.1115E+02  0.3754E+02
      0.014  0.8169E+01  0.3820E+02
      0.095  0.6819E+01  0.3876E+02
      0.177  0.1139E+02  0.3969E+02
      0.258  0.1313E+02  0.4076E+02
      0.339  0.1302E+02  0.4181E+02
      0.420  0.1468E+02  0.4301E+02
      0.501  0.1571E+02  0.4428E+02
      0.582  0.1301E+02  0.4534E+02
      0.663  0.9149E+01  0.4608E+02
      0.744  0.1193E+02  0.4705E+02
      0.825  0.1539E+02  0.4830E+02
      0.906  0.9561E+01  0.4908E+02
      0.987  0.9073E+01  0.4983E+02
      1.069  0.8603E+01  0.5054E+02
      1.150  0.6340E+01  0.5105E+02
      1.231  0.9204E+01  0.5179E+02
      1.312  0.1108E+02  0.5270E+02
      1.393  0.1002E+02  0.5351E+02
      1.474  0.6533E+01  0.5404E+02
      1.555  0.6220E+01  0.5455E+02
      1.636  0.1009E+02  0.5537E+02
      1.717  0.1512E+02  0.5660E+02
      1.798  0.1294E+02  0.5765E+02
      1.879  0.1266E+02  0.5868E+02
      1.961  0.1291E+02  0.5973E+02
      2.042  0.9237E+01  0.6048E+02
      2.123  0.1033E+02  0.6133E+02
      2.204  0.8297E+01  0.6201E+02
      2.285  0.6973E+01  0.6258E+02
      2.366  0.9660E+01  0.6336E+02
      2.447  0.6638E+01  0.6390E+02
      2.528  0.1177E+01  0.6400E+02
      2.609  0.1693E-01  0.6400E+02
      2.690  0.3016E-05  0.6400E+02
      2.771  0.3413E-11  0.6400E+02
      2.853  0.0000E+00  0.6400E+02
      2.934  0.0000E+00  0.6400E+02
      3.015  0.0000E+00  0.6400E+02
      3.096  0.0000E+00  0.6400E+02
      3.177  0.0000E+00  0.6400E+02
      3.258  0.0000E+00  0.6400E+02
      3.339  0.0000E+00  0.6400E+02
      3.420  0.0000E+00  0.6400E+02
      3.501  0.0000E+00  0.6400E+02
      3.582  0.0000E+00  0.6400E+02
      3.664  0.0000E+00  0.6400E+02
      3.745  0.0000E+00  0.6400E+02
      3.826  0.0000E+00  0.6400E+02
      3.907  0.0000E+00  0.6400E+02
      3.988  0.0000E+00  0.6400E+02
      4.069  0.0000E+00  0.6400E+02
      4.150  0.4429E-13  0.6400E+02
      4.231  0.1104E-06  0.6400E+02
      4.312  0.1842E-02  0.6400E+02
      4.393  0.2940E+00  0.6402E+02
      4.474  0.1227E+01  0.6412E+02
      4.556  0.8582E+00  0.6419E+02
      4.637  0.3076E+01  0.6444E+02
      4.718  0.4512E+01  0.6481E+02
      4.799  0.3442E+01  0.6508E+02
      4.880  0.3069E+01  0.6533E+02
      4.961  0.2678E+01  0.6555E+02
      5.042  0.1965E+01  0.6571E+02
      5.123  0.2334E+01  0.6590E+02
      5.204  0.5693E+01  0.6636E+02
      5.285  0.6573E+01  0.6690E+02
      5.366  0.6786E+01  0.6745E+02
      5.448  0.4287E+01  0.6780E+02
      5.529  0.5091E+01  0.6821E+02
      5.610  0.6166E+01  0.6871E+02
      5.691  0.5811E+01  0.6918E+02
      5.772  0.4942E+01  0.6958E+02
      5.853  0.5367E+01  0.7002E+02
      5.934  0.5455E+01  0.7047E+02
      6.015  0.6442E+01  0.7100E+02
      6.096  0.6805E+01  0.7155E+02
      6.177  0.9834E+01  0.7235E+02
      6.258  0.7724E+01  0.7298E+02
      6.340  0.3401E+01  0.7326E+02
      6.421  0.6182E+01  0.7376E+02
      6.502  0.9295E+01  0.7453E+02
      6.583  0.1074E+02  0.7540E+02
      6.664  0.1298E+02  0.7646E+02
      6.745  0.1443E+02  0.7763E+02
      6.826  0.8120E+01  0.7829E+02
      6.907  0.4759E+01  0.7868E+02
      6.988  0.5067E+01  0.7910E+02
      7.069  0.3225E+01  0.7936E+02
      7.150  0.5594E+01  0.7982E+02
      7.232  0.8450E+01  0.8051E+02
      7.313  0.6882E+01  0.8107E+02
      7.394  0.8469E+01  0.8176E+02
      7.475  0.6691E+01  0.8230E+02
      7.556  0.4445E+01  0.8266E+02
      7.637  0.7688E+01  0.8329E+02
      7.718  0.4749E+01  0.8368E+02
      7.799  0.4850E+01  0.8408E+02
      7.880  0.6349E+01  0.8460E+02
      7.961  0.8804E+01  0.8531E+02
      8.042  0.1224E+02  0.8631E+02
      8.124  0.8785E+01  0.8702E+02
      8.205  0.1950E+01  0.8718E+02
      8.286  0.4140E+01  0.8752E+02
      8.367  0.9784E+01  0.8831E+02
      8.448  0.7027E+01  0.8888E+02
      8.529  0.6725E+01  0.8944E+02
      8.610  0.1112E+02  0.9034E+02
      8.691  0.1255E+02  0.9136E+02
      8.772  0.9621E+01  0.9213E+02
      8.853  0.5574E+01  0.9258E+02
      8.935  0.4255E+01  0.9292E+02
      9.016  0.6919E+01  0.9349E+02
      9.097  0.1086E+02  0.9438E+02
      9.178  0.1820E+02  0.9586E+02
      9.259  0.1755E+01  0.9600E+02
      9.340  0.2087E-02  0.9600E+02
      9.421  0.1911E-07  0.9600E+02
      9.502  0.9235E-15  0.9600E+02
      9.583  0.0000E+00  0.9600E+02
      9.664  0.0000E+00  0.9600E+02
      9.745  0.0000E+00  0.9600E+02
      9.827  0.0000E+00  0.9600E+02
      9.908  0.0000E+00  0.9600E+02
      9.989  0.0000E+00  0.9600E+02
     10.070  0.0000E+00  0.9600E+02
     10.151  0.0000E+00  0.9600E+02
     10.232  0.0000E+00  0.9600E+02
     10.12352452    -14.46125177  301      2.02079200      1.00000000
    -14.461  0.0000E+00  0.0000E+00
    -14.379  0.0000E+00  0.0000E+00
    -14.297  0.0000E+00  0.0000E+00
    -14.215  0.0000E+00  0.0000E+00
    -14.133  0.0000E+00  0.0000E+00
    -14.052  0.0000E+00  0.0000E+00
    -13.970  0.0000E+00  0.0000E+00
    -13.888  0.0000E+00  0.0000E+00
    -13.806  0.0000E+00  0.0000E+00
    -13.724  0.0000E+00  0.0000E+00
    -13.642  0.1369E-15  0.1110E-16
    -13.560  0.1270E-07  0.1039E-08
    -13.478  0.1845E-02  0.1510E-03
    -13.396  0.1714E+01  0.1405E+00
    -13.314  0.1785E+02  0.1602E+01
    -13.232  0.5615E+01  0.2062E+01
    -13.150  0.1985E+01  0.2224E+01
    -13.068  0.3910E+01  0.2543E+01
    -12.986  0.4052E+01  0.2874E+01
    -12.904  0.3885E+01  0.3192E+01
    -12.822  0.3108E+01  0.3448E+01
    -12.740  0.2468E+01  0.3650E+01
    -12.658  0.1138E+01  0.3744E+01
    -12.576  0.1395E+01  0.3858E+01
    -12.494  0.1553E+01  0.3986E+01
    -12.413  0.1763E+00  0.4000E+01
    -12.331  0.3738E-03  0.4000E+01
    -12.249  0.6089E-08  0.4000E+01
    -12.167  0.5686E-15  0.4000E+01
    -12.085  0.0000E+00  0.4000E+01
    -12.003  0.0000E+00  0.4000E+01
    -11.921  0.0000E+00  0.4000E+01
    -11.839  0.0000E+00  0.4000E+01
    -11.757  0.0000E+00  0.4000E+01
    -11.675  0.0000E+00  0.4000E+01
    -11.593  0.0000E+00  0.4000E+01
    -11.511  0.0000E+00  0.4000E+01
    -11.429  0.0000E+00  0.4000E+01
    -11.347  0.0000E+00  0.4000E+01
    -11.265  0.0000E+00  0.4000E+01
    -11.183  0.0000E+00  0.4000E+01
    -11.101  0.0000E+00  0.4000E+01
    -11.019  0.3577E-13  0.4000E+01
    -10.937  0.1266E-06  0.4000E+01
    -10.855  0.2840E-02  0.4000E+01
    -10.774  0.5989E+00  0.4049E+01
    -10.692  0.3765E+01  0.4357E+01
    -10.610  0.5775E+01  0.4830E+01
    -10.528  0.1009E+02  0.5656E+01
    -10.446  0.1029E+02  0.6497E+01
    -10.364  0.8168E+01  0.7166E+01
    -10.282  0.9242E+01  0.7922E+01
    -10.200  0.8811E+01  0.8644E+01
    -10.118  0.8340E+01  0.9327E+01
    -10.036  0.7783E+01  0.9964E+01
     -9.954  0.6220E+01  0.1047E+02
     -9.872  0.6262E+01  0.1098E+02
     -9.790  0.8021E+01  0.1164E+02
     -9.708  0.8128E+01  0.1230E+02
     -9.626  0.7851E+01  0.1295E+02
     -9.544  0.7322E+01  0.1355E+02
     -9.462  0.7883E+01  0.1419E+02
     -9.380  0.6172E+01  0.1470E+02
     -9.298  0.2616E+01  0.1492E+02
     -9.216  0.2450E+01  0.1512E+02
     -9.135  0.3734E+01  0.1542E+02
     -9.053  0.1946E+01  0.1558E+02
     -8.971  0.9143E+00  0.1566E+02
     -8.889  0.1098E+01  0.1575E+02
     -8.807  0.9938E+00  0.1583E+02
     -8.725  0.1341E+01  0.1594E+02
     -8.643  0.7179E+00  0.1600E+02
     -8.561  0.1690E-01  0.1600E+02
     -8.479  0.4232E-05  0.1600E+02
     -8.397  0.6357E-11  0.1600E+02
     -8.315  0.0000E+00  0.1600E+02
     -8.233  0.0000E+00  0.1600E+02
     -8.151  0.0000E+00  0.1600E+02
     -8.069  0.0000E+00  0.1600E+02
     -7.987  0.0000E+00  0.1600E+02
     -7.905  0.0000E+00  0.1600E+02
     -7.823  0.0000E+00  0.1600E+02
     -7.741  0.0000E+00  0.1600E+02
     -7.659  0.0000E+00  0.1600E+02
     -7.578  0.0000E+00  0.1600E+02
     -7.496  0.0000E+00  0.1600E+02
     -7.414  0.0000E+00  0.1600E+02
     -7.332  0.0000E+00  0.1600E+02
     -7.250  0.0000E+00  0.1600E+02
     -7.168  0.0000E+00  0.1600E+02
     -7.086  0.0000E+00  0.1600E+02
     -7.004  0.0000E+00  0.1600E+02
     -6.922  0.0000E+00  0.1600E+02
     -6.840  0.0000E+00  0.1600E+02
     -6.758  0.1290E-10  0.1600E+02
     -6.676  0.5637E-05  0.1600E+02
     -6.594  0.1805E-01  0.1600E+02
     -6.512  0.7657E+00  0.1606E+02
     -6.430  0.2479E+01  0.1627E+02
     -6.348  0.2900E+01  0.1650E+02
     -6.266  0.5353E+01  0.1694E+02
     -6.184  0.5447E+01  0.1739E+02
     -6.102  0.4124E+01  0.1773E+02
     -6.020  0.3269E+01  0.1799E+02
     -5.939  0.1266E+01  0.1810E+02
     -5.857  0.1420E+01  0.1821E+02
     -5.775  0.2719E+01  0.1843E+02
     -5.693  0.2881E+01  0.1867E+02
     -5.611  0.4148E+01  0.1901E+02
     -5.529  0.7339E+01  0.1961E+02
     -5.447  0.4564E+01  0.1999E+02
     -5.365  0.1578E+00  0.2000E+02
     -5.283  0.8082E-04  0.2000E+02
     -5.201  0.3156E-09  0.2000E+02
     -5.119  0.0000E+00  0.2000E+02
     -5.037  0.0000E+00  0.2000E+02
     -4.955  0.0000E+00  0.2000E+02
     -4.873  0.0000E+00  0.2000E+02
     -4.791  0.0000E+00  0.2000E+02
     -4.709  0.0000E+00  0.2000E+02
     -4.627  0.0000E+00  0.2000E+02
     -4.545  0.0000E+00  0.2000E+02
     -4.463  0.0000E+00  0.2000E+02
     -4.381  0.0000E+00  0.2000E+02
     -4.300  0.0000E+00  0.2000E+02
     -4.218  0.0000E+00  0.2000E+02
     -4.136  0.0000E+00  0.2000E+02
     -4.054  0.0000E+00  0.2000E+02
     -3.972  0.0000E+00  0.2000E+02
     -3.890  0.0000E+00  0.2000E+02
     -3.808  0.0000E+00  0.2000E+02
     -3.726  0.0000E+00  0.2000E+02
     -3.644  0.1445E-12  0.2000E+02
     -3.562  0.3309E-06  0.2000E+02
     -3.480  0.5899E-02  0.2000E+02
     -3.398  0.1220E+01  0.2010E+02
     -3.316  0.7801E+01  0.2074E+02
     -3.234  0.5903E+01  0.2122E+02
     -3.152  0.6173E+01  0.2173E+02
     -3.070  0.5329E+01  0.2216E+02
     -2.988  0.8367E+01  0.2285E+02
     -2.906  0.1101E+02  0.2375E+02
     -2.824  0.1555E+02  0.2502E+02
     -2.743  0.2027E+02  0.2668E+02
     -2.661  0.1403E+02  0.2783E+02
     -2.579  0.7065E+01  0.2841E+02
     -2.497  0.7768E+01  0.2904E+02
     -2.415  0.1256E+02  0.3007E+02
     -2.333  0.1025E+02  0.3091E+02
     -2.251  0.6964E+01  0.3149E+02
     -2.169  0.3159E+01  0.3174E+02
     -2.087  0.2434E+01  0.3194E+02
     -2.005  0.6695E+00  0.3200E+02
     -1.923  0.7959E-02  0.3200E+02
     -1.841  0.1089E-05  0.3200E+02
     -1.759  0.1009E-11  0.3200E+02
     -1.677  0.0000E+00  0.3200E+02
     -1.595  0.0000E+00  0.3200E+02
     -1.513  0.0000E+00  0.3200E+02
     -1.431  0.0000E+00  0.3200E+02
     -1.349  0.1360E-12  0.3200E+02
     -1.267  0.1790E-06  0.3200E+02
     -1.185  0.1630E-02  0.3200E+02
     -1.104  0.1720E+00  0.3201E+02
     -1.022  0.1133E+01  0.3211E+02
     -0.940  0.3118E+01  0.3236E+02
     -0.858  0.3291E+01  0.3263E+02
     -0.776  0.7239E+01  0.3322E+02
     -0.694  0.8904E+01  0.3395E+02
     -0.612  0.8658E+01  0.3466E+02
     -0.530  0.1346E+02  0.3576E+02
     -0.448  0.1061E+02  0.3663E+02
     -0.366  0.1331E+02  0.3772E+02
     -0.284  0.9342E+01  0.3849E+02
     -0.202  0.9821E+01  0.3929E+02
     -0.120  0.1475E+02  0.4050E+02
     -0.038  0.1027E+02  0.4134E+02
      0.044  0.1219E+02  0.4234E+02
      0.126  0.8753E+01  0.4305E+02
      0.208  0.9719E+01  0.4385E+02
      0.290  0.1244E+02  0.4487E+02
      0.372  0.8478E+01  0.4556E+02
      0.454  0.1258E+02  0.4659E+02
      0.535  0.1314E+02  0.4767E+02
      0.617  0.8902E+01  0.4840E+02
      0.699  0.9215E+01  0.4915E+02
      0.781  0.8340E+01  0.4983E+02
      0.863  0.1075E+02  0.5071E+02
      0.945  0.1012E+02  0.5154E+02
      1.027  0.9089E+01  0.5229E+02
      1.109  0.1318E+02  0.5337E+02
      1.191  0.1321E+02  0.5445E+02
      1.273  0.1402E+02  0.5560E+02
      1.355  0.1303E+02  0.5666E+02
      1.437  0.1290E+02  0.5772E+02
      1.519  0.1052E+02  0.5858E+02
      1.601  0.7389E+01  0.5918E+02
      1.683  0.1144E+02  0.6012E+02
      1.765  0.1329E+02  0.6121E+02
      1.847  0.9979E+01  0.6203E+02
      1.929  0.1175E+02  0.6299E+02
      2.011  0.7241E+01  0.6358E+02
      2.092  0.2831E+01  0.6382E+02
      2.174  0.2042E+01  0.6399E+02
      2.256  0.1764E+00  0.6400E+02
      2.338  0.2509E-03  0.6400E+02
      2.420  0.2454E-08  0.6400E+02
      2.502  0.1343E-15  0.6400E+02
      2.584  0.0000E+00  0.6400E+02
      2.666  0.0000E+00  0.6400E+02
      2.748  0.0000E+00  0.6400E+02
      2.830  0.0000E+00  0.6400E+02
      2.912  0.0000E+00  0.6400E+02
      2.994  0.0000E+00  0.6400E+02
      3.076  0.0000E+00  0.6400E+02
      3.158  0.0000E+00  0.6400E+02
      3.240  0.0000E+00  0.6400E+02
      3.322  0.0000E+00  0.6400E+02
      3.404  0.0000E+00  0.6400E+02
      3.486  0.0000E+00  0.6400E+02
      3.568  0.0000E+00  0.6400E+02
      3.650  0.0000E+00  0.6400E+02
      3.731  0.0000E+00  0.6400E+02
      3.813  0.0000E+00  0.6400E+02
      3.895  0.0000E+00  0.6400E+02
      3.977  0.1381E-11  0.6400E+02
      4.059  0.1709E-05  0.6400E+02
      4.141  0.1462E-01  0.6400E+02
      4.223  0.1413E+01  0.6412E+02
      4.305  0.5378E+01  0.6455E+02
      4.387  0.4770E+01  0.6494E+02
      4.469  0.3773E+01  0.6525E+02
      4.551  0.3941E+01  0.6557E+02
      4.633  0.6363E+01  0.6610E+02
      4.715  0.9750E+01  0.6689E+02
      4.797  0.5478E+01  0.6734E+02
      4.879  0.2136E+01  0.6752E+02
      4.961  0.1402E+01  0.6764E+02
      5.043  0.3460E+01  0.6792E+02
      5.125  0.7171E+01  0.6851E+02
      5.207  0.5669E+01  0.6897E+02
      5.289  0.4618E+01  0.6935E+02
      5.370  0.5219E+01  0.6978E+02
      5.452  0.5220E+01  0.7021E+02
      5.534  0.5177E+01  0.7063E+02
      5.616  0.6240E+01  0.7114E+02
      5.698  0.6521E+01  0.7167E+02
      5.780  0.5581E+01  0.7213E+02
      5.862  0.5504E+01  0.7258E+02
      5.944  0.7921E+01  0.7323E+02
      6.026  0.9313E+01  0.7399E+02
      6.108  0.7417E+01  0.7460E+02
      6.190  0.9285E+01  0.7536E+02
      6.272  0.7006E+01  0.7593E+02
      6.354  0.7174E+01  0.7652E+02
      6.436  0.6647E+01  0.7706E+02
      6.518  0.6454E+01  0.7759E+02
      6.600  0.5680E+01  0.7806E+02
      6.682  0.4837E+01  0.7845E+02
      6.764  0.8886E+01  0.7918E+02
      6.846  0.5380E+01  0.7962E+02
      6.928  0.6326E+01  0.8014E+02
      7.009  0.6819E+01  0.8070E+02
      7.091  0.7833E+01  0.8134E+02
      7.173  0.9602E+01  0.8213E+02
      7.255  0.9450E+01  0.8290E+02
      7.337  0.3820E+01  0.8321E+02
      7.419  0.4661E+01  0.8359E+02
      7.501  0.7436E+01  0.8420E+02
      7.583  0.4834E+01  0.8460E+02
      7.665  0.3647E+01  0.8490E+02
      7.747  0.4793E+01  0.8529E+02
      7.829  0.8401E+01  0.8598E+02
      7.911  0.1203E+02  0.8697E+02
      7.993  0.6856E+01  0.8753E+02
      8.075  0.3828E+01  0.8784E+02
      8.157  0.4720E+01  0.8823E+02
      8.239  0.9601E+01  0.8901E+02
      8.321  0.1122E+02  0.8993E+02
      8.403  0.7270E+01  0.9053E+02
      8.485  0.9367E+01  0.9129E+02
      8.566  0.9275E+01  0.9205E+02
      8.648  0.7608E+01  0.9268E+02
      8.730  0.5648E+01  0.9314E+02
      8.812  0.5617E+01  0.9360E+02
      8.894  0.3280E+01  0.9387E+02
      8.976  0.6084E+01  0.9436E+02
      9.058  0.1824E+02  0.9586E+02
      9.140  0.1725E+01  0.9600E+02
      9.222  0.1849E-02  0.9600E+02
      9.304  0.1271E-07  0.9600E+02
      9.386  0.0000E+00  0.9600E+02
      9.468  0.0000E+00  0.9600E+02
      9.550  0.0000E+00  0.9600E+02
      9.632  0.0000E+00  0.9600E+02
      9.714  0.0000E+00  0.9600E+02
      9.796  0.0000E+00  0.9600E+02
      9.878  0.0000E+00  0.9600E+02
      9.960  0.0000E+00  0.9600E+02
     10.042  0.0000E+00  0.9600E+02
     10.124  0.0000E+00  0.9600E+02
     10.34304612    -14.74518442  301      2.23641162      1.00000000
    -14.745  0.0000E+00  0.0000E+00
    -14.662  0.0000E+00  0.0000E+00
    -14.578  0.0000E+00  0.0000E+00
    -14.494  0.0000E+00  0.0000E+00
    -14.411  0.0000E+00  0.0000E+00
    -14.327  0.0000E+00  0.0000E+00
    -14.243  0.0000E+00  0.0000E+00
    -14.160  0.0000E+00  0.0000E+00
    -14.076  0.0000E+00  0.0000E+00
    -13.993  0.0000E+00  0.0000E+00
    -13.909  0.3021E-15  0.2442E-16
    -13.825  0.1112E-07  0.9105E-09
    -13.742  0.1700E-02  0.1397E-03
    -13.658  0.1676E+01  0.1381E+00
    -13.574  0.1780E+02  0.1605E+01
    -13.491  0.6019E+01  0.2101E+01
    -13.407  0.5100E+01  0.2520E+01
    -13.324  0.3667E+01  0.2821E+01
    -13.240  0.2059E+01  0.2990E+01
    -13.156  0.1956E+01  0.3151E+01
    -13.073  0.2037E+01  0.3318E+01
    -12.989  0.2419E+01  0.3517E+01
    -12.905  0.3182E+01  0.3779E+01
    -12.822  0.2048E+01  0.3950E+01
    -12.738  0.5829E+00  0.3999E+01
    -12.654  0.6729E-02  0.4000E+01
    -12.571  0.6036E-06  0.4000E+01
    -12.487  0.2528E-12  0.4000E+01
    -12.404  0.0000E+00  0.4000E+01
    -12.320  0.0000E+00  0.4000E+01
    -12.236  0.0000E+00  0.4000E+01
    -12.153  0.0000E+00  0.4000E+01
    -12.069  0.0000E+00  0.4000E+01
    -11.985  0.0000E+00  0.4000E+01
    -11.902  0.0000E+00  0.4000E+01
    -11.818  0.0000E+00  0.4000E+01
    -11.735  0.0000E+00  0.4000E+01
    -11.651  0.0000E+00  0.4000E+01
    -11.567  0.0000E+00  0.4000E+01
    -11.484  0.0000E+00  0.4000E+01
    -11.400  0.0000E+00  0.4000E+01
    -11.316  0.1378E-16  0.4000E+01
    -11.233  0.3378E-09  0.4000E+01
    -11.149  0.4875E-04  0.4000E+01
    -11.066  0.5841E-01  0.4005E+01
    -10.982  0.1136E+01  0.4096E+01
    -10.898  0.1930E+01  0.4252E+01
    -10.815  0.4055E+01  0.4582E+01
    -10.731  0.1140E+02  0.5518E+01
    -10.647  0.1111E+02  0.6430E+01
    -10.564  0.6825E+01  0.6992E+01
    -10.480  0.1183E+02  0.7966E+01
    -10.397  0.1033E+02  0.8815E+01
    -10.313  0.6407E+01  0.9343E+01
    -10.229  0.8152E+01  0.1002E+02
    -10.146  0.7124E+01  0.1061E+02
    -10.062  0.8144E+01  0.1128E+02
     -9.978  0.9642E+01  0.1207E+02
     -9.895  0.8188E+01  0.1275E+02
     -9.811  0.7496E+01  0.1337E+02
     -9.728  0.7558E+01  0.1399E+02
     -9.644  0.3859E+01  0.1431E+02
     -9.560  0.2722E+01  0.1454E+02
     -9.477  0.3813E+01  0.1486E+02
     -9.393  0.4105E+01  0.1520E+02
     -9.309  0.3673E+01  0.1550E+02
     -9.226  0.3221E+01  0.1576E+02
     -9.142  0.2677E+01  0.1598E+02
     -9.059  0.1997E+00  0.1600E+02
     -8.975  0.2728E-03  0.1600E+02
     -8.891  0.2848E-08  0.1600E+02
     -8.808  0.1610E-15  0.1600E+02
     -8.724  0.0000E+00  0.1600E+02
     -8.640  0.0000E+00  0.1600E+02
     -8.557  0.0000E+00  0.1600E+02
     -8.473  0.0000E+00  0.1600E+02
     -8.389  0.0000E+00  0.1600E+02
     -8.306  0.0000E+00  0.1600E+02
     -8.222  0.0000E+00  0.1600E+02
     -8.139  0.0000E+00  0.1600E+02
     -8.055  0.0000E+00  0.1600E+02
     -7.971  0.0000E+00  0.1600E+02
     -7.888  0.0000E+00  0.1600E+02
     -7.804  0.0000E+00  0.1600E+02
     -7.720  0.0000E+00  0.1600E+02
     -7.637  0.0000E+00  0.1600E+02
     -7.553  0.0000E+00  0.1600E+02
     -7.470  0.0000E+00  0.1600E+02
     -7.386  0.0000E+00  0.1600E+02
     -7.302  0.0000E+00  0.1600E+02
     -7.219  0.0000E+00  0.1600E+02
     -7.135  0.2150E-10  0.1600E+02
     -7.051  0.8060E-05  0.1600E+02
     -6.968  0.2360E-01  0.1600E+02
     -6.884  0.9255E+00  0.1608E+02
     -6.801  0.1806E+01  0.1622E+02
     -6.717  0.1271E+01  0.1633E+02
     -6.633  0.1146E+01  0.1642E+02
     -6.550  0.1168E+01  0.1651E+02
     -6.466  0.1303E+01  0.1662E+02
     -6.382  0.2129E+01  0.1680E+02
     -6.299  0.4737E+01  0.1719E+02
     -6.215  0.4115E+01  0.1753E+02
     -6.132  0.3459E+01  0.1782E+02
     -6.048  0.2969E+01  0.1806E+02
     -5.964  0.2424E+01  0.1826E+02
     -5.881  0.1742E+01  0.1840E+02
     -5.797  0.1568E+01  0.1853E+02
     -5.713  0.1604E+01  0.1866E+02
     -5.630  0.2255E+01  0.1884E+02
     -5.546  0.4702E+01  0.1923E+02
     -5.463  0.4951E+01  0.1964E+02
     -5.379  0.3017E+01  0.1990E+02
     -5.295  0.1206E+01  0.2000E+02
     -5.212  0.3313E-01  0.2000E+02
     -5.128  0.1002E-04  0.2000E+02
     -5.044  0.1646E-10  0.2000E+02
     -4.961  0.0000E+00  0.2000E+02
     -4.877  0.0000E+00  0.2000E+02
     -4.794  0.0000E+00  0.2000E+02
     -4.710  0.0000E+00  0.2000E+02
     -4.626  0.0000E+00  0.2000E+02
     -4.543  0.0000E+00  0.2000E+02
     -4.459  0.0000E+00  0.2000E+02
     -4.375  0.0000E+00  0.2000E+02
     -4.292  0.0000E+00  0.2000E+02
     -4.208  0.0000E+00  0.2000E+02
     -4.125  0.0000E+00  0.2000E+02
     -4.041  0.0000E+00  0.2000E+02
     -3.957  0.0000E+00  0.2000E+02
     -3.874  0.3779E-13  0.2000E+02
     -3.790  0.1018E-06  0.2000E+02
     -3.706  0.1941E-02  0.2000E+02
     -3.623  0.3760E+00  0.2003E+02
     -3.539  0.2089E+01  0.2020E+02
     -3.455  0.2010E+01  0.2036E+02
     -3.372  0.3025E+01  0.2061E+02
     -3.288  0.6800E+01  0.2117E+02
     -3.205  0.4728E+01  0.2157E+02
     -3.121  0.6456E+01  0.2210E+02
     -3.037  0.8221E+01  0.2277E+02
     -2.954  0.1484E+02  0.2399E+02
     -2.870  0.1925E+02  0.2558E+02
     -2.786  0.1924E+02  0.2717E+02
     -2.703  0.1457E+02  0.2837E+02
     -2.619  0.1059E+02  0.2924E+02
     -2.536  0.7640E+01  0.2987E+02
     -2.452  0.1064E+02  0.3075E+02
     -2.368  0.8198E+01  0.3143E+02
     -2.285  0.3278E+01  0.3170E+02
     -2.201  0.2690E+01  0.3192E+02
     -2.117  0.1009E+01  0.3200E+02
     -2.034  0.1371E-01  0.3200E+02
     -1.950  0.1932E-05  0.3200E+02
     -1.867  0.1765E-11  0.3200E+02
     -1.783  0.0000E+00  0.3200E+02
     -1.699  0.0000E+00  0.3200E+02
     -1.616  0.0000E+00  0.3200E+02
     -1.532  0.1298E-11  0.3200E+02
     -1.448  0.1282E-05  0.3200E+02
     -1.365  0.9468E-02  0.3200E+02
     -1.281  0.8243E+00  0.3207E+02
     -1.198  0.3089E+01  0.3232E+02
     -1.114  0.3726E+01  0.3262E+02
     -1.030  0.4259E+01  0.3297E+02
     -0.947  0.6297E+01  0.3349E+02
     -0.863  0.6745E+01  0.3405E+02
     -0.779  0.5924E+01  0.3454E+02
     -0.696  0.5355E+01  0.3498E+02
     -0.612  0.5169E+01  0.3541E+02
     -0.529  0.9117E+01  0.3616E+02
     -0.445  0.1004E+02  0.3698E+02
     -0.361  0.1447E+02  0.3818E+02
     -0.278  0.1451E+02  0.3938E+02
     -0.194  0.1123E+02  0.4030E+02
     -0.110  0.1387E+02  0.4144E+02
     -0.027  0.1519E+02  0.4269E+02
      0.057  0.9754E+01  0.4350E+02
      0.140  0.6527E+01  0.4404E+02
      0.224  0.9384E+01  0.4481E+02
      0.308  0.9963E+01  0.4563E+02
      0.391  0.4927E+01  0.4604E+02
      0.475  0.9240E+01  0.4680E+02
      0.559  0.1248E+02  0.4782E+02
      0.642  0.9488E+01  0.4860E+02
      0.726  0.7975E+01  0.4926E+02
      0.810  0.9144E+01  0.5001E+02
      0.893  0.8529E+01  0.5071E+02
      0.977  0.1115E+02  0.5164E+02
      1.060  0.1131E+02  0.5257E+02
      1.144  0.1493E+02  0.5380E+02
      1.228  0.6140E+01  0.5430E+02
      1.311  0.1096E+02  0.5520E+02
      1.395  0.1227E+02  0.5621E+02
      1.479  0.1389E+02  0.5736E+02
      1.562  0.1742E+02  0.5880E+02
      1.646  0.1279E+02  0.5985E+02
      1.729  0.1255E+02  0.6089E+02
      1.813  0.8146E+01  0.6156E+02
      1.897  0.8216E+01  0.6223E+02
      1.980  0.6628E+01  0.6278E+02
      2.064  0.3788E+01  0.6310E+02
      2.148  0.2391E+01  0.6329E+02
      2.231  0.2965E+01  0.6353E+02
      2.315  0.1445E+01  0.6365E+02
      2.398  0.1100E+01  0.6374E+02
      2.482  0.1667E+01  0.6388E+02
      2.566  0.1364E+01  0.6399E+02
      2.649  0.7423E-01  0.6400E+02
      2.733  0.5499E-04  0.6400E+02
      2.817  0.2635E-09  0.6400E+02
      2.900  0.0000E+00  0.6400E+02
      2.984  0.0000E+00  0.6400E+02
      3.067  0.0000E+00  0.6400E+02
      3.151  0.0000E+00  0.6400E+02
      3.235  0.0000E+00  0.6400E+02
      3.318  0.0000E+00  0.6400E+02
      3.402  0.1195E-13  0.6400E+02
      3.486  0.4782E-07  0.6400E+02
      3.569  0.1324E-02  0.6400E+02