 vasp.6.3.2 27Jun22 (build Mar 25 2024 10:42:18) complex                         
 executed on             LinuxGNU date 2024.03.31  15:33:52
 running on   32 total cores
 distrk:  each k-point on   32 cores,    1 groups
 distr:  one band on NCORE=   1 cores,   32 groups


--------------------------------------------------------------------------------------------------------


 INCAR:
   ISTART = 0
   ICHARG = 2
   PREC = Accurate
   IBRION = -1
   EDIFF = 0.000000001
   EDIFFG = -0.0005
   NSW = 0
   NELM = 100
   ENCUT = 520
   ISMEAR = -5
   SIGMA = 0.05
   ISPIN = 2
   ISYM = 0
   LWAVE = False
   LCHARG = False
   LASPH = True
   LORBIT = 11
   ADDGRID = TRUE

 POTCAR:    PAW_PBE S 06Sep2000                   
 -----------------------------------------------------------------------------
|                                                                             |
|           W    W    AA    RRRRR   N    N  II  N    N   GGGG   !!!           |
|           W    W   A  A   R    R  NN   N  II  NN   N  G    G  !!!           |
|           W    W  A    A  R    R  N N  N  II  N N  N  G       !!!           |
|           W WW W  AAAAAA  RRRRR   N  N N  II  N  N N  G  GGG   !            |
|           WW  WW  A    A  R   R   N   NN  II  N   NN  G    G                |
|           W    W  A    A  R    R  N    N  II  N    N   GGGG   !!!           |
|                                                                             |
|     You use a magnetic or noncollinear calculation, but did not specify     |
|     the initial magnetic moment with the MAGMOM tag. Note that a            |
|     default of 1 will be used for all atoms. This ferromagnetic setup       |
|     may break the symmetry of the crystal, in particular it may rule        |
|     out finding an antiferromagnetic solution. Thence, we recommend         |
|     setting the initial magnetic moment manually or verifying carefully     |
|     that this magnetic setup is desired.                                    |
|                                                                             |
 -----------------------------------------------------------------------------

 -----------------------------------------------------------------------------
|                                                                             |
|           W    W    AA    RRRRR   N    N  II  N    N   GGGG   !!!           |
|           W    W   A  A   R    R  NN   N  II  NN   N  G    G  !!!           |
|           W    W  A    A  R    R  N N  N  II  N N  N  G       !!!           |
|           W WW W  AAAAAA  RRRRR   N  N N  II  N  N N  G  GGG   !            |
|           WW  WW  A    A  R   R   N   NN  II  N   NN  G    G                |
|           W    W  A    A  R    R  N    N  II  N    N   GGGG   !!!           |
|                                                                             |
|     For optimal performance we recommend to set                             |
|       NCORE = 2 up to number-of-cores-per-socket                            |
|     NCORE specifies how many cores store one orbital (NPAR=cpu/NCORE).      |
|     This setting can greatly improve the performance of VASP for DFT.       |
|     The default, NCORE=1 might be grossly inefficient on modern             |
|     multi-core architectures or massively parallel machines. Do your        |
|     own testing! More info at https://www.vasp.at/wiki/index.php/NCORE      |
|     Unfortunately you need to use the default for GW and RPA                |
|     calculations (for HF NCORE is supported but not extensively tested      |
|     yet).                                                                   |
|                                                                             |
 -----------------------------------------------------------------------------

 POTCAR:    PAW_PBE S 06Sep2000                   
   SHA256 =  0fc7481fb0695f01bdc6462160264c5c84044ae9ec85a907d398b887a2bc3132 S/POTCAR              
   COPYR  = (c) Copyright 06Sep2000 Georg Kresse                                                    
   COPYR  = This file is part of the software VASP. Any use, copying, and all other rights are regul
   COPYR  = If you do not have a valid VASP license, you may not use, copy or distribute this file. 
   VRHFIN =S : s2p4                                                                                 
   LEXCH  = PE                                                                                      
   EATOM  =   276.8230 eV,   20.3459 Ry                                                             
                                                                                                    
   TITEL  = PAW_PBE S 06Sep2000                                                                     
   LULTRA =        F    use ultrasoft PP ?                                                          
   IUNSCR =        1    unscreen: 0-lin 1-nonlin 2-no                                               
   RPACOR =    1.500    partial core radius                                                         
   POMASS =   32.066; ZVAL   =    6.000    mass and valenz                                          
   RCORE  =    1.900    outmost cutoff radius                                                       
   RWIGS  =    2.200; RWIGS  =    1.164    wigner-seitz radius (au A)                               
   ENMAX  =  258.689; ENMIN  =  194.016 eV                                                          
   ICORE  =        2    local potential                                                             
   LCOR   =        T    correct aug charges                                                         
   LPAW   =        T    paw PP                                                                      
   EAUG   =  335.092                                                                                
   DEXC   =    0.000                                                                                
   RMAX   =    1.942    core radius for proj-oper                                                   
   RAUG   =    1.300    factor for augmentation sphere                                              
   RDEP   =    1.954    radius for radial grids                                                     
   RDEPT  =    1.744    core radius for aug-charge                                                  
                                                                                                    
   Atomic configuration                                                                             
    6 entries                                                                                       
     n  l   j            E        occ.                                                              
     1  0  0.50     -2405.8406   2.0000                                                             
     2  0  0.50      -211.7007   2.0000                                                             
     2  1  1.50      -156.4958   6.0000                                                             
     3  0  0.50       -17.2562   2.0000                                                             
     3  1  0.50        -7.0085   4.0000                                                             
     3  2  1.50        -6.8029   0.0000                                                             
   Description                                                                                      
     l       E           TYP  RCUT    TYP  RCUT                                                     
     0    -17.2561641     23  1.900                                                                 
     0    -15.8743224     23  1.900                                                                 
     1     -7.0085400     23  1.900                                                                 
     1     -2.7779785     23  1.900                                                                 
     2     -6.8029130     23  1.900                                                                 
  local pseudopotential read in
  partial core-charges read in
  partial kinetic energy density read in
  atomic valenz-charges read in
  non local Contribution for L=           0  read in
    real space projection operators read in
  non local Contribution for L=           0  read in
    real space projection operators read in
  non local Contribution for L=           1  read in
    real space projection operators read in
  non local Contribution for L=           1  read in
    real space projection operators read in
    PAW grid and wavefunctions read in

   number of l-projection  operators is LMAX  =           4
   number of lm-projection operators is LMMAX =           8

 -----------------------------------------------------------------------------
|                                                                             |
|               ----> ADVICE to this user running VASP <----                  |
|                                                                             |
|     You have a (more or less) 'large supercell' and for larger cells it     |
|     might be more efficient to use real-space projection operators.         |
|     Therefore, try LREAL= Auto in the INCAR file.                           |
|     Mind: For very accurate calculation, you might also keep the            |
|     reciprocal projection scheme (i.e. LREAL=.FALSE.).                      |
|                                                                             |
 -----------------------------------------------------------------------------

  PAW_PBE S 06Sep2000                   :
 energy of atom  1       EATOM= -276.8230
 kinetic energy error for atom=    0.0016 (will be added to EATOM!!)


 POSCAR: generated by phonopy
  positions in direct lattice
  No initial velocities read in
 exchange correlation table for  LEXCH =        8
   RHO(1)=    0.500       N(1)  =     2000
   RHO(2)=  100.500       N(2)  =     4000



--------------------------------------------------------------------------------------------------------


 ion  position               nearest neighbor table
   1  0.886  0.467  0.678-  45 1.98  24 2.13
   2  0.886  0.967  0.678-  46 1.98  23 2.13
   3  0.330  0.189  0.551-  41 2.05  19 2.13
   4  0.330  0.689  0.551-  42 2.05  20 2.13
   5  0.913  0.105  0.912-  51 1.98  11 2.13
   6  0.913  0.605  0.912-  52 1.98  12 2.13
   7  0.240  0.301  0.776-  19 1.97  37 2.24
   8  0.240  0.801  0.777-  20 1.98  38 2.23
   9  0.144  0.306  0.224-  31 2.05  39 2.13
  10  0.144  0.806  0.224-  32 2.05  40 2.13
  11  0.856  0.194  0.776-  47 2.05   5 2.13
  12  0.856  0.694  0.776-  48 2.05   6 2.13
  13  0.760  0.199  0.223-  27 1.98  33 2.23
  14  0.760  0.699  0.223-  28 1.98  34 2.23
  15  0.170  0.439  0.449-  31 2.05  30 2.13
  16  0.170  0.939  0.449-  32 2.05  29 2.13
  17  0.413  0.145  0.912-  37 1.98  43 2.13
  18  0.413  0.645  0.912-  38 1.98  44 2.13
  19  0.386  0.283  0.678-   7 1.97   3 2.13
  20  0.386  0.783  0.678-   8 1.98   4 2.13
  21  0.644  0.444  0.224-  53 2.05  35 2.13
  22  0.644  0.944  0.224-  54 2.05  36 2.13
  23  0.830  0.061  0.551-  47 2.05   2 2.13
  24  0.830  0.561  0.551-  48 2.05   1 2.13
  25  0.260  0.051  0.223-  29 1.98  50 2.23
  26  0.260  0.551  0.223-  30 1.98  49 2.23
  27  0.614  0.217  0.322-  13 1.98  55 2.13
  28  0.614  0.717  0.322-  14 1.98  56 2.13
  29  0.114  0.033  0.322-  25 1.98  16 2.13
  30  0.114  0.533  0.322-  26 1.98  15 2.13
  31  0.060  0.345  0.374-   9 2.05  15 2.05
  32  0.060  0.845  0.374-  10 2.05  16 2.05
  33  0.743  0.289  0.071-  35 1.98  13 2.23
  34  0.743  0.789  0.071-  36 1.98  14 2.23
  35  0.587  0.355  0.088-  33 1.98  21 2.13
  36  0.587  0.855  0.088-  34 1.98  22 2.13
  37  0.257  0.211  0.929-  17 1.98   7 2.24
  38  0.257  0.711  0.929-  18 1.98   8 2.23
  39  0.087  0.395  0.088-  49 1.98   9 2.13
  40  0.087  0.895  0.088-  50 1.98  10 2.13
  41  0.440  0.095  0.626-  43 2.05   3 2.05
  42  0.440  0.595  0.626-  44 2.05   4 2.05
  43  0.356  0.056  0.776-  41 2.05  17 2.13
  44  0.356  0.556  0.776-  42 2.05  18 2.13
  45  0.740  0.449  0.777-   1 1.98  52 2.23
  46  0.740  0.949  0.777-   2 1.98  51 2.23
  47  0.940  0.155  0.626-  11 2.05  23 2.05
  48  0.940  0.655  0.626-  12 2.05  24 2.05
  49  0.243  0.461  0.071-  39 1.98  26 2.23
  50  0.243  0.961  0.071-  40 1.98  25 2.23
  51  0.757  0.039  0.929-   5 1.98  46 2.23
  52  0.757  0.539  0.929-   6 1.98  45 2.23
  53  0.560  0.405  0.374-  21 2.05  55 2.05
  54  0.560  0.905  0.374-  22 2.05  56 2.05
  55  0.670  0.311  0.449-  53 2.05  27 2.13
  56  0.670  0.811  0.449-  54 2.05  28 2.13


IMPORTANT INFORMATION: All symmetrisations will be switched off!
NOSYMM: (Re-)initialisation of all symmetry stuff for point group C_1.


----------------------------------------------------------------------------------------

                                     Primitive cell                                     

  volume of cell :    1863.6770

  direct lattice vectors                    reciprocal lattice vectors
     0.000000000 10.307367086 -0.372855731     0.000000000  0.096453423 -0.015606996
    16.788494411  0.000000000  0.000000000     0.059564603  0.000000000  0.000000000
     0.000000000 -1.732519801-10.707215182     0.000000000 -0.003358783 -0.092851486

  length of vectors
    10.314108670 16.788494411 10.846477853     0.097707938  0.059564603  0.092912216

  position of ions in fractional coordinates (direct lattice)
     0.886423141  0.467004751  0.678126386
     0.886423141  0.967004751  0.678126386
     0.329563264  0.188743823  0.550707721
     0.329563264  0.688743823  0.550707721
     0.912671285  0.105241885  0.911960471
     0.912671285  0.605241885  0.911960471
     0.239736405  0.300831047  0.775652230
     0.239736405  0.800831047  0.776574189
     0.144417516  0.305688762  0.224396680
     0.144417516  0.805688762  0.224396680
     0.855582484  0.194311238  0.775603320
     0.855582484  0.694311238  0.775603320
     0.760263595  0.199168953  0.223425811
     0.760263595  0.699168953  0.223425811
     0.170436736  0.438743823  0.449292279
     0.170436736  0.938743823  0.449292279
     0.412671285  0.144758115  0.911960471
     0.412671285  0.644758115  0.911960471
     0.386423141  0.282995249  0.678126386
     0.386423141  0.782995249  0.678126386
     0.644417516  0.444311238  0.224396680
     0.644417516  0.944311238  0.224396680
     0.829563264  0.061256177  0.550707721
     0.829563264  0.561256177  0.550707721
     0.260263595  0.050831047  0.223425811
     0.260263595  0.550831047  0.223425811
     0.613576859  0.217004751  0.321873614
     0.613576859  0.717004751  0.321873614
     0.113576859  0.032995249  0.321873614
     0.113576859  0.532995249  0.321873614
     0.059895700  0.345087734  0.374484367
     0.059895700  0.845087734  0.374484367
     0.743425210  0.289344343  0.071165234
     0.743425210  0.789344343  0.071165234
     0.587328715  0.355241885  0.088039529
     0.587328715  0.855241885  0.088039529
     0.256574790  0.210655657  0.928834766
     0.256574790  0.710655657  0.928834766
     0.087328715  0.394758115  0.088039529
     0.087328715  0.894758115  0.088039529
     0.440104300  0.095087734  0.625515633
     0.440104300  0.595087734  0.625515633
     0.355582484  0.055688762  0.775603320
     0.355582484  0.555688762  0.775603320
     0.739736405  0.449168953  0.776574189
     0.739736405  0.949168953  0.776574189
     0.940104300  0.154912266  0.625515633
     0.940104300  0.654912266  0.625515633
     0.243425210  0.460655657  0.071165234
     0.243425210  0.960655657  0.071165234
     0.756574790  0.039344343  0.928834766
     0.756574790  0.539344343  0.928834766
     0.559895700  0.404912266  0.374484367
     0.559895700  0.904912266  0.374484367
     0.670436736  0.311256177  0.449292279
     0.670436736  0.811256177  0.449292279

  ion indices of the primitive-cell ions
   primitive index   ion index
                 1           1
                 2           2
                 3           3
                 4           4
                 5           5
                 6           6
                 7           7
                 8           8
                 9           9
                10          10
                11          11
                12          12
                13          13
                14          14
                15          15
                16          16
                17          17
                18          18
                19          19
                20          20
                21          21
                22          22
                23          23
                24          24
                25          25
                26          26
                27          27
                28          28
                29          29
                30          30
                31          31
                32          32
                33          33
                34          34
                35          35
                36          36
                37          37
                38          38
                39          39
                40          40
                41          41
                42          42
                43          43
                44          44
                45          45
                46          46
                47          47
                48          48
                49          49
                50          50
                51          51
                52          52
                53          53
                54          54
                55          55
                56          56

----------------------------------------------------------------------------------------



 KPOINTS: pymatgen with grid density = 595 / numbe

Automatic generation of k-mesh.
 Grid dimensions read from file:
 generate k-points for:    2    2    2

 Generating k-lattice:

  Cartesian coordinates                     Fractional coordinates (reciprocal lattice)
     0.000000000  0.048226712 -0.007803498     0.500000000  0.000000000 -0.000000000
     0.029782301  0.000000000  0.000000000     0.000000000  0.500000000  0.000000000
     0.000000000 -0.001679391 -0.046425743    -0.000000000  0.000000000  0.500000000

  Length of vectors
     0.048853969  0.029782301  0.046456108

  Shift w.r.t. Gamma in fractional coordinates (k-lattice)
     0.000000000  0.000000000  0.000000000

 TETIRR: Found     24 inequivalent tetrahedra from       48
 
 Subroutine IBZKPT returns following result:
 ===========================================
 
 Found      8 irreducible k-points:
 
 Following reciprocal coordinates:
            Coordinates               Weight
  0.000000  0.000000  0.000000      1.000000
  0.500000  0.000000  0.000000      1.000000
  0.000000  0.500000  0.000000      1.000000
  0.500000  0.500000  0.000000      1.000000
  0.000000  0.000000  0.500000      1.000000
  0.500000  0.000000  0.500000      1.000000
  0.000000  0.500000  0.500000      1.000000
  0.500000  0.500000  0.500000      1.000000
 
 Following cartesian coordinates:
            Coordinates               Weight
  0.000000  0.000000 -0.000000      1.000000
  0.000000  0.048227 -0.007803      1.000000
  0.029782  0.000000 -0.000000      1.000000
  0.029782  0.048227 -0.007803      1.000000
  0.000000 -0.001679 -0.046426      1.000000
  0.000000  0.046547 -0.054229      1.000000
  0.029782 -0.001679 -0.046426      1.000000
  0.029782  0.046547 -0.054229      1.000000
 


--------------------------------------------------------------------------------------------------------




 Dimension of arrays:
   k-points           NKPTS =      8   k-points in BZ     NKDIM =      8   number of bands    NBANDS=    256
   number of dos      NEDOS =    301   number of ions     NIONS =     56
   non local maximal  LDIM  =      4   non local SUM 2l+1 LMDIM =      8
   total plane-waves  NPLWV = 846720
   max r-space proj   IRMAX =      1   max aug-charges    IRDMAX= 114695
   dimension x,y,z NGX =    80 NGY =  126 NGZ =   84
   dimension x,y,z NGXF=   160 NGYF=  252 NGZF=  168
   support grid    NGXF=   320 NGYF=  504 NGZF=  336
   ions per type =              56
   NGX,Y,Z   is equivalent  to a cutoff of  12.89, 12.48, 12.87 a.u.
   NGXF,Y,Z  is equivalent  to a cutoff of  25.79, 24.95, 25.75 a.u.

 SYSTEM =  unknown system                          
 POSCAR =  generated by phonopy                    

 Startparameter for this run:
   NWRITE =      2    write-flag & timer
   PREC   = accura    normal or accurate (medium, high low for compatibility)
   ISTART =      0    job   : 0-new  1-cont  2-samecut
   ICHARG =      2    charge: 1-file 2-atom 10-const
   ISPIN  =      2    spin polarized calculation?
   LNONCOLLINEAR =      F non collinear calculations
   LSORBIT =      F    spin-orbit coupling
   INIWAV =      1    electr: 0-lowe 1-rand  2-diag
   LASPH  =      T    aspherical Exc in radial PAW
 Electronic Relaxation 1
   ENCUT  =  520.0 eV  38.22 Ry    6.18 a.u.  19.18 31.22 20.17*2*pi/ulx,y,z
   ENINI  =  520.0     initial cutoff
   ENAUG  =  335.1 eV  augmentation charge cutoff
   NELM   =    100;   NELMIN=  2; NELMDL= -5     # of ELM steps 
   EDIFF  = 0.1E-08   stopping-criterion for ELM
   LREAL  =      F    real-space projection
   NLSPLINE    = F    spline interpolate recip. space projectors
   LCOMPAT=      F    compatible to vasp.4.4
   GGA_COMPAT  = T    GGA compatible to vasp.4.4-vasp.4.6
   LMAXPAW     = -100 max onsite density
   LMAXMIX     =    2 max onsite mixed and CHGCAR
   VOSKOWN=      0    Vosko Wilk Nusair interpolation
   ROPT   =    0.00000
 Ionic relaxation
   EDIFFG = -.5E-03   stopping-criterion for IOM
   NSW    =      0    number of steps for IOM
   NBLOCK =      1;   KBLOCK =      1    inner block; outer block 
   IBRION =     -1    ionic relax: 0-MD 1-quasi-New 2-CG
   NFREE  =      0    steps in history (QN), initial steepest desc. (CG)
   ISIF   =      2    stress and relaxation
   IWAVPR =     10    prediction:  0-non 1-charg 2-wave 3-comb
   ISYM   =      0    0-nonsym 1-usesym 2-fastsym
   LCORR  =      T    Harris-Foulkes like correction to forces

   POTIM  = 0.5000    time-step for ionic-motion
   TEIN   =    0.0    initial temperature
   TEBEG  =    0.0;   TEEND  =   0.0 temperature during run
   SMASS  =  -3.00    Nose mass-parameter (am)
   estimated Nose-frequenzy (Omega)   =  0.10E-29 period in steps = 0.13E+47 mass=  -0.243E-26a.u.
   SCALEE = 1.0000    scale energy and forces
   NPACO  =    256;   APACO  = 10.0  distance and # of slots for P.C.
   PSTRESS=    0.0 pullay stress

  Mass of Ions in am
   POMASS =  32.07
  Ionic Valenz
   ZVAL   =   6.00
  Atomic Wigner-Seitz radii
   RWIGS  =  -1.00
  virtual crystal weights 
   VCA    =   1.00
   NELECT =     336.0000    total number of electrons
   NUPDOWN=      -1.0000    fix difference up-down

 DOS related values:
   EMIN   =  10.00;   EMAX   =-10.00  energy-range for DOS
   EFERMI =   0.00
   ISMEAR =    -5;   SIGMA  =   0.05  broadening in eV -4-tet -1-fermi 0-gaus

 Electronic relaxation 2 (details)
   IALGO  =     38    algorithm
   LDIAG  =      T    sub-space diagonalisation (order eigenvalues)
   LSUBROT=      F    optimize rotation matrix (better conditioning)
   TURBO    =      0    0=normal 1=particle mesh
   IRESTART =      0    0=no restart 2=restart with 2 vectors
   NREBOOT  =      0    no. of reboots
   NMIN     =      0    reboot dimension
   EREF     =   0.00    reference energy to select bands
   IMIX   =      4    mixing-type and parameters
     AMIX     =   0.40;   BMIX     =  1.00
     AMIX_MAG =   1.60;   BMIX_MAG =  1.00
     AMIN     =   0.10
     WC   =   100.;   INIMIX=   1;  MIXPRE=   1;  MAXMIX= -45

 Intra band minimization:
   WEIMIN = 0.0000     energy-eigenvalue tresh-hold
   EBREAK =  0.98E-12  absolut break condition
   DEPER  =   0.30     relativ break condition  

   TIME   =   0.40     timestep for ELM

  volume/ion in A,a.u.               =      33.28       224.58
  Fermi-wavevector in a.u.,A,eV,Ry     =   0.924835  1.747685 11.637339  0.855320
  Thomas-Fermi vector in A             =   2.050624

 Write flags
   LWAVE        =      F    write WAVECAR
   LDOWNSAMPLE  =      F    k-point downsampling of WAVECAR
   LCHARG       =      F    write CHGCAR
   LVTOT        =      F    write LOCPOT, total local potential
   LVHAR        =      F    write LOCPOT, Hartree potential only
   LELF         =      F    write electronic localiz. function (ELF)
   LORBIT       =     11    0 simple, 1 ext, 2 COOP (PROOUT), +10 PAW based schemes


 Dipole corrections
   LMONO  =      F    monopole corrections only (constant potential shift)
   LDIPOL =      F    correct potential (dipole corrections)
   IDIPOL =      0    1-x, 2-y, 3-z, 4-all directions 
   EPSILON=  1.0000000 bulk dielectric constant

 Exchange correlation treatment:
   GGA     =    --    GGA type
   LEXCH   =     8    internal setting for exchange type
   LIBXC   =     F    Libxc                    
   VOSKOWN =     0    Vosko Wilk Nusair interpolation
   LHFCALC =     F    Hartree Fock is set to
   LHFONE  =     F    Hartree Fock one center treatment
   AEXX    =    0.0000 exact exchange contribution

 Linear response parameters
   LEPSILON=     F    determine dielectric tensor
   LRPA    =     F    only Hartree local field effects (RPA)
   LNABLA  =     F    use nabla operator in PAW spheres
   LVEL    =     F    velocity operator in full k-point grid
   CSHIFT  =0.1000    complex shift for real part using Kramers Kronig
   OMEGAMAX=  -1.0    maximum frequency
   DEG_THRESHOLD= 0.2000000E-02 threshold for treating states as degnerate
   RTIME   =   -0.100 relaxation time in fs
  (WPLASMAI=    0.000 imaginary part of plasma frequency in eV, 0.658/RTIME)
   DFIELD  = 0.0000000 0.0000000 0.0000000 field for delta impulse in time

  Optional k-point grid parameters
   LKPOINTS_OPT  =     F    use optional k-point grid
   KPOINTS_OPT_MODE=     1    mode for optional k-point grid

 Orbital magnetization related:
   ORBITALMAG=     F  switch on orbital magnetization
   LCHIMAG   =     F  perturbation theory with respect to B field
   DQ        =  0.001000  dq finite difference perturbation B field
   LLRAUG    =     F  two centre corrections for induced B field



--------------------------------------------------------------------------------------------------------


 Static calculation
 charge density and potential will be updated during run
 spin polarized calculation
 Variant of blocked Davidson
 Davidson routine will perform the subspace rotation
 perform sub-space diagonalisation
    after iterative eigenvector-optimisation
 modified Broyden-mixing scheme, WC =      100.0
 initial mixing is a Kerker type mixing with AMIX =  0.4000 and BMIX =      1.0000
 Hartree-type preconditioning will be used
 using additional bands           88
 reciprocal scheme for non local part
 use partial core corrections
 calculate Harris-corrections to forces   (improved forces if not selfconsistent)
 use gradient corrections 
 use of overlap-Matrix (Vanderbilt PP)
 Fermi weights with tetrahedron method with Bloechl corrections


--------------------------------------------------------------------------------------------------------


  energy-cutoff  :      520.00
  volume of cell :     1863.68
      direct lattice vectors                 reciprocal lattice vectors
     0.000000000 10.307367086 -0.372855731     0.000000000  0.096453423 -0.015606996
    16.788494411  0.000000000  0.000000000     0.059564603  0.000000000  0.000000000
     0.000000000 -1.732519801-10.707215182     0.000000000 -0.003358783 -0.092851486

  length of vectors
    10.314108670 16.788494411 10.846477853     0.097707938  0.059564603  0.092912216



 k-points in units of 2pi/SCALE and weight: pymatgen with grid density = 595 / numbe
   0.00000000  0.00000000 -0.00000000       0.125
   0.00000000  0.04822671 -0.00780350       0.125
   0.02978230  0.00000000 -0.00000000       0.125
   0.02978230  0.04822671 -0.00780350       0.125
   0.00000000 -0.00167939 -0.04642574       0.125
   0.00000000  0.04654732 -0.05422924       0.125
   0.02978230 -0.00167939 -0.04642574       0.125
   0.02978230  0.04654732 -0.05422924       0.125

 k-points in reciprocal lattice and weights: pymatgen with grid density = 595 / numbe
   0.00000000  0.00000000  0.00000000       0.125
   0.50000000  0.00000000  0.00000000       0.125
   0.00000000  0.50000000  0.00000000       0.125
   0.50000000  0.50000000  0.00000000       0.125
   0.00000000  0.00000000  0.50000000       0.125
   0.50000000  0.00000000  0.50000000       0.125
   0.00000000  0.50000000  0.50000000       0.125
   0.50000000  0.50000000  0.50000000       0.125

 position of ions in fractional coordinates (direct lattice) 
   0.88642314  0.46700475  0.67812639
   0.88642314  0.96700475  0.67812639
   0.32956326  0.18874382  0.55070772
   0.32956326  0.68874382  0.55070772
   0.91267129  0.10524188  0.91196047
   0.91267129  0.60524188  0.91196047
   0.23973640  0.30083105  0.77565223
   0.23973640  0.80083105  0.77657419
   0.14441752  0.30568876  0.22439668
   0.14441752  0.80568876  0.22439668
   0.85558248  0.19431124  0.77560332
   0.85558248  0.69431124  0.77560332
   0.76026360  0.19916895  0.22342581
   0.76026360  0.69916895  0.22342581
   0.17043674  0.43874382  0.44929228
   0.17043674  0.93874382  0.44929228
   0.41267129  0.14475812  0.91196047
   0.41267129  0.64475812  0.91196047
   0.38642314  0.28299525  0.67812639
   0.38642314  0.78299525  0.67812639
   0.64441752  0.44431124  0.22439668
   0.64441752  0.94431124  0.22439668
   0.82956326  0.06125618  0.55070772
   0.82956326  0.56125618  0.55070772
   0.26026360  0.05083105  0.22342581
   0.26026360  0.55083105  0.22342581
   0.61357686  0.21700475  0.32187361
   0.61357686  0.71700475  0.32187361
   0.11357686  0.03299525  0.32187361
   0.11357686  0.53299525  0.32187361
   0.05989570  0.34508773  0.37448437
   0.05989570  0.84508773  0.37448437
   0.74342521  0.28934434  0.07116523
   0.74342521  0.78934434  0.07116523
   0.58732871  0.35524188  0.08803953
   0.58732871  0.85524188  0.08803953
   0.25657479  0.21065566  0.92883477
   0.25657479  0.71065566  0.92883477
   0.08732871  0.39475812  0.08803953
   0.08732871  0.89475812  0.08803953
   0.44010430  0.09508773  0.62551563
   0.44010430  0.59508773  0.62551563
   0.35558248  0.05568876  0.77560332
   0.35558248  0.55568876  0.77560332
   0.73973640  0.44916895  0.77657419
   0.73973640  0.94916895  0.77657419
   0.94010430  0.15491227  0.62551563
   0.94010430  0.65491227  0.62551563
   0.24342521  0.46065566  0.07116523
   0.24342521  0.96065566  0.07116523
   0.75657479  0.03934434  0.92883477
   0.75657479  0.53934434  0.92883477
   0.55989570  0.40491227  0.37448437
   0.55989570  0.90491227  0.37448437
   0.67043674  0.31125618  0.44929228
   0.67043674  0.81125618  0.44929228

 position of ions in cartesian coordinates  (Angst):
   7.84030666  7.96182132 -7.59135308
  16.23455387  7.96182132 -7.59135308
   3.16872461  2.44281751 -6.01942562
  11.56297182  2.44281751 -6.01942562
   1.76685280  7.82724839-10.10485172
  10.16110000  7.82724839-10.10485172
   5.05050035  1.12721828 -8.39446243
  13.44474755  1.12562097 -8.40433404
   5.13205407  1.09979266 -2.45651044
  13.52630128  1.09979266 -2.45651044
   3.26219313  7.47505463 -8.62356047
  11.65644034  7.47505463 -8.62356047
   3.34374686  7.44922632 -2.67573688
  11.73799406  7.44922632 -2.67573688
   7.36584822  0.97834624 -4.87421742
  15.76009542  0.97834624 -4.87421742
   2.43027081  2.67356485 -9.91842386
  10.82451801  2.67356485 -9.91842386
   4.75106415  2.80813777 -7.40492521
  13.14531135  2.80813777 -7.40492521
   7.45931673  6.25347620 -2.64293831
  15.85356394  6.25347620 -2.64293831
   1.02839899  7.59650105 -6.20585349
   9.42264619  7.59650105 -6.20585349
   0.85337674  2.29554277 -2.48930901
   9.24762395  2.29554277 -2.48930901
   3.64318306  5.76670951 -3.67514570
  12.03743026  5.76670951 -3.67514570
   0.55394055  0.61302597 -3.48871783
   8.94818775  0.61302597 -3.48871783
   5.79350349 -0.03143461 -4.03201715
  14.18775070 -0.03143461 -4.03201715
   4.85765589  7.53946136 -1.03917182
  13.25190310  7.53946136 -1.03917182
   5.96397640  5.90128244 -1.16164705
  14.35822361  5.90128244 -1.16164705
   3.53659131  1.03538593-10.04089909
  11.93083852  1.03538593-10.04089909
   6.62739441  0.74759889 -0.97521919
  15.02164161  0.74759889 -0.97521919
   1.59637989  3.45259836 -6.86162589
   9.99062710  3.45259836 -6.86162589
   0.93493047  2.32137108 -8.43713261
   9.32917768  2.32137108 -8.43713261
   7.54087046  6.27930451 -8.59076190
  15.93511767  6.27930451 -8.59076190
   2.60074371  8.60628190 -7.04805376
  10.99499092  8.60628190 -7.04805376
   7.73371492  2.38577782 -0.85274396
  16.12796212  2.38577782 -0.85274396
   0.66053229  6.18906947-10.22732695
   9.05477950  6.18906947-10.22732695
   6.79786731  5.12224893 -4.21844502
  15.19211452  5.12224893 -4.21844502
   5.22552259  6.13202978 -5.06064529
  13.61976980  6.13202978 -5.06064529



--------------------------------------------------------------------------------------------------------


 k-point   1 :   0.0000 0.0000 0.0000  plane waves:   50179
 k-point   2 :   0.5000 0.0000 0.0000  plane waves:   50160
 k-point   3 :   0.0000 0.5000 0.0000  plane waves:   50162
 k-point   4 :   0.5000 0.5000 0.0000  plane waves:   50192
 k-point   5 :   0.0000 0.0000 0.5000  plane waves:   50190
 k-point   6 :   0.5000 0.0000 0.5000  plane waves:   50190
 k-point   7 :   0.0000 0.5000 0.5000  plane waves:   50172
 k-point   8 :   0.5000 0.5000 0.5000  plane waves:   50200

 maximum and minimum number of plane-waves per node :     50200    50160

 maximum number of plane-waves:     50200
 maximum index in each direction: 
   IXMAX=   19   IYMAX=   31   IZMAX=   20
   IXMIN=  -19   IYMIN=  -31   IZMIN=  -20


 serial   3D FFT for wavefunctions
 parallel 3D FFT for charge:
    minimum data exchange during FFTs selected (reduces bandwidth)


 total amount of memory used by VASP MPI-rank0   322725. kBytes
=======================================================================

   base      :      30000. kBytes
   nonl-proj :      70692. kBytes
   fftplans  :      34504. kBytes
   grid      :      83442. kBytes
   one-center:        344. kBytes
   wavefun   :     103743. kBytes

     INWAV:  cpu time      0.0000: real time      0.0002
 Broyden mixing: mesh for mixing (old mesh)
   NGX = 39   NGY = 63   NGZ = 41
  (NGX  =160   NGY  =252   NGZ  =168)
  gives a total of 100737 points

 initial charge density was supplied:
 charge density of overlapping atoms calculated
 number of electron     336.0000000 magnetization      56.0000000
 keeping initial charge density in first step


--------------------------------------------------------------------------------------------------------


 Maximum index for augmentation-charges         3947 (set IRDMAX)


--------------------------------------------------------------------------------------------------------


 First call to EWALD:  gamma=   0.144
 Maximum number of real-space cells 3x 2x 3
 Maximum number of reciprocal cells 2x 4x 2

    FEWALD:  cpu time      0.0020: real time      0.0020


--------------------------------------- Iteration      1(   1)  ---------------------------------------


    POTLOK:  cpu time      0.4757: real time      0.4758
    SETDIJ:  cpu time      6.4320: real time      6.4327
     EDDAV:  cpu time     42.0702: real time     42.0765
 BZINTS: Fermi energy:   10.166341;  336.000000 electrons
         Band energy: 0.225106E+03;  BLOECHL correction:   -0.008748
       DOS:  cpu time      0.0477: real time      0.0477
    --------------------------------------------
      LOOP:  cpu time     49.0256: real time     49.0328

 eigenvalue-minimisations  :  8192
 total energy-change (2. order) : 0.2106223E+04  (-0.1333797E+05)
 number of electron     336.0000000 magnetization      56.0000000
 augmentation part      336.0000000 magnetization      56.0000000

 Free energy of the ion-electron system (eV)
  ---------------------------------------------------
  alpha Z        PSCENC =       253.99581917
  Ewald energy   TEWEN  =     -9970.72851269
  -Hartree energ DENC   =     -4765.91160399
  -exchange      EXHF   =         0.00000000
  -V(xc)+E(xc)   XCENC  =       682.51537366
  PAW double counting   =     12174.71095765   -11995.46358648
  entropy T*S    EENTRO =         0.00000000
  eigenvalues    EBANDS =       225.10568357
  atomic energy  EATOM  =     15501.99929693
  Solvation  Ediel_sol  =         0.00000000
  ---------------------------------------------------
  free energy    TOTEN  =      2106.22342782 eV

  energy without entropy =     2106.22342782  energy(sigma->0) =     2106.22342782


--------------------------------------------------------------------------------------------------------




--------------------------------------- Iteration      1(   2)  ---------------------------------------


     EDDAV:  cpu time     45.0027: real time     45.0102
 BZINTS: Fermi energy:    1.451377;  336.000000 electrons
         Band energy:-0.187485E+04;  BLOECHL correction:    0.000000
       DOS:  cpu time      0.0272: real time      0.0273
    --------------------------------------------
      LOOP:  cpu time     45.0299: real time     45.0375

 eigenvalue-minimisations  : 10272
 total energy-change (2. order) :-0.2099952E+04  (-0.2021761E+04)
 number of electron     336.0000000 magnetization      56.0000000
 augmentation part      336.0000000 magnetization      56.0000000

 Free energy of the ion-electron system (eV)
  ---------------------------------------------------
  alpha Z        PSCENC =       253.99581917
  Ewald energy   TEWEN  =     -9970.72851269
  -Hartree energ DENC   =     -4765.91160399
  -exchange      EXHF   =         0.00000000
  -V(xc)+E(xc)   XCENC  =       682.51537366
  PAW double counting   =     12174.71095765   -11995.46358648
  entropy T*S    EENTRO =         0.00000000
  eigenvalues    EBANDS =     -1874.84658315
  atomic energy  EATOM  =     15501.99929693
  Solvation  Ediel_sol  =         0.00000000
  ---------------------------------------------------
  free energy    TOTEN  =         6.27116110 eV

  energy without entropy =        6.27116110  energy(sigma->0) =        6.27116110


--------------------------------------------------------------------------------------------------------




--------------------------------------- Iteration      1(   3)  ---------------------------------------


     EDDAV:  cpu time     44.9752: real time     44.9822
 BZINTS: Fermi energy:    0.218761;  336.000000 electrons
         Band energy:-0.209470E+04;  BLOECHL correction:    0.000000
       DOS:  cpu time      0.0287: real time      0.0288
    --------------------------------------------
      LOOP:  cpu time     45.0039: real time     45.0110

 eigenvalue-minimisations  : 10240
 total energy-change (2. order) :-0.2198508E+03  (-0.2171649E+03)
 number of electron     336.0000000 magnetization      56.0000000
 augmentation part      336.0000000 magnetization      56.0000000

 Free energy of the ion-electron system (eV)
  ---------------------------------------------------
  alpha Z        PSCENC =       253.99581917
  Ewald energy   TEWEN  =     -9970.72851269
  -Hartree energ DENC   =     -4765.91160399
  -exchange      EXHF   =         0.00000000
  -V(xc)+E(xc)   XCENC  =       682.51537366
  PAW double counting   =     12174.71095765   -11995.46358648
  entropy T*S    EENTRO =         0.00000000
  eigenvalues    EBANDS =     -2094.69742010
  atomic energy  EATOM  =     15501.99929693
  Solvation  Ediel_sol  =         0.00000000
  ---------------------------------------------------
  free energy    TOTEN  =      -213.57967585 eV

  energy without entropy =     -213.57967585  energy(sigma->0) =     -213.57967585


--------------------------------------------------------------------------------------------------------




--------------------------------------- Iteration      1(   4)  ---------------------------------------


     EDDAV:  cpu time     47.0318: real time     47.0448
 BZINTS: Fermi energy:    0.191649;  336.000000 electrons
         Band energy:-0.209959E+04;  BLOECHL correction:    0.000000
       DOS:  cpu time      0.0262: real time      0.0262
    --------------------------------------------
      LOOP:  cpu time     47.0580: real time     47.0710

 eigenvalue-minimisations  : 10304
 total energy-change (2. order) :-0.4896143E+01  (-0.4877791E+01)
 number of electron     336.0000000 magnetization      56.0000000
 augmentation part      336.0000000 magnetization      56.0000000

 Free energy of the ion-electron system (eV)
  ---------------------------------------------------
  alpha Z        PSCENC =       253.99581917
  Ewald energy   TEWEN  =     -9970.72851269
  -Hartree energ DENC   =     -4765.91160399
  -exchange      EXHF   =         0.00000000
  -V(xc)+E(xc)   XCENC  =       682.51537366
  PAW double counting   =     12174.71095765   -11995.46358648
  entropy T*S    EENTRO =         0.00000000
  eigenvalues    EBANDS =     -2099.59356317
  atomic energy  EATOM  =     15501.99929693
  Solvation  Ediel_sol  =         0.00000000
  ---------------------------------------------------
  free energy    TOTEN  =      -218.47581891 eV

  energy without entropy =     -218.47581891  energy(sigma->0) =     -218.47581891


--------------------------------------------------------------------------------------------------------




--------------------------------------- Iteration      1(   5)  ---------------------------------------


     EDDAV:  cpu time     45.7853: real time     45.7926
 BZINTS: Fermi energy:    0.191501;  336.000000 electrons
         Band energy:-0.209973E+04;  BLOECHL correction:    0.000000
       DOS:  cpu time      0.0262: real time      0.0263
    CHARGE:  cpu time     10.0293: real time     10.0309
    MIXING:  cpu time      0.0068: real time      0.0068
    --------------------------------------------
      LOOP:  cpu time     55.8477: real time     55.8567

 eigenvalue-minimisations  : 10112
 total energy-change (2. order) :-0.1371790E+00  (-0.1371129E+00)
 number of electron     335.9999997 magnetization      44.9918631
 augmentation part      -47.3224882 magnetization      44.8836886

 Broyden mixing:
  rms(total) = 0.82952E+01    rms(broyden)= 0.82952E+01
  rms(prec ) = 0.83151E+01
  weight for this iteration     100.00

 Free energy of the ion-electron system (eV)
  ---------------------------------------------------
  alpha Z        PSCENC =       253.99581917
  Ewald energy   TEWEN  =     -9970.72851269
  -Hartree energ DENC   =     -4765.91160399
  -exchange      EXHF   =         0.00000000
  -V(xc)+E(xc)   XCENC  =       682.51537366
  PAW double counting   =     12174.71095765   -11995.46358648
  entropy T*S    EENTRO =         0.00000000
  eigenvalues    EBANDS =     -2099.73074212
  atomic energy  EATOM  =     15501.99929693
  Solvation  Ediel_sol  =         0.00000000
  ---------------------------------------------------
  free energy    TOTEN  =      -218.61299787 eV

  energy without entropy =     -218.61299787  energy(sigma->0) =     -218.61299787


--------------------------------------------------------------------------------------------------------




--------------------------------------- Iteration      1(   6)  ---------------------------------------


    POTLOK:  cpu time      2.1978: real time      2.1983
    SETDIJ:  cpu time      9.8127: real time      9.8136
     EDDAV:  cpu time     42.9189: real time     42.9257
 BZINTS: Fermi energy:    0.408335;  336.000000 electrons
         Band energy:-0.201420E+04;  BLOECHL correction:   -0.000000
       DOS:  cpu time      0.0297: real time      0.0298
    CHARGE:  cpu time      4.6807: real time      4.6813
    MIXING:  cpu time      0.0071: real time      0.0071
    --------------------------------------------
      LOOP:  cpu time     59.6469: real time     59.6558

 eigenvalue-minimisations  :  9664
 total energy-change (2. order) : 0.1022845E+03  (-0.2667796E+02)
 number of electron     335.9999997 magnetization      26.4974719
 augmentation part      -47.6485566 magnetization      27.5559711

 Broyden mixing:
  rms(total) = 0.49373E+01    rms(broyden)= 0.49373E+01
  rms(prec ) = 0.49596E+01
  weight for this iteration     100.00

 eigenvalues of (default mixing * dielectric matrix)
  average eigenvalue GAMMA=   1.6662
  1.6662

 Free energy of the ion-electron system (eV)
  ---------------------------------------------------
  alpha Z        PSCENC =       253.99581917
  Ewald energy   TEWEN  =     -9970.72851269
  -Hartree energ DENC   =     -4810.27828226
  -exchange      EXHF   =         0.00000000
  -V(xc)+E(xc)   XCENC  =       746.10143986
  PAW double counting   =     20737.32005259   -20560.54266163
  entropy T*S    EENTRO =         0.00000000
  eigenvalues    EBANDS =     -2014.19569198
  atomic energy  EATOM  =     15501.99929693
  Solvation  Ediel_sol  =         0.00000000
  ---------------------------------------------------
  free energy    TOTEN  =      -116.32854002 eV

  energy without entropy =     -116.32854002  energy(sigma->0) =     -116.32854002


--------------------------------------------------------------------------------------------------------




--------------------------------------- Iteration      1(   7)  ---------------------------------------


    POTLOK:  cpu time      0.4084: real time      0.4166
    SETDIJ:  cpu time      7.7957: real time      7.7965
     EDDAV:  cpu time     44.1998: real time     44.2067
 BZINTS: Fermi energy:    0.737536;  336.000000 electrons
         Band energy:-0.186784E+04;  BLOECHL correction:    0.000000
       DOS:  cpu time      0.0260: real time      0.0261
    CHARGE:  cpu time      7.2871: real time      7.2879
    MIXING:  cpu time      0.0080: real time      0.0080
    --------------------------------------------
      LOOP:  cpu time     59.7250: real time     59.7417

 eigenvalue-minimisations  : 10080
 total energy-change (2. order) :-0.1113562E+02  (-0.2694352E+01)
 number of electron     335.9999997 magnetization      19.7227123
 augmentation part      -47.3165438 magnetization      20.9283103

 Broyden mixing:
  rms(total) = 0.13991E+01    rms(broyden)= 0.13991E+01
  rms(prec ) = 0.14028E+01
  weight for this iteration     100.00

 eigenvalues of (default mixing * dielectric matrix)
  average eigenvalue GAMMA=   1.4854
  0.7901  2.1806

 Free energy of the ion-electron system (eV)
  ---------------------------------------------------
  alpha Z        PSCENC =       253.99581917
  Ewald energy   TEWEN  =     -9970.72851269
  -Hartree energ DENC   =     -4969.69178033
  -exchange      EXHF   =         0.00000000
  -V(xc)+E(xc)   XCENC  =       751.43751905
  PAW double counting   =     37039.77921484   -36866.41425361
  entropy T*S    EENTRO =         0.00000000
  eigenvalues    EBANDS =     -1867.84146727
  atomic energy  EATOM  =     15501.99929693
  Solvation  Ediel_sol  =         0.00000000
  ---------------------------------------------------
  free energy    TOTEN  =      -127.46416391 eV

  energy without entropy =     -127.46416391  energy(sigma->0) =     -127.46416391


--------------------------------------------------------------------------------------------------------




--------------------------------------- Iteration      1(   8)  ---------------------------------------


    POTLOK:  cpu time      0.4055: real time      0.4057
    SETDIJ:  cpu time      8.0083: real time      8.0122
     EDDAV:  cpu time     41.8556: real time     41.8628
 BZINTS: Fermi energy:    0.705493;  336.000000 electrons
         Band energy:-0.185531E+04;  BLOECHL correction:    0.000000
       DOS:  cpu time      0.0263: real time      0.0263
    CHARGE:  cpu time      6.9842: real time      6.9851
    MIXING:  cpu time      0.0089: real time      0.0089
    --------------------------------------------
      LOOP:  cpu time     57.2888: real time     57.3010

 eigenvalue-minimisations  :  9312
 total energy-change (2. order) :-0.4274948E+02  (-0.1977726E+01)
 number of electron     335.9999997 magnetization      16.0641622
 augmentation part      -47.0119736 magnetization      17.1086774

 Broyden mixing:
  rms(total) = 0.78256E+00    rms(broyden)= 0.78256E+00
  rms(prec ) = 0.78770E+00
  weight for this iteration     100.00

 eigenvalues of (default mixing * dielectric matrix)
  average eigenvalue GAMMA=   1.3384
  2.4898  0.9419  0.5834

 Free energy of the ion-electron system (eV)
  ---------------------------------------------------
  alpha Z        PSCENC =       253.99581917
  Ewald energy   TEWEN  =     -9970.72851269
  -Hartree energ DENC   =     -4999.31754229
  -exchange      EXHF   =         0.00000000
  -V(xc)+E(xc)   XCENC  =       726.54561116
  PAW double counting   =     40188.87870354   -40016.28068885
  entropy T*S    EENTRO =         0.00000000
  eigenvalues    EBANDS =     -1855.30633279
  atomic energy  EATOM  =     15501.99929693
  Solvation  Ediel_sol  =         0.00000000
  ---------------------------------------------------
  free energy    TOTEN  =      -170.21364582 eV

  energy without entropy =     -170.21364582  energy(sigma->0) =     -170.21364582


--------------------------------------------------------------------------------------------------------




--------------------------------------- Iteration      1(   9)  ---------------------------------------


    POTLOK:  cpu time      0.4046: real time      0.4048
    SETDIJ:  cpu time      9.7634: real time      9.7643
     EDDAV:  cpu time     44.8386: real time     44.8456
 BZINTS: Fermi energy:    0.627802;  336.000000 electrons
         Band energy:-0.186655E+04;  BLOECHL correction:    0.000000
       DOS:  cpu time      0.0265: real time      0.0266
    CHARGE:  cpu time      7.1852: real time      7.1860
    MIXING:  cpu time      0.0080: real time      0.0080
    --------------------------------------------
      LOOP:  cpu time     62.2262: real time     62.2353

 eigenvalue-minimisations  : 10240
 total energy-change (2. order) :-0.1673837E+02  (-0.6406626E+00)
 number of electron     335.9999997 magnetization      11.5360439
 augmentation part      -46.9156552 magnetization      12.3737955

 Broyden mixing:
  rms(total) = 0.43638E+00    rms(broyden)= 0.43638E+00
  rms(prec ) = 0.44842E+00
  weight for this iteration     100.00

 eigenvalues of (default mixing * dielectric matrix)
  average eigenvalue GAMMA=   1.3244
  2.5741  1.3009  0.7113  0.7113

 Free energy of the ion-electron system (eV)
  ---------------------------------------------------
  alpha Z        PSCENC =       253.99581917
  Ewald energy   TEWEN  =     -9970.72851269
  -Hartree energ DENC   =     -4995.51899972
  -exchange      EXHF   =         0.00000000
  -V(xc)+E(xc)   XCENC  =       717.23123090
  PAW double counting   =     40968.04654972   -40795.43017456
  entropy T*S    EENTRO =         0.00000000
  eigenvalues    EBANDS =     -1866.54722368
  atomic energy  EATOM  =     15501.99929693
  Solvation  Ediel_sol  =         0.00000000
  ---------------------------------------------------
  free energy    TOTEN  =      -186.95201393 eV

  energy without entropy =     -186.95201393  energy(sigma->0) =     -186.95201393


--------------------------------------------------------------------------------------------------------




--------------------------------------- Iteration      1(  10)  ---------------------------------------


    POTLOK:  cpu time      2.5298: real time      2.5302
    SETDIJ:  cpu time      5.9169: real time      5.9176
     EDDAV:  cpu time     46.9023: real time     46.9124
 BZINTS: Fermi energy:    0.474904;  336.000000 electrons
         Band energy:-0.190103E+04;  BLOECHL correction:    0.000000
       DOS:  cpu time      0.0267: real time      0.0268
    CHARGE:  cpu time      9.0268: real time      9.0277
    MIXING:  cpu time      0.0082: real time      0.0082
    --------------------------------------------
      LOOP:  cpu time     64.4106: real time     64.4228

 eigenvalue-minimisations  :  9984
 total energy-change (2. order) :-0.2006393E+02  (-0.1301856E+01)
 number of electron     335.9999997 magnetization       5.3066674
 augmentation part      -46.8737510 magnetization       5.8414670

 Broyden mixing:
  rms(total) = 0.32432E+00    rms(broyden)= 0.32432E+00
  rms(prec ) = 0.33727E+00
  weight for this iteration     100.00

 eigenvalues of (default mixing * dielectric matrix)
  average eigenvalue GAMMA=   1.4492
  2.4869  2.4869  0.9418  0.7282  0.6023

 Free energy of the ion-electron system (eV)
  ---------------------------------------------------
  alpha Z        PSCENC =       253.99581917
  Ewald energy   TEWEN  =     -9970.72851269
  -Hartree energ DENC   =     -4970.17523375
  -exchange      EXHF   =         0.00000000
  -V(xc)+E(xc)   XCENC  =       705.65397716
  PAW double counting   =     40977.14641618   -40803.87598453
  entropy T*S    EENTRO =         0.00000000
  eigenvalues    EBANDS =     -1901.03171797
  atomic energy  EATOM  =     15501.99929693
  Solvation  Ediel_sol  =         0.00000000
  ---------------------------------------------------
  free energy    TOTEN  =      -207.01593950 eV

  energy without entropy =     -207.01593950  energy(sigma->0) =     -207.01593950


--------------------------------------------------------------------------------------------------------




--------------------------------------- Iteration      1(  11)  ---------------------------------------


    POTLOK:  cpu time      0.4154: real time      0.4155
    SETDIJ:  cpu time     12.7962: real time     12.7978
     EDDAV:  cpu time     47.1945: real time     47.2019
 BZINTS: Fermi energy:    0.257003;  336.000000 electrons
         Band energy:-0.195843E+04;  BLOECHL correction:    0.000000
       DOS:  cpu time      0.0263: real time      0.0263
    CHARGE:  cpu time      4.7043: real time      4.7048
    MIXING:  cpu time      0.0065: real time      0.0065
    --------------------------------------------
      LOOP:  cpu time     65.1431: real time     65.1528

 eigenvalue-minimisations  :  9952
 total energy-change (2. order) :-0.1785946E+02  (-0.2166765E+01)
 number of electron     335.9999997 magnetization       3.5768421
 augmentation part      -46.9054004 magnetization       3.7601213

 Broyden mixing:
  rms(total) = 0.18665E+00    rms(broyden)= 0.18665E+00
  rms(prec ) = 0.20034E+00
  weight for this iteration     100.00

 eigenvalues of (default mixing * dielectric matrix)
  average eigenvalue GAMMA=   1.4663
  2.7962  2.7962  1.0267  0.8896  0.6992  0.5900

 Free energy of the ion-electron system (eV)
  ---------------------------------------------------
  alpha Z        PSCENC =       253.99581917
  Ewald energy   TEWEN  =     -9970.72851269
  -Hartree energ DENC   =     -4920.58246945
  -exchange      EXHF   =         0.00000000
  -V(xc)+E(xc)   XCENC  =       694.53814690
  PAW double counting   =     40404.25110470   -40229.92074276
  entropy T*S    EENTRO =         0.00000000
  eigenvalues    EBANDS =     -1958.42804125
  atomic energy  EATOM  =     15501.99929693
  Solvation  Ediel_sol  =         0.00000000
  ---------------------------------------------------
  free energy    TOTEN  =      -224.87539846 eV

  energy without entropy =     -224.87539846  energy(sigma->0) =     -224.87539846


--------------------------------------------------------------------------------------------------------




--------------------------------------- Iteration      1(  12)  ---------------------------------------


    POTLOK:  cpu time      0.4007: real time      0.4008
    SETDIJ:  cpu time      7.2887: real time      7.2896
     EDDAV:  cpu time     44.1557: real time     44.1855
 BZINTS: Fermi energy:    0.184178;  336.000000 electrons
         Band energy:-0.197901E+04;  BLOECHL correction:    0.000000
       DOS:  cpu time      0.0255: real time      0.0255
    CHARGE:  cpu time      8.0080: real time      8.0088
    MIXING:  cpu time      0.0071: real time      0.0071
    --------------------------------------------
      LOOP:  cpu time     59.8856: real time     59.9173

 eigenvalue-minimisations  : 10048
 total energy-change (2. order) :-0.3383632E+01  (-0.3870839E+00)
 number of electron     335.9999997 magnetization       2.3940228
 augmentation part      -46.9152686 magnetization       2.4772970

 Broyden mixing:
  rms(total) = 0.15992E+00    rms(broyden)= 0.15992E+00
  rms(prec ) = 0.17246E+00
  weight for this iteration     100.00

 eigenvalues of (default mixing * dielectric matrix)
  average eigenvalue GAMMA=   1.4913
  3.1000  3.1000  1.0545  1.0545  0.7810  0.7810  0.5678

 Free energy of the ion-electron system (eV)
  ---------------------------------------------------
  alpha Z        PSCENC =       253.99581917
  Ewald energy   TEWEN  =     -9970.72851269
  -Hartree energ DENC   =     -4901.16746639
  -exchange      EXHF   =         0.00000000
  -V(xc)+E(xc)   XCENC  =       692.09078051
  PAW double counting   =     39973.74638076   -39799.18038424
  entropy T*S    EENTRO =         0.00000000
  eigenvalues    EBANDS =     -1979.01494404
  atomic energy  EATOM  =     15501.99929693
  Solvation  Ediel_sol  =         0.00000000
  ---------------------------------------------------
  free energy    TOTEN  =      -228.25902999 eV

  energy without entropy =     -228.25902999  energy(sigma->0) =     -228.25902999


--------------------------------------------------------------------------------------------------------




--------------------------------------- Iteration      1(  13)  ---------------------------------------


    POTLOK:  cpu time      0.4121: real time      0.4122
    SETDIJ:  cpu time      7.4821: real time      7.4829
     EDDAV:  cpu time     42.9758: real time     42.9827
 BZINTS: Fermi energy:    0.116147;  336.000000 electrons
         Band energy:-0.200149E+04;  BLOECHL correction:    0.000000
       DOS:  cpu time      0.0255: real time      0.0255
    CHARGE:  cpu time      6.5969: real time      6.5976
    MIXING:  cpu time      0.0104: real time      0.0104
    --------------------------------------------
      LOOP:  cpu time     57.5028: real time     57.5113

 eigenvalue-minimisations  :  9568
 total energy-change (2. order) :-0.1055341E+01  (-0.1338769E+00)
 number of electron     335.9999997 magnetization       0.8912129
 augmentation part      -46.9736135 magnetization       0.9172597

 Broyden mixing:
  rms(total) = 0.93161E-01    rms(broyden)= 0.93161E-01
  rms(prec ) = 0.99982E-01
  weight for this iteration     100.00

 eigenvalues of (default mixing * dielectric matrix)
  average eigenvalue GAMMA=   1.5510
  3.3212  3.3212  1.5826  1.2851  0.9266  0.6996  0.6996  0.5721

 Free energy of the ion-electron system (eV)
  ---------------------------------------------------
  alpha Z        PSCENC =       253.99581917
  Ewald energy   TEWEN  =     -9970.72851269
  -Hartree energ DENC   =     -4878.00735100
  -exchange      EXHF   =         0.00000000
  -V(xc)+E(xc)   XCENC  =       690.10546535
  PAW double counting   =     39152.64915747   -38977.84293547
  entropy T*S    EENTRO =         0.00000000
  eigenvalues    EBANDS =     -2001.48531063
  atomic energy  EATOM  =     15501.99929693
  Solvation  Ediel_sol  =         0.00000000
  ---------------------------------------------------
  free energy    TOTEN  =      -229.31437085 eV

  energy without entropy =     -229.31437085  energy(sigma->0) =     -229.31437085


--------------------------------------------------------------------------------------------------------




--------------------------------------- Iteration      1(  14)  ---------------------------------------


    POTLOK:  cpu time      0.4099: real time      0.4101
    SETDIJ:  cpu time      6.8387: real time      6.8395
     EDDAV:  cpu time     40.8736: real time     40.8825
 BZINTS: Fermi energy:    0.080504;  336.000000 electrons
         Band energy:-0.201198E+04;  BLOECHL correction:    0.000000
       DOS:  cpu time      0.0255: real time      0.0256
    CHARGE:  cpu time      3.4490: real time      3.4494
    MIXING:  cpu time      0.0112: real time      0.0112
    --------------------------------------------
      LOOP:  cpu time     51.6080: real time     51.6183

 eigenvalue-minimisations  :  8960
 total energy-change (2. order) :-0.6547413E-01  (-0.1630264E-01)
 number of electron     335.9999997 magnetization       0.4182344
 augmentation part      -47.0007571 magnetization       0.4252639

 Broyden mixing:
  rms(total) = 0.43844E-01    rms(broyden)= 0.43844E-01
  rms(prec ) = 0.46546E-01
  weight for this iteration     100.00

 eigenvalues of (default mixing * dielectric matrix)
  average eigenvalue GAMMA=   1.5782
  4.1288  2.5564  2.5564  1.0966  1.0966  0.7710  0.7710  0.5747  0.6519

 Free energy of the ion-electron system (eV)
  ---------------------------------------------------
  alpha Z        PSCENC =       253.99581917
  Ewald energy   TEWEN  =     -9970.72851269
  -Hartree energ DENC   =     -4866.62333678
  -exchange      EXHF   =         0.00000000
  -V(xc)+E(xc)   XCENC  =       689.19106078
  PAW double counting   =     39090.54058180   -38915.77926078
  entropy T*S    EENTRO =         0.00000000
  eigenvalues    EBANDS =     -2011.97549342
  atomic energy  EATOM  =     15501.99929693
  Solvation  Ediel_sol  =         0.00000000
  ---------------------------------------------------
  free energy    TOTEN  =      -229.37984499 eV

  energy without entropy =     -229.37984499  energy(sigma->0) =     -229.37984499


--------------------------------------------------------------------------------------------------------




--------------------------------------- Iteration      1(  15)  ---------------------------------------


    POTLOK:  cpu time      0.4137: real time      0.4138
    SETDIJ:  cpu time     10.0061: real time     10.0070
     EDDAV:  cpu time     42.7197: real time     42.7265
 BZINTS: Fermi energy:    0.078585;  336.000000 electrons
         Band energy:-0.201169E+04;  BLOECHL correction:    0.000000
       DOS:  cpu time      0.0255: real time      0.0255
    CHARGE:  cpu time      7.3710: real time      7.3718
    MIXING:  cpu time      0.0084: real time      0.0084
    --------------------------------------------
      LOOP:  cpu time     60.5443: real time     60.5531

 eigenvalue-minimisations  :  9568
 total energy-change (2. order) : 0.1226408E-02  (-0.2076522E-02)
 number of electron     335.9999997 magnetization       0.1725040
 augmentation part      -46.9946718 magnetization       0.1767882

 Broyden mixing:
  rms(total) = 0.20244E-01    rms(broyden)= 0.20244E-01
  rms(prec ) = 0.21824E-01
  weight for this iteration     100.00

 eigenvalues of (default mixing * dielectric matrix)
  average eigenvalue GAMMA=   1.5645
  4.5521  2.5278  2.5278  1.3332  0.9969  0.9969  0.7586  0.7586  0.6240  0.5691

 Free energy of the ion-electron system (eV)
  ---------------------------------------------------
  alpha Z        PSCENC =       253.99581917
  Ewald energy   TEWEN  =     -9970.72851269
  -Hartree energ DENC   =     -4866.78586316
  -exchange      EXHF   =         0.00000000
  -V(xc)+E(xc)   XCENC  =       689.15223884
  PAW double counting   =     39176.24150728   -39001.56726909
  entropy T*S    EENTRO =         0.00000000
  eigenvalues    EBANDS =     -2011.68583585
  atomic energy  EATOM  =     15501.99929693
  Solvation  Ediel_sol  =         0.00000000
  ---------------------------------------------------
  free energy    TOTEN  =      -229.37861858 eV

  energy without entropy =     -229.37861858  energy(sigma->0) =     -229.37861858


--------------------------------------------------------------------------------------------------------




--------------------------------------- Iteration      1(  16)  ---------------------------------------


    POTLOK:  cpu time      0.4075: real time      0.4077
    SETDIJ:  cpu time     10.0534: real time     10.0542
     EDDAV:  cpu time     43.0001: real time     43.0070
 BZINTS: Fermi energy:    0.076574;  336.000000 electrons
         Band energy:-0.201214E+04;  BLOECHL correction:    0.000000
       DOS:  cpu time      0.0255: real time      0.0256
    CHARGE:  cpu time     10.1868: real time     10.1880
    MIXING:  cpu time      0.0088: real time      0.0088
    --------------------------------------------
      LOOP:  cpu time     63.6821: real time     63.6912

 eigenvalue-minimisations  :  9088
 total energy-change (2. order) : 0.3118711E-02  (-0.5523381E-03)
 number of electron     335.9999997 magnetization       0.0696329
 augmentation part      -46.9934931 magnetization       0.0704357

 Broyden mixing:
  rms(total) = 0.12345E-01    rms(broyden)= 0.12345E-01
  rms(prec ) = 0.13357E-01
  weight for this iteration     100.00

 eigenvalues of (default mixing * dielectric matrix)
  average eigenvalue GAMMA=   1.5464
  4.7581  2.4274  2.4274  1.8403  0.9956  0.9956  0.9225  0.7280  0.7280  0.5805
  0.6070

 Free energy of the ion-electron system (eV)
  ---------------------------------------------------
  alpha Z        PSCENC =       253.99581917
  Ewald energy   TEWEN  =     -9970.72851269
  -Hartree energ DENC   =     -4866.23199199
  -exchange      EXHF   =         0.00000000
  -V(xc)+E(xc)   XCENC  =       689.08440078
  PAW double counting   =     39146.51622101   -38971.86602169
  entropy T*S    EENTRO =         0.00000000
  eigenvalues    EBANDS =     -2012.14471139
  atomic energy  EATOM  =     15501.99929693
  Solvation  Ediel_sol  =         0.00000000
  ---------------------------------------------------
  free energy    TOTEN  =      -229.37549987 eV

  energy without entropy =     -229.37549987  energy(sigma->0) =     -229.37549987


--------------------------------------------------------------------------------------------------------




--------------------------------------- Iteration      1(  17)  ---------------------------------------


    POTLOK:  cpu time      0.3991: real time      0.3993
    SETDIJ:  cpu time     10.7963: real time     10.7972
     EDDAV:  cpu time     42.4294: real time     42.4363
 BZINTS: Fermi energy:    0.078355;  336.000000 electrons
         Band energy:-0.201122E+04;  BLOECHL correction:    0.000000
       DOS:  cpu time      0.0263: real time      0.0264
    CHARGE:  cpu time     10.3885: real time     10.3896
    MIXING:  cpu time      0.0107: real time      0.0107
    --------------------------------------------
      LOOP:  cpu time     64.0504: real time     64.0594

 eigenvalue-minimisations  :  9504
 total energy-change (2. order) :-0.5019643E-03  (-0.1193913E-03)
 number of electron     335.9999997 magnetization       0.0178343
 augmentation part      -46.9884377 magnetization       0.0182260

 Broyden mixing:
  rms(total) = 0.49337E-02    rms(broyden)= 0.49337E-02
  rms(prec ) = 0.55371E-02
  weight for this iteration     100.00

 eigenvalues of (default mixing * dielectric matrix)
  average eigenvalue GAMMA=   1.5757
  4.9481  2.6009  2.6009  2.2004  1.1772  0.9959  0.9959  0.7618  0.7618  0.6811
  0.5868  0.5979

 Free energy of the ion-electron system (eV)
  ---------------------------------------------------
  alpha Z        PSCENC =       253.99581917
  Ewald energy   TEWEN  =     -9970.72851269
  -Hartree energ DENC   =     -4867.19034311
  -exchange      EXHF   =         0.00000000
  -V(xc)+E(xc)   XCENC  =       689.14406381
  PAW double counting   =     39187.33002279   -39012.70404035
  entropy T*S    EENTRO =         0.00000000
  eigenvalues    EBANDS =     -2011.22230838
  atomic energy  EATOM  =     15501.99929693
  Solvation  Ediel_sol  =         0.00000000
  ---------------------------------------------------
  free energy    TOTEN  =      -229.37600183 eV

  energy without entropy =     -229.37600183  energy(sigma->0) =     -229.37600183


--------------------------------------------------------------------------------------------------------




--------------------------------------- Iteration      1(  18)  ---------------------------------------


    POTLOK:  cpu time      0.4015: real time      0.4049
    SETDIJ:  cpu time      2.6690: real time      2.6693
     EDDAV:  cpu time     44.1707: real time     44.1777
 BZINTS: Fermi energy:    0.079773;  336.000000 electrons
         Band energy:-0.201069E+04;  BLOECHL correction:    0.000000
       DOS:  cpu time      0.0255: real time      0.0256
    CHARGE:  cpu time      3.6269: real time      3.6273
    MIXING:  cpu time      0.0119: real time      0.0119
    --------------------------------------------
      LOOP:  cpu time     50.9056: real time     50.9167

 eigenvalue-minimisations  :  9472
 total energy-change (2. order) :-0.1158321E-03  (-0.3968863E-04)
 number of electron     335.9999997 magnetization       0.0051315
 augmentation part      -46.9850860 magnetization       0.0056721

 Broyden mixing:
  rms(total) = 0.44651E-02    rms(broyden)= 0.44651E-02
  rms(prec ) = 0.47186E-02
  weight for this iteration     100.00

 eigenvalues of (default mixing * dielectric matrix)
  average eigenvalue GAMMA=   1.5443
  5.0023  2.6448  2.6448  2.2630  1.1303  1.1303  0.9906  0.9906  0.7251  0.7251
  0.5782  0.6443  0.6067

 Free energy of the ion-electron system (eV)
  ---------------------------------------------------
  alpha Z        PSCENC =       253.99581917
  Ewald energy   TEWEN  =     -9970.72851269
  -Hartree energ DENC   =     -4867.73845497
  -exchange      EXHF   =         0.00000000
  -V(xc)+E(xc)   XCENC  =       689.17965075
  PAW double counting   =     39216.23622806   -39041.62515978
  entropy T*S    EENTRO =         0.00000000
  eigenvalues    EBANDS =     -2010.69498514
  atomic energy  EATOM  =     15501.99929693
  Solvation  Ediel_sol  =         0.00000000
  ---------------------------------------------------
  free energy    TOTEN  =      -229.37611766 eV

  energy without entropy =     -229.37611766  energy(sigma->0) =     -229.37611766


--------------------------------------------------------------------------------------------------------




--------------------------------------- Iteration      1(  19)  ---------------------------------------


    POTLOK:  cpu time      0.3976: real time      0.3979
    SETDIJ:  cpu time      2.1273: real time      2.1276
     EDDAV:  cpu time     43.2021: real time     43.2090
 BZINTS: Fermi energy:    0.078799;  336.000000 electrons
         Band energy:-0.201096E+04;  BLOECHL correction:    0.000000
       DOS:  cpu time      0.0263: real time      0.0264
    CHARGE:  cpu time      9.6103: real time      9.6115
    MIXING:  cpu time      0.0087: real time      0.0087
    --------------------------------------------
      LOOP:  cpu time     55.3724: real time     55.3811

 eigenvalue-minimisations  :  9760
 total energy-change (2. order) :-0.6336573E-05  (-0.6222915E-05)
 number of electron     335.9999997 magnetization      -0.0005554
 augmentation part      -46.9859186 magnetization      -0.0003131

 Broyden mixing:
  rms(total) = 0.20249E-02    rms(broyden)= 0.20248E-02
  rms(prec ) = 0.22004E-02
  weight for this iteration     100.00

 eigenvalues of (default mixing * dielectric matrix)
  average eigenvalue GAMMA=   1.5453
  5.0453  2.7066  2.7066  2.1094  1.4079  1.4079  1.0330  1.0330  0.8577  0.7537
  0.7537  0.5796  0.6094  0.6306

 Free energy of the ion-electron system (eV)
  ---------------------------------------------------
  alpha Z        PSCENC =       253.99581917
  Ewald energy   TEWEN  =     -9970.72851269
  -Hartree energ DENC   =     -4867.46386028
  -exchange      EXHF   =         0.00000000
  -V(xc)+E(xc)   XCENC  =       689.16271150
  PAW double counting   =     39214.85981453   -39040.24561387
  entropy T*S    EENTRO =         0.00000000
  eigenvalues    EBANDS =     -2010.95577928
  atomic energy  EATOM  =     15501.99929693
  Solvation  Ediel_sol  =         0.00000000
  ---------------------------------------------------
  free energy    TOTEN  =      -229.37612400 eV

  energy without entropy =     -229.37612400  energy(sigma->0) =     -229.37612400


--------------------------------------------------------------------------------------------------------




--------------------------------------- Iteration      1(  20)  ---------------------------------------


    POTLOK:  cpu time      0.3892: real time      0.3898
    SETDIJ:  cpu time      6.1063: real time      6.1069
     EDDAV:  cpu time     41.3086: real time     41.3155
 BZINTS: Fermi energy:    0.078493;  336.000000 electrons
         Band energy:-0.201109E+04;  BLOECHL correction:    0.000000
       DOS:  cpu time      0.0264: real time      0.0264
    CHARGE:  cpu time      6.3197: real time      6.3204
    MIXING:  cpu time      0.0100: real time      0.0100
    --------------------------------------------
      LOOP:  cpu time     54.1602: real time     54.1690

 eigenvalue-minimisations  :  9152
 total energy-change (2. order) :-0.1052596E-04  (-0.3471366E-05)
 number of electron     335.9999997 magnetization      -0.0016468
 augmentation part      -46.9864493 magnetization      -0.0015685

 Broyden mixing:
  rms(total) = 0.95203E-03    rms(broyden)= 0.95191E-03
  rms(prec ) = 0.10114E-02
  weight for this iteration     100.00

 eigenvalues of (default mixing * dielectric matrix)
  average eigenvalue GAMMA=   1.5469
  5.0953  2.7080  2.7080  2.0978  2.0978  1.2312  1.2312  0.9897  0.9897  0.7798
  0.7330  0.7330  0.5776  0.6158  0.6158

 Free energy of the ion-electron system (eV)
  ---------------------------------------------------
  alpha Z        PSCENC =       253.99581917
  Ewald energy   TEWEN  =     -9970.72851269
  -Hartree energ DENC   =     -4867.32042022
  -exchange      EXHF   =         0.00000000
  -V(xc)+E(xc)   XCENC  =       689.15565324
  PAW double counting   =     39220.01743849   -39045.40132007
  entropy T*S    EENTRO =         0.00000000
  eigenvalues    EBANDS =     -2011.09408938
  atomic energy  EATOM  =     15501.99929693
  Solvation  Ediel_sol  =         0.00000000
  ---------------------------------------------------
  free energy    TOTEN  =      -229.37613453 eV

  energy without entropy =     -229.37613453  energy(sigma->0) =     -229.37613453


--------------------------------------------------------------------------------------------------------




--------------------------------------- Iteration      1(  21)  ---------------------------------------


    POTLOK:  cpu time      0.3947: real time      0.3949
    SETDIJ:  cpu time      9.1354: real time      9.1365
     EDDAV:  cpu time     41.5338: real time     41.5402
 BZINTS: Fermi energy:    0.078475;  336.000000 electrons
         Band energy:-0.201115E+04;  BLOECHL correction:    0.000000
       DOS:  cpu time      0.0259: real time      0.0260
    CHARGE:  cpu time      2.7732: real time      2.7737
    MIXING:  cpu time      0.0121: real time      0.0121
    --------------------------------------------
      LOOP:  cpu time     53.8752: real time     53.8833

 eigenvalue-minimisations  :  9280
 total energy-change (2. order) : 0.1136272E-05  (-0.8858203E-06)
 number of electron     335.9999997 magnetization      -0.0013507
 augmentation part      -46.9866459 magnetization      -0.0013547

 Broyden mixing:
  rms(total) = 0.42608E-03    rms(broyden)= 0.42581E-03
  rms(prec ) = 0.44825E-03
  weight for this iteration     100.00

 eigenvalues of (default mixing * dielectric matrix)
  average eigenvalue GAMMA=   1.5117
  5.0970  2.6677  2.6677  2.5698  1.6167  1.3952  1.1551  1.1551  0.9284  0.9284
  0.7393  0.7393  0.7250  0.5773  0.6125  0.6125

 Free energy of the ion-electron system (eV)
  ---------------------------------------------------
  alpha Z        PSCENC =       253.99581917
  Ewald energy   TEWEN  =     -9970.72851269
  -Hartree energ DENC   =     -4867.26095316
  -exchange      EXHF   =         0.00000000
  -V(xc)+E(xc)   XCENC  =       689.15201235
  PAW double counting   =     39219.45954542   -39044.84260467
  entropy T*S    EENTRO =         0.00000000
  eigenvalues    EBANDS =     -2011.15073674
  atomic energy  EATOM  =     15501.99929693
  Solvation  Ediel_sol  =         0.00000000
  ---------------------------------------------------
  free energy    TOTEN  =      -229.37613339 eV

  energy without entropy =     -229.37613339  energy(sigma->0) =     -229.37613339


--------------------------------------------------------------------------------------------------------




--------------------------------------- Iteration      1(  22)  ---------------------------------------


    POTLOK:  cpu time      0.3918: real time      0.3952
    SETDIJ:  cpu time      9.9756: real time      9.9767
     EDDAV:  cpu time     48.5971: real time     48.6043
 BZINTS: Fermi energy:    0.078322;  336.000000 electrons
         Band energy:-0.201117E+04;  BLOECHL correction:    0.000000
       DOS:  cpu time      0.0255: real time      0.0256
    CHARGE:  cpu time      6.8871: real time      6.8879
    MIXING:  cpu time      0.0090: real time      0.0090
    --------------------------------------------
      LOOP:  cpu time     65.8860: real time     65.8987

 eigenvalue-minimisations  :  9792
 total energy-change (2. order) : 0.4478388E-06  (-0.1402261E-06)
 number of electron     335.9999997 magnetization      -0.0004779
 augmentation part      -46.9867150 magnetization      -0.0004994

 Broyden mixing:
  rms(total) = 0.23176E-03    rms(broyden)= 0.23126E-03
  rms(prec ) = 0.24601E-03
  weight for this iteration     100.00

 eigenvalues of (default mixing * dielectric matrix)
  average eigenvalue GAMMA=   1.5002
  5.0913  2.6567  2.6567  2.6223  1.6715  1.4378  1.4378  1.0834  1.0834  0.9005
  0.9005  0.7424  0.7424  0.6735  0.5784  0.6126  0.6126

 Free energy of the ion-electron system (eV)
  ---------------------------------------------------
  alpha Z        PSCENC =       253.99581917
  Ewald energy   TEWEN  =     -9970.72851269
  -Hartree energ DENC   =     -4867.23924304
  -exchange      EXHF   =         0.00000000
  -V(xc)+E(xc)   XCENC  =       689.15042576
  PAW double counting   =     39218.04389727   -39043.42665034
  entropy T*S    EENTRO =         0.00000000
  eigenvalues    EBANDS =     -2011.17116599
  atomic energy  EATOM  =     15501.99929693
  Solvation  Ediel_sol  =         0.00000000
  ---------------------------------------------------
  free energy    TOTEN  =      -229.37613294 eV

  energy without entropy =     -229.37613294  energy(sigma->0) =     -229.37613294


--------------------------------------------------------------------------------------------------------




--------------------------------------- Iteration      1(  23)  ---------------------------------------


    POTLOK:  cpu time      0.3942: real time      0.3944
    SETDIJ:  cpu time      6.3991: real time      6.4000
     EDDAV:  cpu time     41.4102: real time     41.4165
 BZINTS: Fermi energy:    0.078381;  336.000000 electrons
         Band energy:-0.201117E+04;  BLOECHL correction:    0.000000
       DOS:  cpu time      0.0255: real time      0.0256
    CHARGE:  cpu time      4.9245: real time      4.9255
    MIXING:  cpu time      0.0088: real time      0.0088
    --------------------------------------------
      LOOP:  cpu time     53.1623: real time     53.1707

 eigenvalue-minimisations  :  9216
 total energy-change (2. order) :-0.2309644E-06  (-0.5716649E-07)
 number of electron     335.9999997 magnetization      -0.0002604
 augmentation part      -46.9866882 magnetization      -0.0002567

 Broyden mixing:
[...]

  length of vectors
    10.314108670 16.788494411 10.846477853     0.097707938  0.059564603  0.092912216


 FORCES acting on ions
    electron-ion (+dipol)            ewald-force                    non-local-force                 convergence-correction
 -----------------------------------------------------------------------------------------------
   0.986E+02 -.105E+03 -.125E+02   -.104E+03 0.113E+03 0.112E+02   0.495E+01 -.888E+01 0.132E+01   0.173E-05 -.285E-06 0.787E-06
   0.987E+02 -.105E+03 -.125E+02   -.104E+03 0.113E+03 0.112E+02   0.495E+01 -.888E+01 0.132E+01   0.167E-05 -.304E-06 0.810E-06
   -.122E+02 0.419E+02 -.127E+03   0.124E+02 -.471E+02 0.134E+03   -.270E+00 0.520E+01 -.701E+01   0.115E-06 0.534E-08 -.122E-05
   -.124E+02 0.420E+02 -.127E+03   0.126E+02 -.472E+02 0.134E+03   -.246E+00 0.519E+01 -.705E+01   0.108E-06 0.424E-07 -.128E-05
   -.211E+02 -.902E+02 0.981E+02   0.198E+02 0.990E+02 -.103E+03   0.134E+01 -.874E+01 0.530E+01   -.595E-07 -.803E-07 0.186E-05
   -.211E+02 -.902E+02 0.981E+02   0.198E+02 0.989E+02 -.103E+03   0.134E+01 -.874E+01 0.530E+01   -.323E-07 -.704E-07 0.190E-05
   -.108E+03 0.960E+02 0.718E+01   0.113E+03 -.102E+03 -.506E+01   -.528E+01 0.583E+01 -.220E+01   -.167E-05 -.641E-07 0.697E-06
   -.108E+03 0.950E+02 0.626E+01   0.114E+03 -.101E+03 -.414E+01   -.534E+01 0.592E+01 -.212E+01   -.177E-05 0.165E-08 0.675E-06
   0.136E+03 -.540E+02 -.188E+02   -.143E+03 0.595E+02 0.194E+02   0.680E+01 -.552E+01 -.558E+00   0.161E-05 -.193E-07 -.102E-05
   0.136E+03 -.540E+02 -.187E+02   -.143E+03 0.595E+02 0.193E+02   0.680E+01 -.552E+01 -.558E+00   0.159E-05 0.917E-09 -.101E-05
   -.136E+03 0.539E+02 0.188E+02   0.143E+03 -.595E+02 -.193E+02   -.680E+01 0.552E+01 0.558E+00   -.159E-05 -.938E-08 0.103E-05
   -.136E+03 0.540E+02 0.187E+02   0.143E+03 -.595E+02 -.193E+02   -.680E+01 0.552E+01 0.558E+00   -.162E-05 -.344E-07 0.102E-05
   0.108E+03 -.950E+02 -.629E+01   -.114E+03 0.101E+03 0.417E+01   0.534E+01 -.592E+01 0.212E+01   0.169E-05 0.455E-07 -.684E-06
   0.108E+03 -.950E+02 -.626E+01   -.114E+03 0.101E+03 0.414E+01   0.534E+01 -.592E+01 0.212E+01   0.173E-05 0.110E-07 -.660E-06
   -.124E+02 -.420E+02 0.127E+03   0.127E+02 0.472E+02 -.134E+03   -.245E+00 -.519E+01 0.705E+01   0.123E-06 0.170E-07 0.117E-05
   -.123E+02 -.420E+02 0.127E+03   0.126E+02 0.472E+02 -.134E+03   -.246E+00 -.519E+01 0.705E+01   0.738E-07 0.350E-07 0.119E-05
   0.210E+02 -.901E+02 0.981E+02   -.197E+02 0.989E+02 -.103E+03   -.134E+01 -.874E+01 0.529E+01   0.397E-07 -.507E-08 0.184E-05
   0.211E+02 -.902E+02 0.981E+02   -.198E+02 0.989E+02 -.103E+03   -.134E+01 -.874E+01 0.530E+01   0.775E-07 -.940E-09 0.188E-05
   -.985E+02 -.106E+03 -.126E+02   0.103E+03 0.114E+03 0.112E+02   -.496E+01 -.877E+01 0.139E+01   -.166E-05 -.215E-06 0.800E-06
   -.986E+02 -.105E+03 -.125E+02   0.104E+03 0.113E+03 0.112E+02   -.495E+01 -.888E+01 0.132E+01   -.173E-05 -.201E-06 0.760E-06
   -.136E+03 -.539E+02 -.187E+02   0.143E+03 0.595E+02 0.193E+02   -.680E+01 -.552E+01 -.558E+00   -.158E-05 -.241E-07 -.101E-05
   -.136E+03 -.540E+02 -.187E+02   0.143E+03 0.595E+02 0.193E+02   -.680E+01 -.552E+01 -.558E+00   -.164E-05 -.210E-07 -.101E-05
   0.124E+02 0.420E+02 -.127E+03   -.126E+02 -.472E+02 0.134E+03   0.246E+00 0.519E+01 -.705E+01   -.115E-06 -.406E-07 -.120E-05
   0.123E+02 0.420E+02 -.127E+03   -.126E+02 -.472E+02 0.134E+03   0.246E+00 0.519E+01 -.705E+01   -.801E-07 -.578E-07 -.124E-05
   -.108E+03 -.950E+02 -.629E+01   0.114E+03 0.101E+03 0.417E+01   -.534E+01 -.592E+01 0.212E+01   -.173E-05 0.103E-06 -.688E-06
   -.108E+03 -.950E+02 -.629E+01   0.114E+03 0.101E+03 0.417E+01   -.534E+01 -.592E+01 0.212E+01   -.168E-05 0.114E-06 -.671E-06
   0.986E+02 0.105E+03 0.125E+02   -.104E+03 -.113E+03 -.112E+02   0.495E+01 0.888E+01 -.132E+01   0.169E-05 0.271E-06 -.811E-06
   0.986E+02 0.105E+03 0.125E+02   -.104E+03 -.113E+03 -.112E+02   0.495E+01 0.888E+01 -.132E+01   0.171E-05 0.247E-06 -.807E-06
   -.986E+02 0.105E+03 0.125E+02   0.104E+03 -.113E+03 -.112E+02   -.495E+01 0.888E+01 -.132E+01   -.170E-05 0.239E-06 -.796E-06
   -.987E+02 0.105E+03 0.125E+02   0.104E+03 -.113E+03 -.112E+02   -.495E+01 0.888E+01 -.132E+01   -.167E-05 0.254E-06 -.819E-06
   0.728E+02 0.962E+02 0.631E+02   -.755E+02 -.106E+03 -.652E+02   0.274E+01 0.971E+01 0.207E+01   0.866E-06 0.405E-06 0.523E-06
   0.728E+02 0.961E+02 0.632E+02   -.755E+02 -.106E+03 -.653E+02   0.274E+01 0.971E+01 0.207E+01   0.843E-06 0.396E-06 0.535E-06
   0.218E+02 -.938E+02 -.889E+02   -.205E+02 0.100E+03 0.940E+02   -.133E+01 -.628E+01 -.509E+01   0.290E-06 0.917E-07 -.146E-05
   0.218E+02 -.938E+02 -.889E+02   -.205E+02 0.100E+03 0.940E+02   -.133E+01 -.628E+01 -.509E+01   0.275E-06 0.543E-07 -.146E-05
   -.211E+02 0.902E+02 -.981E+02   0.198E+02 -.990E+02 0.103E+03   0.134E+01 0.874E+01 -.530E+01   -.398E-07 0.579E-07 -.183E-05
   -.211E+02 0.902E+02 -.981E+02   0.198E+02 -.989E+02 0.103E+03   0.134E+01 0.874E+01 -.530E+01   -.101E-06 0.574E-07 -.183E-05
   -.224E+02 0.938E+02 0.886E+02   0.212E+02 -.100E+03 -.937E+02   0.129E+01 0.626E+01 0.506E+01   -.279E-06 -.110E-06 0.148E-05
   -.218E+02 0.938E+02 0.889E+02   0.205E+02 -.100E+03 -.940E+02   0.133E+01 0.628E+01 0.509E+01   -.300E-06 -.603E-07 0.152E-05
   0.212E+02 0.901E+02 -.982E+02   -.198E+02 -.989E+02 0.103E+03   -.134E+01 0.874E+01 -.530E+01   0.779E-07 0.431E-07 -.183E-05
   0.211E+02 0.902E+02 -.981E+02   -.198E+02 -.989E+02 0.103E+03   -.134E+01 0.874E+01 -.530E+01   0.297E-07 0.331E-07 -.183E-05
   0.728E+02 -.962E+02 -.632E+02   -.756E+02 0.106E+03 0.653E+02   0.275E+01 -.971E+01 -.207E+01   0.843E-06 -.400E-06 -.538E-06
   0.728E+02 -.962E+02 -.632E+02   -.755E+02 0.106E+03 0.653E+02   0.274E+01 -.971E+01 -.207E+01   0.898E-06 -.397E-06 -.587E-06
   0.136E+03 0.540E+02 0.188E+02   -.143E+03 -.595E+02 -.193E+02   0.680E+01 0.552E+01 0.553E+00   0.157E-05 0.466E-07 0.101E-05
   0.136E+03 0.540E+02 0.187E+02   -.143E+03 -.595E+02 -.193E+02   0.680E+01 0.552E+01 0.558E+00   0.166E-05 0.448E-07 0.101E-05
   0.108E+03 0.950E+02 0.629E+01   -.114E+03 -.101E+03 -.417E+01   0.534E+01 0.592E+01 -.212E+01   0.175E-05 -.821E-07 0.696E-06
   0.108E+03 0.950E+02 0.626E+01   -.114E+03 -.101E+03 -.414E+01   0.534E+01 0.592E+01 -.212E+01   0.166E-05 -.103E-06 0.695E-06
   -.727E+02 -.961E+02 -.632E+02   0.755E+02 0.106E+03 0.653E+02   -.274E+01 -.971E+01 -.207E+01   -.855E-06 -.458E-06 -.529E-06
   -.728E+02 -.961E+02 -.632E+02   0.755E+02 0.106E+03 0.653E+02   -.274E+01 -.971E+01 -.207E+01   -.867E-06 -.453E-06 -.576E-06
   -.217E+02 -.938E+02 -.890E+02   0.204E+02 0.100E+03 0.941E+02   0.133E+01 -.628E+01 -.509E+01   -.253E-06 0.139E-06 -.144E-05
   -.218E+02 -.938E+02 -.889E+02   0.205E+02 0.100E+03 0.940E+02   0.133E+01 -.628E+01 -.509E+01   -.324E-06 0.159E-06 -.148E-05
   0.218E+02 0.938E+02 0.889E+02   -.205E+02 -.100E+03 -.940E+02   -.133E+01 0.628E+01 0.509E+01   0.263E-06 -.142E-06 0.147E-05
   0.218E+02 0.938E+02 0.889E+02   -.205E+02 -.100E+03 -.940E+02   -.133E+01 0.628E+01 0.509E+01   0.326E-06 -.148E-06 0.152E-05
   -.728E+02 0.961E+02 0.632E+02   0.755E+02 -.106E+03 -.653E+02   -.274E+01 0.971E+01 0.207E+01   -.845E-06 0.443E-06 0.507E-06
   -.728E+02 0.961E+02 0.632E+02   0.755E+02 -.106E+03 -.653E+02   -.274E+01 0.971E+01 0.207E+01   -.903E-06 0.448E-06 0.536E-06
   0.124E+02 -.420E+02 0.127E+03   -.126E+02 0.472E+02 -.134E+03   0.246E+00 -.519E+01 0.705E+01   -.897E-07 0.114E-07 0.119E-05
   0.124E+02 -.420E+02 0.127E+03   -.126E+02 0.472E+02 -.134E+03   0.246E+00 -.519E+01 0.705E+01   -.130E-06 -.243E-07 0.120E-05
 -----------------------------------------------------------------------------------------------
   0.514E-02 -.859E-02 0.178E-01   0.711E-14 -.284E-13 -.568E-13   -.513E-02 0.860E-02 -.178E-01   -.153E-08 0.706E-08 0.357E-08


 POSITION                                       TOTAL-FORCE (eV/Angst)
 -----------------------------------------------------------------------------------
      7.84031      7.96182     -7.59135         0.002536     -0.001277      0.000984
     16.23455      7.96182     -7.59135         0.002479     -0.001206      0.000905
      3.16872      2.44282     -6.01943        -0.014065      0.006102      0.009471
     11.56297      2.44282     -6.01943         0.002150     -0.000905     -0.002504
      1.76685      7.82725    -10.10485        -0.000196      0.000237     -0.000657
     10.16110      7.82725    -10.10485        -0.000086     -0.000001     -0.000423
      5.05050      1.12722     -8.39446         0.000745     -0.080158     -0.082143
     13.44475      1.12562     -8.40433         0.001544     -0.000590     -0.000663
      5.13205      1.09979     -2.45651        -0.000125      0.000577     -0.000042
     13.52630      1.09979     -2.45651        -0.000107      0.000450     -0.000251
      3.26219      7.47505     -8.62356         0.000285     -0.000513      0.000399
     11.65644      7.47505     -8.62356         0.000084     -0.000453      0.000283
      3.34375      7.44923     -2.67574        -0.001498      0.000592      0.000677
     11.73799      7.44923     -2.67574        -0.001593      0.000657      0.000702
      7.36585      0.97835     -4.87422         0.002377      0.000627      0.002600
     15.76010      0.97835     -4.87422         0.002104      0.000860      0.002457
      2.43027      2.67356     -9.91842         0.010706     -0.008472      0.005330
     10.82452      2.67356     -9.91842         0.000122      0.000007     -0.000539
      4.75106      2.80814     -7.40493        -0.010026      0.074294      0.040718
     13.14531      2.80814     -7.40493        -0.002463     -0.001299      0.000912
      7.45932      6.25348     -2.64294         0.000227      0.000493     -0.000271
     15.85356      6.25348     -2.64294         0.000068      0.000457     -0.000292
      1.02840      7.59650     -6.20585        -0.002136     -0.001048     -0.002439
      9.42265      7.59650     -6.20585        -0.002159     -0.000864     -0.002515
      0.85338      2.29554     -2.48931         0.001534      0.000439      0.000596
      9.24762      2.29554     -2.48931         0.001779      0.000473      0.000590
      3.64318      5.76671     -3.67515         0.002367      0.001241     -0.000949
     12.03743      5.76671     -3.67515         0.002471      0.001244     -0.000965
      0.55394      0.61303     -3.48872        -0.002464      0.001481     -0.000863
      8.94819      0.61303     -3.48872        -0.002362      0.001728     -0.000793
      5.79350     -0.03143     -4.03202        -0.001378      0.001763      0.000339
     14.18775     -0.03143     -4.03202        -0.001195      0.001774      0.000179
      4.85766      7.53946     -1.03917        -0.003944      0.002170     -0.000189
     13.25190      7.53946     -1.03917        -0.003918      0.002063     -0.000263
      5.96398      5.90128     -1.16165        -0.000131     -0.000176      0.000355
     14.35822      5.90128     -1.16165        -0.000071     -0.000023      0.000458
      3.53659      1.03539    -10.04090         0.019214      0.003895      0.022548
     11.93084      1.03539    -10.04090         0.003918     -0.002015      0.000279
      6.62739      0.74760     -0.97522         0.000233      0.000126      0.000407
     15.02164      0.74760     -0.97522         0.000042     -0.000009      0.000562
      1.59638      3.45260     -6.86163        -0.000935     -0.002214      0.002283
      9.99063      3.45260     -6.86163        -0.001199     -0.001731     -0.000177
      0.93493      2.32137     -8.43713        -0.001672     -0.000591     -0.000952
      9.32918      2.32137     -8.43713        -0.000110     -0.000548      0.000264
      7.54087      6.27930     -8.59076        -0.001594     -0.000634     -0.000740
     15.93512      6.27930     -8.59076        -0.001564     -0.000639     -0.000656
      2.60074      8.60628     -7.04805         0.000919     -0.001821     -0.000121
     10.99499      8.60628     -7.04805         0.001204     -0.001783     -0.000260
      7.73371      2.38578     -0.85274         0.003554      0.001693     -0.000402
     16.12796      2.38578     -0.85274         0.003970      0.002003     -0.000461
      0.66053      6.18907    -10.22733        -0.003831     -0.001973      0.000337
      9.05478      6.18907    -10.22733        -0.003902     -0.002048      0.000247
      6.79787      5.12225     -4.21845         0.001184      0.001852      0.000246
     15.19211      5.12225     -4.21845         0.001233      0.001760      0.000228
      5.22552      6.13203     -5.06065        -0.002195      0.001046      0.002628
     13.61977      6.13203     -5.06065        -0.002129      0.000889      0.002544
 -----------------------------------------------------------------------------------
    total drift:                                0.000001      0.000004      0.000004


--------------------------------------------------------------------------------------------------------



  FREE ENERGIE OF THE ION-ELECTRON SYSTEM (eV)
  ---------------------------------------------------
  free  energy   TOTEN  =      -229.37613298 eV

  energy  without entropy=     -229.37613298  energy(sigma->0) =     -229.37613298



--------------------------------------------------------------------------------------------------------


    POTLOK:  cpu time      4.1510: real time      4.1562


--------------------------------------------------------------------------------------------------------


     LOOP+:  cpu time   1991.1581: real time   1991.5233
    4ORBIT:  cpu time      0.0000: real time      0.0000



 total charge

# of ion       s       p       d       tot
------------------------------------------
    1        1.376   2.247   0.000   3.623
    2        1.376   2.247   0.000   3.623
    3        1.376   2.259   0.000   3.635
    4        1.376   2.258   0.000   3.635
    5        1.376   2.247   0.000   3.622
    6        1.376   2.247   0.000   3.623
    7        1.376   2.264   0.000   3.639
    8        1.375   2.262   0.000   3.638
    9        1.377   2.257   0.000   3.634
   10        1.377   2.257   0.000   3.634
   11        1.377   2.257   0.000   3.634
   12        1.377   2.257   0.000   3.634
   13        1.375   2.262   0.000   3.638
   14        1.375   2.262   0.000   3.638
   15        1.376   2.258   0.000   3.635
   16        1.376   2.258   0.000   3.635
   17        1.376   2.246   0.000   3.622
   18        1.376   2.247   0.000   3.623
   19        1.375   2.250   0.000   3.625
   20        1.376   2.247   0.000   3.623
   21        1.377   2.257   0.000   3.634
   22        1.377   2.257   0.000   3.634
   23        1.376   2.258   0.000   3.635
   24        1.376   2.258   0.000   3.635
   25        1.375   2.262   0.000   3.638
   26        1.375   2.262   0.000   3.638
   27        1.376   2.247   0.000   3.623
   28        1.376   2.247   0.000   3.623
   29        1.376   2.247   0.000   3.623
   30        1.376   2.247   0.000   3.623
   31        1.376   2.254   0.000   3.630
   32        1.376   2.254   0.000   3.630
   33        1.375   2.263   0.000   3.638
   34        1.375   2.263   0.000   3.638
   35        1.376   2.247   0.000   3.623
   36        1.376   2.247   0.000   3.623
   37        1.375   2.262   0.000   3.638
   38        1.375   2.263   0.000   3.638
   39        1.376   2.247   0.000   3.623
   40        1.376   2.247   0.000   3.623
   41        1.376   2.254   0.000   3.630
   42        1.376   2.254   0.000   3.630
   43        1.377   2.257   0.000   3.634
   44        1.377   2.257   0.000   3.634
   45        1.375   2.262   0.000   3.638
   46        1.375   2.262   0.000   3.638
   47        1.376   2.254   0.000   3.630
   48        1.376   2.254   0.000   3.630
   49        1.375   2.263   0.000   3.638
   50        1.375   2.263   0.000   3.638
   51        1.375   2.263   0.000   3.638
   52        1.375   2.263   0.000   3.638
   53        1.376   2.254   0.000   3.630
   54        1.376   2.254   0.000   3.630
   55        1.376   2.258   0.000   3.635
   56        1.376   2.258   0.000   3.635
--------------------------------------------------
tot         77.049 126.316   0.000 203.365



 magnetization (x)

# of ion       s       p       d       tot
------------------------------------------
    1        0.000   0.000   0.000   0.000
    2        0.000   0.000   0.000   0.000
    3        0.000   0.000   0.000   0.000
    4        0.000   0.000   0.000   0.000
    5        0.000   0.000   0.000   0.000
    6        0.000   0.000   0.000   0.000
    7        0.000   0.000   0.000   0.000
    8        0.000   0.000   0.000   0.000
    9        0.000   0.000   0.000   0.000
   10        0.000   0.000   0.000   0.000
   11        0.000   0.000   0.000   0.000
   12        0.000   0.000   0.000   0.000
   13        0.000   0.000   0.000   0.000
   14        0.000   0.000   0.000   0.000
   15        0.000   0.000   0.000   0.000
   16        0.000   0.000   0.000   0.000
   17        0.000   0.000   0.000   0.000
   18        0.000   0.000   0.000   0.000
   19        0.000   0.000   0.000   0.000
   20        0.000   0.000   0.000   0.000
   21        0.000   0.000   0.000   0.000
   22        0.000   0.000   0.000   0.000
   23        0.000   0.000   0.000   0.000
   24        0.000   0.000   0.000   0.000
   25        0.000   0.000   0.000   0.000
   26        0.000   0.000   0.000   0.000
   27        0.000   0.000   0.000   0.000
   28        0.000   0.000   0.000   0.000
   29        0.000   0.000   0.000   0.000
   30        0.000   0.000   0.000   0.000
   31        0.000   0.000   0.000   0.000
   32        0.000   0.000   0.000   0.000
   33        0.000   0.000   0.000   0.000
   34        0.000   0.000   0.000   0.000
   35        0.000   0.000   0.000   0.000
   36        0.000   0.000   0.000   0.000
   37        0.000   0.000   0.000   0.000
   38        0.000   0.000   0.000   0.000
   39        0.000   0.000   0.000   0.000
   40        0.000   0.000   0.000   0.000
   41        0.000   0.000   0.000   0.000
   42        0.000   0.000   0.000   0.000
   43        0.000   0.000   0.000   0.000
   44        0.000   0.000   0.000   0.000
   45        0.000   0.000   0.000   0.000
   46        0.000   0.000   0.000   0.000
   47        0.000   0.000   0.000   0.000
   48        0.000   0.000   0.000   0.000
   49        0.000   0.000   0.000   0.000
   50        0.000   0.000   0.000   0.000
   51        0.000   0.000   0.000   0.000
   52        0.000   0.000   0.000   0.000
   53        0.000   0.000   0.000   0.000
   54        0.000   0.000   0.000   0.000
   55        0.000   0.000   0.000   0.000
   56        0.000   0.000   0.000   0.000
--------------------------------------------------
tot          0.000   0.000   0.000   0.000

 BZINTS: Fermi energy:    0.078241;  336.000000 electrons
         Band energy:-0.201118E+04;  BLOECHL correction:    0.000000

 total amount of memory used by VASP MPI-rank0   322725. kBytes
=======================================================================

   base      :      30000. kBytes
   nonl-proj :      70692. kBytes
   fftplans  :      34504. kBytes
   grid      :      83442. kBytes
   one-center:        344. kBytes
   wavefun   :     103743. kBytes

  
  
 General timing and accounting informations for this job:
 ========================================================
  
                  Total CPU time used (sec):     2029.574
                            User time (sec):     2028.017
                          System time (sec):        1.557
                         Elapsed time (sec):     2030.796
  
                   Maximum memory used (kb):      604256.
                   Average memory used (kb):          N/A
  
                          Minor page faults:       761197
                          Major page faults:           62
                 Voluntary context switches:         5360
