 vasp.6.3.2 27Jun22 (build Mar 25 2024 10:42:18) complex                         
 executed on             LinuxGNU date 2024.03.31  15:49:30
 running on   32 total cores
 distrk:  each k-point on   32 cores,    1 groups
 distr:  one band on NCORE=   1 cores,   32 groups


--------------------------------------------------------------------------------------------------------


 INCAR:
   ISTART = 0
   ICHARG = 2
   PREC = Accurate
   IBRION = -1
   EDIFF = 0.000000001
   EDIFFG = -0.0005
   NSW = 0
   NELM = 100
   ENCUT = 520
   ISMEAR = -5
   SIGMA = 0.05
   ISPIN = 2
   ISYM = 0
   LWAVE = False
   LCHARG = False
   LASPH = True
   LORBIT = 11
   ADDGRID = TRUE

 POTCAR:    PAW_PBE S 06Sep2000                   
 -----------------------------------------------------------------------------
|                                                                             |
|           W    W    AA    RRRRR   N    N  II  N    N   GGGG   !!!           |
|           W    W   A  A   R    R  NN   N  II  NN   N  G    G  !!!           |
|           W    W  A    A  R    R  N N  N  II  N N  N  G       !!!           |
|           W WW W  AAAAAA  RRRRR   N  N N  II  N  N N  G  GGG   !            |
|           WW  WW  A    A  R   R   N   NN  II  N   NN  G    G                |
|           W    W  A    A  R    R  N    N  II  N    N   GGGG   !!!           |
|                                                                             |
|     You use a magnetic or noncollinear calculation, but did not specify     |
|     the initial magnetic moment with the MAGMOM tag. Note that a            |
|     default of 1 will be used for all atoms. This ferromagnetic setup       |
|     may break the symmetry of the crystal, in particular it may rule        |
|     out finding an antiferromagnetic solution. Thence, we recommend         |
|     setting the initial magnetic moment manually or verifying carefully     |
|     that this magnetic setup is desired.                                    |
|                                                                             |
 -----------------------------------------------------------------------------

 -----------------------------------------------------------------------------
|                                                                             |
|           W    W    AA    RRRRR   N    N  II  N    N   GGGG   !!!           |
|           W    W   A  A   R    R  NN   N  II  NN   N  G    G  !!!           |
|           W    W  A    A  R    R  N N  N  II  N N  N  G       !!!           |
|           W WW W  AAAAAA  RRRRR   N  N N  II  N  N N  G  GGG   !            |
|           WW  WW  A    A  R   R   N   NN  II  N   NN  G    G                |
|           W    W  A    A  R    R  N    N  II  N    N   GGGG   !!!           |
|                                                                             |
|     For optimal performance we recommend to set                             |
|       NCORE = 2 up to number-of-cores-per-socket                            |
|     NCORE specifies how many cores store one orbital (NPAR=cpu/NCORE).      |
|     This setting can greatly improve the performance of VASP for DFT.       |
|     The default, NCORE=1 might be grossly inefficient on modern             |
|     multi-core architectures or massively parallel machines. Do your        |
|     own testing! More info at https://www.vasp.at/wiki/index.php/NCORE      |
|     Unfortunately you need to use the default for GW and RPA                |
|     calculations (for HF NCORE is supported but not extensively tested      |
|     yet).                                                                   |
|                                                                             |
 -----------------------------------------------------------------------------

 POTCAR:    PAW_PBE S 06Sep2000                   
   SHA256 =  0fc7481fb0695f01bdc6462160264c5c84044ae9ec85a907d398b887a2bc3132 S/POTCAR              
   COPYR  = (c) Copyright 06Sep2000 Georg Kresse                                                    
   COPYR  = This file is part of the software VASP. Any use, copying, and all other rights are regul
   COPYR  = If you do not have a valid VASP license, you may not use, copy or distribute this file. 
   VRHFIN =S : s2p4                                                                                 
   LEXCH  = PE                                                                                      
   EATOM  =   276.8230 eV,   20.3459 Ry                                                             
                                                                                                    
   TITEL  = PAW_PBE S 06Sep2000                                                                     
   LULTRA =        F    use ultrasoft PP ?                                                          
   IUNSCR =        1    unscreen: 0-lin 1-nonlin 2-no                                               
   RPACOR =    1.500    partial core radius                                                         
   POMASS =   32.066; ZVAL   =    6.000    mass and valenz                                          
   RCORE  =    1.900    outmost cutoff radius                                                       
   RWIGS  =    2.200; RWIGS  =    1.164    wigner-seitz radius (au A)                               
   ENMAX  =  258.689; ENMIN  =  194.016 eV                                                          
   ICORE  =        2    local potential                                                             
   LCOR   =        T    correct aug charges                                                         
   LPAW   =        T    paw PP                                                                      
   EAUG   =  335.092                                                                                
   DEXC   =    0.000                                                                                
   RMAX   =    1.942    core radius for proj-oper                                                   
   RAUG   =    1.300    factor for augmentation sphere                                              
   RDEP   =    1.954    radius for radial grids                                                     
   RDEPT  =    1.744    core radius for aug-charge                                                  
                                                                                                    
   Atomic configuration                                                                             
    6 entries                                                                                       
     n  l   j            E        occ.                                                              
     1  0  0.50     -2405.8406   2.0000                                                             
     2  0  0.50      -211.7007   2.0000                                                             
     2  1  1.50      -156.4958   6.0000                                                             
     3  0  0.50       -17.2562   2.0000                                                             
     3  1  0.50        -7.0085   4.0000                                                             
     3  2  1.50        -6.8029   0.0000                                                             
   Description                                                                                      
     l       E           TYP  RCUT    TYP  RCUT                                                     
     0    -17.2561641     23  1.900                                                                 
     0    -15.8743224     23  1.900                                                                 
     1     -7.0085400     23  1.900                                                                 
     1     -2.7779785     23  1.900                                                                 
     2     -6.8029130     23  1.900                                                                 
  local pseudopotential read in
  partial core-charges read in
  partial kinetic energy density read in
  atomic valenz-charges read in
  non local Contribution for L=           0  read in
    real space projection operators read in
  non local Contribution for L=           0  read in
    real space projection operators read in
  non local Contribution for L=           1  read in
    real space projection operators read in
  non local Contribution for L=           1  read in
    real space projection operators read in
    PAW grid and wavefunctions read in

   number of l-projection  operators is LMAX  =           4
   number of lm-projection operators is LMMAX =           8

 -----------------------------------------------------------------------------
|                                                                             |
|               ----> ADVICE to this user running VASP <----                  |
|                                                                             |
|     You have a (more or less) 'large supercell' and for larger cells it     |
|     might be more efficient to use real-space projection operators.         |
|     Therefore, try LREAL= Auto in the INCAR file.                           |
|     Mind: For very accurate calculation, you might also keep the            |
|     reciprocal projection scheme (i.e. LREAL=.FALSE.).                      |
|                                                                             |
 -----------------------------------------------------------------------------

  PAW_PBE S 06Sep2000                   :
 energy of atom  1       EATOM= -276.8230
 kinetic energy error for atom=    0.0016 (will be added to EATOM!!)


 POSCAR: generated by phonopy
  positions in direct lattice
  No initial velocities read in
 exchange correlation table for  LEXCH =        8
   RHO(1)=    0.500       N(1)  =     2000
   RHO(2)=  100.500       N(2)  =     4000



--------------------------------------------------------------------------------------------------------


 ion  position               nearest neighbor table
   1  0.886  0.467  0.678-  45 1.98  24 2.13
   2  0.886  0.967  0.678-  46 1.98  23 2.13
   3  0.330  0.189  0.551-  41 2.05  19 2.13
   4  0.330  0.689  0.551-  42 2.05  20 2.13
   5  0.913  0.105  0.912-  51 1.98  11 2.13
   6  0.913  0.605  0.912-  52 1.98  12 2.13
   7  0.240  0.301  0.777-  19 1.98  37 2.23
   8  0.240  0.801  0.777-  20 1.98  38 2.23
   9  0.144  0.306  0.224-  31 2.05  39 2.13
  10  0.144  0.806  0.224-  32 2.05  40 2.13
  11  0.856  0.194  0.776-  47 2.05   5 2.13
  12  0.856  0.694  0.776-  48 2.05   6 2.13
  13  0.760  0.199  0.223-  27 1.98  33 2.23
  14  0.760  0.699  0.223-  28 1.98  34 2.23
  15  0.170  0.439  0.449-  31 2.05  30 2.13
  16  0.170  0.939  0.449-  32 2.05  29 2.13
  17  0.413  0.145  0.912-  37 1.98  43 2.13
  18  0.413  0.645  0.912-  38 1.98  44 2.13
  19  0.386  0.283  0.678-   7 1.98   3 2.13
  20  0.386  0.783  0.678-   8 1.98   4 2.13
  21  0.644  0.444  0.224-  53 2.05  35 2.13
  22  0.644  0.944  0.224-  54 2.05  36 2.13
  23  0.830  0.061  0.551-  47 2.05   2 2.13
  24  0.830  0.561  0.551-  48 2.05   1 2.13
  25  0.260  0.051  0.223-  29 1.98  50 2.23
  26  0.260  0.551  0.223-  30 1.98  49 2.23
  27  0.614  0.217  0.322-  13 1.98  55 2.13
  28  0.614  0.717  0.322-  14 1.98  56 2.13
  29  0.114  0.033  0.322-  25 1.98  16 2.13
  30  0.114  0.533  0.322-  26 1.98  15 2.13
  31  0.060  0.345  0.374-   9 2.05  15 2.05
  32  0.060  0.845  0.374-  10 2.05  16 2.05
  33  0.743  0.289  0.071-  35 1.98  13 2.23
  34  0.743  0.789  0.071-  36 1.98  14 2.23
  35  0.587  0.355  0.088-  33 1.98  21 2.13
  36  0.587  0.855  0.088-  34 1.98  22 2.13
  37  0.257  0.211  0.929-  17 1.98   7 2.23
  38  0.257  0.711  0.929-  18 1.98   8 2.23
  39  0.087  0.395  0.088-  49 1.98   9 2.13
  40  0.087  0.895  0.088-  50 1.98  10 2.13
  41  0.440  0.095  0.626-  43 2.05   3 2.05
  42  0.440  0.595  0.626-  44 2.05   4 2.05
  43  0.356  0.056  0.776-  41 2.05  17 2.13
  44  0.356  0.556  0.776-  42 2.05  18 2.13
  45  0.740  0.449  0.777-   1 1.98  52 2.23
  46  0.740  0.949  0.777-   2 1.98  51 2.23
  47  0.940  0.155  0.626-  11 2.05  23 2.05
  48  0.940  0.655  0.626-  12 2.05  24 2.05
  49  0.243  0.461  0.071-  39 1.98  26 2.23
  50  0.243  0.961  0.071-  40 1.98  25 2.23
  51  0.757  0.039  0.929-   5 1.98  46 2.23
  52  0.757  0.539  0.929-   6 1.98  45 2.23
  53  0.560  0.405  0.374-  21 2.05  55 2.05
  54  0.560  0.905  0.374-  22 2.05  56 2.05
  55  0.670  0.311  0.449-  53 2.05  27 2.13
  56  0.670  0.811  0.449-  54 2.05  28 2.13


IMPORTANT INFORMATION: All symmetrisations will be switched off!
NOSYMM: (Re-)initialisation of all symmetry stuff for point group C_1.


----------------------------------------------------------------------------------------

                                     Primitive cell                                     

  volume of cell :    1863.6770

  direct lattice vectors                    reciprocal lattice vectors
     0.000000000 10.307367086 -0.372855731     0.000000000  0.096453423 -0.015606996
    16.788494411  0.000000000  0.000000000     0.059564603  0.000000000  0.000000000
     0.000000000 -1.732519801-10.707215182     0.000000000 -0.003358783 -0.092851486

  length of vectors
    10.314108670 16.788494411 10.846477853     0.097707938  0.059564603  0.092912216

  position of ions in fractional coordinates (direct lattice)
     0.886423141  0.467004751  0.678126386
     0.886423141  0.967004751  0.678126386
     0.329563264  0.188743823  0.550707721
     0.329563264  0.688743823  0.550707721
     0.912671285  0.105241885  0.911960471
     0.912671285  0.605241885  0.911960471
     0.239736405  0.300831047  0.776574189
     0.239736405  0.800831047  0.776574189
     0.144417516  0.306284408  0.224396680
     0.144417516  0.805688762  0.224396680
     0.855582484  0.194311238  0.775603320
     0.855582484  0.694311238  0.775603320
     0.760263595  0.199168953  0.223425811
     0.760263595  0.699168953  0.223425811
     0.170436736  0.438743823  0.449292279
     0.170436736  0.938743823  0.449292279
     0.412671285  0.144758115  0.911960471
     0.412671285  0.644758115  0.911960471
     0.386423141  0.282995249  0.678126386
     0.386423141  0.782995249  0.678126386
     0.644417516  0.444311238  0.224396680
     0.644417516  0.944311238  0.224396680
     0.829563264  0.061256177  0.550707721
     0.829563264  0.561256177  0.550707721
     0.260263595  0.050831047  0.223425811
     0.260263595  0.550831047  0.223425811
     0.613576859  0.217004751  0.321873614
     0.613576859  0.717004751  0.321873614
     0.113576859  0.032995249  0.321873614
     0.113576859  0.532995249  0.321873614
     0.059895700  0.345087734  0.374484367
     0.059895700  0.845087734  0.374484367
     0.743425210  0.289344343  0.071165234
     0.743425210  0.789344343  0.071165234
     0.587328715  0.355241885  0.088039529
     0.587328715  0.855241885  0.088039529
     0.256574790  0.210655657  0.928834766
     0.256574790  0.710655657  0.928834766
     0.087328715  0.394758115  0.088039529
     0.087328715  0.894758115  0.088039529
     0.440104300  0.095087734  0.625515633
     0.440104300  0.595087734  0.625515633
     0.355582484  0.055688762  0.775603320
     0.355582484  0.555688762  0.775603320
     0.739736405  0.449168953  0.776574189
     0.739736405  0.949168953  0.776574189
     0.940104300  0.154912266  0.625515633
     0.940104300  0.654912266  0.625515633
     0.243425210  0.460655657  0.071165234
     0.243425210  0.960655657  0.071165234
     0.756574790  0.039344343  0.928834766
     0.756574790  0.539344343  0.928834766
     0.559895700  0.404912266  0.374484367
     0.559895700  0.904912266  0.374484367
     0.670436736  0.311256177  0.449292279
     0.670436736  0.811256177  0.449292279

  ion indices of the primitive-cell ions
   primitive index   ion index
                 1           1
                 2           2
                 3           3
                 4           4
                 5           5
                 6           6
                 7           7
                 8           8
                 9           9
                10          10
                11          11
                12          12
                13          13
                14          14
                15          15
                16          16
                17          17
                18          18
                19          19
                20          20
                21          21
                22          22
                23          23
                24          24
                25          25
                26          26
                27          27
                28          28
                29          29
                30          30
                31          31
                32          32
                33          33
                34          34
                35          35
                36          36
                37          37
                38          38
                39          39
                40          40
                41          41
                42          42
                43          43
                44          44
                45          45
                46          46
                47          47
                48          48
                49          49
                50          50
                51          51
                52          52
                53          53
                54          54
                55          55
                56          56

----------------------------------------------------------------------------------------



 KPOINTS: pymatgen with grid density = 595 / numbe

Automatic generation of k-mesh.
 Grid dimensions read from file:
 generate k-points for:    2    2    2

 Generating k-lattice:

  Cartesian coordinates                     Fractional coordinates (reciprocal lattice)
     0.000000000  0.048226712 -0.007803498     0.500000000  0.000000000 -0.000000000
     0.029782301  0.000000000  0.000000000     0.000000000  0.500000000  0.000000000
     0.000000000 -0.001679391 -0.046425743    -0.000000000  0.000000000  0.500000000

  Length of vectors
     0.048853969  0.029782301  0.046456108

  Shift w.r.t. Gamma in fractional coordinates (k-lattice)
     0.000000000  0.000000000  0.000000000

 TETIRR: Found     24 inequivalent tetrahedra from       48
 
 Subroutine IBZKPT returns following result:
 ===========================================
 
 Found      8 irreducible k-points:
 
 Following reciprocal coordinates:
            Coordinates               Weight
  0.000000  0.000000  0.000000      1.000000
  0.500000  0.000000  0.000000      1.000000
  0.000000  0.500000  0.000000      1.000000
  0.500000  0.500000  0.000000      1.000000
  0.000000  0.000000  0.500000      1.000000
  0.500000  0.000000  0.500000      1.000000
  0.000000  0.500000  0.500000      1.000000
  0.500000  0.500000  0.500000      1.000000
 
 Following cartesian coordinates:
            Coordinates               Weight
  0.000000  0.000000 -0.000000      1.000000
  0.000000  0.048227 -0.007803      1.000000
  0.029782  0.000000 -0.000000      1.000000
  0.029782  0.048227 -0.007803      1.000000
  0.000000 -0.001679 -0.046426      1.000000
  0.000000  0.046547 -0.054229      1.000000
  0.029782 -0.001679 -0.046426      1.000000
  0.029782  0.046547 -0.054229      1.000000
 


--------------------------------------------------------------------------------------------------------




 Dimension of arrays:
   k-points           NKPTS =      8   k-points in BZ     NKDIM =      8   number of bands    NBANDS=    256
   number of dos      NEDOS =    301   number of ions     NIONS =     56
   non local maximal  LDIM  =      4   non local SUM 2l+1 LMDIM =      8
   total plane-waves  NPLWV = 846720
   max r-space proj   IRMAX =      1   max aug-charges    IRDMAX= 114695
   dimension x,y,z NGX =    80 NGY =  126 NGZ =   84
   dimension x,y,z NGXF=   160 NGYF=  252 NGZF=  168
   support grid    NGXF=   320 NGYF=  504 NGZF=  336
   ions per type =              56
   NGX,Y,Z   is equivalent  to a cutoff of  12.89, 12.48, 12.87 a.u.
   NGXF,Y,Z  is equivalent  to a cutoff of  25.79, 24.95, 25.75 a.u.

 SYSTEM =  unknown system                          
 POSCAR =  generated by phonopy                    

 Startparameter for this run:
   NWRITE =      2    write-flag & timer
   PREC   = accura    normal or accurate (medium, high low for compatibility)
   ISTART =      0    job   : 0-new  1-cont  2-samecut
   ICHARG =      2    charge: 1-file 2-atom 10-const
   ISPIN  =      2    spin polarized calculation?
   LNONCOLLINEAR =      F non collinear calculations
   LSORBIT =      F    spin-orbit coupling
   INIWAV =      1    electr: 0-lowe 1-rand  2-diag
   LASPH  =      T    aspherical Exc in radial PAW
 Electronic Relaxation 1
   ENCUT  =  520.0 eV  38.22 Ry    6.18 a.u.  19.18 31.22 20.17*2*pi/ulx,y,z
   ENINI  =  520.0     initial cutoff
   ENAUG  =  335.1 eV  augmentation charge cutoff
   NELM   =    100;   NELMIN=  2; NELMDL= -5     # of ELM steps 
   EDIFF  = 0.1E-08   stopping-criterion for ELM
   LREAL  =      F    real-space projection
   NLSPLINE    = F    spline interpolate recip. space projectors
   LCOMPAT=      F    compatible to vasp.4.4
   GGA_COMPAT  = T    GGA compatible to vasp.4.4-vasp.4.6
   LMAXPAW     = -100 max onsite density
   LMAXMIX     =    2 max onsite mixed and CHGCAR
   VOSKOWN=      0    Vosko Wilk Nusair interpolation
   ROPT   =    0.00000
 Ionic relaxation
   EDIFFG = -.5E-03   stopping-criterion for IOM
   NSW    =      0    number of steps for IOM
   NBLOCK =      1;   KBLOCK =      1    inner block; outer block 
   IBRION =     -1    ionic relax: 0-MD 1-quasi-New 2-CG
   NFREE  =      0    steps in history (QN), initial steepest desc. (CG)
   ISIF   =      2    stress and relaxation
   IWAVPR =     10    prediction:  0-non 1-charg 2-wave 3-comb
   ISYM   =      0    0-nonsym 1-usesym 2-fastsym
   LCORR  =      T    Harris-Foulkes like correction to forces

   POTIM  = 0.5000    time-step for ionic-motion
   TEIN   =    0.0    initial temperature
   TEBEG  =    0.0;   TEEND  =   0.0 temperature during run
   SMASS  =  -3.00    Nose mass-parameter (am)
   estimated Nose-frequenzy (Omega)   =  0.10E-29 period in steps = 0.13E+47 mass=  -0.243E-26a.u.
   SCALEE = 1.0000    scale energy and forces
   NPACO  =    256;   APACO  = 10.0  distance and # of slots for P.C.
   PSTRESS=    0.0 pullay stress

  Mass of Ions in am
   POMASS =  32.07
  Ionic Valenz
   ZVAL   =   6.00
  Atomic Wigner-Seitz radii
   RWIGS  =  -1.00
  virtual crystal weights 
   VCA    =   1.00
   NELECT =     336.0000    total number of electrons
   NUPDOWN=      -1.0000    fix difference up-down

 DOS related values:
   EMIN   =  10.00;   EMAX   =-10.00  energy-range for DOS
   EFERMI =   0.00
   ISMEAR =    -5;   SIGMA  =   0.05  broadening in eV -4-tet -1-fermi 0-gaus

 Electronic relaxation 2 (details)
   IALGO  =     38    algorithm
   LDIAG  =      T    sub-space diagonalisation (order eigenvalues)
   LSUBROT=      F    optimize rotation matrix (better conditioning)
   TURBO    =      0    0=normal 1=particle mesh
   IRESTART =      0    0=no restart 2=restart with 2 vectors
   NREBOOT  =      0    no. of reboots
   NMIN     =      0    reboot dimension
   EREF     =   0.00    reference energy to select bands
   IMIX   =      4    mixing-type and parameters
     AMIX     =   0.40;   BMIX     =  1.00
     AMIX_MAG =   1.60;   BMIX_MAG =  1.00
     AMIN     =   0.10
     WC   =   100.;   INIMIX=   1;  MIXPRE=   1;  MAXMIX= -45

 Intra band minimization:
   WEIMIN = 0.0000     energy-eigenvalue tresh-hold
   EBREAK =  0.98E-12  absolut break condition
   DEPER  =   0.30     relativ break condition  

   TIME   =   0.40     timestep for ELM

  volume/ion in A,a.u.               =      33.28       224.58
  Fermi-wavevector in a.u.,A,eV,Ry     =   0.924835  1.747685 11.637339  0.855320
  Thomas-Fermi vector in A             =   2.050624

 Write flags
   LWAVE        =      F    write WAVECAR
   LDOWNSAMPLE  =      F    k-point downsampling of WAVECAR
   LCHARG       =      F    write CHGCAR
   LVTOT        =      F    write LOCPOT, total local potential
   LVHAR        =      F    write LOCPOT, Hartree potential only
   LELF         =      F    write electronic localiz. function (ELF)
   LORBIT       =     11    0 simple, 1 ext, 2 COOP (PROOUT), +10 PAW based schemes


 Dipole corrections
   LMONO  =      F    monopole corrections only (constant potential shift)
   LDIPOL =      F    correct potential (dipole corrections)
   IDIPOL =      0    1-x, 2-y, 3-z, 4-all directions 
   EPSILON=  1.0000000 bulk dielectric constant

 Exchange correlation treatment:
   GGA     =    --    GGA type
   LEXCH   =     8    internal setting for exchange type
   LIBXC   =     F    Libxc                    
   VOSKOWN =     0    Vosko Wilk Nusair interpolation
   LHFCALC =     F    Hartree Fock is set to
   LHFONE  =     F    Hartree Fock one center treatment
   AEXX    =    0.0000 exact exchange contribution

 Linear response parameters
   LEPSILON=     F    determine dielectric tensor
   LRPA    =     F    only Hartree local field effects (RPA)
   LNABLA  =     F    use nabla operator in PAW spheres
   LVEL    =     F    velocity operator in full k-point grid
   CSHIFT  =0.1000    complex shift for real part using Kramers Kronig
   OMEGAMAX=  -1.0    maximum frequency
   DEG_THRESHOLD= 0.2000000E-02 threshold for treating states as degnerate
   RTIME   =   -0.100 relaxation time in fs
  (WPLASMAI=    0.000 imaginary part of plasma frequency in eV, 0.658/RTIME)
   DFIELD  = 0.0000000 0.0000000 0.0000000 field for delta impulse in time

  Optional k-point grid parameters
   LKPOINTS_OPT  =     F    use optional k-point grid
   KPOINTS_OPT_MODE=     1    mode for optional k-point grid

 Orbital magnetization related:
   ORBITALMAG=     F  switch on orbital magnetization
   LCHIMAG   =     F  perturbation theory with respect to B field
   DQ        =  0.001000  dq finite difference perturbation B field
   LLRAUG    =     F  two centre corrections for induced B field



--------------------------------------------------------------------------------------------------------


 Static calculation
 charge density and potential will be updated during run
 spin polarized calculation
 Variant of blocked Davidson
 Davidson routine will perform the subspace rotation
 perform sub-space diagonalisation
    after iterative eigenvector-optimisation
 modified Broyden-mixing scheme, WC =      100.0
 initial mixing is a Kerker type mixing with AMIX =  0.4000 and BMIX =      1.0000
 Hartree-type preconditioning will be used
 using additional bands           88
 reciprocal scheme for non local part
 use partial core corrections
 calculate Harris-corrections to forces   (improved forces if not selfconsistent)
 use gradient corrections 
 use of overlap-Matrix (Vanderbilt PP)
 Fermi weights with tetrahedron method with Bloechl corrections


--------------------------------------------------------------------------------------------------------


  energy-cutoff  :      520.00
  volume of cell :     1863.68
      direct lattice vectors                 reciprocal lattice vectors
     0.000000000 10.307367086 -0.372855731     0.000000000  0.096453423 -0.015606996
    16.788494411  0.000000000  0.000000000     0.059564603  0.000000000  0.000000000
     0.000000000 -1.732519801-10.707215182     0.000000000 -0.003358783 -0.092851486

  length of vectors
    10.314108670 16.788494411 10.846477853     0.097707938  0.059564603  0.092912216



 k-points in units of 2pi/SCALE and weight: pymatgen with grid density = 595 / numbe
   0.00000000  0.00000000 -0.00000000       0.125
   0.00000000  0.04822671 -0.00780350       0.125
   0.02978230  0.00000000 -0.00000000       0.125
   0.02978230  0.04822671 -0.00780350       0.125
   0.00000000 -0.00167939 -0.04642574       0.125
   0.00000000  0.04654732 -0.05422924       0.125
   0.02978230 -0.00167939 -0.04642574       0.125
   0.02978230  0.04654732 -0.05422924       0.125

 k-points in reciprocal lattice and weights: pymatgen with grid density = 595 / numbe
   0.00000000  0.00000000  0.00000000       0.125
   0.50000000  0.00000000  0.00000000       0.125
   0.00000000  0.50000000  0.00000000       0.125
   0.50000000  0.50000000  0.00000000       0.125
   0.00000000  0.00000000  0.50000000       0.125
   0.50000000  0.00000000  0.50000000       0.125
   0.00000000  0.50000000  0.50000000       0.125
   0.50000000  0.50000000  0.50000000       0.125

 position of ions in fractional coordinates (direct lattice) 
   0.88642314  0.46700475  0.67812639
   0.88642314  0.96700475  0.67812639
   0.32956326  0.18874382  0.55070772
   0.32956326  0.68874382  0.55070772
   0.91267129  0.10524188  0.91196047
   0.91267129  0.60524188  0.91196047
   0.23973640  0.30083105  0.77657419
   0.23973640  0.80083105  0.77657419
   0.14441752  0.30628441  0.22439668
   0.14441752  0.80568876  0.22439668
   0.85558248  0.19431124  0.77560332
   0.85558248  0.69431124  0.77560332
   0.76026360  0.19916895  0.22342581
   0.76026360  0.69916895  0.22342581
   0.17043674  0.43874382  0.44929228
   0.17043674  0.93874382  0.44929228
   0.41267129  0.14475812  0.91196047
   0.41267129  0.64475812  0.91196047
   0.38642314  0.28299525  0.67812639
   0.38642314  0.78299525  0.67812639
   0.64441752  0.44431124  0.22439668
   0.64441752  0.94431124  0.22439668
   0.82956326  0.06125618  0.55070772
   0.82956326  0.56125618  0.55070772
   0.26026360  0.05083105  0.22342581
   0.26026360  0.55083105  0.22342581
   0.61357686  0.21700475  0.32187361
   0.61357686  0.71700475  0.32187361
   0.11357686  0.03299525  0.32187361
   0.11357686  0.53299525  0.32187361
   0.05989570  0.34508773  0.37448437
   0.05989570  0.84508773  0.37448437
   0.74342521  0.28934434  0.07116523
   0.74342521  0.78934434  0.07116523
   0.58732871  0.35524188  0.08803953
   0.58732871  0.85524188  0.08803953
   0.25657479  0.21065566  0.92883477
   0.25657479  0.71065566  0.92883477
   0.08732871  0.39475812  0.08803953
   0.08732871  0.89475812  0.08803953
   0.44010430  0.09508773  0.62551563
   0.44010430  0.59508773  0.62551563
   0.35558248  0.05568876  0.77560332
   0.35558248  0.55568876  0.77560332
   0.73973640  0.44916895  0.77657419
   0.73973640  0.94916895  0.77657419
   0.94010430  0.15491227  0.62551563
   0.94010430  0.65491227  0.62551563
   0.24342521  0.46065566  0.07116523
   0.24342521  0.96065566  0.07116523
   0.75657479  0.03934434  0.92883477
   0.75657479  0.53934434  0.92883477
   0.55989570  0.40491227  0.37448437
   0.55989570  0.90491227  0.37448437
   0.67043674  0.31125618  0.44929228
   0.67043674  0.81125618  0.44929228

 position of ions in cartesian coordinates  (Angst):
   7.84030666  7.96182132 -7.59135308
  16.23455387  7.96182132 -7.59135308
   3.16872461  2.44281751 -6.01942562
  11.56297182  2.44281751 -6.01942562
   1.76685280  7.82724839-10.10485172
  10.16110000  7.82724839-10.10485172
   5.05050035  1.12562097 -8.40433404
  13.44474755  1.12562097 -8.40433404
   5.14205407  1.09979266 -2.45651044
  13.52630128  1.09979266 -2.45651044
   3.26219313  7.47505463 -8.62356047
  11.65644034  7.47505463 -8.62356047
   3.34374686  7.44922632 -2.67573688
  11.73799406  7.44922632 -2.67573688
   7.36584822  0.97834624 -4.87421742
  15.76009542  0.97834624 -4.87421742
   2.43027081  2.67356485 -9.91842386
  10.82451801  2.67356485 -9.91842386
   4.75106415  2.80813777 -7.40492521
  13.14531135  2.80813777 -7.40492521
   7.45931673  6.25347620 -2.64293831
  15.85356394  6.25347620 -2.64293831
   1.02839899  7.59650105 -6.20585349
   9.42264619  7.59650105 -6.20585349
   0.85337674  2.29554277 -2.48930901
   9.24762395  2.29554277 -2.48930901
   3.64318306  5.76670951 -3.67514570
  12.03743026  5.76670951 -3.67514570
   0.55394055  0.61302597 -3.48871783
   8.94818775  0.61302597 -3.48871783
   5.79350349 -0.03143461 -4.03201715
  14.18775070 -0.03143461 -4.03201715
   4.85765589  7.53946136 -1.03917182
  13.25190310  7.53946136 -1.03917182
   5.96397640  5.90128244 -1.16164705
  14.35822361  5.90128244 -1.16164705
   3.53659131  1.03538593-10.04089909
  11.93083852  1.03538593-10.04089909
   6.62739441  0.74759889 -0.97521919
  15.02164161  0.74759889 -0.97521919
   1.59637989  3.45259836 -6.86162589
   9.99062710  3.45259836 -6.86162589
   0.93493047  2.32137108 -8.43713261
   9.32917768  2.32137108 -8.43713261
   7.54087046  6.27930451 -8.59076190
  15.93511767  6.27930451 -8.59076190
   2.60074371  8.60628190 -7.04805376
  10.99499092  8.60628190 -7.04805376
   7.73371492  2.38577782 -0.85274396
  16.12796212  2.38577782 -0.85274396
   0.66053229  6.18906947-10.22732695
   9.05477950  6.18906947-10.22732695
   6.79786731  5.12224893 -4.21844502
  15.19211452  5.12224893 -4.21844502
   5.22552259  6.13202978 -5.06064529
  13.61976980  6.13202978 -5.06064529



--------------------------------------------------------------------------------------------------------


 k-point   1 :   0.0000 0.0000 0.0000  plane waves:   50179
 k-point   2 :   0.5000 0.0000 0.0000  plane waves:   50160
 k-point   3 :   0.0000 0.5000 0.0000  plane waves:   50162
 k-point   4 :   0.5000 0.5000 0.0000  plane waves:   50192
 k-point   5 :   0.0000 0.0000 0.5000  plane waves:   50190
 k-point   6 :   0.5000 0.0000 0.5000  plane waves:   50190
 k-point   7 :   0.0000 0.5000 0.5000  plane waves:   50172
 k-point   8 :   0.5000 0.5000 0.5000  plane waves:   50200

 maximum and minimum number of plane-waves per node :     50200    50160

 maximum number of plane-waves:     50200
 maximum index in each direction: 
   IXMAX=   19   IYMAX=   31   IZMAX=   20
   IXMIN=  -19   IYMIN=  -31   IZMIN=  -20


 serial   3D FFT for wavefunctions
 parallel 3D FFT for charge:
    minimum data exchange during FFTs selected (reduces bandwidth)


 total amount of memory used by VASP MPI-rank0   322725. kBytes
=======================================================================

   base      :      30000. kBytes
   nonl-proj :      70692. kBytes
   fftplans  :      34504. kBytes
   grid      :      83442. kBytes
   one-center:        344. kBytes
   wavefun   :     103743. kBytes

     INWAV:  cpu time      0.0000: real time      0.0003
 Broyden mixing: mesh for mixing (old mesh)
   NGX = 39   NGY = 63   NGZ = 41
  (NGX  =160   NGY  =252   NGZ  =168)
  gives a total of 100737 points

 initial charge density was supplied:
 charge density of overlapping atoms calculated
 number of electron     336.0000000 magnetization      56.0000000
 keeping initial charge density in first step


--------------------------------------------------------------------------------------------------------


 Maximum index for augmentation-charges         3947 (set IRDMAX)


--------------------------------------------------------------------------------------------------------


 First call to EWALD:  gamma=   0.144
 Maximum number of real-space cells 3x 2x 3
 Maximum number of reciprocal cells 2x 4x 2

    FEWALD:  cpu time      0.0036: real time      0.0036


--------------------------------------- Iteration      1(   1)  ---------------------------------------


    POTLOK:  cpu time      0.5344: real time      0.5357
    SETDIJ:  cpu time      9.7945: real time      9.8089
     EDDAV:  cpu time     61.3281: real time     63.4355
 BZINTS: Fermi energy:   10.166915;  336.000000 electrons
         Band energy: 0.225080E+03;  BLOECHL correction:   -0.008719
       DOS:  cpu time      0.0515: real time      0.0516
    --------------------------------------------
      LOOP:  cpu time     71.7086: real time     73.8317

 eigenvalue-minimisations  :  8192
 total energy-change (2. order) : 0.2106330E+04  (-0.1333803E+05)
 number of electron     336.0000000 magnetization      56.0000000
 augmentation part      336.0000000 magnetization      56.0000000

 Free energy of the ion-electron system (eV)
  ---------------------------------------------------
  alpha Z        PSCENC =       253.99581917
  Ewald energy   TEWEN  =     -9969.50004066
  -Hartree energ DENC   =     -4767.02497979
  -exchange      EXHF   =         0.00000000
  -V(xc)+E(xc)   XCENC  =       682.53213822
  PAW double counting   =     12174.71095765   -11995.46358648
  entropy T*S    EENTRO =         0.00000000
  eigenvalues    EBANDS =       225.08035423
  atomic energy  EATOM  =     15501.99929693
  Solvation  Ediel_sol  =         0.00000000
  ---------------------------------------------------
  free energy    TOTEN  =      2106.32995927 eV

  energy without entropy =     2106.32995927  energy(sigma->0) =     2106.32995927


--------------------------------------------------------------------------------------------------------




--------------------------------------- Iteration      1(   2)  ---------------------------------------


     EDDAV:  cpu time     64.6641: real time     65.0641
 BZINTS: Fermi energy:    1.452486;  336.000000 electrons
         Band energy:-0.187496E+04;  BLOECHL correction:   -0.000000
       DOS:  cpu time      0.0283: real time      0.0288
    --------------------------------------------
      LOOP:  cpu time     64.6924: real time     65.0929

 eigenvalue-minimisations  : 10272
 total energy-change (2. order) :-0.2100044E+04  (-0.2021846E+04)
 number of electron     336.0000000 magnetization      56.0000000
 augmentation part      336.0000000 magnetization      56.0000000

 Free energy of the ion-electron system (eV)
  ---------------------------------------------------
  alpha Z        PSCENC =       253.99581917
  Ewald energy   TEWEN  =     -9969.50004066
  -Hartree energ DENC   =     -4767.02497979
  -exchange      EXHF   =         0.00000000
  -V(xc)+E(xc)   XCENC  =       682.53213822
  PAW double counting   =     12174.71095765   -11995.46358648
  entropy T*S    EENTRO =         0.00000000
  eigenvalues    EBANDS =     -1874.96316777
  atomic energy  EATOM  =     15501.99929693
  Solvation  Ediel_sol  =         0.00000000
  ---------------------------------------------------
  free energy    TOTEN  =         6.28643727 eV

  energy without entropy =        6.28643727  energy(sigma->0) =        6.28643727


--------------------------------------------------------------------------------------------------------




--------------------------------------- Iteration      1(   3)  ---------------------------------------


     EDDAV:  cpu time     66.4333: real time     70.6129
 BZINTS: Fermi energy:    0.220411;  336.000000 electrons
         Band energy:-0.209483E+04;  BLOECHL correction:    0.000000
       DOS:  cpu time      0.0290: real time      0.0290
    --------------------------------------------
      LOOP:  cpu time     66.4622: real time     70.6420

 eigenvalue-minimisations  : 10240
 total energy-change (2. order) :-0.2198648E+03  (-0.2171790E+03)
 number of electron     336.0000000 magnetization      56.0000000
 augmentation part      336.0000000 magnetization      56.0000000

 Free energy of the ion-electron system (eV)
  ---------------------------------------------------
  alpha Z        PSCENC =       253.99581917
  Ewald energy   TEWEN  =     -9969.50004066
  -Hartree energ DENC   =     -4767.02497979
  -exchange      EXHF   =         0.00000000
  -V(xc)+E(xc)   XCENC  =       682.53213822
  PAW double counting   =     12174.71095765   -11995.46358648
  entropy T*S    EENTRO =         0.00000000
  eigenvalues    EBANDS =     -2094.82795994
  atomic energy  EATOM  =     15501.99929693
  Solvation  Ediel_sol  =         0.00000000
  ---------------------------------------------------
  free energy    TOTEN  =      -213.57835490 eV

  energy without entropy =     -213.57835490  energy(sigma->0) =     -213.57835490


--------------------------------------------------------------------------------------------------------




--------------------------------------- Iteration      1(   4)  ---------------------------------------


     EDDAV:  cpu time     67.9149: real time     68.1681
 BZINTS: Fermi energy:    0.192571;  336.000000 electrons
         Band energy:-0.209973E+04;  BLOECHL correction:    0.000000
       DOS:  cpu time      0.0275: real time      0.0275
    --------------------------------------------
      LOOP:  cpu time     67.9424: real time     68.1957

 eigenvalue-minimisations  : 10336
 total energy-change (2. order) :-0.4898901E+01  (-0.4880551E+01)
 number of electron     336.0000000 magnetization      56.0000000
 augmentation part      336.0000000 magnetization      56.0000000

 Free energy of the ion-electron system (eV)
  ---------------------------------------------------
  alpha Z        PSCENC =       253.99581917
  Ewald energy   TEWEN  =     -9969.50004066
  -Hartree energ DENC   =     -4767.02497979
  -exchange      EXHF   =         0.00000000
  -V(xc)+E(xc)   XCENC  =       682.53213822
  PAW double counting   =     12174.71095765   -11995.46358648
  entropy T*S    EENTRO =         0.00000000
  eigenvalues    EBANDS =     -2099.72686078
  atomic energy  EATOM  =     15501.99929693
  Solvation  Ediel_sol  =         0.00000000
  ---------------------------------------------------
  free energy    TOTEN  =      -218.47725574 eV

  energy without entropy =     -218.47725574  energy(sigma->0) =     -218.47725574


--------------------------------------------------------------------------------------------------------




--------------------------------------- Iteration      1(   5)  ---------------------------------------


     EDDAV:  cpu time     69.1399: real time     69.3241
 BZINTS: Fermi energy:    0.192446;  336.000000 electrons
         Band energy:-0.209986E+04;  BLOECHL correction:    0.000000
       DOS:  cpu time      0.0264: real time      0.0265
    CHARGE:  cpu time      4.6611: real time      5.0258
    MIXING:  cpu time      0.0142: real time      0.0142
    --------------------------------------------
      LOOP:  cpu time     73.8416: real time     74.3907

 eigenvalue-minimisations  : 10176
 total energy-change (2. order) :-0.1351317E+00  (-0.1350656E+00)
 number of electron     335.9999997 magnetization      44.9918631
 augmentation part      -47.3226952 magnetization      44.8832709

 Broyden mixing:
  rms(total) = 0.82917E+01    rms(broyden)= 0.82917E+01
  rms(prec ) = 0.83116E+01
  weight for this iteration     100.00

 Free energy of the ion-electron system (eV)
  ---------------------------------------------------
  alpha Z        PSCENC =       253.99581917
  Ewald energy   TEWEN  =     -9969.50004066
  -Hartree energ DENC   =     -4767.02497979
  -exchange      EXHF   =         0.00000000
  -V(xc)+E(xc)   XCENC  =       682.53213822
  PAW double counting   =     12174.71095765   -11995.46358648
  entropy T*S    EENTRO =         0.00000000
  eigenvalues    EBANDS =     -2099.86199246
  atomic energy  EATOM  =     15501.99929693
  Solvation  Ediel_sol  =         0.00000000
  ---------------------------------------------------
  free energy    TOTEN  =      -218.61238742 eV

  energy without entropy =     -218.61238742  energy(sigma->0) =     -218.61238742


--------------------------------------------------------------------------------------------------------




--------------------------------------- Iteration      1(   6)  ---------------------------------------


    POTLOK:  cpu time      0.4391: real time      0.5558
    SETDIJ:  cpu time     12.8179: real time     14.1163
     EDDAV:  cpu time     66.6582: real time     67.2021
 BZINTS: Fermi energy:    0.410355;  336.000000 electrons
         Band energy:-0.201434E+04;  BLOECHL correction:    0.000000
       DOS:  cpu time      0.0430: real time      0.0431
    CHARGE:  cpu time      6.4039: real time      6.4255
    MIXING:  cpu time      0.0083: real time      0.0083
    --------------------------------------------
      LOOP:  cpu time     86.3702: real time     88.3512

 eigenvalue-minimisations  :  9632
 total energy-change (2. order) : 0.1022856E+03  (-0.2667598E+02)
 number of electron     335.9999997 magnetization      26.4790913
 augmentation part      -47.6487078 magnetization      27.5372830

 Broyden mixing:
  rms(total) = 0.49386E+01    rms(broyden)= 0.49386E+01
  rms(prec ) = 0.49609E+01
  weight for this iteration     100.00

 eigenvalues of (default mixing * dielectric matrix)
  average eigenvalue GAMMA=   1.6680
  1.6680

 Free energy of the ion-electron system (eV)
  ---------------------------------------------------
  alpha Z        PSCENC =       253.99581917
  Ewald energy   TEWEN  =     -9969.50004066
  -Hartree energ DENC   =     -4811.38328259
  -exchange      EXHF   =         0.00000000
  -V(xc)+E(xc)   XCENC  =       746.12386259
  PAW double counting   =     20735.14185953   -20558.36509938
  entropy T*S    EENTRO =         0.00000000
  eigenvalues    EBANDS =     -2014.33924946
  atomic energy  EATOM  =     15501.99929693
  Solvation  Ediel_sol  =         0.00000000
  ---------------------------------------------------
  free energy    TOTEN  =      -116.32683386 eV

  energy without entropy =     -116.32683386  energy(sigma->0) =     -116.32683386


--------------------------------------------------------------------------------------------------------




--------------------------------------- Iteration      1(   7)  ---------------------------------------


    POTLOK:  cpu time      0.5482: real time      0.5583
    SETDIJ:  cpu time      8.5287: real time      8.5355
     EDDAV:  cpu time     68.0921: real time     68.1675
 BZINTS: Fermi energy:    0.739697;  336.000000 electrons
         Band energy:-0.186782E+04;  BLOECHL correction:    0.000000
       DOS:  cpu time      0.0274: real time      0.0274
    CHARGE:  cpu time      9.9825: real time      9.9843
    MIXING:  cpu time      2.1486: real time      2.1491
    --------------------------------------------
      LOOP:  cpu time     89.3275: real time     89.4222

 eigenvalue-minimisations  : 10112
 total energy-change (2. order) :-0.1114599E+02  (-0.2697329E+01)
 number of electron     335.9999997 magnetization      19.7291884
 augmentation part      -47.3158490 magnetization      20.9345914

 Broyden mixing:
  rms(total) = 0.14023E+01    rms(broyden)= 0.14023E+01
  rms(prec ) = 0.14059E+01
  weight for this iteration     100.00

 eigenvalues of (default mixing * dielectric matrix)
  average eigenvalue GAMMA=   1.4836
  0.7881  2.1791

 Free energy of the ion-electron system (eV)
  ---------------------------------------------------
  alpha Z        PSCENC =       253.99581917
  Ewald energy   TEWEN  =     -9969.50004066
  -Hartree energ DENC   =     -4970.97935165
  -exchange      EXHF   =         0.00000000
  -V(xc)+E(xc)   XCENC  =       751.46811454
  PAW double counting   =     37060.87422122   -36887.51337174
  entropy T*S    EENTRO =         0.00000000
  eigenvalues    EBANDS =     -1867.81751632
  atomic energy  EATOM  =     15501.99929693
  Solvation  Ediel_sol  =         0.00000000
  ---------------------------------------------------
  free energy    TOTEN  =      -127.47282850 eV

  energy without entropy =     -127.47282850  energy(sigma->0) =     -127.47282850


--------------------------------------------------------------------------------------------------------




--------------------------------------- Iteration      1(   8)  ---------------------------------------


    POTLOK:  cpu time      0.5648: real time      0.5679
    SETDIJ:  cpu time      8.1102: real time      8.1441
     EDDAV:  cpu time     60.8606: real time     60.9667
 BZINTS: Fermi energy:    0.707432;  336.000000 electrons
         Band energy:-0.185541E+04;  BLOECHL correction:    0.000000
       DOS:  cpu time      0.0281: real time      0.0282
    CHARGE:  cpu time      7.2873: real time      7.3048
    MIXING:  cpu time      0.0149: real time      0.0149
    --------------------------------------------
      LOOP:  cpu time     76.8660: real time     77.0266

 eigenvalue-minimisations  :  9312
 total energy-change (2. order) :-0.4267314E+02  (-0.1970866E+01)
 number of electron     335.9999997 magnetization      16.0570557
 augmentation part      -47.0121506 magnetization      17.1016425

 Broyden mixing:
  rms(total) = 0.78392E+00    rms(broyden)= 0.78392E+00
  rms(prec ) = 0.78905E+00
  weight for this iteration     100.00

 eigenvalues of (default mixing * dielectric matrix)
  average eigenvalue GAMMA=   1.3390
  2.4912  0.9433  0.5825

 Free energy of the ion-electron system (eV)
  ---------------------------------------------------
  alpha Z        PSCENC =       253.99581917
  Ewald energy   TEWEN  =     -9969.50004066
  -Hartree energ DENC   =     -5000.43571296
  -exchange      EXHF   =         0.00000000
  -V(xc)+E(xc)   XCENC  =       726.60846836
  PAW double counting   =     40194.54971665   -40021.95567658
  entropy T*S    EENTRO =         0.00000000
  eigenvalues    EBANDS =     -1855.40783667
  atomic energy  EATOM  =     15501.99929693
  Solvation  Ediel_sol  =         0.00000000
  ---------------------------------------------------
  free energy    TOTEN  =      -170.14596575 eV

  energy without entropy =     -170.14596575  energy(sigma->0) =     -170.14596575


--------------------------------------------------------------------------------------------------------




--------------------------------------- Iteration      1(   9)  ---------------------------------------


    POTLOK:  cpu time      0.6578: real time      0.6585
    SETDIJ:  cpu time     12.3080: real time     12.3199
     EDDAV:  cpu time     63.0666: real time     63.4619
 BZINTS: Fermi energy:    0.629530;  336.000000 electrons
         Band energy:-0.186664E+04;  BLOECHL correction:    0.000000
       DOS:  cpu time      0.0309: real time      0.0310
    CHARGE:  cpu time      9.1473: real time      9.2225
    MIXING:  cpu time      0.0147: real time      0.0147
    --------------------------------------------
      LOOP:  cpu time     85.2253: real time     85.7086

 eigenvalue-minimisations  : 10240
 total energy-change (2. order) :-0.1683068E+02  (-0.6458802E+00)
 number of electron     335.9999997 magnetization      11.5294093
 augmentation part      -46.9151483 magnetization      12.3670389

 Broyden mixing:
  rms(total) = 0.43646E+00    rms(broyden)= 0.43646E+00
  rms(prec ) = 0.44853E+00
  weight for this iteration     100.00

 eigenvalues of (default mixing * dielectric matrix)
  average eigenvalue GAMMA=   1.3243
  2.5748  1.3004  0.7110  0.7110

 Free energy of the ion-electron system (eV)
  ---------------------------------------------------
  alpha Z        PSCENC =       253.99581917
  Ewald energy   TEWEN  =     -9969.50004066
  -Hartree energ DENC   =     -4996.68276780
  -exchange      EXHF   =         0.00000000
  -V(xc)+E(xc)   XCENC  =       717.24124432
  PAW double counting   =     40980.04728824   -40807.43341514
  entropy T*S    EENTRO =         0.00000000
  eigenvalues    EBANDS =     -1866.64406931
  atomic energy  EATOM  =     15501.99929693
  Solvation  Ediel_sol  =         0.00000000
  ---------------------------------------------------
  free energy    TOTEN  =      -186.97664425 eV

  energy without entropy =     -186.97664425  energy(sigma->0) =     -186.97664425


--------------------------------------------------------------------------------------------------------




--------------------------------------- Iteration      1(  10)  ---------------------------------------


    POTLOK:  cpu time      0.6161: real time      0.6168
    SETDIJ:  cpu time      4.8003: real time      4.8018
     EDDAV:  cpu time     63.4871: real time     64.3144
 BZINTS: Fermi energy:    0.476517;  336.000000 electrons
         Band energy:-0.190118E+04;  BLOECHL correction:    0.000000
       DOS:  cpu time      0.0268: real time      0.0268
    CHARGE:  cpu time      6.7629: real time      6.7672
    MIXING:  cpu time      0.0163: real time      0.0163
    --------------------------------------------
      LOOP:  cpu time     75.7096: real time     76.5434

 eigenvalue-minimisations  :  9984
 total energy-change (2. order) :-0.2005690E+02  (-0.1302347E+01)
 number of electron     335.9999997 magnetization       5.3083080
 augmentation part      -46.8734474 magnetization       5.8427315

 Broyden mixing:
  rms(total) = 0.32401E+00    rms(broyden)= 0.32401E+00
  rms(prec ) = 0.33698E+00
  weight for this iteration     100.00

 eigenvalues of (default mixing * dielectric matrix)
  average eigenvalue GAMMA=   1.4491
  2.4865  2.4865  0.9413  0.7292  0.6021

 Free energy of the ion-electron system (eV)
  ---------------------------------------------------
  alpha Z        PSCENC =       253.99581917
  Ewald energy   TEWEN  =     -9969.50004066
  -Hartree energ DENC   =     -4971.27839535
  -exchange      EXHF   =         0.00000000
  -V(xc)+E(xc)   XCENC  =       705.66529986
  PAW double counting   =     40987.48187468   -40814.21314285
  entropy T*S    EENTRO =         0.00000000
  eigenvalues    EBANDS =     -1901.18425942
  atomic energy  EATOM  =     15501.99929693
  Solvation  Ediel_sol  =         0.00000000
  ---------------------------------------------------
  free energy    TOTEN  =      -207.03354764 eV

  energy without entropy =     -207.03354764  energy(sigma->0) =     -207.03354764


--------------------------------------------------------------------------------------------------------




--------------------------------------- Iteration      1(  11)  ---------------------------------------


    POTLOK:  cpu time      0.6403: real time      0.6413
    SETDIJ:  cpu time      8.2740: real time      8.2869
     EDDAV:  cpu time     63.8726: real time     64.0863
 BZINTS: Fermi energy:    0.258512;  336.000000 electrons
         Band energy:-0.195854E+04;  BLOECHL correction:    0.000000
       DOS:  cpu time      0.0286: real time      0.0287
    CHARGE:  cpu time      9.3507: real time      9.3635
    MIXING:  cpu time      0.0116: real time      0.0116
    --------------------------------------------
      LOOP:  cpu time     82.1778: real time     82.4182

 eigenvalue-minimisations  :  9920
 total energy-change (2. order) :-0.1783988E+02  (-0.2163133E+01)
 number of electron     335.9999997 magnetization       3.5716585
 augmentation part      -46.9051095 magnetization       3.7550050

 Broyden mixing:
  rms(total) = 0.18648E+00    rms(broyden)= 0.18648E+00
  rms(prec ) = 0.20018E+00
  weight for this iteration     100.00

 eigenvalues of (default mixing * dielectric matrix)
  average eigenvalue GAMMA=   1.4668
  2.7972  2.7972  1.0275  0.8891  0.6995  0.5903

 Free energy of the ion-electron system (eV)
  ---------------------------------------------------
  alpha Z        PSCENC =       253.99581917
  Ewald energy   TEWEN  =     -9969.50004066
  -Hartree energ DENC   =     -4921.71663588
  -exchange      EXHF   =         0.00000000
  -V(xc)+E(xc)   XCENC  =       694.55915442
  PAW double counting   =     40414.72348516   -40240.39580617
  entropy T*S    EENTRO =         0.00000000
  eigenvalues    EBANDS =     -1958.53870481
  atomic energy  EATOM  =     15501.99929693
  Solvation  Ediel_sol  =         0.00000000
  ---------------------------------------------------
  free energy    TOTEN  =      -224.87343183 eV

  energy without entropy =     -224.87343183  energy(sigma->0) =     -224.87343183


--------------------------------------------------------------------------------------------------------




--------------------------------------- Iteration      1(  12)  ---------------------------------------


    POTLOK:  cpu time      0.4565: real time      0.4576
    SETDIJ:  cpu time     10.2478: real time     10.2634
     EDDAV:  cpu time     67.8197: real time     68.0360
 BZINTS: Fermi energy:    0.185405;  336.000000 electrons
         Band energy:-0.197921E+04;  BLOECHL correction:    0.000000
       DOS:  cpu time      0.0277: real time      0.0277
    CHARGE:  cpu time      8.4716: real time      9.2403
    MIXING:  cpu time      0.0095: real time      0.0095
    --------------------------------------------
      LOOP:  cpu time     87.0329: real time     88.0345

 eigenvalue-minimisations  : 10048
 total energy-change (2. order) :-0.3389562E+01  (-0.3881672E+00)
 number of electron     335.9999997 magnetization       2.3904930
 augmentation part      -46.9152318 magnetization       2.4735925

 Broyden mixing:
  rms(total) = 0.15960E+00    rms(broyden)= 0.15960E+00
  rms(prec ) = 0.17214E+00
  weight for this iteration     100.00

 eigenvalues of (default mixing * dielectric matrix)
  average eigenvalue GAMMA=   1.4920
  3.1010  3.1010  1.0558  1.0558  0.7810  0.7810  0.5684

 Free energy of the ion-electron system (eV)
  ---------------------------------------------------
  alpha Z        PSCENC =       253.99581917
  Ewald energy   TEWEN  =     -9969.50004066
  -Hartree energ DENC   =     -4902.21782061
  -exchange      EXHF   =         0.00000000
  -V(xc)+E(xc)   XCENC  =       692.10402030
  PAW double counting   =     39982.26170705   -39807.69709741
  entropy T*S    EENTRO =         0.00000000
  eigenvalues    EBANDS =     -1979.20887849
  atomic energy  EATOM  =     15501.99929693
  Solvation  Ediel_sol  =         0.00000000
  ---------------------------------------------------
  free energy    TOTEN  =      -228.26299371 eV

  energy without entropy =     -228.26299371  energy(sigma->0) =     -228.26299371


--------------------------------------------------------------------------------------------------------




--------------------------------------- Iteration      1(  13)  ---------------------------------------


    POTLOK:  cpu time      0.5328: real time      0.5975
    SETDIJ:  cpu time      6.2999: real time      7.0573
     EDDAV:  cpu time     58.5131: real time     59.4217
 BZINTS: Fermi energy:    0.117354;  336.000000 electrons
         Band energy:-0.200165E+04;  BLOECHL correction:    0.000000
       DOS:  cpu time      0.0277: real time      0.0277
    CHARGE:  cpu time      7.3805: real time      7.4302
    MIXING:  cpu time      0.0147: real time      0.0147
    --------------------------------------------
      LOOP:  cpu time     72.7687: real time     74.5491

 eigenvalue-minimisations  :  9568
 total energy-change (2. order) :-0.1052541E+01  (-0.1335591E+00)
 number of electron     335.9999997 magnetization       0.8874400
 augmentation part      -46.9734353 magnetization       0.9134434

 Broyden mixing:
  rms(total) = 0.92988E-01    rms(broyden)= 0.92987E-01
  rms(prec ) = 0.99805E-01
  weight for this iteration     100.00

 eigenvalues of (default mixing * dielectric matrix)
  average eigenvalue GAMMA=   1.5517
  3.3226  3.3226  1.5843  1.2840  0.9275  0.6999  0.6999  0.5728

 Free energy of the ion-electron system (eV)
  ---------------------------------------------------
  alpha Z        PSCENC =       253.99581917
  Ewald energy   TEWEN  =     -9969.50004066
  -Hartree energ DENC   =     -4879.08873938
  -exchange      EXHF   =         0.00000000
  -V(xc)+E(xc)   XCENC  =       690.12190738
  PAW double counting   =     39161.90302520   -38987.09909549
  entropy T*S    EENTRO =         0.00000000
  eigenvalues    EBANDS =     -2001.64770760
  atomic energy  EATOM  =     15501.99929693
  Solvation  Ediel_sol  =         0.00000000
  ---------------------------------------------------
  free energy    TOTEN  =      -229.31553445 eV

  energy without entropy =     -229.31553445  energy(sigma->0) =     -229.31553445


--------------------------------------------------------------------------------------------------------




--------------------------------------- Iteration      1(  14)  ---------------------------------------


    POTLOK:  cpu time      0.5990: real time      0.5999
    SETDIJ:  cpu time      2.5590: real time      2.5625
     EDDAV:  cpu time     61.2291: real time     61.3572
 BZINTS: Fermi energy:    0.081576;  336.000000 electrons
         Band energy:-0.201212E+04;  BLOECHL correction:    0.000000
       DOS:  cpu time      0.0279: real time      0.0280
    CHARGE:  cpu time     14.3866: real time     14.4020
    MIXING:  cpu time      0.0141: real time      0.0141
    --------------------------------------------
      LOOP:  cpu time     78.8158: real time     78.9637

 eigenvalue-minimisations  :  8992
 total energy-change (2. order) :-0.6441723E-01  (-0.1622945E-01)
 number of electron     335.9999997 magnetization       0.4180369
 augmentation part      -47.0005172 magnetization       0.4250321

 Broyden mixing:
  rms(total) = 0.43662E-01    rms(broyden)= 0.43662E-01
  rms(prec ) = 0.46366E-01
  weight for this iteration     100.00

 eigenvalues of (default mixing * dielectric matrix)
  average eigenvalue GAMMA=   1.5786
  4.1301  2.5571  2.5571  1.0966  1.0966  0.7712  0.7712  0.5754  0.6520

 Free energy of the ion-electron system (eV)
  ---------------------------------------------------
  alpha Z        PSCENC =       253.99581917
  Ewald energy   TEWEN  =     -9969.50004066
  -Hartree energ DENC   =     -4867.72606037
  -exchange      EXHF   =         0.00000000
  -V(xc)+E(xc)   XCENC  =       689.20959051
  PAW double counting   =     39101.19669931   -38926.43798034
  entropy T*S    EENTRO =         0.00000000
  eigenvalues    EBANDS =     -2012.11727622
  atomic energy  EATOM  =     15501.99929693
  Solvation  Ediel_sol  =         0.00000000
  ---------------------------------------------------
  free energy    TOTEN  =      -229.37995167 eV

  energy without entropy =     -229.37995167  energy(sigma->0) =     -229.37995167


--------------------------------------------------------------------------------------------------------




--------------------------------------- Iteration      1(  15)  ---------------------------------------


    POTLOK:  cpu time      0.4641: real time      0.4667
    SETDIJ:  cpu time      9.5055: real time      9.5091
     EDDAV:  cpu time     67.0820: real time     67.1794
 BZINTS: Fermi energy:    0.079804;  336.000000 electrons
         Band energy:-0.201181E+04;  BLOECHL correction:    0.000000
       DOS:  cpu time      0.0423: real time      0.0424
    CHARGE:  cpu time     13.4672: real time     13.4727
    MIXING:  cpu time      0.0111: real time      0.0111
    --------------------------------------------
      LOOP:  cpu time     90.5722: real time     90.6814

 eigenvalue-minimisations  :  9536
 total energy-change (2. order) : 0.1301862E-02  (-0.2080821E-02)
 number of electron     335.9999997 magnetization       0.1725411
 augmentation part      -46.9943874 magnetization       0.1768488

 Broyden mixing:
  rms(total) = 0.20221E-01    rms(broyden)= 0.20221E-01
  rms(prec ) = 0.21797E-01
  weight for this iteration     100.00

 eigenvalues of (default mixing * dielectric matrix)
  average eigenvalue GAMMA=   1.5648
  4.5523  2.5273  2.5273  1.3359  0.9967  0.9967  0.7588  0.7588  0.6239  0.5697

 Free energy of the ion-electron system (eV)
  ---------------------------------------------------
  alpha Z        PSCENC =       253.99581917
  Ewald energy   TEWEN  =     -9969.50004066
  -Hartree energ DENC   =     -4867.90550178
  -exchange      EXHF   =         0.00000000
  -V(xc)+E(xc)   XCENC  =       689.17190382
  PAW double counting   =     39186.74029960   -39012.06865739
  entropy T*S    EENTRO =         0.00000000
  eigenvalues    EBANDS =     -2011.81176950
  atomic energy  EATOM  =     15501.99929693
  Solvation  Ediel_sol  =         0.00000000
  ---------------------------------------------------
  free energy    TOTEN  =      -229.37864981 eV

  energy without entropy =     -229.37864981  energy(sigma->0) =     -229.37864981


--------------------------------------------------------------------------------------------------------




--------------------------------------- Iteration      1(  16)  ---------------------------------------


    POTLOK:  cpu time      0.5595: real time      0.5601
    SETDIJ:  cpu time     12.2893: real time     12.3041
     EDDAV:  cpu time     61.5566: real time     61.6069
 BZINTS: Fermi energy:    0.077967;  336.000000 electrons
         Band energy:-0.201228E+04;  BLOECHL correction:    0.000000
       DOS:  cpu time      0.0440: real time      0.0441
    CHARGE:  cpu time      6.8537: real time      6.8664
    MIXING:  cpu time      0.0148: real time      0.0148
    --------------------------------------------
      LOOP:  cpu time     81.3179: real time     81.3964

 eigenvalue-minimisations  :  9184
 total energy-change (2. order) : 0.3105935E-02  (-0.5516896E-03)
 number of electron     335.9999997 magnetization       0.0697432
 augmentation part      -46.9932336 magnetization       0.0705492

 Broyden mixing:
  rms(total) = 0.12332E-01    rms(broyden)= 0.12332E-01
  rms(prec ) = 0.13343E-01
  weight for this iteration     100.00

 eigenvalues of (default mixing * dielectric matrix)
  average eigenvalue GAMMA=   1.5467
  4.7571  2.4277  2.4277  1.8415  0.9959  0.9959  0.9232  0.7283  0.7283  0.5813
  0.6065

 Free energy of the ion-electron system (eV)
  ---------------------------------------------------
  alpha Z        PSCENC =       253.99581917
  Ewald energy   TEWEN  =     -9969.50004066
  -Hartree energ DENC   =     -4867.34564423
  -exchange      EXHF   =         0.00000000
  -V(xc)+E(xc)   XCENC  =       689.10371914
  PAW double counting   =     39156.67952039   -38982.03172585
  entropy T*S    EENTRO =         0.00000000
  eigenvalues    EBANDS =     -2012.27648877
  atomic energy  EATOM  =     15501.99929693
  Solvation  Ediel_sol  =         0.00000000
  ---------------------------------------------------
  free energy    TOTEN  =      -229.37554387 eV

  energy without entropy =     -229.37554387  energy(sigma->0) =     -229.37554387


--------------------------------------------------------------------------------------------------------




--------------------------------------- Iteration      1(  17)  ---------------------------------------


    POTLOK:  cpu time      0.4680: real time      0.4740
    SETDIJ:  cpu time     10.9773: real time     10.9839
     EDDAV:  cpu time     56.2874: real time     56.3735
 BZINTS: Fermi energy:    0.080069;  336.000000 electrons
         Band energy:-0.201135E+04;  BLOECHL correction:    0.000000
       DOS:  cpu time      0.0265: real time      0.0267
    CHARGE:  cpu time      5.9376: real time      5.9448
    MIXING:  cpu time      0.0170: real time      0.0170
    --------------------------------------------
      LOOP:  cpu time     73.7139: real time     73.8199

 eigenvalue-minimisations  :  9536
 total energy-change (2. order) :-0.5051974E-03  (-0.1200505E-03)
 number of electron     335.9999997 magnetization       0.0178353
 augmentation part      -46.9881645 magnetization       0.0182324

 Broyden mixing:
  rms(total) = 0.49312E-02    rms(broyden)= 0.49311E-02
  rms(prec ) = 0.55303E-02
  weight for this iteration     100.00

 eigenvalues of (default mixing * dielectric matrix)
  average eigenvalue GAMMA=   1.5760
  4.9477  2.6012  2.6012  2.2021  1.1769  0.9961  0.9961  0.7616  0.7616  0.6821
  0.5892  0.5960

 Free energy of the ion-electron system (eV)
  ---------------------------------------------------
  alpha Z        PSCENC =       253.99581917
  Ewald energy   TEWEN  =     -9969.50004066
  -Hartree energ DENC   =     -4868.30731433
  -exchange      EXHF   =         0.00000000
  -V(xc)+E(xc)   XCENC  =       689.16362854
  PAW double counting   =     39197.67943788   -39023.05590990
  entropy T*S    EENTRO =         0.00000000
  eigenvalues    EBANDS =     -2011.35096671
  atomic energy  EATOM  =     15501.99929693
  Solvation  Ediel_sol  =         0.00000000
  ---------------------------------------------------
  free energy    TOTEN  =      -229.37604907 eV

  energy without entropy =     -229.37604907  energy(sigma->0) =     -229.37604907


--------------------------------------------------------------------------------------------------------




--------------------------------------- Iteration      1(  18)  ---------------------------------------


    POTLOK:  cpu time      0.4341: real time      0.4367
    SETDIJ:  cpu time      6.8378: real time      6.8906
     EDDAV:  cpu time     58.7816: real time     60.3516
 BZINTS: Fermi energy:    0.080905;  336.000000 electrons
         Band energy:-0.201083E+04;  BLOECHL correction:    0.000000
       DOS:  cpu time      0.0416: real time      0.0417
    CHARGE:  cpu time      5.8193: real time      6.5430
    MIXING:  cpu time      0.0141: real time      0.0141
    --------------------------------------------
      LOOP:  cpu time     71.9286: real time     74.2778

 eigenvalue-minimisations  :  9568
 total energy-change (2. order) :-0.1150679E-03  (-0.3936706E-04)
 number of electron     335.9999997 magnetization       0.0052001
 augmentation part      -46.9848427 magnetization       0.0057386

 Broyden mixing:
  rms(total) = 0.44480E-02    rms(broyden)= 0.44480E-02
  rms(prec ) = 0.47004E-02
  weight for this iteration     100.00

 eigenvalues of (default mixing * dielectric matrix)
  average eigenvalue GAMMA=   1.5445
  5.0019  2.6454  2.6454  2.2638  1.1297  1.1297  0.9913  0.9913  0.7250  0.7250
  0.5791  0.6447  0.6061

 Free energy of the ion-electron system (eV)
  ---------------------------------------------------
  alpha Z        PSCENC =       253.99581917
  Ewald energy   TEWEN  =     -9969.50004066
  -Hartree energ DENC   =     -4868.84928348
  -exchange      EXHF   =         0.00000000
  -V(xc)+E(xc)   XCENC  =       689.19885168
  PAW double counting   =     39226.43088795   -39051.82213978
  entropy T*S    EENTRO =         0.00000000
  eigenvalues    EBANDS =     -2010.82955595
  atomic energy  EATOM  =     15501.99929693
  Solvation  Ediel_sol  =         0.00000000
  ---------------------------------------------------
  free energy    TOTEN  =      -229.37616414 eV

  energy without entropy =     -229.37616414  energy(sigma->0) =     -229.37616414


--------------------------------------------------------------------------------------------------------




--------------------------------------- Iteration      1(  19)  ---------------------------------------


    POTLOK:  cpu time      0.5882: real time      0.5888
    SETDIJ:  cpu time      5.3702: real time      5.9747
     EDDAV:  cpu time     64.5859: real time     65.0536
 BZINTS: Fermi energy:    0.080451;  336.000000 electrons
         Band energy:-0.201109E+04;  BLOECHL correction:    0.000000
       DOS:  cpu time      0.0414: real time      0.0415
    CHARGE:  cpu time     17.2521: real time     17.2640
    MIXING:  cpu time      0.0160: real time      0.0160
    --------------------------------------------
      LOOP:  cpu time     87.8538: real time     88.9385

 eigenvalue-minimisations  :  9728
 total energy-change (2. order) :-0.6224276E-05  (-0.6177955E-05)
 number of electron     335.9999997 magnetization      -0.0005476
 augmentation part      -46.9856684 magnetization      -0.0003051

 Broyden mixing:
  rms(total) = 0.20251E-02    rms(broyden)= 0.20251E-02
  rms(prec ) = 0.21998E-02
  weight for this iteration     100.00

 eigenvalues of (default mixing * dielectric matrix)
  average eigenvalue GAMMA=   1.5457
  5.0453  2.7068  2.7068  2.1113  1.4094  1.4094  1.0330  1.0330  0.8571  0.7536
  0.7536  0.5806  0.6087  0.6312

 Free energy of the ion-electron system (eV)
  ---------------------------------------------------
  alpha Z        PSCENC =       253.99581917
  Ewald energy   TEWEN  =     -9969.50004066
  -Hartree energ DENC   =     -4868.57695804
  -exchange      EXHF   =         0.00000000
  -V(xc)+E(xc)   XCENC  =       689.18207449
  PAW double counting   =     39225.12062604   -39050.50877218
  entropy T*S    EENTRO =         0.00000000
  eigenvalues    EBANDS =     -2011.08821611
  atomic energy  EATOM  =     15501.99929693
  Solvation  Ediel_sol  =         0.00000000
  ---------------------------------------------------
  free energy    TOTEN  =      -229.37617036 eV

  energy without entropy =     -229.37617036  energy(sigma->0) =     -229.37617036


--------------------------------------------------------------------------------------------------------




--------------------------------------- Iteration      1(  20)  ---------------------------------------


    POTLOK:  cpu time      0.4666: real time      0.4727
    SETDIJ:  cpu time      8.4420: real time      8.4507
     EDDAV:  cpu time     63.3804: real time     63.4553
 BZINTS: Fermi energy:    0.080107;  336.000000 electrons
         Band energy:-0.201123E+04;  BLOECHL correction:    0.000000
       DOS:  cpu time      0.0263: real time      0.0264
    CHARGE:  cpu time      6.9032: real time      6.9068
    MIXING:  cpu time      0.0148: real time      0.0148
    --------------------------------------------
      LOOP:  cpu time     79.2334: real time     79.3266

 eigenvalue-minimisations  :  9216
 total energy-change (2. order) :-0.1043632E-04  (-0.3473576E-05)
 number of electron     335.9999997 magnetization      -0.0016277
 augmentation part      -46.9862009 magnetization      -0.0015505

 Broyden mixing:
  rms(total) = 0.94433E-03    rms(broyden)= 0.94421E-03
  rms(prec ) = 0.10034E-02
  weight for this iteration     100.00

 eigenvalues of (default mixing * dielectric matrix)
  average eigenvalue GAMMA=   1.5472
  5.0952  2.7080  2.7080  2.0998  2.0998  1.2310  1.2310  0.9902  0.9902  0.7796
  0.7329  0.7329  0.5785  0.6156  0.6156

 Free energy of the ion-electron system (eV)
  ---------------------------------------------------
  alpha Z        PSCENC =       253.99581917
  Ewald energy   TEWEN  =     -9969.50004066
  -Hartree energ DENC   =     -4868.43285733
  -exchange      EXHF   =         0.00000000
  -V(xc)+E(xc)   XCENC  =       689.17496734
  PAW double counting   =     39230.22404602   -39055.61026506
  entropy T*S    EENTRO =         0.00000000
  eigenvalues    EBANDS =     -2011.22714720
  atomic energy  EATOM  =     15501.99929693
  Solvation  Ediel_sol  =         0.00000000
  ---------------------------------------------------
  free energy    TOTEN  =      -229.37618080 eV

  energy without entropy =     -229.37618080  energy(sigma->0) =     -229.37618080


--------------------------------------------------------------------------------------------------------




--------------------------------------- Iteration      1(  21)  ---------------------------------------


    POTLOK:  cpu time      1.6711: real time      1.6720
    SETDIJ:  cpu time     10.3498: real time     10.3629
     EDDAV:  cpu time     58.6685: real time     58.7399
 BZINTS: Fermi energy:    0.079696;  336.000000 electrons
         Band energy:-0.201128E+04;  BLOECHL correction:    0.000000
       DOS:  cpu time      0.0278: real time      0.0279
    CHARGE:  cpu time      9.2497: real time      9.2569
    MIXING:  cpu time      0.0181: real time      0.0181
    --------------------------------------------
      LOOP:  cpu time     79.9851: real time     80.0778

 eigenvalue-minimisations  :  9280
 total energy-change (2. order) : 0.1136024E-05  (-0.8815434E-06)
 number of electron     335.9999997 magnetization      -0.0013499
 augmentation part      -46.9863933 magnetization      -0.0013534

 Broyden mixing:
  rms(total) = 0.42511E-03    rms(broyden)= 0.42484E-03
  rms(prec ) = 0.44716E-03
  weight for this iteration     100.00

 eigenvalues of (default mixing * dielectric matrix)
  average eigenvalue GAMMA=   1.5118
  5.0970  2.6684  2.6684  2.5700  1.6138  1.3997  1.1547  1.1547  0.9282  0.9282
  0.7393  0.7393  0.7249  0.5782  0.6123  0.6123

 Free energy of the ion-electron system (eV)
  ---------------------------------------------------
  alpha Z        PSCENC =       253.99581917
  Ewald energy   TEWEN  =     -9969.50004066
  -Hartree energ DENC   =     -4868.37450577
  -exchange      EXHF   =         0.00000000
  -V(xc)+E(xc)   XCENC  =       689.17140229
  PAW double counting   =     39229.69040263   -39055.07581494
  entropy T*S    EENTRO =         0.00000000
  eigenvalues    EBANDS =     -2011.28273932
  atomic energy  EATOM  =     15501.99929693
  Solvation  Ediel_sol  =         0.00000000
  ---------------------------------------------------
  free energy    TOTEN  =      -229.37617966 eV

  energy without entropy =     -229.37617966  energy(sigma->0) =     -229.37617966


--------------------------------------------------------------------------------------------------------




--------------------------------------- Iteration      1(  22)  ---------------------------------------


    POTLOK:  cpu time      0.4768: real time      0.5073
    SETDIJ:  cpu time     12.3872: real time     12.4134
     EDDAV:  cpu time     75.2158: real time     75.3668
 BZINTS: Fermi energy:    0.079607;  336.000000 electrons
         Band energy:-0.201130E+04;  BLOECHL correction:    0.000000
       DOS:  cpu time      0.0425: real time      0.0425
    CHARGE:  cpu time      9.0289: real time      9.0463
    MIXING:  cpu time      0.0173: real time      0.0173
    --------------------------------------------
      LOOP:  cpu time     97.1686: real time     97.3936

 eigenvalue-minimisations  :  9888
 total energy-change (2. order) : 0.4634021E-06  (-0.1383824E-06)
 number of electron     335.9999997 magnetization      -0.0004708
 augmentation part      -46.9864638 magnetization      -0.0004926

 Broyden mixing:
  rms(total) = 0.23122E-03    rms(broyden)= 0.23072E-03
  rms(prec ) = 0.24545E-03
  weight for this iteration     100.00

 eigenvalues of (default mixing * dielectric matrix)
  average eigenvalue GAMMA=   1.5003
  5.0912  2.6570  2.6570  2.6220  1.6742  1.4372  1.4372  1.0825  1.0825  0.9009
  0.9009  0.7424  0.7424  0.6737  0.5794  0.6123  0.6123

 Free energy of the ion-electron system (eV)
  ---------------------------------------------------
  alpha Z        PSCENC =       253.99581917
  Ewald energy   TEWEN  =     -9969.50004066
  -Hartree energ DENC   =     -4868.35266381
  -exchange      EXHF   =         0.00000000
  -V(xc)+E(xc)   XCENC  =       689.16981122
  PAW double counting   =     39228.27557040   -39053.66067067
  entropy T*S    EENTRO =         0.00000000
  eigenvalues    EBANDS =     -2011.30330179
  atomic energy  EATOM  =     15501.99929693
  Solvation  Ediel_sol  =         0.00000000
  ---------------------------------------------------
  free energy    TOTEN  =      -229.37617920 eV

  energy without entropy =     -229.37617920  energy(sigma->0) =     -229.37617920


--------------------------------------------------------------------------------------------------------




--------------------------------------- Iteration      1(  23)  ---------------------------------------


    POTLOK:  cpu time      0.5038: real time      0.5080
    SETDIJ:  cpu time      8.1188: real time      8.1359
     EDDAV:  cpu time     62.7025: real time     62.8070
 BZINTS: Fermi energy:    0.079643;  336.000000 electrons
         Band energy:-0.201130E+04;  BLOECHL correction:    0.000000
       DOS:  cpu time      0.0285: real time      0.0286
    CHARGE:  cpu time     10.3568: real time     11.2115
    MIXING:  cpu time      0.0128: real time      0.0128
    --------------------------------------------
      LOOP:  cpu time     81.7232: real time     82.7038

 eigenvalue-minimisations  :  9216
 total energy-change (2. order) :-0.2412889E-06  (-0.5655500E-07)
 number of electron     335.9999997 magnetization      -0.0002608
 augmentation part      -46.9864355 magnetization      -0.0002569

 Broyden mixing:
[...]

  length of vectors
    10.314108670 16.788494411 10.846477853     0.097707938  0.059564603  0.092912216


 FORCES acting on ions
    electron-ion (+dipol)            ewald-force                    non-local-force                 convergence-correction
 -----------------------------------------------------------------------------------------------
   0.987E+02 -.105E+03 -.125E+02   -.104E+03 0.113E+03 0.112E+02   0.495E+01 -.888E+01 0.132E+01   0.867E-06 -.819E-06 0.268E-06
   0.986E+02 -.105E+03 -.125E+02   -.104E+03 0.113E+03 0.112E+02   0.495E+01 -.888E+01 0.132E+01   0.102E-05 -.867E-06 0.307E-06
   -.123E+02 0.420E+02 -.127E+03   0.126E+02 -.472E+02 0.134E+03   -.246E+00 0.519E+01 -.705E+01   0.494E-07 0.471E-06 -.536E-06
   -.124E+02 0.420E+02 -.127E+03   0.126E+02 -.472E+02 0.134E+03   -.246E+00 0.519E+01 -.705E+01   0.334E-06 0.461E-06 -.336E-06
   -.211E+02 -.902E+02 0.981E+02   0.198E+02 0.990E+02 -.103E+03   0.134E+01 -.874E+01 0.530E+01   -.335E-06 -.578E-06 0.290E-05
   -.211E+02 -.902E+02 0.980E+02   0.198E+02 0.989E+02 -.103E+03   0.134E+01 -.874E+01 0.530E+01   -.820E-07 -.537E-06 0.279E-05
   -.108E+03 0.950E+02 0.625E+01   0.114E+03 -.101E+03 -.414E+01   -.534E+01 0.592E+01 -.212E+01   -.852E-06 0.152E-05 0.873E-06
   -.108E+03 0.950E+02 0.625E+01   0.114E+03 -.101E+03 -.414E+01   -.534E+01 0.592E+01 -.212E+01   -.658E-06 0.154E-05 0.796E-06
   0.137E+03 -.543E+02 -.185E+02   -.144E+03 0.599E+02 0.191E+02   0.677E+01 -.556E+01 -.543E+00   0.131E-05 0.842E-06 0.344E-07
   0.136E+03 -.540E+02 -.187E+02   -.143E+03 0.595E+02 0.193E+02   0.680E+01 -.552E+01 -.558E+00   0.156E-05 0.888E-06 -.464E-07
   -.136E+03 0.539E+02 0.187E+02   0.143E+03 -.595E+02 -.193E+02   -.680E+01 0.552E+01 0.558E+00   -.149E-05 -.146E-05 0.341E-06
   -.136E+03 0.540E+02 0.187E+02   0.143E+03 -.595E+02 -.193E+02   -.680E+01 0.552E+01 0.558E+00   -.129E-05 -.140E-05 0.284E-06
   0.108E+03 -.951E+02 -.625E+01   -.114E+03 0.101E+03 0.413E+01   0.534E+01 -.592E+01 0.212E+01   0.349E-06 -.192E-05 -.670E-06
   0.108E+03 -.950E+02 -.625E+01   -.114E+03 0.101E+03 0.414E+01   0.534E+01 -.592E+01 0.212E+01   0.740E-06 -.195E-05 -.703E-06
   -.124E+02 -.420E+02 0.127E+03   0.127E+02 0.472E+02 -.134E+03   -.233E+00 -.521E+01 0.703E+01   0.270E-06 -.142E-06 -.599E-06
   -.124E+02 -.420E+02 0.127E+03   0.127E+02 0.472E+02 -.134E+03   -.246E+00 -.519E+01 0.705E+01   0.241E-06 -.167E-06 -.411E-06
   0.211E+02 -.902E+02 0.981E+02   -.198E+02 0.989E+02 -.103E+03   -.134E+01 -.874E+01 0.530E+01   0.130E-06 0.727E-06 0.250E-05
   0.211E+02 -.902E+02 0.981E+02   -.198E+02 0.989E+02 -.103E+03   -.134E+01 -.874E+01 0.530E+01   0.376E-06 0.690E-06 0.239E-05
   -.986E+02 -.105E+03 -.125E+02   0.104E+03 0.113E+03 0.112E+02   -.495E+01 -.888E+01 0.132E+01   -.995E-06 0.415E-06 0.969E-07
   -.987E+02 -.105E+03 -.125E+02   0.104E+03 0.113E+03 0.112E+02   -.495E+01 -.888E+01 0.132E+01   -.782E-06 0.354E-06 0.189E-06
   -.136E+03 -.540E+02 -.187E+02   0.143E+03 0.595E+02 0.193E+02   -.680E+01 -.552E+01 -.558E+00   -.130E-05 0.122E-05 -.106E-06
   -.136E+03 -.540E+02 -.187E+02   0.143E+03 0.595E+02 0.193E+02   -.680E+01 -.552E+01 -.558E+00   -.140E-05 0.121E-05 -.127E-06
   0.123E+02 0.420E+02 -.127E+03   -.126E+02 -.472E+02 0.134E+03   0.246E+00 0.519E+01 -.705E+01   -.221E-06 -.401E-06 -.244E-06
   0.123E+02 0.420E+02 -.127E+03   -.126E+02 -.472E+02 0.134E+03   0.246E+00 0.519E+01 -.705E+01   -.280E-07 -.420E-06 -.196E-06
   -.109E+03 -.950E+02 -.625E+01   0.114E+03 0.101E+03 0.414E+01   -.534E+01 -.592E+01 0.212E+01   -.892E-06 -.112E-05 -.778E-06
   -.109E+03 -.951E+02 -.625E+01   0.114E+03 0.101E+03 0.414E+01   -.534E+01 -.592E+01 0.212E+01   -.463E-06 -.108E-05 -.786E-06
   0.987E+02 0.105E+03 0.125E+02   -.104E+03 -.113E+03 -.112E+02   0.495E+01 0.888E+01 -.132E+01   0.663E-06 0.673E-06 -.679E-06
   0.986E+02 0.105E+03 0.125E+02   -.104E+03 -.113E+03 -.112E+02   0.495E+01 0.888E+01 -.132E+01   0.103E-05 0.642E-06 -.525E-06
   -.987E+02 0.105E+03 0.125E+02   0.104E+03 -.113E+03 -.112E+02   -.495E+01 0.888E+01 -.132E+01   -.102E-05 -.159E-06 -.581E-06
   -.988E+02 0.105E+03 0.126E+02   0.104E+03 -.113E+03 -.113E+02   -.496E+01 0.889E+01 -.132E+01   -.700E-06 -.210E-06 -.633E-06
   0.732E+02 0.965E+02 0.637E+02   -.759E+02 -.106E+03 -.658E+02   0.279E+01 0.964E+01 0.205E+01   0.769E-06 -.111E-05 0.150E-07
   0.727E+02 0.961E+02 0.632E+02   -.755E+02 -.106E+03 -.653E+02   0.274E+01 0.971E+01 0.207E+01   0.969E-06 -.110E-05 0.167E-06
   0.219E+02 -.938E+02 -.889E+02   -.206E+02 0.100E+03 0.940E+02   -.133E+01 -.628E+01 -.509E+01   0.667E-06 -.151E-05 0.147E-06
   0.218E+02 -.938E+02 -.889E+02   -.205E+02 0.100E+03 0.940E+02   -.133E+01 -.628E+01 -.509E+01   0.952E-06 -.154E-05 -.110E-06
   -.211E+02 0.902E+02 -.981E+02   0.197E+02 -.989E+02 0.103E+03   0.134E+01 0.874E+01 -.530E+01   -.296E-06 0.474E-06 -.202E-05
   -.212E+02 0.902E+02 -.981E+02   0.198E+02 -.989E+02 0.103E+03   0.134E+01 0.874E+01 -.530E+01   -.148E-06 0.409E-06 -.223E-05
   -.218E+02 0.938E+02 0.890E+02   0.204E+02 -.100E+03 -.941E+02   0.133E+01 0.628E+01 0.509E+01   -.106E-05 0.136E-05 0.920E-06
   -.218E+02 0.938E+02 0.889E+02   0.205E+02 -.100E+03 -.940E+02   0.133E+01 0.628E+01 0.509E+01   -.762E-06 0.138E-05 0.724E-06
   0.209E+02 0.904E+02 -.988E+02   -.195E+02 -.991E+02 0.104E+03   -.128E+01 0.871E+01 -.531E+01   0.103E-06 -.515E-06 -.175E-05
   0.211E+02 0.902E+02 -.981E+02   -.197E+02 -.989E+02 0.103E+03   -.134E+01 0.874E+01 -.530E+01   0.291E-06 -.483E-06 -.188E-05
   0.728E+02 -.961E+02 -.633E+02   -.755E+02 0.106E+03 0.653E+02   0.274E+01 -.971E+01 -.207E+01   0.869E-06 0.120E-05 -.662E-06
   0.728E+02 -.962E+02 -.632E+02   -.755E+02 0.106E+03 0.653E+02   0.274E+01 -.971E+01 -.207E+01   0.999E-06 0.117E-05 -.622E-06
   0.136E+03 0.540E+02 0.187E+02   -.143E+03 -.595E+02 -.193E+02   0.680E+01 0.552E+01 0.558E+00   0.141E-05 -.634E-06 0.124E-06
   0.136E+03 0.539E+02 0.187E+02   -.143E+03 -.595E+02 -.193E+02   0.680E+01 0.552E+01 0.558E+00   0.144E-05 -.623E-06 0.962E-07
   0.108E+03 0.950E+02 0.624E+01   -.114E+03 -.101E+03 -.413E+01   0.534E+01 0.592E+01 -.212E+01   0.491E-06 0.140E-05 0.868E-06
   0.108E+03 0.950E+02 0.626E+01   -.114E+03 -.101E+03 -.414E+01   0.534E+01 0.592E+01 -.212E+01   0.699E-06 0.151E-05 0.860E-06
   -.728E+02 -.962E+02 -.633E+02   0.755E+02 0.106E+03 0.653E+02   -.274E+01 -.971E+01 -.207E+01   -.107E-05 -.145E-06 -.654E-06
   -.728E+02 -.961E+02 -.632E+02   0.755E+02 0.106E+03 0.653E+02   -.274E+01 -.971E+01 -.207E+01   -.832E-06 -.771E-07 -.522E-06
   -.220E+02 -.939E+02 -.891E+02   0.206E+02 0.100E+03 0.941E+02   0.136E+01 -.627E+01 -.506E+01   -.840E-06 -.884E-06 0.639E-07
   -.219E+02 -.938E+02 -.889E+02   0.205E+02 0.100E+03 0.940E+02   0.133E+01 -.628E+01 -.509E+01   -.904E-06 -.940E-06 -.101E-06
   0.218E+02 0.938E+02 0.889E+02   -.205E+02 -.100E+03 -.940E+02   -.133E+01 0.628E+01 0.509E+01   0.829E-06 0.112E-05 0.692E-06
   0.218E+02 0.938E+02 0.889E+02   -.205E+02 -.100E+03 -.940E+02   -.133E+01 0.628E+01 0.509E+01   0.935E-06 0.102E-05 0.681E-06
   -.727E+02 0.961E+02 0.633E+02   0.755E+02 -.106E+03 -.653E+02   -.274E+01 0.971E+01 0.207E+01   -.929E-06 0.134E-06 -.740E-07
   -.728E+02 0.962E+02 0.632E+02   0.755E+02 -.106E+03 -.653E+02   -.274E+01 0.971E+01 0.207E+01   -.890E-06 0.799E-07 0.130E-06
   0.124E+02 -.420E+02 0.127E+03   -.127E+02 0.472E+02 -.134E+03   0.245E+00 -.519E+01 0.705E+01   -.349E-06 0.337E-07 -.548E-06
   0.123E+02 -.420E+02 0.127E+03   -.126E+02 0.472E+02 -.134E+03   0.246E+00 -.519E+01 0.705E+01   -.121E-06 0.515E-07 -.278E-06
 -----------------------------------------------------------------------------------------------
   -.975E-01 0.138E+00 0.930E-02   0.178E-12 0.355E-13 0.853E-13   0.975E-01 -.138E+00 -.930E-02   -.346E-06 0.205E-06 -.144E-06


 POSITION                                       TOTAL-FORCE (eV/Angst)
 -----------------------------------------------------------------------------------
      7.84031      7.96182     -7.59135         0.002544     -0.001020      0.001063
     16.23455      7.96182     -7.59135         0.002478     -0.001279      0.000913
      3.16872      2.44282     -6.01943         0.002140     -0.000863     -0.002518
     11.56297      2.44282     -6.01943         0.002185     -0.000911     -0.002495
      1.76685      7.82725    -10.10485        -0.000107      0.000054     -0.000489
     10.16110      7.82725    -10.10485        -0.000160      0.000042     -0.000513
      5.05050      1.12562     -8.40433         0.001395     -0.000671     -0.000711
     13.44475      1.12562     -8.40433         0.001635     -0.000672     -0.000692
      5.14205      1.09979     -2.45651        -0.085919      0.037359      0.003558
     13.52630      1.09979     -2.45651        -0.000115      0.000426     -0.000284
      3.26219      7.47505     -8.62356         0.000222     -0.000505      0.000250
     11.65644      7.47505     -8.62356         0.000095     -0.000504      0.000324
      3.34375      7.44923     -2.67574        -0.001837      0.000701      0.000866
     11.73799      7.44923     -2.67574        -0.001558      0.000625      0.000677
      7.36585      0.97835     -4.87422         0.017668      0.002187     -0.009663
     15.76010      0.97835     -4.87422         0.002116      0.000835      0.002456
      2.43027      2.67356     -9.91842         0.000184     -0.000175     -0.000355
     10.82452      2.67356     -9.91842         0.000089      0.000049     -0.000397
      4.75106      2.80814     -7.40493        -0.002331     -0.001139      0.001082
     13.14531      2.80814     -7.40493        -0.002487     -0.001241      0.000986
      7.45932      6.25348     -2.64294         0.000033      0.000441     -0.000285
     15.85356      6.25348     -2.64294         0.000108      0.000459     -0.000281
      1.02840      7.59650     -6.20585        -0.002165     -0.000926     -0.002448
      9.42265      7.59650     -6.20585        -0.002094     -0.000904     -0.002548
      0.85338      2.29554     -2.48931         0.001658      0.000524      0.000719
      9.24762      2.29554     -2.48931         0.002476     -0.003032      0.002901
      3.64318      5.76671     -3.67515         0.002551      0.001367     -0.001235
     12.03743      5.76671     -3.67515         0.002477      0.001265     -0.000935
      0.55394      0.61303     -3.48872        -0.002484      0.001396     -0.000887
      8.94819      0.61303     -3.48872        -0.002840      0.001091     -0.004851
      5.79350     -0.03143     -4.03202         0.020390     -0.022274     -0.020779
     14.18775     -0.03143     -4.03202        -0.001226      0.001809      0.000265
      4.85766      7.53946     -1.03917        -0.003957      0.002061     -0.000167
     13.25190      7.53946     -1.03917        -0.003934      0.002045     -0.000272
      5.96398      5.90128     -1.16165         0.000106     -0.000193      0.000422
     14.35822      5.90128     -1.16165        -0.000090      0.000002      0.000490
      3.53659      1.03539    -10.04090         0.003936     -0.001904      0.000129
     11.93084      1.03539    -10.04090         0.003852     -0.002015      0.000265
      6.62739      0.74760     -0.97522         0.036467     -0.030184      0.029176
     15.02164      0.74760     -0.97522         0.000052     -0.000024      0.000447
      1.59638      3.45260     -6.86163        -0.001296     -0.001817     -0.000237
      9.99063      3.45260     -6.86163        -0.001227     -0.001751     -0.000298
      0.93493      2.32137     -8.43713        -0.000106     -0.000387      0.000338
      9.32918      2.32137     -8.43713        -0.000105     -0.000610      0.000227
      7.54087      6.27930     -8.59076        -0.001624     -0.000765     -0.000799
     15.93512      6.27930     -8.59076        -0.001508     -0.000570     -0.000670
      2.60074      8.60628     -7.04805         0.001114     -0.001723     -0.000277
     10.99499      8.60628     -7.04805         0.001143     -0.001760     -0.000223
      7.73371      2.38578     -0.85274         0.015851      0.021993      0.001828
     16.12796      2.38578     -0.85274         0.003930      0.002062     -0.000290
      0.66053      6.18907    -10.22733        -0.003957     -0.002078      0.000271
      9.05478      6.18907    -10.22733        -0.003798     -0.002140      0.000370
      6.79787      5.12225     -4.21845         0.001233      0.001808      0.000323
     15.19211      5.12225     -4.21845         0.001199      0.001768      0.000202
      5.22552      6.13203     -5.06065        -0.002251      0.000771      0.002532
     13.61977      6.13203     -5.06065        -0.002149      0.000896      0.002523
 -----------------------------------------------------------------------------------
    total drift:                               -0.000001     -0.000003     -0.000000


--------------------------------------------------------------------------------------------------------



  FREE ENERGIE OF THE ION-ELECTRON SYSTEM (eV)
  ---------------------------------------------------
  free  energy   TOTEN  =      -229.37617925 eV

  energy  without entropy=     -229.37617925  energy(sigma->0) =     -229.37617925



--------------------------------------------------------------------------------------------------------


    POTLOK:  cpu time     12.1386: real time     12.1650


--------------------------------------------------------------------------------------------------------


     LOOP+:  cpu time   2652.4451: real time   2683.8740
    4ORBIT:  cpu time      0.0000: real time      0.0000



 total charge

# of ion       s       p       d       tot
------------------------------------------
    1        1.376   2.247   0.000   3.623
    2        1.376   2.247   0.000   3.623
    3        1.376   2.258   0.000   3.635
    4        1.376   2.258   0.000   3.635
    5        1.376   2.247   0.000   3.623
    6        1.376   2.247   0.000   3.622
    7        1.375   2.262   0.000   3.638
    8        1.375   2.262   0.000   3.638
    9        1.377   2.260   0.000   3.637
   10        1.377   2.257   0.000   3.634
   11        1.377   2.257   0.000   3.634
   12        1.377   2.257   0.000   3.634
   13        1.375   2.262   0.000   3.638
   14        1.375   2.262   0.000   3.638
   15        1.376   2.259   0.000   3.635
   16        1.376   2.258   0.000   3.635
   17        1.376   2.247   0.000   3.623
   18        1.376   2.247   0.000   3.623
   19        1.376   2.247   0.000   3.623
   20        1.376   2.247   0.000   3.623
   21        1.377   2.257   0.000   3.634
   22        1.377   2.257   0.000   3.634
   23        1.376   2.258   0.000   3.635
   24        1.376   2.258   0.000   3.635
   25        1.375   2.262   0.000   3.638
   26        1.375   2.262   0.000   3.638
   27        1.376   2.247   0.000   3.623
   28        1.376   2.247   0.000   3.623
   29        1.376   2.247   0.000   3.623
   30        1.376   2.247   0.000   3.623
   31        1.375   2.256   0.000   3.631
   32        1.376   2.254   0.000   3.630
   33        1.375   2.263   0.000   3.638
   34        1.375   2.263   0.000   3.638
   35        1.376   2.247   0.000   3.622
   36        1.376   2.247   0.000   3.623
   37        1.375   2.263   0.000   3.638
   38        1.375   2.263   0.000   3.638
   39        1.376   2.249   0.000   3.624
   40        1.376   2.247   0.000   3.623
   41        1.376   2.254   0.000   3.630
   42        1.376   2.254   0.000   3.630
   43        1.377   2.257   0.000   3.634
   44        1.377   2.257   0.000   3.634
   45        1.375   2.262   0.000   3.638
   46        1.375   2.262   0.000   3.638
   47        1.376   2.254   0.000   3.630
   48        1.376   2.254   0.000   3.630
   49        1.375   2.264   0.000   3.639
   50        1.375   2.263   0.000   3.638
   51        1.375   2.263   0.000   3.638
   52        1.375   2.263   0.000   3.638
   53        1.376   2.254   0.000   3.630
   54        1.376   2.254   0.000   3.630
   55        1.376   2.258   0.000   3.635
   56        1.376   2.258   0.000   3.635
--------------------------------------------------
tot         77.048 126.320   0.000 203.368



 magnetization (x)

# of ion       s       p       d       tot
------------------------------------------
    1        0.000   0.000   0.000   0.000
    2        0.000   0.000   0.000   0.000
    3        0.000   0.000   0.000   0.000
    4        0.000   0.000   0.000   0.000
    5        0.000   0.000   0.000   0.000
    6        0.000   0.000   0.000   0.000
    7        0.000   0.000   0.000   0.000
    8        0.000   0.000   0.000   0.000
    9        0.000   0.000   0.000   0.000
   10        0.000   0.000   0.000   0.000
   11        0.000   0.000   0.000   0.000
   12        0.000   0.000   0.000   0.000
   13        0.000   0.000   0.000   0.000
   14        0.000   0.000   0.000   0.000
   15        0.000   0.000   0.000   0.000
   16        0.000   0.000   0.000   0.000
   17        0.000   0.000   0.000   0.000
   18        0.000   0.000   0.000   0.000
   19        0.000   0.000   0.000   0.000
   20        0.000   0.000   0.000   0.000
   21        0.000   0.000   0.000   0.000
   22        0.000   0.000   0.000   0.000
   23        0.000   0.000   0.000   0.000
   24        0.000   0.000   0.000   0.000
   25        0.000   0.000   0.000   0.000
   26        0.000   0.000   0.000   0.000
   27        0.000   0.000   0.000   0.000
   28        0.000   0.000   0.000   0.000
   29        0.000   0.000   0.000   0.000
   30        0.000   0.000   0.000   0.000
   31        0.000   0.000   0.000   0.000
   32        0.000   0.000   0.000   0.000
   33        0.000   0.000   0.000   0.000
   34        0.000   0.000   0.000   0.000
   35        0.000   0.000   0.000   0.000
   36        0.000   0.000   0.000   0.000
   37        0.000   0.000   0.000   0.000
   38        0.000   0.000   0.000   0.000
   39        0.000   0.000   0.000   0.000
   40        0.000   0.000   0.000   0.000
   41        0.000   0.000   0.000   0.000
   42        0.000   0.000   0.000   0.000
   43        0.000   0.000   0.000   0.000
   44        0.000   0.000   0.000   0.000
   45        0.000   0.000   0.000   0.000
   46        0.000   0.000   0.000   0.000
   47        0.000   0.000   0.000   0.000
   48        0.000   0.000   0.000   0.000
   49        0.000   0.000   0.000   0.000
   50        0.000   0.000   0.000   0.000
   51        0.000   0.000   0.000   0.000
   52        0.000   0.000   0.000   0.000
   53        0.000   0.000   0.000   0.000
   54        0.000   0.000   0.000   0.000
   55        0.000   0.000   0.000   0.000
   56        0.000   0.000   0.000   0.000
--------------------------------------------------
tot          0.000   0.000   0.000   0.000

 BZINTS: Fermi energy:    0.079542;  336.000000 electrons
         Band energy:-0.201131E+04;  BLOECHL correction:   -0.000000

 total amount of memory used by VASP MPI-rank0   322725. kBytes
=======================================================================

   base      :      30000. kBytes
   nonl-proj :      70692. kBytes
   fftplans  :      34504. kBytes
   grid      :      83442. kBytes
   one-center:        344. kBytes
   wavefun   :     103743. kBytes

  
  
 General timing and accounting informations for this job:
 ========================================================
  
                  Total CPU time used (sec):     2690.169
                            User time (sec):     2687.916
                          System time (sec):        2.253
                         Elapsed time (sec):     2723.259
  
                   Maximum memory used (kb):      600848.
                   Average memory used (kb):          N/A
  
                          Minor page faults:       797202
                          Major page faults:           86
                 Voluntary context switches:         5532
