  55  55   0   0
  0.2301251E+02  0.1218282E-08  0.7661564E-09  0.1373046E-08  0.0000000E+00
   1.0000000000000000E-004
  CAR 
 NEB_refined                             
      9.30602338    -23.65901046  301      1.29166944      1.00000000
    -23.659  0.0000E+00  0.0000E+00
    -23.549  0.0000E+00  0.0000E+00
    -23.439  0.0000E+00  0.0000E+00
    -23.329 -0.4370E-31 -0.4802E-32
    -23.219 -0.2931E-27 -0.3221E-28
    -23.110 -0.1068E-23 -0.1174E-24
    -23.000 -0.2118E-20 -0.2328E-21
    -22.890 -0.2286E-17 -0.2514E-18
    -22.780 -0.1303E-14 -0.1434E-15
    -22.670 -0.4135E-12 -0.4558E-13
    -22.560 -0.7151E-10 -0.7903E-11
    -22.450 -0.6739E-08 -0.7484E-09
    -22.340 -0.3472E-06 -0.3890E-07
    -22.231 -0.9812E-05 -0.1117E-05
    -22.121 -0.1522E-03 -0.1785E-04
    -22.011 -0.1281E-02 -0.1586E-03
    -21.901 -0.5494E-02 -0.7623E-03
    -21.791 -0.8646E-02 -0.1712E-02
    -21.681  0.1820E-01  0.2878E-03
    -21.571  0.1211E+00  0.1360E-01
    -21.461  0.3207E+00  0.4884E-01
    -21.351  0.5493E+00  0.1092E+00
    -21.242  0.6415E+00  0.1797E+00
    -21.132  0.5227E+00  0.2371E+00
    -21.022  0.2862E+00  0.2686E+00
    -20.912  0.8458E-01  0.2779E+00
    -20.802 -0.1624E-02  0.2777E+00
    -20.692 -0.1087E-01  0.2765E+00
    -20.582 -0.3800E-02  0.2761E+00
    -20.472 -0.6164E-03  0.2760E+00
    -20.363 -0.5247E-04  0.2760E+00
    -20.253 -0.2405E-05  0.2760E+00
    -20.143 -0.5970E-07  0.2760E+00
    -20.033 -0.8043E-09  0.2760E+00
    -19.923 -0.5887E-11  0.2760E+00
    -19.813 -0.2339E-13  0.2760E+00
    -19.703 -0.5658E-16  0.2760E+00
    -19.593  0.0000E+00  0.2760E+00
    -19.483  0.0000E+00  0.2760E+00
    -19.374  0.0000E+00  0.2760E+00
    -19.264  0.0000E+00  0.2760E+00
    -19.154  0.0000E+00  0.2760E+00
    -19.044  0.0000E+00  0.2760E+00
    -18.934  0.0000E+00  0.2760E+00
    -18.824  0.0000E+00  0.2760E+00
    -18.714  0.0000E+00  0.2760E+00
    -18.604  0.0000E+00  0.2760E+00
    -18.494  0.0000E+00  0.2760E+00
    -18.385  0.0000E+00  0.2760E+00
    -18.275  0.0000E+00  0.2760E+00
    -18.165  0.0000E+00  0.2760E+00
    -18.055  0.0000E+00  0.2760E+00
    -17.945  0.0000E+00  0.2760E+00
    -17.835  0.0000E+00  0.2760E+00
    -17.725  0.0000E+00  0.2760E+00
    -17.615  0.0000E+00  0.2760E+00
    -17.506  0.0000E+00  0.2760E+00
    -17.396  0.0000E+00  0.2760E+00
    -17.286  0.0000E+00  0.2760E+00
    -17.176  0.0000E+00  0.2760E+00
    -17.066  0.0000E+00  0.2760E+00
    -16.956  0.0000E+00  0.2760E+00
    -16.846  0.0000E+00  0.2760E+00
    -16.736  0.0000E+00  0.2760E+00
    -16.626  0.0000E+00  0.2760E+00
    -16.517  0.0000E+00  0.2760E+00
    -16.407  0.0000E+00  0.2760E+00
    -16.297  0.0000E+00  0.2760E+00
    -16.187  0.0000E+00  0.2760E+00
    -16.077  0.0000E+00  0.2760E+00
    -15.967  0.0000E+00  0.2760E+00
    -15.857  0.0000E+00  0.2760E+00
    -15.747  0.0000E+00  0.2760E+00
    -15.638  0.0000E+00  0.2760E+00
    -15.528  0.0000E+00  0.2760E+00
    -15.418  0.0000E+00  0.2760E+00
    -15.308  0.0000E+00  0.2760E+00
    -15.198  0.0000E+00  0.2760E+00
    -15.088  0.0000E+00  0.2760E+00
    -14.978  0.0000E+00  0.2760E+00
    -14.868  0.0000E+00  0.2760E+00
    -14.758  0.0000E+00  0.2760E+00
    -14.649  0.0000E+00  0.2760E+00
    -14.539  0.0000E+00  0.2760E+00
    -14.429  0.0000E+00  0.2760E+00
    -14.319  0.0000E+00  0.2760E+00
    -14.209  0.0000E+00  0.2760E+00
    -14.099  0.0000E+00  0.2760E+00
    -13.989  0.0000E+00  0.2760E+00
    -13.879  0.0000E+00  0.2760E+00
    -13.770  0.0000E+00  0.2760E+00
    -13.660  0.0000E+00  0.2760E+00
    -13.550  0.0000E+00  0.2760E+00
    -13.440  0.0000E+00  0.2760E+00
    -13.330  0.0000E+00  0.2760E+00
    -13.220  0.0000E+00  0.2760E+00
    -13.110  0.0000E+00  0.2760E+00
    -13.000  0.0000E+00  0.2760E+00
    -12.890  0.0000E+00  0.2760E+00
    -12.781  0.0000E+00  0.2760E+00
    -12.671  0.0000E+00  0.2760E+00
    -12.561 -0.5649E-31  0.2760E+00
    -12.451 -0.3719E-27  0.2760E+00
    -12.341 -0.1331E-23  0.2760E+00
    -12.231 -0.2591E-20  0.2760E+00
    -12.121 -0.2742E-17  0.2760E+00
    -12.011 -0.1528E-14  0.2760E+00
    -11.901 -0.4732E-12  0.2760E+00
    -11.792 -0.7932E-10  0.2760E+00
    -11.682 -0.7173E-08  0.2760E+00
    -11.572 -0.3484E-06  0.2760E+00
    -11.462 -0.9015E-05  0.2760E+00
    -11.352 -0.1219E-03  0.2760E+00
    -11.242 -0.8171E-03  0.2759E+00
    -11.132 -0.2177E-02  0.2757E+00
    -11.022  0.1974E-02  0.2759E+00
    -10.913  0.2401E-01  0.2785E+00
    -10.803  0.5290E-01  0.2843E+00
    -10.693  0.5124E-01  0.2900E+00
    -10.583  0.2101E-01  0.2923E+00
    -10.473  0.4427E-03  0.2923E+00
    -10.363 -0.2947E-02  0.2920E+00
    -10.253 -0.2764E-02  0.2917E+00
    -10.143  0.6532E-03  0.2918E+00
    -10.033  0.1839E-01  0.2938E+00
     -9.924  0.4927E-01  0.2992E+00
     -9.814  0.7546E-01  0.3075E+00
     -9.704  0.8517E-01  0.3168E+00
     -9.594  0.8657E-01  0.3264E+00
     -9.484  0.1051E+00  0.3379E+00
     -9.374  0.1316E+00  0.3524E+00
     -9.264  0.1182E+00  0.3653E+00
     -9.154  0.5920E-01  0.3718E+00
     -9.045  0.8802E-02  0.3728E+00
     -8.935 -0.4697E-02  0.3723E+00
     -8.825 -0.2291E-02  0.3720E+00
     -8.715 -0.3934E-03  0.3720E+00
     -8.605 -0.3239E-04  0.3720E+00
     -8.495 -0.1373E-05  0.3720E+00
     -8.385 -0.3077E-07  0.3720E+00
     -8.275 -0.3692E-09  0.3720E+00
     -8.165 -0.2387E-11  0.3720E+00
     -8.056 -0.8358E-14  0.3720E+00
     -7.946 -0.1617E-16  0.3720E+00
     -7.836  0.0000E+00  0.3720E+00
     -7.726  0.0000E+00  0.3720E+00
     -7.616  0.0000E+00  0.3720E+00
     -7.506  0.0000E+00  0.3720E+00
     -7.396  0.0000E+00  0.3720E+00
     -7.286  0.0000E+00  0.3720E+00
     -7.176  0.0000E+00  0.3720E+00
     -7.067  0.0000E+00  0.3720E+00
     -6.957  0.0000E+00  0.3720E+00
     -6.847  0.0000E+00  0.3720E+00
     -6.737  0.0000E+00  0.3720E+00
     -6.627  0.0000E+00  0.3720E+00
     -6.517  0.0000E+00  0.3720E+00
     -6.407  0.0000E+00  0.3720E+00
     -6.297  0.0000E+00  0.3720E+00
     -6.188  0.0000E+00  0.3720E+00
     -6.078  0.0000E+00  0.3720E+00
     -5.968  0.0000E+00  0.3720E+00
     -5.858  0.0000E+00  0.3720E+00
     -5.748  0.0000E+00  0.3720E+00
     -5.638  0.0000E+00  0.3720E+00
     -5.528  0.0000E+00  0.3720E+00
     -5.418  0.0000E+00  0.3720E+00
     -5.308  0.0000E+00  0.3720E+00
     -5.199  0.0000E+00  0.3720E+00
     -5.089  0.0000E+00  0.3720E+00
     -4.979  0.0000E+00  0.3720E+00
     -4.869 -0.1101E-31  0.3720E+00
     -4.759 -0.8286E-28  0.3720E+00
     -4.649 -0.3327E-24  0.3720E+00
     -4.539 -0.7279E-21  0.3720E+00
     -4.429 -0.8673E-18  0.3720E+00
     -4.320 -0.5443E-15  0.3720E+00
     -4.210 -0.1911E-12  0.3720E+00
     -4.100 -0.3628E-10  0.3720E+00
     -3.990 -0.3721E-08  0.3720E+00
     -3.880 -0.2050E-06  0.3720E+00
     -3.770 -0.6007E-05  0.3720E+00
     -3.660 -0.9175E-04  0.3720E+00
     -3.550 -0.6968E-03  0.3719E+00
     -3.440 -0.2255E-02  0.3717E+00
     -3.331 -0.1855E-03  0.3716E+00
     -3.221  0.1773E-01  0.3736E+00
     -3.111  0.5314E-01  0.3794E+00
     -3.001  0.8564E-01  0.3888E+00
     -2.891  0.8564E-01  0.3983E+00
     -2.781  0.4750E-01  0.4035E+00
     -2.671  0.9727E-02  0.4045E+00
     -2.561 -0.2653E-02  0.4042E+00
     -2.452 -0.1842E-02  0.4040E+00
     -2.342 -0.4171E-03  0.4040E+00
     -2.232 -0.3051E-03  0.4040E+00
     -2.122 -0.1330E-02  0.4038E+00
     -2.012 -0.2118E-02  0.4036E+00
     -1.902  0.6346E-02  0.4043E+00
     -1.792  0.3277E-01  0.4079E+00
     -1.682  0.6068E-01  0.4146E+00
     -1.572  0.6904E-01  0.4221E+00
     -1.463  0.6952E-01  0.4298E+00
     -1.353  0.7166E-01  0.4377E+00
     -1.243  0.6233E-01  0.4445E+00
     -1.133  0.4485E-01  0.4494E+00
     -1.023  0.4072E-01  0.4539E+00
     -0.913  0.5188E-01  0.4596E+00
     -0.803  0.5595E-01  0.4658E+00
     -0.693  0.4226E-01  0.4704E+00
     -0.583  0.3912E-01  0.4747E+00
     -0.474  0.7437E-01  0.4829E+00
     -0.364  0.1238E+00  0.4965E+00
     -0.254  0.1380E+00  0.5116E+00
     -0.144  0.1088E+00  0.5236E+00
     -0.034  0.7465E-01  0.5318E+00
      0.076  0.6910E-01  0.5394E+00
      0.186  0.8545E-01  0.5488E+00
      0.296  0.8575E-01  0.5582E+00
      0.405  0.6848E-01  0.5657E+00
      0.515  0.7192E-01  0.5736E+00
      0.625  0.1089E+00  0.5856E+00
      0.735  0.1461E+00  0.6016E+00
      0.845  0.1499E+00  0.6181E+00
      0.955  0.1272E+00  0.6321E+00
      1.065  0.9722E-01  0.6428E+00
      1.175  0.7733E-01  0.6513E+00
      1.285  0.5854E-01  0.6577E+00
      1.394  0.2430E-01  0.6604E+00
      1.504  0.4344E-03  0.6604E+00
      1.614 -0.2856E-02  0.6601E+00
      1.724 -0.8666E-03  0.6600E+00
      1.834 -0.1087E-03  0.6600E+00
      1.944 -0.6744E-05  0.6600E+00
      2.054 -0.2185E-06  0.6600E+00
      2.164 -0.3780E-08  0.6600E+00
      2.273 -0.3525E-10  0.6600E+00
      2.383 -0.1782E-12  0.6600E+00
      2.493 -0.4931E-15  0.6600E+00
      2.603 -0.1732E-29  0.6600E+00
      2.713 -0.9019E-26  0.6600E+00
      2.823 -0.2555E-22  0.6600E+00
      2.933 -0.3933E-19  0.6600E+00
      3.043 -0.3285E-16  0.6600E+00
      3.153 -0.1436E-13  0.6600E+00
      3.262 -0.3485E-11  0.6600E+00
      3.372 -0.4541E-09  0.6600E+00
      3.482 -0.3154E-07  0.6600E+00
      3.592 -0.1153E-05  0.6600E+00
      3.702 -0.2165E-04  0.6600E+00
      3.812 -0.1975E-03  0.6600E+00
      3.922 -0.7306E-03  0.6599E+00
      4.032  0.9805E-04  0.6599E+00
      4.142  0.6957E-02  0.6607E+00
      4.251  0.1560E-01  0.6624E+00
      4.361  0.1276E-01  0.6638E+00
      4.471  0.3233E-02  0.6641E+00
      4.581 -0.7110E-03  0.6641E+00
      4.691 -0.4861E-03  0.6640E+00
      4.801 -0.1032E-03  0.6640E+00
      4.911 -0.2075E-03  0.6640E+00
      5.021 -0.1129E-02  0.6639E+00
      5.130 -0.2124E-02  0.6636E+00
      5.240  0.4859E-02  0.6642E+00
      5.350  0.2882E-01  0.6673E+00
      5.460  0.5509E-01  0.6734E+00
      5.570  0.5743E-01  0.6797E+00
      5.680  0.4307E-01  0.6844E+00
      5.790  0.4299E-01  0.6891E+00
      5.900  0.4873E-01  0.6945E+00
      6.010  0.4257E-01  0.6992E+00
      6.119  0.4840E-01  0.7045E+00
      6.229  0.6747E-01  0.7119E+00
      6.339  0.6868E-01  0.7195E+00
      6.449  0.5722E-01  0.7257E+00
      6.559  0.5889E-01  0.7322E+00
      6.669  0.6902E-01  0.7398E+00
      6.779  0.6843E-01  0.7473E+00
      6.889  0.7011E-01  0.7550E+00
      6.998  0.9294E-01  0.7652E+00
      7.108  0.1069E+00  0.7770E+00
      7.218  0.8163E-01  0.7859E+00
      7.328  0.4252E-01  0.7906E+00
      7.438  0.1449E-01  0.7922E+00
      7.548  0.6476E-03  0.7923E+00
      7.658 -0.1799E-02  0.7921E+00
      7.768 -0.6806E-03  0.7920E+00
      7.878 -0.1045E-03  0.7920E+00
      7.987 -0.7847E-05  0.7920E+00
      8.097 -0.3045E-06  0.7920E+00
      8.207 -0.6241E-08  0.7920E+00
      8.317 -0.6838E-10  0.7920E+00
      8.427 -0.4029E-12  0.7920E+00
      8.537 -0.1285E-14  0.7920E+00
      8.647  0.0000E+00  0.7920E+00
      8.757  0.0000E+00  0.7920E+00
      8.866  0.0000E+00  0.7920E+00
      8.976  0.0000E+00  0.7920E+00
      9.086  0.0000E+00  0.7920E+00
      9.196  0.0000E+00  0.7920E+00
      9.306  0.0000E+00  0.7920E+00
