 vasp.6.3.2 27Jun22 (build Jun 14 2024 17:29:11) complex                         
 POSCAR found type information on POSCAR NaAlS 
 05/POSCAR found :  3 types and      55 ions
 -----------------------------------------------------------------------------
|                                                                             |
|           W    W    AA    RRRRR   N    N  II  N    N   GGGG   !!!           |
|           W    W   A  A   R    R  NN   N  II  NN   N  G    G  !!!           |
|           W    W  A    A  R    R  N N  N  II  N N  N  G       !!!           |
|           W WW W  AAAAAA  RRRRR   N  N N  II  N  N N  G  GGG   !            |
|           WW  WW  A    A  R   R   N   NN  II  N   NN  G    G                |
|           W    W  A    A  R    R  N    N  II  N    N   GGGG   !!!           |
|                                                                             |
|     The value NPAR = 9 specified in the INCAR file was overwritten,         |
|     because it was not compatible with the 3 processes available:           |
|     NPAR = 3                                                                |
|     was used instead, please check that this makes sense for your           |
|     machine.                                                                |
|                                                                             |
 -----------------------------------------------------------------------------

 LDA part: xc-table for Pade appr. of Perdew
 POSCAR found type information on POSCAR NaAlS 
 00/POSCAR found :  3 types and      55 ions
 POSCAR found type information on POSCAR NaAlS 
 10/POSCAR found :  3 types and      55 ions
 POSCAR, INCAR and KPOINTS ok, starting setup
 FFT: planning ... GRIDC
 FFT: planning ... GRID_SOFT
 FFT: planning ... GRID
 WAVECAR not read
 entering main loop
       N       E                     dE             d eps       ncg     rms          rms(c)
DAV:   1     0.299872073116E+04    0.29987E+04   -0.13253E+05   432   0.137E+03
DAV:   2     0.188303588807E+03   -0.28104E+04   -0.27080E+04   441   0.384E+02
DAV:   3    -0.214018771646E+03   -0.40232E+03   -0.39889E+03   477   0.159E+02
DAV:   4    -0.234357581800E+03   -0.20339E+02   -0.20193E+02   459   0.347E+01
DAV:   5    -0.235231957328E+03   -0.87438E+00   -0.87334E+00   558   0.747E+00    0.251E+01
RMM:   6    -0.223782902440E+03    0.11449E+02   -0.20160E+01   425   0.594E+00    0.166E+01
RMM:   7    -0.223188914905E+03    0.59399E+00   -0.27678E+01   424   0.594E+00    0.867E+00
RMM:   8    -0.222852658369E+03    0.33626E+00   -0.23037E+00   430   0.317E+00    0.241E+00
RMM:   9    -0.222875176050E+03   -0.22518E-01   -0.86696E-01   482   0.173E+00    0.193E+00
RMM:  10    -0.222833474026E+03    0.41702E-01   -0.20787E-01   472   0.859E-01    0.589E-01
RMM:  11    -0.222839279120E+03   -0.58051E-02   -0.46229E-02   551   0.374E-01    0.537E-01
RMM:  12    -0.222840631985E+03   -0.13529E-02   -0.12835E-02   408   0.205E-01    0.192E-01
RMM:  13    -0.222840963103E+03   -0.33112E-03   -0.59102E-03   462   0.139E-01    0.168E-01
RMM:  14    -0.222840953854E+03    0.92493E-05   -0.64850E-04   434   0.711E-02    0.593E-02
RMM:  15    -0.222841062082E+03   -0.10823E-03   -0.58197E-04   337   0.437E-02    0.416E-02
RMM:  16    -0.222841057164E+03    0.49181E-05   -0.10770E-04   453   0.234E-02    0.235E-02
RMM:  17    -0.222841060478E+03   -0.33141E-05   -0.16811E-05   257   0.973E-03
   1 F= -.22284106E+03 E0= -.22284207E+03  d E =-.222841E+03
quench:  g(F)=  0.000E+00 g(S)=  0.000E+00 dE (1.order)= 0.000E+00
 bond charge predicted
       N       E                     dE             d eps       ncg     rms          rms(c)
DAV:   1    -0.222841062700E+03   -0.55353E-05   -0.49298E-06   252   0.844E-03    0.949E-03
RMM:   2    -0.222841061995E+03    0.70421E-06   -0.27743E-06   231   0.504E-03
   2 F= -.22284106E+03 E0= -.22284206E+03  d E =-.151703E-05
quench:  g(F)=  0.000E+00 g(S)=  0.000E+00 dE (1.order)= 0.000E+00
 bond charge predicted
       N       E                     dE             d eps       ncg     rms          rms(c)
DAV:   1    -0.222841061607E+03    0.10930E-05   -0.15813E-06   279   0.478E-03    0.395E-03
RMM:   2    -0.222841061409E+03    0.19751E-06   -0.46661E-07   176   0.248E-03
   3 F= -.22284106E+03 E0= -.22284206E+03  d E =0.586326E-06
quench:  g(F)=  0.000E+00 g(S)=  0.000E+00 dE (1.order)= 0.000E+00
 bond charge predicted
       N       E                     dE             d eps       ncg     rms          rms(c)
DAV:   1    -0.222841061363E+03    0.24360E-06   -0.45963E-07   288   0.210E-03    0.187E-03
RMM:   2    -0.222841061332E+03    0.31203E-07   -0.23547E-08    74   0.139E-03
   4 F= -.22284106E+03 E0= -.22284206E+03  d E =0.772998E-07
quench:  g(F)=  0.000E+00 g(S)=  0.000E+00 dE (1.order)= 0.000E+00
 bond charge predicted
       N       E                     dE             d eps       ncg     rms          rms(c)
DAV:   1    -0.222841061320E+03    0.43292E-07   -0.20096E-07   270   0.145E-03    0.863E-04
RMM:   2    -0.222841061303E+03    0.16269E-07    0.13377-186    47   0.943E-04
   5 F= -.22284106E+03 E0= -.22284206E+03  d E =0.283580E-07
quench:  g(F)=  0.000E+00 g(S)=  0.000E+00 dE (1.order)= 0.000E+00
 bond charge predicted
       N       E                     dE             d eps       ncg     rms          rms(c)
DAV:   1    -0.222841061301E+03    0.18728E-07   -0.69390E-08   252   0.101E-03    0.435E-04
RMM:   2    -0.222841061288E+03    0.12562E-07    0.89271-187    36   0.601E-04
   6 F= -.22284106E+03 E0= -.22284206E+03  d E =0.150212E-07
quench:  g(F)=  0.000E+00 g(S)=  0.000E+00 dE (1.order)= 0.000E+00
 bond charge predicted
       N       E                     dE             d eps       ncg     rms          rms(c)
DAV:   1    -0.222841061280E+03    0.20809E-07   -0.32855E-08   252   0.694E-04    0.273E-04
RMM:   2    -0.222841061277E+03    0.31032E-08    0.58153-187    28   0.460E-04
   7 F= -.22284106E+03 E0= -.22284206E+03  d E =0.113505E-07
quench:  g(F)=  0.000E+00 g(S)=  0.000E+00 dE (1.order)= 0.000E+00
 bond charge predicted
       N       E                     dE             d eps       ncg     rms          rms(c)
DAV:   1    -0.222841061277E+03    0.32596E-08   -0.14919E-08   225   0.526E-04    0.155E-04
RMM:   2    -0.222841061271E+03    0.53915E-08    0.36177-187    25   0.317E-04
   8 F= -.22284106E+03 E0= -.22284206E+03  d E =0.554792E-08
quench:  g(F)=  0.000E+00 g(S)=  0.000E+00 dE (1.order)= 0.000E+00
 bond charge predicted
       N       E                     dE             d eps       ncg     rms          rms(c)
DAV:   1    -0.222841061269E+03    0.81272E-08   -0.78370E-09   225   0.377E-04    0.115E-04
RMM:   2    -0.222841061269E+03    0.10550E-09    0.19755-269    20   0.250E-04
   9 F= -.22284106E+03 E0= -.22284206E+03  d E =0.284126E-08
quench:  g(F)=  0.000E+00 g(S)=  0.000E+00 dE (1.order)= 0.000E+00
 bond charge predicted
       N       E                     dE             d eps       ncg     rms          rms(c)
DAV:   1    -0.222841061270E+03   -0.12515E-08   -0.41503E-09   225   0.311E-04    0.628E-05
RMM:   2    -0.222841061267E+03    0.28194E-08    0.52646-277    15   0.184E-04
  10 F= -.22284106E+03 E0= -.22284206E+03  d E =0.146247E-08
quench:  g(F)=  0.000E+00 g(S)=  0.000E+00 dE (1.order)= 0.000E+00
 bond charge predicted
       N       E                     dE             d eps       ncg     rms          rms(c)
DAV:   1    -0.222841061267E+03    0.27030E-08   -0.24342E-09   225   0.224E-04    0.490E-05
RMM:   2    -0.222841061267E+03    0.57480E-09    0.00000E+00    10   0.144E-04
  11 F= -.22284106E+03 E0= -.22284206E+03  d E =0.458385E-09
quench:  g(F)=  0.000E+00 g(S)=  0.000E+00 dE (1.order)= 0.000E+00
 bond charge predicted
       N       E                     dE             d eps       ncg     rms          rms(c)
DAV:   1    -0.222841061267E+03    0.55297E-09   -0.14414E-09   225   0.190E-04    0.304E-05
RMM:   2    -0.222841061266E+03    0.59299E-09    0.00000E+00    10   0.112E-04
  12 F= -.22284106E+03 E0= -.22284206E+03  d E =0.571163E-09
quench:  g(F)=  0.000E+00 g(S)=  0.000E+00 dE (1.order)= 0.000E+00
 bond charge predicted
       N       E                     dE             d eps       ncg     rms          rms(c)
DAV:   1    -0.222841061265E+03    0.21319E-08   -0.10067E-09   225   0.145E-04    0.223E-05
RMM:   2    -0.222841061266E+03   -0.15534E-08    0.00000E+00     5   0.876E-05
  13 F= -.22284106E+03 E0= -.22284206E+03  d E =-.145519E-10
quench:  g(F)=  0.000E+00 g(S)=  0.000E+00 dE (1.order)= 0.000E+00
 bond charge predicted
       N       E                     dE             d eps       ncg     rms          rms(c)
DAV:   1    -0.222841061267E+03   -0.19645E-08   -0.50251E-10   225   0.116E-04    0.168E-05
RMM:   2    -0.222841061266E+03    0.84037E-09    0.00000E+00     4   0.703E-05
  14 F= -.22284106E+03 E0= -.22284206E+03  d E =0.429281E-09
quench:  g(F)=  0.000E+00 g(S)=  0.000E+00 dE (1.order)= 0.000E+00
 bond charge predicted
       N       E                     dE             d eps       ncg     rms          rms(c)
DAV:   1    -0.222841061264E+03    0.23829E-08   -0.46551E-10   225   0.951E-05    0.128E-05
RMM:   2    -0.222841061266E+03   -0.16989E-08    0.00000E+00     4   0.554E-05
  15 F= -.22284106E+03 E0= -.22284206E+03  d E =-.156433E-09
quench:  g(F)=  0.000E+00 g(S)=  0.000E+00 dE (1.order)= 0.000E+00
 bond charge predicted
       N       E                     dE             d eps       ncg     rms          rms(c)
DAV:   1    -0.222841061266E+03   -0.22628E-08   -0.84531E-11   225   0.756E-05    0.998E-06
RMM:   2    -0.222841061266E+03    0.50932E-09    0.00000E+00     4   0.448E-05
  16 F= -.22284106E+03 E0= -.22284206E+03  d E =-.545697E-10
quench:  g(F)=  0.000E+00 g(S)=  0.000E+00 dE (1.order)= 0.000E+00
 bond charge predicted
       N       E                     dE             d eps       ncg     rms          rms(c)
DAV:   1    -0.222841061266E+03    0.76761E-09   -0.19964E-10   225   0.615E-05    0.798E-06
RMM:   2    -0.222841061266E+03   -0.25102E-09    0.00000E+00     3   0.359E-05
  17 F= -.22284106E+03 E0= -.22284206E+03  d E =0.727596E-11
quench:  g(F)=  0.000E+00 g(S)=  0.000E+00 dE (1.order)= 0.000E+00
 bond charge predicted
       N       E                     dE             d eps       ncg     rms          rms(c)
DAV:   1    -0.222841061265E+03    0.22919E-09   -0.12400E-10   225   0.503E-05    0.643E-06
RMM:   2    -0.222841061266E+03   -0.30923E-09    0.00000E+00     2   0.291E-05
  18 F= -.22284106E+03 E0= -.22284206E+03  d E =0.170985E-09
quench:  g(F)=  0.000E+00 g(S)=  0.000E+00 dE (1.order)= 0.000E+00
 bond charge predicted
       N       E                     dE             d eps       ncg     rms          rms(c)
DAV:   1    -0.222841061265E+03    0.41109E-09   -0.16785E-10   225   0.409E-05    0.516E-06
RMM:   2    -0.222841061266E+03   -0.53114E-09    0.00000E+00     1   0.235E-05
  19 F= -.22284106E+03 E0= -.22284206E+03  d E =0.189175E-09
quench:  g(F)=  0.000E+00 g(S)=  0.000E+00 dE (1.order)= 0.000E+00
 bond charge predicted
       N       E                     dE             d eps       ncg     rms          rms(c)
DAV:   1    -0.222841061267E+03   -0.23247E-08   -0.13898E-10   198   0.334E-05    0.422E-06
RMM:   2    -0.222841061266E+03    0.16043E-08    0.00000E+00     1   0.192E-05
  20 F= -.22284106E+03 E0= -.22284206E+03  d E =-.189175E-09
quench:  g(F)=  0.000E+00 g(S)=  0.000E+00 dE (1.order)= 0.000E+00
 bond charge predicted
       N       E                     dE             d eps       ncg     rms          rms(c)
DAV:   1    -0.222841061266E+03    0.13242E-08   -0.10424E-10   198   0.274E-05    0.345E-06
RMM:   2    -0.222841061266E+03    0.32014E-09    0.00000E+00     1   0.156E-05
  21 F= -.22284106E+03 E0= -.22284206E+03  d E =0.400178E-10
quench:  g(F)=  0.000E+00 g(S)=  0.000E+00 dE (1.order)= 0.000E+00
 bond charge predicted
       N       E                     dE             d eps       ncg     rms          rms(c)
DAV:   1    -0.222841061267E+03   -0.62937E-09   -0.39086E-11   198   0.225E-05    0.283E-06
RMM:   2    -0.222841061266E+03    0.10514E-08    0.00000E+00     1   0.128E-05
  22 F= -.22284106E+03 E0= -.22284206E+03  d E =0.101863E-09
quench:  g(F)=  0.000E+00 g(S)=  0.000E+00 dE (1.order)= 0.000E+00
 bond charge predicted
       N       E                     dE             d eps       ncg     rms          rms(c)
DAV:   1    -0.222841061266E+03    0.93132E-09   -0.82218E-11   198   0.184E-05    0.232E-06
RMM:   2    -0.222841061266E+03   -0.17099E-09    0.00000E+00     1   0.104E-05
  23 F= -.22284106E+03 E0= -.22284206E+03  d E =-.291038E-09
quench:  g(F)=  0.000E+00 g(S)=  0.000E+00 dE (1.order)= 0.000E+00
 bond charge predicted
       N       E                     dE             d eps       ncg     rms          rms(c)
DAV:   1    -0.222841061267E+03   -0.81491E-09   -0.14744E-10   198   0.152E-05    0.192E-06
RMM:   2    -0.222841061266E+03    0.67303E-09    0.00000E+00     1   0.855E-06
  24 F= -.22284106E+03 E0= -.22284206E+03  d E =0.291038E-10
quench:  g(F)=  0.000E+00 g(S)=  0.000E+00 dE (1.order)= 0.000E+00
 bond charge predicted
       N       E                     dE             d eps       ncg     rms          rms(c)
DAV:   1    -0.222841061266E+03    0.64756E-09   -0.21023E-11   198   0.125E-05    0.158E-06
RMM:   2    -0.222841061266E+03    0.24738E-09    0.00000E+00     1   0.701E-06
  25 F= -.22284106E+03 E0= -.22284206E+03  d E =0.221917E-09
quench:  g(F)=  0.000E+00 g(S)=  0.000E+00 dE (1.order)= 0.000E+00
 bond charge predicted
       N       E                     dE             d eps       ncg     rms          rms(c)
DAV:   1    -0.222841061266E+03    0.31650E-09    0.73541E-11   198   0.103E-05    0.131E-06
RMM:   2    -0.222841061266E+03   -0.10550E-09    0.00000E+00     1   0.577E-06
  26 F= -.22284106E+03 E0= -.22284206E+03  d E =-.363798E-10
quench:  g(F)=  0.000E+00 g(S)=  0.000E+00 dE (1.order)= 0.000E+00
 bond charge predicted
       N       E                     dE             d eps       ncg     rms          rms(c)
DAV:   1    -0.222841061266E+03   -0.44747E-09   -0.12216E-10   198   0.853E-06    0.108E-06
RMM:   2    -0.222841061266E+03    0.40382E-09    0.00000E+00     1   0.474E-06
  27 F= -.22284106E+03 E0= -.22284206E+03  d E =0.618456E-10
quench:  g(F)=  0.000E+00 g(S)=  0.000E+00 dE (1.order)= 0.000E+00
 bond charge predicted
       N       E                     dE             d eps       ncg     rms          rms(c)
DAV:   1    -0.222841061265E+03    0.10950E-08    0.11780E-10   198   0.706E-06    0.900E-07
RMM:   2    -0.222841061266E+03   -0.73851E-09    0.00000E+00     1   0.391E-06
  28 F= -.22284106E+03 E0= -.22284206E+03  d E =-.472937E-10
quench:  g(F)=  0.000E+00 g(S)=  0.000E+00 dE (1.order)= 0.000E+00
 bond charge predicted
       N       E                     dE             d eps       ncg     rms          rms(c)
DAV:   1    -0.222841061266E+03   -0.12260E-08   -0.73020E-11   198   0.584E-06    0.748E-07
RMM:   2    -0.222841061266E+03    0.40018E-09    0.00000E+00     1   0.322E-06
  29 F= -.22284106E+03 E0= -.22284206E+03  d E =-.873115E-10
quench:  g(F)=  0.000E+00 g(S)=  0.000E+00 dE (1.order)= 0.000E+00
 bond charge predicted
       N       E                     dE             d eps       ncg     rms          rms(c)
DAV:   1    -0.222841061265E+03    0.86584E-09   -0.11709E-10   198   0.484E-06    0.622E-07
RMM:   2    -0.222841061266E+03   -0.34197E-09    0.00000E+00     1   0.266E-06
  30 F= -.22284106E+03 E0= -.22284206E+03  d E =0.123691E-09
quench:  g(F)=  0.000E+00 g(S)=  0.000E+00 dE (1.order)= 0.000E+00
 bond charge predicted
       N       E                     dE             d eps       ncg     rms          rms(c)
DAV:   1    -0.222841061266E+03   -0.94951E-09   -0.51577E-11   198   0.401E-06    0.518E-07
RMM:   2    -0.222841061266E+03    0.62209E-09    0.00000E+00     1   0.220E-06
  31 F= -.22284106E+03 E0= -.22284206E+03  d E =0.145519E-10
quench:  g(F)=  0.000E+00 g(S)=  0.000E+00 dE (1.order)= 0.000E+00
 bond charge predicted
       N       E                     dE             d eps       ncg     rms          rms(c)
DAV:   1    -0.222841061265E+03    0.12042E-08   -0.66864E-11   198   0.334E-06    0.432E-07
RMM:   2    -0.222841061266E+03   -0.10004E-08    0.00000E+00     1   0.182E-06
  32 F= -.22284106E+03 E0= -.22284206E+03  d E =-.418368E-09
quench:  g(F)=  0.000E+00 g(S)=  0.000E+00 dE (1.order)= 0.000E+00
 bond charge predicted
       N       E                     dE             d eps       ncg     rms          rms(c)
DAV:   1    -0.222841061267E+03   -0.15461E-08   -0.15330E-10   198   0.277E-06    0.360E-07
RMM:   2    -0.222841061266E+03    0.86584E-09    0.00000E+00     1   0.151E-06
  33 F= -.22284106E+03 E0= -.22284206E+03  d E =0.320142E-09
quench:  g(F)=  0.000E+00 g(S)=  0.000E+00 dE (1.order)= 0.000E+00
 bond charge predicted
       N       E                     dE             d eps       ncg     rms          rms(c)
DAV:   1    -0.222841061266E+03    0.93860E-09    0.12335E-10   198   0.230E-06    0.301E-07
RMM:   2    -0.222841061266E+03   -0.65484E-10    0.00000E+00     1   0.125E-06
  34 F= -.22284106E+03 E0= -.22284206E+03  d E =0.727596E-11
quench:  g(F)=  0.000E+00 g(S)=  0.000E+00 dE (1.order)= 0.000E+00
 bond charge predicted
       N       E                     dE             d eps       ncg     rms          rms(c)
DAV:   1    -0.222841061266E+03    0.15280E-09   -0.67839E-11   198   0.192E-06    0.251E-07
RMM:   2    -0.222841061266E+03   -0.35652E-09    0.00000E+00     1   0.104E-06
  35 F= -.22284106E+03 E0= -.22284206E+03  d E =-.138243E-09
quench:  g(F)=  0.000E+00 g(S)=  0.000E+00 dE (1.order)= 0.000E+00
 bond charge predicted
       N       E                     dE             d eps       ncg     rms          rms(c)
DAV:   1    -0.222841061265E+03    0.10550E-09    0.14253E-11   198   0.160E-06    0.210E-07
RMM:   2    -0.222841061266E+03   -0.45111E-09    0.00000E+00     1   0.860E-07
  36 F= -.22284106E+03 E0= -.22284206E+03  d E =0.109139E-10
quench:  g(F)=  0.000E+00 g(S)=  0.000E+00 dE (1.order)= 0.000E+00
 bond charge predicted
       N       E                     dE             d eps       ncg     rms          rms(c)
DAV:   1    -0.222841061266E+03   -0.25466E-09   -0.10466E-10   198   0.133E-06    0.176E-07
RMM:   2    -0.222841061266E+03    0.58208E-10    0.00000E+00     1   0.714E-07
  37 F= -.22284106E+03 E0= -.22284206E+03  d E =0.254659E-09
quench:  g(F)=  0.000E+00 g(S)=  0.000E+00 dE (1.order)= 0.000E+00
 bond charge predicted
       N       E                     dE             d eps       ncg     rms          rms(c)
DAV:   1    -0.222841061265E+03    0.75306E-09   -0.17437E-10   198   0.111E-06    0.147E-07
RMM:   2    -0.222841061266E+03   -0.70213E-09    0.00000E+00     1   0.593E-07
  38 F= -.22284106E+03 E0= -.22284206E+03  d E =-.727596E-11
quench:  g(F)=  0.000E+00 g(S)=  0.000E+00 dE (1.order)= 0.000E+00
 bond charge predicted
       N       E                     dE             d eps       ncg     rms          rms(c)
DAV:   1    -0.222841061265E+03   -0.52387E-09    0.15906E-10   198   0.920E-07    0.123E-07
RMM:   2    -0.222841061266E+03   -0.34561E-09    0.00000E+00     1   0.493E-07
  39 F= -.22284106E+03 E0= -.22284206E+03  d E =-.167347E-09
quench:  g(F)=  0.000E+00 g(S)=  0.000E+00 dE (1.order)= 0.000E+00
 bond charge predicted
       N       E                     dE             d eps       ncg     rms          rms(c)
DAV:   1    -0.222841061265E+03    0.39290E-09    0.27567E-11   198   0.772E-07    0.103E-07
RMM:   2    -0.222841061266E+03   -0.62937E-09    0.00000E+00     1   0.411E-07
  40 F= -.22284106E+03 E0= -.22284206E+03  d E =0.109139E-09
quench:  g(F)=  0.000E+00 g(S)=  0.000E+00 dE (1.order)= 0.000E+00
 bond charge predicted
       N       E                     dE             d eps       ncg     rms          rms(c)
DAV:   1    -0.222841061265E+03   -0.41109E-09    0.53938E-11   198   0.647E-07    0.868E-08
RMM:   2    -0.222841061266E+03   -0.32378E-09    0.00000E+00     1   0.342E-07
  41 F= -.22284106E+03 E0= -.22284206E+03  d E =-.105501E-09
quench:  g(F)=  0.000E+00 g(S)=  0.000E+00 dE (1.order)= 0.000E+00
 bond charge predicted
       N       E                     dE             d eps       ncg     rms          rms(c)
DAV:   1    -0.222841061266E+03   -0.46566E-09    0.19088E-11   198   0.540E-07    0.725E-08
RMM:   2    -0.222841061266E+03    0.83674E-10    0.00000E+00     1   0.285E-07
  42 F= -.22284106E+03 E0= -.22284206E+03  d E =-.582077E-10
quench:  g(F)=  0.000E+00 g(S)=  0.000E+00 dE (1.order)= 0.000E+00
 bond charge predicted
       N       E                     dE             d eps       ncg     rms          rms(c)
DAV:   1    -0.222841061265E+03    0.60754E-09    0.91533E-11   198   0.449E-07    0.608E-08
RMM:   2    -0.222841061266E+03   -0.37107E-09    0.00000E+00     1   0.238E-07
  43 F= -.22284106E+03 E0= -.22284206E+03  d E =0.152795E-09
quench:  g(F)=  0.000E+00 g(S)=  0.000E+00 dE (1.order)= 0.000E+00
 bond charge predicted
       N       E                     dE             d eps       ncg     rms          rms(c)
DAV:   1    -0.222841061265E+03    0.65484E-10    0.11686E-10   198   0.374E-07    0.508E-08
RMM:   2    -0.222841061266E+03   -0.46930E-09    0.00000E+00     1   0.198E-07
  44 F= -.22284106E+03 E0= -.22284206E+03  d E =-.327418E-10
quench:  g(F)=  0.000E+00 g(S)=  0.000E+00 dE (1.order)= 0.000E+00
 bond charge predicted
       N       E                     dE             d eps       ncg     rms          rms(c)
DAV:   1    -0.222841061265E+03   -0.13461E-09    0.14127E-10   198   0.313E-07    0.429E-08
RMM:   2    -0.222841061266E+03   -0.24374E-09    0.00000E+00     1   0.165E-07
  45 F= -.22284106E+03 E0= -.22284206E+03  d E =0.909495E-10
quench:  g(F)=  0.000E+00 g(S)=  0.000E+00 dE (1.order)= 0.000E+00
 bond charge predicted
       N       E                     dE             d eps       ncg     rms          rms(c)
DAV:   1    -0.222841061265E+03    0.44747E-09    0.10383E-10   198   0.264E-07    0.362E-08
RMM:   2    -0.222841061266E+03   -0.87675E-09    0.00000E+00     1   0.138E-07
  46 F= -.22284106E+03 E0= -.22284206E+03  d E =-.185537E-09
quench:  g(F)=  0.000E+00 g(S)=  0.000E+00 dE (1.order)= 0.000E+00
 bond charge predicted
       N       E                     dE             d eps       ncg     rms          rms(c)
DAV:   1    -0.222841061265E+03   -0.38563E-09    0.20567E-10   198   0.218E-07    0.299E-08
RMM:   2    -0.222841061266E+03   -0.41837E-09    0.00000E+00     0   0.115E-07
  47 F= -.22284106E+03 E0= -.22284206E+03  d E =0.727596E-10
quench:  g(F)=  0.000E+00 g(S)=  0.000E+00 dE (1.order)= 0.000E+00
 bond charge predicted
       N       E                     dE             d eps       ncg     rms          rms(c)
DAV:   1    -0.222841061266E+03   -0.87675E-09    0.14764E-10   198   0.185E-07    0.258E-08
RMM:   2    -0.222841061266E+03    0.53478E-09    0.00000E+00     0   0.966E-08
  48 F= -.22284106E+03 E0= -.22284206E+03  d E =0.763976E-10
quench:  g(F)=  0.000E+00 g(S)=  0.000E+00 dE (1.order)= 0.000E+00
 bond charge predicted
       N       E                     dE             d eps       ncg     rms          rms(c)
DAV:   1    -0.222841061265E+03    0.96406E-09    0.73494E-11   198   0.158E-07    0.217E-08
RMM:   2    -0.222841061266E+03   -0.45111E-09    0.00000E+00     0   0.806E-08
  49 F= -.22284106E+03 E0= -.22284206E+03  d E =-.218279E-10
quench:  g(F)=  0.000E+00 g(S)=  0.000E+00 dE (1.order)= 0.000E+00
 bond charge predicted
       N       E                     dE             d eps       ncg     rms          rms(c)
DAV:   1    -0.222841061265E+03    0.51659E-09    0.10244E-10   198   0.130E-07    0.179E-08
RMM:   2    -0.222841061266E+03   -0.10186E-08    0.00000E+00     0   0.675E-08
  50 F= -.22284106E+03 E0= -.22284206E+03  d E =-.509317E-10
quench:  g(F)=  0.000E+00 g(S)=  0.000E+00 dE (1.order)= 0.000E+00
 bond charge predicted
       N       E                     dE             d eps       ncg     rms          rms(c)
DAV:   1    -0.222841061264E+03    0.28012E-09    0.10061E-10   198   0.108E-07    0.151E-08
RMM:   2    -0.222841061266E+03   -0.11460E-08    0.00000E+00     0   0.566E-08
  51 F= -.22284106E+03 E0= -.22284206E+03  d E =0.152795E-09
quench:  g(F)=  0.000E+00 g(S)=  0.000E+00 dE (1.order)= 0.000E+00
 bond charge predicted
       N       E                     dE             d eps       ncg     rms          rms(c)
DAV:   1    -0.222841061265E+03   -0.59663E-09    0.53407E-11   198   0.896E-08    0.126E-08
RMM:   2    -0.222841061266E+03   -0.70213E-09    0.00000E+00     0   0.472E-08
  52 F= -.22284106E+03 E0= -.22284206E+03  d E =-.152795E-09
quench:  g(F)=  0.000E+00 g(S)=  0.000E+00 dE (1.order)= 0.000E+00
 bond charge predicted
       N       E                     dE             d eps       ncg     rms          rms(c)
DAV:   1    -0.222841061265E+03   -0.40745E-09    0.60178E-11   198   0.775E-08    0.110E-08
RMM:   2    -0.222841061266E+03   -0.22192E-09    0.00000E+00     0   0.397E-08
  53 F= -.22284106E+03 E0= -.22284206E+03  d E =0.727596E-10
quench:  g(F)=  0.000E+00 g(S)=  0.000E+00 dE (1.order)= 0.000E+00
 bond charge predicted
       N       E                     dE             d eps       ncg     rms          rms(c)
DAV:   1    -0.222841061266E+03   -0.46566E-09   -0.37076E-12   198   0.665E-08    0.916E-09
RMM:   2    -0.222841061266E+03    0.22555E-09    0.00000E+00     0   0.332E-08
  54 F= -.22284106E+03 E0= -.22284206E+03  d E =-.181899E-10
quench:  g(F)=  0.000E+00 g(S)=  0.000E+00 dE (1.order)= 0.000E+00
 bond charge predicted
       N       E                     dE             d eps       ncg     rms          rms(c)
DAV:   1    -0.222841061267E+03   -0.10950E-08    0.10874E-10   198   0.562E-08    0.785E-09
RMM:   2    -0.222841061266E+03    0.14261E-08    0.00000E+00     0   0.281E-08
  55 F= -.22284106E+03 E0= -.22284206E+03  d E =0.105501E-09
quench:  g(F)=  0.000E+00 g(S)=  0.000E+00 dE (1.order)= 0.000E+00
 bond charge predicted
       N       E                     dE             d eps       ncg     rms          rms(c)
DAV:   1    -0.222841061265E+03    0.15461E-08    0.30808E-12   198   0.485E-08    0.673E-09
RMM:   2    -0.222841061266E+03   -0.28740E-09    0.00000E+00     0   0.236E-08
  56 F= -.22284106E+03 E0= -.22284206E+03  d E =-.167347E-09
quench:  g(F)=  0.000E+00 g(S)=  0.000E+00 dE (1.order)= 0.000E+00
 bond charge predicted
       N       E                     dE             d eps       ncg     rms          rms(c)
DAV:   1    -0.222841061266E+03   -0.21828E-09    0.33887E-10   198   0.407E-08    0.563E-09
RMM:   2    -0.222841061266E+03    0.80036E-10    0.00000E+00     0   0.199E-08
  57 F= -.22284106E+03 E0= -.22284206E+03  d E =0.149157E-09
quench:  g(F)=  0.000E+00 g(S)=  0.000E+00 dE (1.order)= 0.000E+00
 bond charge predicted
       N       E                     dE             d eps       ncg     rms          rms(c)
DAV:   1    -0.222841061265E+03    0.99681E-09    0.15807E-10   198   0.333E-08    0.468E-09
RMM:   2    -0.222841061266E+03   -0.95315E-09    0.00000E+00     0   0.168E-08
  58 F= -.22284106E+03 E0= -.22284206E+03  d E =-.363798E-10
quench:  g(F)=  0.000E+00 g(S)=  0.000E+00 dE (1.order)= 0.000E+00
 bond charge predicted
       N       E                     dE             d eps       ncg     rms          rms(c)
DAV:   1    -0.222841061266E+03   -0.13242E-08    0.55663E-11   198   0.249E-08    0.357E-09
RMM:   2    -0.222841061266E+03    0.22919E-09    0.00000E+00     0   0.139E-08
  59 F= -.22284106E+03 E0= -.22284206E+03  d E =-.141881E-09
quench:  g(F)=  0.000E+00 g(S)=  0.000E+00 dE (1.order)= 0.000E+00
 bond charge predicted
       N       E                     dE             d eps       ncg     rms          rms(c)
DAV:   1    -0.222841061267E+03   -0.91313E-09    0.14471E-10   198   0.204E-08    0.318E-09
RMM:   2    -0.222841061266E+03    0.10987E-08    0.00000E+00     0   0.117E-08
  60 F= -.22284106E+03 E0= -.22284206E+03  d E =-.436557E-10
quench:  g(F)=  0.000E+00 g(S)=  0.000E+00 dE (1.order)= 0.000E+00
 bond charge predicted
       N       E                     dE             d eps       ncg     rms          rms(c)
DAV:   1    -0.222841061266E+03    0.10405E-08    0.26271E-10   198   0.185E-08    0.277E-09
RMM:   2    -0.222841061266E+03    0.94587E-10    0.00000E+00     0   0.963E-09
  61 F= -.22284106E+03 E0= -.22284206E+03  d E =0.363798E-10
quench:  g(F)=  0.000E+00 g(S)=  0.000E+00 dE (1.order)= 0.000E+00
 bond charge predicted
       N       E                     dE             d eps       ncg     rms          rms(c)
DAV:   1    -0.222841061266E+03   -0.34197E-09    0.14414E-10   198   0.139E-08    0.197E-09
RMM:   2    -0.222841061266E+03    0.50568E-09    0.00000E+00     0   0.792E-09
  62 F= -.22284106E+03 E0= -.22284206E+03  d E =0.691216E-10
quench:  g(F)=  0.000E+00 g(S)=  0.000E+00 dE (1.order)= 0.000E+00
 bond charge predicted
       N       E                     dE             d eps       ncg     rms          rms(c)
DAV:   1    -0.222841061266E+03    0.36380E-11    0.25716E-10   198   0.131E-08    0.213E-09
RMM:   2    -0.222841061266E+03    0.57116E-09    0.00000E+00     0   0.680E-09
  63 F= -.22284106E+03 E0= -.22284206E+03  d E =0.691216E-10
quench:  g(F)=  0.000E+00 g(S)=  0.000E+00 dE (1.order)= 0.000E+00
 bond charge predicted
       N       E                     dE             d eps       ncg     rms          rms(c)
DAV:   1    -0.222841061266E+03   -0.18917E-09    0.22685E-10   198   0.130E-08    0.178E-09
RMM:   2    -0.222841061266E+03    0.78580E-09    0.00000E+00     0   0.561E-09
  64 F= -.22284106E+03 E0= -.22284206E+03  d E =0.254659E-10
quench:  g(F)=  0.000E+00 g(S)=  0.000E+00 dE (1.order)= 0.000E+00
 bond charge predicted
       N       E                     dE             d eps       ncg     rms          rms(c)
DAV:   1    -0.222841061265E+03    0.12624E-08    0.10988E-10   198   0.842E-09    0.112E-09
RMM:   2    -0.222841061266E+03   -0.52387E-09    0.00000E+00     0   0.465E-09
  65 F= -.22284106E+03 E0= -.22284206E+03  d E =-.472937E-10
quench:  g(F)=  0.000E+00 g(S)=  0.000E+00 dE (1.order)= 0.000E+00
 bond charge predicted
       N       E                     dE             d eps       ncg     rms          rms(c)
DAV:   1    -0.222841061266E+03   -0.58571E-09    0.74522E-11   198   0.659E-09    0.116E-09
RMM:   2    -0.222841061266E+03   -0.25466E-10    0.00000E+00     0   0.398E-09
  66 F= -.22284106E+03 E0= -.22284206E+03  d E =-.873115E-10
quench:  g(F)=  0.000E+00 g(S)=  0.000E+00 dE (1.order)= 0.000E+00
 bond charge predicted
       N       E                     dE             d eps       ncg     rms          rms(c)
DAV:   1    -0.222841061266E+03   -0.30923E-09    0.52363E-11   198   0.582E-09    0.866E-10
RMM:   2    -0.222841061266E+03    0.27649E-09    0.00000E+00     0   0.317E-09
  67 F= -.22284106E+03 E0= -.22284206E+03  d E =-.727596E-11
quench:  g(F)=  0.000E+00 g(S)=  0.000E+00 dE (1.order)= 0.000E+00
 bond charge predicted
       N       E                     dE             d eps       ncg     rms          rms(c)
DAV:   1    -0.222841061265E+03    0.10223E-08    0.18028E-10   198   0.512E-09    0.819E-10
RMM:   2    -0.222841061266E+03   -0.78217E-09    0.00000E+00     0   0.270E-09
  68 F= -.22284106E+03 E0= -.22284206E+03  d E =-.363798E-10
quench:  g(F)=  0.000E+00 g(S)=  0.000E+00 dE (1.order)= 0.000E+00
 bond charge predicted
       N       E                     dE             d eps       ncg     rms          rms(c)
DAV:   1    -0.222841061265E+03   -0.39654E-09    0.81395E-11   198   0.463E-09    0.719E-10
RMM:   2    -0.222841061266E+03   -0.39654E-09    0.00000E+00     0   0.224E-09
  69 F= -.22284106E+03 E0= -.22284206E+03  d E =-.109139E-10
quench:  g(F)=  0.000E+00 g(S)=  0.000E+00 dE (1.order)= 0.000E+00
 bond charge predicted
       N       E                     dE             d eps       ncg     rms          rms(c)
DAV:   1    -0.222841061265E+03    0.34197E-09    0.13105E-10   198   0.295E-09    0.484E-10
RMM:   2    -0.222841061266E+03   -0.66939E-09    0.00000E+00     0   0.185E-09
  70 F= -.22284106E+03 E0= -.22284206E+03  d E =0.691216E-10
quench:  g(F)=  0.000E+00 g(S)=  0.000E+00 dE (1.order)= 0.000E+00
 bond charge predicted
       N       E                     dE             d eps       ncg     rms          rms(c)
DAV:   1    -0.222841061266E+03   -0.10004E-08    0.65246E-11   198   0.228E-09    0.514E-10
RMM:   2    -0.222841061266E+03    0.28012E-09    0.00000E+00     0   0.154E-09
  71 F= -.22284106E+03 E0= -.22284206E+03  d E =-.509317E-10
quench:  g(F)=  0.000E+00 g(S)=  0.000E+00 dE (1.order)= 0.000E+00
 bond charge predicted
       N       E                     dE             d eps       ncg     rms          rms(c)
DAV:   1    -0.222841061264E+03    0.16553E-08    0.13151E-10   198   0.188E-09    0.418E-10
RMM:   2    -0.222841061266E+03   -0.13788E-08    0.00000E+00     0   0.119E-09
  72 F= -.22284106E+03 E0= -.22284206E+03  d E =-.363798E-11
quench:  g(F)=  0.000E+00 g(S)=  0.000E+00 dE (1.order)= 0.000E+00
 bond charge predicted
       N       E                     dE             d eps       ncg     rms          rms(c)
DAV:   1    -0.222841061265E+03   -0.10441E-08    0.23941E-10   198   0.145E-09    0.371E-10
RMM:   2    -0.222841061266E+03   -0.23283E-09    0.00000E+00     0   0.994E-10
  73 F= -.22284106E+03 E0= -.22284206E+03  d E =0.101863E-09
quench:  g(F)=  0.000E+00 g(S)=  0.000E+00 dE (1.order)= 0.000E+00
 bond charge predicted
       N       E                     dE             d eps       ncg     rms          rms(c)
DAV:   1    -0.222841061266E+03   -0.43656E-09    0.21888E-10   198   0.122E-09    0.303E-10
RMM:   2    -0.222841061266E+03    0.25466E-09    0.00000E+00     0   0.785E-10
  74 F= -.22284106E+03 E0= -.22284206E+03  d E =0.509317E-10
quench:  g(F)=  0.000E+00 g(S)=  0.000E+00 dE (1.order)= 0.000E+00
 bond charge predicted
       N       E                     dE             d eps       ncg     rms          rms(c)
DAV:   1    -0.222841061266E+03   -0.52751E-09    0.21347E-10   198   0.962E-10    0.269E-10
RMM:   2    -0.222841061266E+03    0.82218E-09    0.00000E+00     0   0.652E-10
  75 F= -.22284106E+03 E0= -.22284206E+03  d E =0.400178E-10
quench:  g(F)=  0.000E+00 g(S)=  0.000E+00 dE (1.order)= 0.000E+00
 bond charge predicted
       N       E                     dE             d eps       ncg     rms          rms(c)
DAV:   1    -0.222841061266E+03    0.88403E-09    0.94978E-11   198   0.810E-10    0.255E-10
RMM:   2    -0.222841061266E+03   -0.20009E-09    0.00000E+00     0   0.529E-10
  76 F= -.22284106E+03 E0= -.22284206E+03  d E =-.138243E-09
quench:  g(F)=  0.000E+00 g(S)=  0.000E+00 dE (1.order)= 0.000E+00
 bond charge predicted
       N       E                     dE             d eps       ncg     rms          rms(c)
DAV:   1    -0.222841061265E+03    0.76034E-09    0.13380E-10   198   0.634E-10    0.269E-10
RMM:   2    -0.222841061266E+03   -0.94951E-09    0.00000E+00     0   0.421E-10
  77 F= -.22284106E+03 E0= -.22284206E+03  d E =0.109139E-10
quench:  g(F)=  0.000E+00 g(S)=  0.000E+00 dE (1.order)= 0.000E+00
 bond charge predicted
       N       E                     dE             d eps       ncg     rms          rms(c)
DAV:   1    -0.222841061265E+03   -0.70213E-09    0.24691E-10   198   0.513E-10    0.315E-10
RMM:   2    -0.222841061266E+03   -0.31650E-09    0.00000E+00     0   0.393E-10
  78 F= -.22284106E+03 E0= -.22284206E+03  d E =-.691216E-10
quench:  g(F)=  0.000E+00 g(S)=  0.000E+00 dE (1.order)= 0.000E+00
 bond charge predicted
       N       E                     dE             d eps       ncg     rms          rms(c)
DAV:   1    -0.222841061266E+03   -0.40745E-09    0.42700E-11   198   0.473E-10    0.253E-10
RMM:   2    -0.222841061266E+03    0.10186E-09    0.00000E+00     0   0.324E-10
  79 F= -.22284106E+03 E0= -.22284206E+03  d E =0.109139E-10
quench:  g(F)=  0.000E+00 g(S)=  0.000E+00 dE (1.order)= 0.000E+00
 bond charge predicted
       N       E                     dE             d eps       ncg     rms          rms(c)
DAV:   1    -0.222841061265E+03    0.58571E-09    0.10323E-10   198   0.396E-10    0.244E-10
RMM:   2    -0.222841061266E+03   -0.49477E-09    0.00000E+00     0   0.269E-10
  80 F= -.22284106E+03 E0= -.22284206E+03  d E =-.109139E-10
quench:  g(F)=  0.000E+00 g(S)=  0.000E+00 dE (1.order)= 0.000E+00
 bond charge predicted
       N       E                     dE             d eps       ncg     rms          rms(c)
DAV:   1    -0.222841061265E+03    0.49840E-09    0.11033E-10   198   0.321E-10    0.257E-10
RMM:   2    -0.222841061266E+03   -0.98953E-09    0.00000E+00     0   0.230E-10
  81 F= -.22284106E+03 E0= -.22284206E+03  d E =0.363798E-11
quench:  g(F)=  0.000E+00 g(S)=  0.000E+00 dE (1.order)= 0.000E+00
 bond charge predicted
       N       E                     dE             d eps       ncg     rms          rms(c)
DAV:   1    -0.222841061266E+03   -0.75306E-09    0.22603E-10   198   0.275E-10    0.240E-10
RMM:   2    -0.222841061266E+03   -0.24374E-09    0.00000E+00     0   0.189E-10
  82 F= -.22284106E+03 E0= -.22284206E+03  d E =-.727596E-11
quench:  g(F)=  0.000E+00 g(S)=  0.000E+00 dE (1.order)= 0.000E+00
 bond charge predicted
       N       E                     dE             d eps       ncg     rms          rms(c)
DAV:   1    -0.222841061265E+03    0.15643E-09    0.24205E-10   198   0.233E-10    0.217E-10
RMM:   2    -0.222841061266E+03   -0.20736E-09    0.00000E+00     0   0.167E-10
  83 F= -.22284106E+03 E0= -.22284206E+03  d E =0.192813E-09
quench:  g(F)=  0.000E+00 g(S)=  0.000E+00 dE (1.order)= 0.000E+00
 bond charge predicted
       N       E                     dE             d eps       ncg     rms          rms(c)
DAV:   1    -0.222841061266E+03   -0.45475E-09    0.18275E-10   198   0.200E-10    0.264E-10
RMM:   2    -0.222841061266E+03    0.17462E-09    0.00000E+00     0   0.177E-10
  84 F= -.22284106E+03 E0= -.22284206E+03  d E =-.727596E-10
quench:  g(F)=  0.000E+00 g(S)=  0.000E+00 dE (1.order)= 0.000E+00
 bond charge predicted
       N       E                     dE             d eps       ncg     rms          rms(c)
DAV:   1    -0.222841061266E+03   -0.80036E-10    0.27585E-10   198   0.226E-10    0.210E-10
RMM:   2    -0.222841061266E+03    0.31650E-09    0.00000E+00     0   0.133E-10
  85 F= -.22284106E+03 E0= -.22284206E+03  d E =0.618456E-10
quench:  g(F)=  0.000E+00 g(S)=  0.000E+00 dE (1.order)= 0.000E+00
 bond charge predicted
       N       E                     dE             d eps       ncg     rms          rms(c)
DAV:   1    -0.222841061266E+03    0.22192E-09    0.34109E-11   198   0.158E-10    0.393E-10
RMM:   2    -0.222841061266E+03    0.12005E-09    0.00000E+00     0   0.156E-10
  86 F= -.22284106E+03 E0= -.22284206E+03  d E =0.254659E-10
quench:  g(F)=  0.000E+00 g(S)=  0.000E+00 dE (1.order)= 0.000E+00
 bond charge predicted
       N       E                     dE             d eps       ncg     rms          rms(c)
DAV:   1    -0.222841061266E+03   -0.55661E-09    0.15414E-10   198   0.226E-10    0.285E-10
RMM:   2    -0.222841061266E+03    0.49840E-09    0.00000E+00     0   0.130E-10
  87 F= -.22284106E+03 E0= -.22284206E+03  d E =-.178261E-09
quench:  g(F)=  0.000E+00 g(S)=  0.000E+00 dE (1.order)= 0.000E+00
 bond charge predicted
       N       E                     dE             d eps       ncg     rms          rms(c)
DAV:   1    -0.222841061266E+03    0.53842E-09    0.11381E-10   198   0.189E-10    0.241E-10
RMM:   2    -0.222841061266E+03    0.18190E-10    0.00000E+00     0   0.133E-10
  88 F= -.22284106E+03 E0= -.22284206E+03  d E =0.582077E-10
quench:  g(F)=  0.000E+00 g(S)=  0.000E+00 dE (1.order)= 0.000E+00
 bond charge predicted
       N       E                     dE             d eps       ncg     rms          rms(c)
DAV:   1    -0.222841061265E+03    0.55661E-09    0.10786E-10   198   0.151E-10    0.249E-10
RMM:   2    -0.222841061266E+03   -0.66575E-09    0.00000E+00     0   0.110E-10
  89 F= -.22284106E+03 E0= -.22284206E+03  d E =-.127329E-09
quench:  g(F)=  0.000E+00 g(S)=  0.000E+00 dE (1.order)= 0.000E+00
 bond charge predicted
       N       E                     dE             d eps       ncg     rms          rms(c)
DAV:   1    -0.222841061266E+03   -0.52023E-09    0.10967E-10   198   0.169E-10    0.247E-10
RMM:   2    -0.222841061266E+03   -0.13097E-09    0.00000E+00     0   0.106E-10
  90 F= -.22284106E+03 E0= -.22284206E+03  d E =0.145519E-10
quench:  g(F)=  0.000E+00 g(S)=  0.000E+00 dE (1.order)= 0.000E+00
 bond charge predicted
       N       E                     dE             d eps       ncg     rms          rms(c)
DAV:   1    -0.222841061265E+03    0.57480E-09    0.15077E-10   198   0.160E-10    0.321E-10
RMM:   2    -0.222841061266E+03   -0.65120E-09    0.00000E+00     0   0.118E-10
  91 F= -.22284106E+03 E0= -.22284206E+03  d E =0.545697E-10
quench:  g(F)=  0.000E+00 g(S)=  0.000E+00 dE (1.order)= 0.000E+00
 bond charge predicted
       N       E                     dE             d eps       ncg     rms          rms(c)
DAV:   1    -0.222841061265E+03    0.54570E-09    0.13618E-10   198   0.134E-10    0.332E-10
RMM:   2    -0.222841061266E+03   -0.10841E-08    0.00000E+00     0   0.115E-10
  92 F= -.22284106E+03 E0= -.22284206E+03  d E =0.112777E-09
quench:  g(F)=  0.000E+00 g(S)=  0.000E+00 dE (1.order)= 0.000E+00
 bond charge predicted
       N       E                     dE             d eps       ncg     rms          rms(c)
DAV:   1    -0.222841061265E+03   -0.73123E-09    0.21645E-10   198   0.172E-10    0.249E-10
RMM:   2    -0.222841061266E+03   -0.44747E-09    0.00000E+00     0   0.111E-10
  93 F= -.22284106E+03 E0= -.22284206E+03  d E =-.945874E-10
quench:  g(F)=  0.000E+00 g(S)=  0.000E+00 dE (1.order)= 0.000E+00
 bond charge predicted
       N       E                     dE             d eps       ncg     rms          rms(c)
DAV:   1    -0.222841061266E+03   -0.96770E-09    0.11114E-10   198   0.142E-10    0.226E-10
RMM:   2    -0.222841061266E+03    0.52751E-09    0.00000E+00     0   0.857E-11
  94 F= -.22284106E+03 E0= -.22284206E+03  d E =0.727596E-11
quench:  g(F)=  0.000E+00 g(S)=  0.000E+00 dE (1.order)= 0.000E+00
 bond charge predicted
       N       E                     dE             d eps       ncg     rms          rms(c)
DAV:   1    -0.222841061266E+03    0.71304E-09    0.20582E-10   198   0.121E-10    0.272E-10
RMM:   2    -0.222841061266E+03   -0.27649E-09    0.00000E+00     0   0.899E-11
  95 F= -.22284106E+03 E0= -.22284206E+03  d E =-.909495E-10
quench:  g(F)=  0.000E+00 g(S)=  0.000E+00 dE (1.order)= 0.000E+00
 bond charge predicted
       N       E                     dE             d eps       ncg     rms          rms(c)
DAV:   1    -0.222841061265E+03    0.94587E-10    0.16457E-10   198   0.146E-10    0.236E-10
RMM:   2    -0.222841061266E+03   -0.19281E-09    0.00000E+00     0   0.112E-10
  96 F= -.22284106E+03 E0= -.22284206E+03  d E =0.178261E-09
quench:  g(F)=  0.000E+00 g(S)=  0.000E+00 dE (1.order)= 0.000E+00
 bond charge predicted
       N       E                     dE             d eps       ncg     rms          rms(c)
DAV:   1    -0.222841061265E+03    0.49113E-09    0.37740E-11   198   0.144E-10    0.421E-10
RMM:   2    -0.222841061266E+03   -0.66939E-09    0.00000E+00     0   0.139E-10
  97 F= -.22284106E+03 E0= -.22284206E+03  d E =0.145519E-10
quench:  g(F)=  0.000E+00 g(S)=  0.000E+00 dE (1.order)= 0.000E+00
 bond charge predicted
       N       E                     dE             d eps       ncg     rms          rms(c)
DAV:   1    -0.222841061266E+03   -0.81127E-09    0.17162E-10   198   0.240E-10    0.163E-10
RMM:   2    -0.222841061266E+03    0.29104E-10    0.00000E+00     0   0.755E-11
  98 F= -.22284106E+03 E0= -.22284206E+03  d E =-.112777E-09
quench:  g(F)=  0.000E+00 g(S)=  0.000E+00 dE (1.order)= 0.000E+00
 bond charge predicted
       N       E                     dE             d eps       ncg     rms          rms(c)
DAV:   1    -0.222841061267E+03   -0.73851E-09    0.14356E-10   198   0.928E-11    0.355E-10
RMM:   2    -0.222841061266E+03    0.82582E-09    0.00000E+00     0   0.119E-10
  99 F= -.22284106E+03 E0= -.22284206E+03  d E =0.582077E-10
quench:  g(F)=  0.000E+00 g(S)=  0.000E+00 dE (1.order)= 0.000E+00
 bond charge predicted
       N       E                     dE             d eps       ncg     rms          rms(c)
DAV:   1    -0.222841061266E+03    0.64756E-09    0.13004E-10   198   0.151E-10    0.348E-10
RMM:   2    -0.222841061266E+03    0.14552E-09    0.00000E+00     0   0.121E-10
 100 F= -.22284106E+03 E0= -.22284206E+03  d E =-.327418E-10
quench:  g(F)=  0.000E+00 g(S)=  0.000E+00 dE (1.order)= 0.000E+00
 bond charge predicted
       N       E                     dE             d eps       ncg     rms          rms(c)
DAV:   1    -0.222841061266E+03    0.90949E-10    0.23928E-10   198   0.175E-10    0.271E-10
RMM:   2    -0.222841061266E+03    0.32742E-10    0.00000E+00     0   0.100E-10
 101 F= -.22284106E+03 E0= -.22284206E+03  d E =-.218279E-10
quench:  g(F)=  0.000E+00 g(S)=  0.000E+00 dE (1.order)= 0.000E+00
 bond charge predicted
       N       E                     dE             d eps       ncg     rms          rms(c)
DAV:   1    -0.222841061266E+03   -0.87311E-10    0.73270E-11   198   0.169E-10    0.291E-10
RMM:   2    -0.222841061266E+03    0.20009E-09    0.00000E+00     0   0.115E-10
 102 F= -.22284106E+03 E0= -.22284206E+03  d E =0.800355E-10
quench:  g(F)=  0.000E+00 g(S)=  0.000E+00 dE (1.order)= 0.000E+00
 bond charge predicted
       N       E                     dE             d eps       ncg     rms          rms(c)
DAV:   1    -0.222841061266E+03   -0.45475E-09    0.24326E-10   198   0.144E-10    0.257E-10
RMM:   2    -0.222841061266E+03    0.53114E-09    0.00000E+00     0   0.110E-10
 103 F= -.22284106E+03 E0= -.22284206E+03  d E =-.123691E-09
quench:  g(F)=  0.000E+00 g(S)=  0.000E+00 dE (1.order)= 0.000E+00
 bond charge predicted
       N       E                     dE             d eps       ncg     rms          rms(c)
DAV:   1    -0.222841061265E+03    0.11023E-08    0.44453E-11   198   0.169E-10    0.266E-10
RMM:   2    -0.222841061266E+03   -0.57480E-09    0.00000E+00     0   0.107E-10
 104 F= -.22284106E+03 E0= -.22284206E+03  d E =-.363798E-11
quench:  g(F)=  0.000E+00 g(S)=  0.000E+00 dE (1.order)= 0.000E+00
 bond charge predicted
       N       E                     dE             d eps       ncg     rms          rms(c)
DAV:   1    -0.222841061266E+03   -0.55661E-09    0.66707E-11   198   0.124E-10    0.252E-10
RMM:   2    -0.222841061266E+03   -0.18190E-10    0.00000E+00     0   0.876E-11
 105 F= -.22284106E+03 E0= -.22284206E+03  d E =0.000000E+00
quench:  g(F)=  0.000E+00 g(S)=  0.000E+00 dE (1.order)= 0.000E+00
 bond charge predicted
       N       E                     dE             d eps       ncg     rms          rms(c)
DAV:   1    -0.222841061266E+03   -0.31650E-09    0.18540E-10   198   0.944E-11    0.295E-10
RMM:   2    -0.222841061266E+03    0.48385E-09    0.00000E+00     0   0.821E-11
 106 F= -.22284106E+03 E0= -.22284206E+03  d E =0.185537E-09
quench:  g(F)=  0.000E+00 g(S)=  0.000E+00 dE (1.order)= 0.000E+00
 bond charge predicted
       N       E                     dE             d eps       ncg     rms          rms(c)
DAV:   1    -0.222841061265E+03    0.10368E-08    0.17853E-10   198   0.109E-10    0.202E-10
RMM:   2    -0.222841061266E+03   -0.57116E-09    0.00000E+00     0   0.727E-11
 107 F= -.22284106E+03 E0= -.22284206E+03  d E =-.181899E-10
quench:  g(F)=  0.000E+00 g(S)=  0.000E+00 dE (1.order)= 0.000E+00
 bond charge predicted
       N       E                     dE             d eps       ncg     rms          rms(c)
DAV:   1    -0.222841061265E+03   -0.36380E-09    0.27427E-10   198   0.729E-11    0.306E-10
RMM:   2    -0.222841061266E+03   -0.39290E-09    0.00000E+00     0   0.908E-11
 108 F= -.22284106E+03 E0= -.22284206E+03  d E =-.185537E-09
quench:  g(F)=  0.000E+00 g(S)=  0.000E+00 dE (1.order)= 0.000E+00
 bond charge predicted
       N       E                     dE             d eps       ncg     rms          rms(c)
DAV:   1    -0.222841061266E+03   -0.30559E-09    0.11870E-10   198   0.143E-10    0.259E-10
RMM:   2    -0.222841061266E+03   -0.10550E-09    0.00000E+00     0   0.964E-11
 109 F= -.22284106E+03 E0= -.22284206E+03  d E =-.181899E-10
quench:  g(F)=  0.000E+00 g(S)=  0.000E+00 dE (1.order)= 0.000E+00
 bond charge predicted
       N       E                     dE             d eps       ncg     rms          rms(c)
DAV:   1    -0.222841061266E+03   -0.77489E-09    0.17173E-10   198   0.143E-10    0.293E-10
RMM:   2    -0.222841061266E+03    0.71668E-09    0.00000E+00     0   0.980E-11
 110 F= -.22284106E+03 E0= -.22284206E+03  d E =0.472937E-10
quench:  g(F)=  0.000E+00 g(S)=  0.000E+00 dE (1.order)= 0.000E+00
 bond charge predicted
       N       E                     dE             d eps       ncg     rms          rms(c)
DAV:   1    -0.222841061266E+03    0.81855E-09    0.13180E-10   198   0.126E-10    0.332E-10
RMM:   2    -0.222841061266E+03   -0.61846E-10    0.00000E+00     0   0.114E-10
 111 F= -.22284106E+03 E0= -.22284206E+03  d E =0.400178E-10
quench:  g(F)=  0.000E+00 g(S)=  0.000E+00 dE (1.order)= 0.000E+00
 bond charge predicted
       N       E                     dE             d eps       ncg     rms          rms(c)
DAV:   1    -0.222841061266E+03   -0.60027E-09    0.13024E-10   198   0.167E-10    0.317E-10
RMM:   2    -0.222841061266E+03    0.59663E-09    0.00000E+00     0   0.971E-11
 112 F= -.22284106E+03 E0= -.22284206E+03  d E =0.582077E-10
quench:  g(F)=  0.000E+00 g(S)=  0.000E+00 dE (1.order)= 0.000E+00
 bond charge predicted
       N       E                     dE             d eps       ncg     rms          rms(c)
DAV:   1    -0.222841061266E+03    0.76398E-09    0.60422E-11   198   0.159E-10    0.373E-10
RMM:   2    -0.222841061266E+03   -0.18554E-09    0.00000E+00     0   0.148E-10
 113 F= -.22284106E+03 E0= -.22284206E+03  d E =-.181899E-10
quench:  g(F)=  0.000E+00 g(S)=  0.000E+00 dE (1.order)= 0.000E+00
 bond charge predicted
       N       E                     dE             d eps       ncg     rms          rms(c)
DAV:   1    -0.222841061266E+03   -0.65120E-09    0.13370E-10   198   0.241E-10    0.330E-10
RMM:   2    -0.222841061266E+03    0.38563E-09    0.00000E+00     0   0.127E-10
 114 F= -.22284106E+03 E0= -.22284206E+03  d E =-.800355E-10
quench:  g(F)=  0.000E+00 g(S)=  0.000E+00 dE (1.order)= 0.000E+00
 bond charge predicted
       N       E                     dE             d eps       ncg     rms          rms(c)
DAV:   1    -0.222841061266E+03    0.32014E-09    0.37109E-11   198   0.196E-10    0.226E-10
RMM:   2    -0.222841061266E+03    0.19281E-09    0.00000E+00     0   0.952E-11
 115 F= -.22284106E+03 E0= -.22284206E+03  d E =0.127329E-09
quench:  g(F)=  0.000E+00 g(S)=  0.000E+00 dE (1.order)= 0.000E+00
 bond charge predicted
       N       E                     dE             d eps       ncg     rms          rms(c)
DAV:   1    -0.222841061266E+03   -0.53478E-09    0.24305E-10   198   0.120E-10    0.249E-10
RMM:   2    -0.222841061266E+03    0.63665E-09    0.00000E+00     0   0.867E-11
 116 F= -.22284106E+03 E0= -.22284206E+03  d E =-.909495E-10
quench:  g(F)=  0.000E+00 g(S)=  0.000E+00 dE (1.order)= 0.000E+00
 bond charge predicted
       N       E                     dE             d eps       ncg     rms          rms(c)
DAV:   1    -0.222841061265E+03    0.10368E-08    0.14321E-10   198   0.118E-10    0.270E-10
RMM:   2    -0.222841061266E+03   -0.28376E-09    0.00000E+00     0   0.809E-11
 117 F= -.22284106E+03 E0= -.22284206E+03  d E =0.116415E-09
quench:  g(F)=  0.000E+00 g(S)=  0.000E+00 dE (1.order)= 0.000E+00
 bond charge predicted
       N       E                     dE             d eps       ncg     rms          rms(c)
DAV:   1    -0.222841061265E+03    0.15643E-09    0.15529E-10   198   0.101E-10    0.241E-10
RMM:   2    -0.222841061266E+03   -0.49477E-09    0.00000E+00     0   0.903E-11
 118 F= -.22284106E+03 E0= -.22284206E+03  d E =-.545697E-10
quench:  g(F)=  0.000E+00 g(S)=  0.000E+00 dE (1.order)= 0.000E+00
 bond charge predicted
       N       E                     dE             d eps       ncg     rms          rms(c)
DAV:   1    -0.222841061265E+03    0.37107E-09    0.17506E-10   198   0.102E-10    0.295E-10
RMM:   2    -0.222841061266E+03   -0.98225E-09    0.00000E+00     0   0.900E-11
 119 F= -.22284106E+03 E0= -.22284206E+03  d E =-.116415E-09
quench:  g(F)=  0.000E+00 g(S)=  0.000E+00 dE (1.order)= 0.000E+00
 bond charge predicted
       N       E                     dE             d eps       ncg     rms          rms(c)
DAV:   1    -0.222841061265E+03   -0.23283E-09    0.13478E-10   198   0.150E-10    0.410E-10
RMM:   2    -0.222841061266E+03   -0.68394E-09    0.00000E+00     0   0.146E-10
 120 F= -.22284106E+03 E0= -.22284206E+03  d E =0.654836E-10
quench:  g(F)=  0.000E+00 g(S)=  0.000E+00 dE (1.order)= 0.000E+00
 bond charge predicted
       N       E                     dE             d eps       ncg     rms          rms(c)
DAV:   1    -0.222841061265E+03   -0.40018E-09    0.13033E-10   198   0.227E-10    0.272E-10
RMM:   2    -0.222841061266E+03   -0.27285E-09    0.00000E+00     0   0.104E-10
 121 F= -.22284106E+03 E0= -.22284206E+03  d E =0.109139E-10
quench:  g(F)=  0.000E+00 g(S)=  0.000E+00 dE (1.order)= 0.000E+00
 bond charge predicted
       N       E                     dE             d eps       ncg     rms          rms(c)
DAV:   1    -0.222841061266E+03   -0.90222E-09    0.10288E-10   198   0.129E-10    0.300E-10
RMM:   2    -0.222841061266E+03    0.73487E-09    0.00000E+00     0   0.113E-10
 122 F= -.22284106E+03 E0= -.22284206E+03  d E =0.105501E-09
quench:  g(F)=  0.000E+00 g(S)=  0.000E+00 dE (1.order)= 0.000E+00
 bond charge predicted
       N       E                     dE             d eps       ncg     rms          rms(c)
DAV:   1    -0.222841061267E+03   -0.37471E-09    0.13893E-10   198   0.148E-10    0.359E-10
RMM:   2    -0.222841061266E+03    0.10914E-08    0.00000E+00     0   0.133E-10
 123 F= -.22284106E+03 E0= -.22284206E+03  d E =-.181899E-10
quench:  g(F)=  0.000E+00 g(S)=  0.000E+00 dE (1.order)= 0.000E+00
 bond charge predicted
       N       E                     dE             d eps       ncg     rms          rms(c)
DAV:   1    -0.222841061266E+03    0.98589E-09    0.96135E-11   198   0.206E-10    0.233E-10
RMM:   2    -0.222841061266E+03    0.72760E-11    0.00000E+00     0   0.931E-11
 124 F= -.22284106E+03 E0= -.22284206E+03  d E =-.982254E-10
quench:  g(F)=  0.000E+00 g(S)=  0.000E+00 dE (1.order)= 0.000E+00
 bond charge predicted
       N       E                     dE             d eps       ncg     rms          rms(c)
DAV:   1    -0.222841061266E+03   -0.63301E-09    0.11732E-10   198   0.974E-11    0.217E-10
RMM:   2    -0.222841061266E+03    0.60027E-09    0.00000E+00     0   0.895E-11
 125 F= -.22284106E+03 E0= -.22284206E+03  d E =-.400178E-10
quench:  g(F)=  0.000E+00 g(S)=  0.000E+00 dE (1.order)= 0.000E+00
 bond charge predicted
       N       E                     dE             d eps       ncg     rms          rms(c)
DAV:   1    -0.222841061265E+03    0.17681E-08    0.13335E-10   198   0.102E-10    0.363E-10
RMM:   2    -0.222841061266E+03   -0.10223E-08    0.00000E+00     0   0.104E-10
 126 F= -.22284106E+03 E0= -.22284206E+03  d E =0.145519E-09
quench:  g(F)=  0.000E+00 g(S)=  0.000E+00 dE (1.order)= 0.000E+00
 bond charge predicted
       N       E                     dE             d eps       ncg     rms          rms(c)
DAV:   1    -0.222841061266E+03   -0.14552E-08    0.96522E-11   198   0.164E-10    0.258E-10
RMM:   2    -0.222841061266E+03    0.46202E-09    0.00000E+00     0   0.118E-10
 127 F= -.22284106E+03 E0= -.22284206E+03  d E =0.291038E-10
quench:  g(F)=  0.000E+00 g(S)=  0.000E+00 dE (1.order)= 0.000E+00
 bond charge predicted
       N       E                     dE             d eps       ncg     rms          rms(c)
DAV:   1    -0.222841061267E+03   -0.53114E-09    0.17860E-10   198   0.198E-10    0.234E-10
RMM:   2    -0.222841061266E+03    0.10077E-08    0.00000E+00     0   0.902E-11
 128 F= -.22284106E+03 E0= -.22284206E+03  d E =0.145519E-10
quench:  g(F)=  0.000E+00 g(S)=  0.000E+00 dE (1.order)= 0.000E+00
 bond charge predicted
       N       E                     dE             d eps       ncg     rms          rms(c)
DAV:   1    -0.222841061266E+03    0.88039E-09    0.18703E-10   198   0.116E-10    0.349E-10
RMM:   2    -0.222841061266E+03    0.72760E-11    0.00000E+00     0   0.958E-11
 129 F= -.22284106E+03 E0= -.22284206E+03  d E =-.120053E-09
quench:  g(F)=  0.000E+00 g(S)=  0.000E+00 dE (1.order)= 0.000E+00
 bond charge predicted
       N       E                     dE             d eps       ncg     rms          rms(c)
DAV:   1    -0.222841061266E+03   -0.49840E-09    0.11385E-10   198   0.119E-10    0.274E-10
RMM:   2    -0.222841061266E+03    0.44747E-09    0.00000E+00     0   0.919E-11
 130 F= -.22284106E+03 E0= -.22284206E+03  d E =-.582077E-10
quench:  g(F)=  0.000E+00 g(S)=  0.000E+00 dE (1.order)= 0.000E+00
 bond charge predicted
       N       E                     dE             d eps       ncg     rms          rms(c)
DAV:   1    -0.222841061265E+03    0.78944E-09    0.10424E-10   198   0.131E-10    0.256E-10
RMM:   2    -0.222841061266E+03   -0.32378E-09    0.00000E+00     0   0.848E-11
 131 F= -.22284106E+03 E0= -.22284206E+03  d E =0.181899E-10
quench:  g(F)=  0.000E+00 g(S)=  0.000E+00 dE (1.order)= 0.000E+00
 bond charge predicted
       N       E                     dE             d eps       ncg     rms          rms(c)
DAV:   1    -0.222841061266E+03   -0.99317E-09    0.17183E-10   198   0.117E-10    0.276E-10
RMM:   2    -0.222841061266E+03    0.68030E-09    0.00000E+00     0   0.829E-11
 132 F= -.22284106E+03 E0= -.22284206E+03  d E =0.109139E-10
quench:  g(F)=  0.000E+00 g(S)=  0.000E+00 dE (1.order)= 0.000E+00
 bond charge predicted
       N       E                     dE             d eps       ncg     rms          rms(c)
DAV:   1    -0.222841061266E+03    0.75306E-09    0.21169E-10   198   0.974E-11    0.271E-10
RMM:   2    -0.222841061266E+03   -0.11278E-09    0.00000E+00     0   0.829E-11
 133 F= -.22284106E+03 E0= -.22284206E+03  d E =-.400178E-10
quench:  g(F)=  0.000E+00 g(S)=  0.000E+00 dE (1.order)= 0.000E+00
 bond charge predicted
       N       E                     dE             d eps       ncg     rms          rms(c)
DAV:   1    -0.222841061265E+03    0.82582E-09    0.14081E-10   198   0.105E-10    0.294E-10
RMM:   2    -0.222841061266E+03   -0.92405E-09    0.00000E+00     0   0.817E-11
 134 F= -.22284106E+03 E0= -.22284206E+03  d E =0.145519E-10
quench:  g(F)=  0.000E+00 g(S)=  0.000E+00 dE (1.order)= 0.000E+00
 bond charge predicted
       N       E                     dE             d eps       ncg     rms          rms(c)
DAV:   1    -0.222841061265E+03   -0.27285E-09    0.12041E-10   198   0.109E-10    0.236E-10
RMM:   2    -0.222841061266E+03   -0.55661E-09    0.00000E+00     0   0.778E-11
 135 F= -.22284106E+03 E0= -.22284206E+03  d E =0.945874E-10
quench:  g(F)=  0.000E+00 g(S)=  0.000E+00 dE (1.order)= 0.000E+00
 bond charge predicted
       N       E                     dE             d eps       ncg     rms          rms(c)
DAV:   1    -0.222841061266E+03   -0.80399E-09    0.17544E-10   198   0.898E-11    0.341E-10
RMM:   2    -0.222841061266E+03    0.10914E-09    0.00000E+00     0   0.975E-11
 136 F= -.22284106E+03 E0= -.22284206E+03  d E =-.138243E-09
quench:  g(F)=  0.000E+00 g(S)=  0.000E+00 dE (1.order)= 0.000E+00
 bond charge predicted
       N       E                     dE             d eps       ncg     rms          rms(c)
DAV:   1    -0.222841061265E+03    0.82218E-09    0.17563E-10   198   0.163E-10    0.354E-10
RMM:   2    -0.222841061266E+03   -0.70213E-09    0.00000E+00     0   0.147E-10
 137 F= -.22284106E+03 E0= -.22284206E+03  d E =0.109139E-10
quench:  g(F)=  0.000E+00 g(S)=  0.000E+00 dE (1.order)= 0.000E+00
 bond charge predicted
       N       E                     dE             d eps       ncg     rms          rms(c)
DAV:   1    -0.222841061266E+03   -0.53478E-09    0.11431E-10   198   0.252E-10    0.197E-10
RMM:   2    -0.222841061266E+03   -0.14188E-09    0.00000E+00     0   0.953E-11
 138 F= -.22284106E+03 E0= -.22284206E+03  d E =0.254659E-10
quench:  g(F)=  0.000E+00 g(S)=  0.000E+00 dE (1.order)= 0.000E+00
 bond charge predicted
       N       E                     dE             d eps       ncg     rms          rms(c)
DAV:   1    -0.222841061266E+03   -0.36016E-09    0.12978E-10   198   0.115E-10    0.250E-10
RMM:   2    -0.222841061266E+03    0.41837E-09    0.00000E+00     0   0.775E-11
 139 F= -.22284106E+03 E0= -.22284206E+03  d E =0.200089E-09
quench:  g(F)=  0.000E+00 g(S)=  0.000E+00 dE (1.order)= 0.000E+00
 bond charge predicted
       N       E                     dE             d eps       ncg     rms          rms(c)
DAV:   1    -0.222841061265E+03    0.79308E-09    0.73908E-11   198   0.926E-11    0.379E-10
RMM:   2    -0.222841061266E+03   -0.53478E-09    0.00000E+00     0   0.133E-10
 140 F= -.22284106E+03 E0= -.22284206E+03  d E =-.160071E-09
quench:  g(F)=  0.000E+00 g(S)=  0.000E+00 dE (1.order)= 0.000E+00
 bond charge predicted
       N       E                     dE             d eps       ncg     rms          rms(c)
DAV:   1    -0.222841061265E+03    0.24738E-09    0.20716E-10   198   0.212E-10    0.396E-10
RMM:   2    -0.222841061266E+03   -0.80036E-09    0.00000E+00     0   0.157E-10
 141 F= -.22284106E+03 E0= -.22284206E+03  d E =-.181899E-10
quench:  g(F)=  0.000E+00 g(S)=  0.000E+00 dE (1.order)= 0.000E+00
 bond charge predicted
       N       E                     dE             d eps       ncg     rms          rms(c)
DAV:   1    -0.222841061266E+03   -0.80763E-09    0.13711E-10   198   0.251E-10    0.187E-10
RMM:   2    -0.222841061266E+03    0.19281E-09    0.00000E+00     0   0.828E-11
 142 F= -.22284106E+03 E0= -.22284206E+03  d E =0.185537E-09
quench:  g(F)=  0.000E+00 g(S)=  0.000E+00 dE (1.order)= 0.000E+00
 bond charge predicted
       N       E                     dE             d eps       ncg     rms          rms(c)
DAV:   1    -0.222841061266E+03   -0.46930E-09    0.73017E-11   198   0.111E-10    0.281E-10
RMM:   2    -0.222841061266E+03    0.49840E-09    0.00000E+00     0   0.960E-11
 143 F= -.22284106E+03 E0= -.22284206E+03  d E =-.163709E-09
quench:  g(F)=  0.000E+00 g(S)=  0.000E+00 dE (1.order)= 0.000E+00
 bond charge predicted
       N       E                     dE             d eps       ncg     rms          rms(c)
DAV:   1    -0.222841061266E+03   -0.13461E-09    0.12080E-10   198   0.170E-10    0.175E-10
RMM:   2    -0.222841061266E+03    0.59663E-09    0.00000E+00     0   0.101E-10
 144 F= -.22284106E+03 E0= -.22284206E+03  d E =-.363798E-10
quench:  g(F)=  0.000E+00 g(S)=  0.000E+00 dE (1.order)= 0.000E+00
 bond charge predicted
       N       E                     dE             d eps       ncg     rms          rms(c)
DAV:   1    -0.222841061265E+03    0.10950E-08    0.24786E-11   198   0.114E-10    0.270E-10
RMM:   2    -0.222841061266E+03   -0.38199E-09    0.00000E+00     0   0.977E-11
 145 F= -.22284106E+03 E0= -.22284206E+03  d E =0.116415E-09
quench:  g(F)=  0.000E+00 g(S)=  0.000E+00 dE (1.order)= 0.000E+00
 bond charge predicted
       N       E                     dE             d eps       ncg     rms          rms(c)
DAV:   1    -0.222841061265E+03   -0.17099E-09    0.13381E-10   198   0.121E-10    0.323E-10
RMM:   2    -0.222841061266E+03   -0.26193E-09    0.00000E+00     0   0.907E-11
 146 F= -.22284106E+03 E0= -.22284206E+03  d E =-.509317E-10
quench:  g(F)=  0.000E+00 g(S)=  0.000E+00 dE (1.order)= 0.000E+00
 bond charge predicted
       N       E                     dE             d eps       ncg     rms          rms(c)
DAV:   1    -0.222841061266E+03   -0.39654E-09    0.90419E-11   198   0.122E-10    0.237E-10
RMM:   2    -0.222841061266E+03    0.80036E-10    0.00000E+00     0   0.825E-11
 147 F= -.22284106E+03 E0= -.22284206E+03  d E =-.545697E-10
quench:  g(F)=  0.000E+00 g(S)=  0.000E+00 dE (1.order)= 0.000E+00
 bond charge predicted
       N       E                     dE             d eps       ncg     rms          rms(c)
DAV:   1    -0.222841061266E+03    0.24374E-09    0.87480E-11   198   0.122E-10    0.257E-10
RMM:   2    -0.222841061266E+03   -0.21828E-09    0.00000E+00     0   0.892E-11
 148 F= -.22284106E+03 E0= -.22284206E+03  d E =-.545697E-10
quench:  g(F)=  0.000E+00 g(S)=  0.000E+00 dE (1.order)= 0.000E+00
 bond charge predicted
       N       E                     dE             d eps       ncg     rms          rms(c)
DAV:   1    -0.222841061267E+03   -0.11860E-08    0.12779E-10   198   0.124E-10    0.308E-10
RMM:   2    -0.222841061266E+03    0.94224E-09    0.00000E+00     0   0.125E-10
 149 F= -.22284106E+03 E0= -.22284206E+03  d E =-.254659E-10
quench:  g(F)=  0.000E+00 g(S)=  0.000E+00 dE (1.order)= 0.000E+00
 bond charge predicted
       N       E                     dE             d eps       ncg     rms          rms(c)
DAV:   1    -0.222841061265E+03    0.13242E-08    0.29181E-10   198   0.175E-10    0.246E-10
RMM:   2    -0.222841061266E+03   -0.38199E-09    0.00000E+00     0   0.809E-11
 150 F= -.22284106E+03 E0= -.22284206E+03  d E =0.000000E+00
quench:  g(F)=  0.000E+00 g(S)=  0.000E+00 dE (1.order)= 0.000E+00
 bond charge predicted
       N       E                     dE             d eps       ncg     rms          rms(c)
DAV:   1    -0.222841061265E+03   -0.36380E-10    0.12783E-10   198   0.101E-10    0.354E-10
RMM:   2    -0.222841061266E+03   -0.90949E-10    0.00000E+00     0   0.757E-11
 151 F= -.22284106E+03 E0= -.22284206E+03  d E =0.254659E-09
quench:  g(F)=  0.000E+00 g(S)=  0.000E+00 dE (1.order)= 0.000E+00
 bond charge predicted
       N       E                     dE             d eps       ncg     rms          rms(c)
DAV:   1    -0.222841061267E+03   -0.17317E-08    0.49863E-11   198   0.114E-10    0.250E-10
RMM:   2    -0.222841061266E+03    0.14297E-08    0.00000E+00     0   0.981E-11
 152 F= -.22284106E+03 E0= -.22284206E+03  d E =-.211003E-09
quench:  g(F)=  0.000E+00 g(S)=  0.000E+00 dE (1.order)= 0.000E+00
 bond charge predicted
       N       E                     dE             d eps       ncg     rms          rms(c)
DAV:   1    -0.222841061266E+03    0.11787E-08    0.14807E-10   198   0.149E-10    0.347E-10
RMM:   2    -0.222841061266E+03    0.26193E-09    0.00000E+00     0   0.140E-10
 153 F= -.22284106E+03 E0= -.22284206E+03  d E =0.109139E-10
quench:  g(F)=  0.000E+00 g(S)=  0.000E+00 dE (1.order)= 0.000E+00
 bond charge predicted
       N       E                     dE             d eps       ncg     rms          rms(c)
DAV:   1    -0.222841061266E+03    0.42928E-09    0.22465E-10   198   0.244E-10    0.265E-10
RMM:   2    -0.222841061266E+03    0.10914E-10    0.00000E+00     0   0.947E-11
 154 F= -.22284106E+03 E0= -.22284206E+03  d E =0.178261E-09
quench:  g(F)=  0.000E+00 g(S)=  0.000E+00 dE (1.order)= 0.000E+00
 bond charge predicted
       N       E                     dE             d eps       ncg     rms          rms(c)
DAV:   1    -0.222841061267E+03   -0.11642E-08    0.19206E-10   198   0.123E-10    0.199E-10
RMM:   2    -0.222841061266E+03    0.11023E-08    0.00000E+00     0   0.767E-11
 155 F= -.22284106E+03 E0= -.22284206E+03  d E =-.727596E-10
quench:  g(F)=  0.000E+00 g(S)=  0.000E+00 dE (1.order)= 0.000E+00
 bond charge predicted
       N       E                     dE             d eps       ncg     rms          rms(c)
DAV:   1    -0.222841061266E+03    0.12333E-08    0.75955E-11   198   0.918E-11    0.254E-10
RMM:   2    -0.222841061266E+03   -0.14552E-10    0.00000E+00     0   0.720E-11
 156 F= -.22284106E+03 E0= -.22284206E+03  d E =0.116415E-09
quench:  g(F)=  0.000E+00 g(S)=  0.000E+00 dE (1.order)= 0.000E+00
 bond charge predicted
       N       E                     dE             d eps       ncg     rms          rms(c)
DAV:   1    -0.222841061266E+03   -0.47294E-09    0.12603E-10   198   0.117E-10    0.236E-10
RMM:   2    -0.222841061266E+03    0.36744E-09    0.00000E+00     0   0.813E-11
 157 F= -.22284106E+03 E0= -.22284206E+03  d E =-.909495E-10
quench:  g(F)=  0.000E+00 g(S)=  0.000E+00 dE (1.order)= 0.000E+00
 bond charge predicted
       N       E                     dE             d eps       ncg     rms          rms(c)
DAV:   1    -0.222841061266E+03    0.49840E-09    0.17959E-10   198   0.124E-10    0.194E-10
RMM:   2    -0.222841061266E+03   -0.22555E-09    0.00000E+00     0   0.727E-11
 158 F= -.22284106E+03 E0= -.22284206E+03  d E =-.945874E-10
quench:  g(F)=  0.000E+00 g(S)=  0.000E+00 dE (1.order)= 0.000E+00
 bond charge predicted
       N       E                     dE             d eps       ncg     rms          rms(c)
DAV:   1    -0.222841061266E+03   -0.67303E-09    0.71271E-11   198   0.102E-10    0.326E-10
RMM:   2    -0.222841061266E+03    0.57116E-09    0.00000E+00     0   0.894E-11
 159 F= -.22284106E+03 E0= -.22284206E+03  d E =0.123691E-09
quench:  g(F)=  0.000E+00 g(S)=  0.000E+00 dE (1.order)= 0.000E+00
 bond charge predicted
       N       E                     dE             d eps       ncg     rms          rms(c)
DAV:   1    -0.222841061265E+03    0.15425E-08    0.13164E-10   198   0.137E-10    0.356E-10
RMM:   2    -0.222841061266E+03   -0.10405E-08    0.00000E+00     0   0.130E-10
 160 F= -.22284106E+03 E0= -.22284206E+03  d E =-.691216E-10
quench:  g(F)=  0.000E+00 g(S)=  0.000E+00 dE (1.order)= 0.000E+00
 bond charge predicted
       N       E                     dE             d eps       ncg     rms          rms(c)
DAV:   1    -0.222841061267E+03   -0.18954E-08    0.25392E-10   198   0.173E-10    0.211E-10
RMM:   2    -0.222841061266E+03    0.76034E-09    0.00000E+00     0   0.759E-11
 161 F= -.22284106E+03 E0= -.22284206E+03  d E =-.945874E-10
quench:  g(F)=  0.000E+00 g(S)=  0.000E+00 dE (1.order)= 0.000E+00
 bond charge predicted
       N       E                     dE             d eps       ncg     rms          rms(c)
DAV:   1    -0.222841061265E+03    0.13461E-08    0.81449E-11   198   0.104E-10    0.302E-10
RMM:   2    -0.222841061266E+03   -0.60390E-09    0.00000E+00     0   0.932E-11
 162 F= -.22284106E+03 E0= -.22284206E+03  d E =-.181899E-10
quench:  g(F)=  0.000E+00 g(S)=  0.000E+00 dE (1.order)= 0.000E+00
 bond charge predicted
       N       E                     dE             d eps       ncg     rms          rms(c)
DAV:   1    -0.222841061265E+03    0.20736E-09    0.13552E-10   198   0.153E-10    0.323E-10
RMM:   2    -0.222841061266E+03   -0.81855E-09    0.00000E+00     0   0.124E-10
 163 F= -.22284106E+03 E0= -.22284206E+03  d E =-.727596E-11
quench:  g(F)=  0.000E+00 g(S)=  0.000E+00 dE (1.order)= 0.000E+00
 bond charge predicted
       N       E                     dE             d eps       ncg     rms          rms(c)
DAV:   1    -0.222841061266E+03   -0.11678E-08    0.24247E-10   198   0.225E-10    0.311E-10
RMM:   2    -0.222841061266E+03    0.29104E-09    0.00000E+00     0   0.121E-10
 164 F= -.22284106E+03 E0= -.22284206E+03  d E =-.582077E-10
quench:  g(F)=  0.000E+00 g(S)=  0.000E+00 dE (1.order)= 0.000E+00
 bond charge predicted
       N       E                     dE             d eps       ncg     rms          rms(c)
DAV:   1    -0.222841061266E+03    0.41109E-09    0.50185E-11   198   0.192E-10    0.209E-10
RMM:   2    -0.222841061266E+03    0.00000E+00    0.00000E+00     0   0.854E-11
 165 F= -.22284106E+03 E0= -.22284206E+03  d E =0.120053E-09
quench:  g(F)=  0.000E+00 g(S)=  0.000E+00 dE (1.order)= 0.000E+00
 bond charge predicted
       N       E                     dE             d eps       ncg     rms          rms(c)
DAV:   1    -0.222841061266E+03   -0.17826E-09    0.12099E-10   198   0.136E-10    0.223E-10
RMM:   2    -0.222841061266E+03    0.23647E-09    0.00000E+00     0   0.888E-11
 166 F= -.22284106E+03 E0= -.22284206E+03  d E =0.582077E-10
quench:  g(F)=  0.000E+00 g(S)=  0.000E+00 dE (1.order)= 0.000E+00
 bond charge predicted
       N       E                     dE             d eps       ncg     rms          rms(c)
DAV:   1    -0.222841061265E+03    0.85493E-09    0.12049E-10   198   0.122E-10    0.255E-10
RMM:   2    -0.222841061266E+03   -0.65847E-09    0.00000E+00     0   0.973E-11
 167 F= -.22284106E+03 E0= -.22284206E+03  d E =-.400178E-10
quench:  g(F)=  0.000E+00 g(S)=  0.000E+00 dE (1.order)= 0.000E+00
 bond charge predicted
       N       E                     dE             d eps       ncg     rms          rms(c)
DAV:   1    -0.222841061266E+03   -0.12915E-08    0.11010E-10   198   0.125E-10    0.268E-10
RMM:   2    -0.222841061266E+03    0.64028E-09    0.00000E+00     0   0.887E-11
 168 F= -.22284106E+03 E0= -.22284206E+03  d E =0.727596E-11
quench:  g(F)=  0.000E+00 g(S)=  0.000E+00 dE (1.order)= 0.000E+00
 bond charge predicted
       N       E                     dE             d eps       ncg     rms          rms(c)
DAV:   1    -0.222841061266E+03    0.28012E-09    0.17835E-10   198   0.113E-10    0.281E-10
RMM:   2    -0.222841061266E+03    0.45111E-09    0.00000E+00     0   0.966E-11
 169 F= -.22284106E+03 E0= -.22284206E+03  d E =0.909495E-10
quench:  g(F)=  0.000E+00 g(S)=  0.000E+00 dE (1.order)= 0.000E+00
 bond charge predicted
       N       E                     dE             d eps       ncg     rms          rms(c)
DAV:   1    -0.222841061266E+03    0.22555E-09    0.78389E-11   198   0.131E-10    0.272E-10
RMM:   2    -0.222841061266E+03    0.23647E-09    0.00000E+00     0   0.111E-10
 170 F= -.22284106E+03 E0= -.22284206E+03  d E =0.109139E-10
quench:  g(F)=  0.000E+00 g(S)=  0.000E+00 dE (1.order)= 0.000E+00
 bond charge predicted
       N       E                     dE             d eps       ncg     rms          rms(c)
DAV:   1    -0.222841061266E+03    0.24738E-09    0.14670E-10   198   0.143E-10    0.263E-10
RMM:   2    -0.222841061266E+03   -0.17099E-09    0.00000E+00     0   0.807E-11
 171 F= -.22284106E+03 E0= -.22284206E+03  d E =-.160071E-09
quench:  g(F)=  0.000E+00 g(S)=  0.000E+00 dE (1.order)= 0.000E+00
 bond charge predicted
       N       E                     dE             d eps       ncg     rms          rms(c)
DAV:   1    -0.222841061266E+03   -0.60390E-09    0.10867E-10   198   0.112E-10    0.280E-10
RMM:   2    -0.222841061266E+03    0.39290E-09    0.00000E+00     0   0.939E-11
 172 F= -.22284106E+03 E0= -.22284206E+03  d E =-.400178E-10
quench:  g(F)=  0.000E+00 g(S)=  0.000E+00 dE (1.order)= 0.000E+00
 bond charge predicted
       N       E                     dE             d eps       ncg     rms          rms(c)
DAV:   1    -0.222841061265E+03    0.13642E-08    0.11458E-10   198   0.125E-10    0.277E-10
RMM:   2    -0.222841061266E+03   -0.94587E-09    0.00000E+00     0   0.848E-11
 173 F= -.22284106E+03 E0= -.22284206E+03  d E =0.254659E-10
quench:  g(F)=  0.000E+00 g(S)=  0.000E+00 dE (1.order)= 0.000E+00
 bond charge predicted
       N       E                     dE             d eps       ncg     rms          rms(c)
DAV:   1    -0.222841061266E+03   -0.13279E-08    0.90826E-11   198   0.116E-10    0.321E-10
RMM:   2    -0.222841061266E+03    0.41837E-09    0.00000E+00     0   0.117E-10
 174 F= -.22284106E+03 E0= -.22284206E+03  d E =0.363798E-10
quench:  g(F)=  0.000E+00 g(S)=  0.000E+00 dE (1.order)= 0.000E+00
 bond charge predicted
       N       E                     dE             d eps       ncg     rms          rms(c)
DAV:   1    -0.222841061266E+03   -0.28376E-09    0.20266E-10   198   0.198E-10    0.303E-10
RMM:   2    -0.222841061266E+03    0.68758E-09    0.00000E+00     0   0.125E-10
 175 F= -.22284106E+03 E0= -.22284206E+03  d E =-.145519E-10
quench:  g(F)=  0.000E+00 g(S)=  0.000E+00 dE (1.order)= 0.000E+00
 bond charge predicted
       N       E                     dE             d eps       ncg     rms          rms(c)
DAV:   1    -0.222841061266E+03    0.17099E-09    0.27242E-10   198   0.211E-10    0.202E-10
RMM:   2    -0.222841061266E+03    0.70577E-09    0.00000E+00     0   0.854E-11
 176 F= -.22284106E+03 E0= -.22284206E+03  d E =0.189175E-09
quench:  g(F)=  0.000E+00 g(S)=  0.000E+00 dE (1.order)= 0.000E+00
 bond charge predicted
       N       E                     dE             d eps       ncg     rms          rms(c)
DAV:   1    -0.222841061265E+03    0.11933E-08    0.63509E-11   198   0.114E-10    0.289E-10
RMM:   2    -0.222841061266E+03   -0.63665E-09    0.00000E+00     0   0.830E-11
 177 F= -.22284106E+03 E0= -.22284206E+03  d E =-.149157E-09
quench:  g(F)=  0.000E+00 g(S)=  0.000E+00 dE (1.order)= 0.000E+00
 bond charge predicted
       N       E                     dE             d eps       ncg     rms          rms(c)
DAV:   1    -0.222841061266E+03   -0.59299E-09    0.77373E-11   198   0.107E-10    0.312E-10
RMM:   2    -0.222841061266E+03   -0.50932E-10    0.00000E+00     0   0.102E-10
 178 F= -.22284106E+03 E0= -.22284206E+03  d E =-.727596E-11
quench:  g(F)=  0.000E+00 g(S)=  0.000E+00 dE (1.order)= 0.000E+00
 bond charge predicted
       N       E                     dE             d eps       ncg     rms          rms(c)
DAV:   1    -0.222841061265E+03    0.25830E-09    0.11994E-10   198   0.159E-10    0.236E-10
RMM:   2    -0.222841061266E+03   -0.32742E-09    0.00000E+00     0   0.859E-11
 179 F= -.22284106E+03 E0= -.22284206E+03  d E =-.181899E-10
quench:  g(F)=  0.000E+00 g(S)=  0.000E+00 dE (1.order)= 0.000E+00
 bond charge predicted
       N       E                     dE             d eps       ncg     rms          rms(c)
DAV:   1    -0.222841061264E+03    0.11387E-08    0.22868E-10   198   0.122E-10    0.285E-10
RMM:   2    -0.222841061266E+03   -0.14224E-08    0.00000E+00     0   0.844E-11
 180 F= -.22284106E+03 E0= -.22284206E+03  d E =0.436557E-10
quench:  g(F)=  0.000E+00 g(S)=  0.000E+00 dE (1.order)= 0.000E+00
 bond charge predicted
       N       E                     dE             d eps       ncg     rms          rms(c)
DAV:   1    -0.222841061266E+03   -0.15534E-08    0.12857E-10   198   0.119E-10    0.190E-10
RMM:   2    -0.222841061266E+03    0.14552E-10    0.00000E+00     0   0.737E-11
 181 F= -.22284106E+03 E0= -.22284206E+03  d E =-.116415E-09
quench:  g(F)=  0.000E+00 g(S)=  0.000E+00 dE (1.order)= 0.000E+00
 bond charge predicted
       N       E                     dE             d eps       ncg     rms          rms(c)
DAV:   1    -0.222841061265E+03    0.53842E-09    0.16717E-10   198   0.911E-11    0.277E-10
RMM:   2    -0.222841061266E+03   -0.48385E-09    0.00000E+00     0   0.884E-11
 182 F= -.22284106E+03 E0= -.22284206E+03  d E =0.400178E-10
quench:  g(F)=  0.000E+00 g(S)=  0.000E+00 dE (1.order)= 0.000E+00
 bond charge predicted
       N       E                     dE             d eps       ncg     rms          rms(c)
DAV:   1    -0.222841061265E+03   -0.29104E-10    0.13054E-10   198   0.132E-10    0.281E-10
RMM:   2    -0.222841061266E+03   -0.43656E-09    0.00000E+00     0   0.796E-11
 183 F= -.22284106E+03 E0= -.22284206E+03  d E =0.181899E-10
quench:  g(F)=  0.000E+00 g(S)=  0.000E+00 dE (1.order)= 0.000E+00
 bond charge predicted
       N       E                     dE             d eps       ncg     rms          rms(c)
DAV:   1    -0.222841061265E+03    0.70577E-09    0.12116E-10   198   0.119E-10    0.261E-10
RMM:   2    -0.222841061266E+03   -0.99317E-09    0.00000E+00     0   0.994E-11
 184 F= -.22284106E+03 E0= -.22284206E+03  d E =0.149157E-09
quench:  g(F)=  0.000E+00 g(S)=  0.000E+00 dE (1.order)= 0.000E+00
 bond charge predicted
       N       E                     dE             d eps       ncg     rms          rms(c)
DAV:   1    -0.222841061267E+03   -0.19318E-08    0.42181E-12   198   0.123E-10    0.249E-10
RMM:   2    -0.222841061266E+03    0.81491E-09    0.00000E+00     0   0.101E-10
[...]
 bond charge predicted
       N       E                     dE             d eps       ncg     rms          rms(c)
DAV:   1    -0.222841061265E+03    0.90586E-09    0.12701E-10   198   0.154E-10    0.235E-10
RMM:   2    -0.222841061266E+03   -0.50932E-09    0.00000E+00     0   0.925E-11
 453 F= -.22284106E+03 E0= -.22284206E+03  d E =0.145519E-10
quench:  g(F)=  0.000E+00 g(S)=  0.000E+00 dE (1.order)= 0.000E+00
 bond charge predicted
       N       E                     dE             d eps       ncg     rms          rms(c)
DAV:   1    -0.222841061265E+03    0.37471E-09    0.21002E-10   198   0.135E-10    0.318E-10
RMM:   2    -0.222841061266E+03   -0.87311E-09    0.00000E+00     0   0.115E-10
 454 F= -.22284106E+03 E0= -.22284206E+03  d E =0.109139E-10
quench:  g(F)=  0.000E+00 g(S)=  0.000E+00 dE (1.order)= 0.000E+00
 bond charge predicted
       N       E                     dE             d eps       ncg     rms          rms(c)
DAV:   1    -0.222841061265E+03   -0.71304E-09    0.26574E-10   198   0.200E-10    0.231E-10
RMM:   2    -0.222841061266E+03   -0.33106E-09    0.00000E+00     0   0.919E-11
 455 F= -.22284106E+03 E0= -.22284206E+03  d E =-.170985E-09
quench:  g(F)=  0.000E+00 g(S)=  0.000E+00 dE (1.order)= 0.000E+00
 bond charge predicted
       N       E                     dE             d eps       ncg     rms          rms(c)
DAV:   1    -0.222841061266E+03   -0.98225E-10    0.17394E-10   198   0.130E-10    0.233E-10
RMM:   2    -0.222841061266E+03   -0.12733E-09    0.00000E+00     0   0.900E-11
 456 F= -.22284106E+03 E0= -.22284206E+03  d E =0.105501E-09
quench:  g(F)=  0.000E+00 g(S)=  0.000E+00 dE (1.order)= 0.000E+00
 bond charge predicted
       N       E                     dE             d eps       ncg     rms          rms(c)
DAV:   1    -0.222841061266E+03   -0.34197E-09    0.14879E-10   198   0.126E-10    0.186E-10
RMM:   2    -0.222841061266E+03    0.28012E-09    0.00000E+00     0   0.642E-11
 457 F= -.22284106E+03 E0= -.22284206E+03  d E =0.654836E-10
quench:  g(F)=  0.000E+00 g(S)=  0.000E+00 dE (1.order)= 0.000E+00
 bond charge predicted
       N       E                     dE             d eps       ncg     rms          rms(c)
DAV:   1    -0.222841061266E+03    0.32742E-10    0.20135E-10   198   0.869E-11    0.270E-10
RMM:   2    -0.222841061266E+03    0.16371E-09    0.00000E+00     0   0.835E-11
 458 F= -.22284106E+03 E0= -.22284206E+03  d E =-.836735E-10
quench:  g(F)=  0.000E+00 g(S)=  0.000E+00 dE (1.order)= 0.000E+00
 bond charge predicted
       N       E                     dE             d eps       ncg     rms          rms(c)
DAV:   1    -0.222841061266E+03   -0.25466E-10    0.16304E-10   198   0.125E-10    0.260E-10
RMM:   2    -0.222841061266E+03    0.24011E-09    0.00000E+00     0   0.778E-11
 459 F= -.22284106E+03 E0= -.22284206E+03  d E =0.509317E-10
quench:  g(F)=  0.000E+00 g(S)=  0.000E+00 dE (1.order)= 0.000E+00
 bond charge predicted
       N       E                     dE             d eps       ncg     rms          rms(c)
DAV:   1    -0.222841061266E+03    0.38563E-09    0.14467E-10   198   0.147E-10    0.338E-10
RMM:   2    -0.222841061266E+03   -0.25830E-09    0.00000E+00     0   0.120E-10
 460 F= -.22284106E+03 E0= -.22284206E+03  d E =-.112777E-09
quench:  g(F)=  0.000E+00 g(S)=  0.000E+00 dE (1.order)= 0.000E+00
 bond charge predicted
       N       E                     dE             d eps       ncg     rms          rms(c)
DAV:   1    -0.222841061266E+03   -0.36380E-11    0.18765E-10   198   0.181E-10    0.300E-10
RMM:   2    -0.222841061266E+03   -0.22192E-09    0.00000E+00     0   0.108E-10
 461 F= -.22284106E+03 E0= -.22284206E+03  d E =0.327418E-10
quench:  g(F)=  0.000E+00 g(S)=  0.000E+00 dE (1.order)= 0.000E+00
 bond charge predicted
       N       E                     dE             d eps       ncg     rms          rms(c)
DAV:   1    -0.222841061267E+03   -0.12624E-08    0.13256E-10   198   0.186E-10    0.291E-10
RMM:   2    -0.222841061266E+03    0.10987E-08    0.00000E+00     0   0.112E-10
 462 F= -.22284106E+03 E0= -.22284206E+03  d E =0.582077E-10
quench:  g(F)=  0.000E+00 g(S)=  0.000E+00 dE (1.order)= 0.000E+00
 bond charge predicted
       N       E                     dE             d eps       ncg     rms          rms(c)
DAV:   1    -0.222841061266E+03    0.52751E-09    0.11206E-10   198   0.142E-10    0.243E-10
RMM:   2    -0.222841061266E+03    0.62937E-09    0.00000E+00     0   0.841E-11
 463 F= -.22284106E+03 E0= -.22284206E+03  d E =0.582077E-10
quench:  g(F)=  0.000E+00 g(S)=  0.000E+00 dE (1.order)= 0.000E+00
 bond charge predicted
       N       E                     dE             d eps       ncg     rms          rms(c)
DAV:   1    -0.222841061266E+03    0.32378E-09    0.13828E-10   198   0.117E-10    0.241E-10
RMM:   2    -0.222841061266E+03    0.27649E-09    0.00000E+00     0   0.940E-11
 464 F= -.22284106E+03 E0= -.22284206E+03  d E =-.291038E-10
quench:  g(F)=  0.000E+00 g(S)=  0.000E+00 dE (1.order)= 0.000E+00
 bond charge predicted
       N       E                     dE             d eps       ncg     rms          rms(c)
DAV:   1    -0.222841061265E+03    0.10514E-08    0.17334E-10   198   0.111E-10    0.405E-10
RMM:   2    -0.222841061266E+03   -0.76398E-09    0.00000E+00     0   0.155E-10
 465 F= -.22284106E+03 E0= -.22284206E+03  d E =0.109139E-10
quench:  g(F)=  0.000E+00 g(S)=  0.000E+00 dE (1.order)= 0.000E+00
 bond charge predicted
       N       E                     dE             d eps       ncg     rms          rms(c)
DAV:   1    -0.222841061266E+03   -0.15498E-08    0.13623E-10   198   0.246E-10    0.392E-10
RMM:   2    -0.222841061266E+03    0.88403E-09    0.00000E+00     0   0.149E-10
 466 F= -.22284106E+03 E0= -.22284206E+03  d E =0.982254E-10
quench:  g(F)=  0.000E+00 g(S)=  0.000E+00 dE (1.order)= 0.000E+00
 bond charge predicted
       N       E                     dE             d eps       ncg     rms          rms(c)
DAV:   1    -0.222841061265E+03    0.11169E-08    0.11117E-10   198   0.208E-10    0.274E-10
RMM:   2    -0.222841061266E+03   -0.31650E-09    0.00000E+00     0   0.109E-10
 467 F= -.22284106E+03 E0= -.22284206E+03  d E =-.836735E-10
quench:  g(F)=  0.000E+00 g(S)=  0.000E+00 dE (1.order)= 0.000E+00
 bond charge predicted
       N       E                     dE             d eps       ncg     rms          rms(c)
DAV:   1    -0.222841061267E+03   -0.16007E-08    0.91543E-11   198   0.145E-10    0.282E-10
RMM:   2    -0.222841061266E+03    0.11496E-08    0.00000E+00     0   0.102E-10
 468 F= -.22284106E+03 E0= -.22284206E+03  d E =-.134605E-09
quench:  g(F)=  0.000E+00 g(S)=  0.000E+00 dE (1.order)= 0.000E+00
 bond charge predicted
       N       E                     dE             d eps       ncg     rms          rms(c)
DAV:   1    -0.222841061266E+03    0.12042E-08    0.21463E-10   198   0.183E-10    0.218E-10
RMM:   2    -0.222841061266E+03    0.61846E-10    0.00000E+00     0   0.981E-11
 469 F= -.22284106E+03 E0= -.22284206E+03  d E =0.116415E-09
quench:  g(F)=  0.000E+00 g(S)=  0.000E+00 dE (1.order)= 0.000E+00
 bond charge predicted
       N       E                     dE             d eps       ncg     rms          rms(c)
DAV:   1    -0.222841061267E+03   -0.88403E-09    0.14339E-10   198   0.108E-10    0.248E-10
RMM:   2    -0.222841061266E+03    0.80036E-09    0.00000E+00     0   0.847E-11
 470 F= -.22284106E+03 E0= -.22284206E+03  d E =-.145519E-09
quench:  g(F)=  0.000E+00 g(S)=  0.000E+00 dE (1.order)= 0.000E+00
 bond charge predicted
       N       E                     dE             d eps       ncg     rms          rms(c)
DAV:   1    -0.222841061266E+03    0.26921E-09    0.13811E-10   198   0.990E-11    0.283E-10
RMM:   2    -0.222841061266E+03    0.59663E-09    0.00000E+00     0   0.985E-11
 471 F= -.22284106E+03 E0= -.22284206E+03  d E =0.654836E-10
quench:  g(F)=  0.000E+00 g(S)=  0.000E+00 dE (1.order)= 0.000E+00
 bond charge predicted
       N       E                     dE             d eps       ncg     rms          rms(c)
DAV:   1    -0.222841061266E+03   -0.11642E-09    0.11279E-10   198   0.167E-10    0.426E-10
RMM:   2    -0.222841061266E+03    0.77489E-09    0.00000E+00     0   0.163E-10
 472 F= -.22284106E+03 E0= -.22284206E+03  d E =0.618456E-10
quench:  g(F)=  0.000E+00 g(S)=  0.000E+00 dE (1.order)= 0.000E+00
 bond charge predicted
       N       E                     dE             d eps       ncg     rms          rms(c)
DAV:   1    -0.222841061265E+03    0.12915E-08    0.23894E-10   198   0.286E-10    0.211E-10
RMM:   2    -0.222841061266E+03   -0.48385E-09    0.00000E+00     0   0.883E-11
 473 F= -.22284106E+03 E0= -.22284206E+03  d E =0.327418E-10
quench:  g(F)=  0.000E+00 g(S)=  0.000E+00 dE (1.order)= 0.000E+00
 bond charge predicted
       N       E                     dE             d eps       ncg     rms          rms(c)
DAV:   1    -0.222841061265E+03   -0.30195E-09    0.89623E-11   198   0.105E-10    0.331E-10
RMM:   2    -0.222841061266E+03   -0.16735E-09    0.00000E+00     0   0.102E-10
 474 F= -.22284106E+03 E0= -.22284206E+03  d E =0.145519E-10
quench:  g(F)=  0.000E+00 g(S)=  0.000E+00 dE (1.order)= 0.000E+00
 bond charge predicted
       N       E                     dE             d eps       ncg     rms          rms(c)
DAV:   1    -0.222841061266E+03   -0.46202E-09    0.12480E-10   198   0.137E-10    0.232E-10
RMM:   2    -0.222841061266E+03    0.23647E-09    0.00000E+00     0   0.127E-10
 475 F= -.22284106E+03 E0= -.22284206E+03  d E =-.582077E-10
quench:  g(F)=  0.000E+00 g(S)=  0.000E+00 dE (1.order)= 0.000E+00
 bond charge predicted
       N       E                     dE             d eps       ncg     rms          rms(c)
DAV:   1    -0.222841061266E+03   -0.33469E-09    0.75344E-11   198   0.178E-10    0.235E-10
RMM:   2    -0.222841061266E+03    0.54570E-09    0.00000E+00     0   0.101E-10
 476 F= -.22284106E+03 E0= -.22284206E+03  d E =-.254659E-10
quench:  g(F)=  0.000E+00 g(S)=  0.000E+00 dE (1.order)= 0.000E+00
 bond charge predicted
       N       E                     dE             d eps       ncg     rms          rms(c)
DAV:   1    -0.222841061266E+03    0.14552E-10    0.88469E-11   198   0.154E-10    0.244E-10
RMM:   2    -0.222841061266E+03    0.65847E-09    0.00000E+00     0   0.101E-10
 477 F= -.22284106E+03 E0= -.22284206E+03  d E =0.127329E-09
quench:  g(F)=  0.000E+00 g(S)=  0.000E+00 dE (1.order)= 0.000E+00
 bond charge predicted
       N       E                     dE             d eps       ncg     rms          rms(c)
DAV:   1    -0.222841061266E+03    0.54206E-09    0.20691E-10   198   0.180E-10    0.163E-10
RMM:   2    -0.222841061266E+03    0.36380E-10    0.00000E+00     0   0.812E-11
 478 F= -.22284106E+03 E0= -.22284206E+03  d E =-.800355E-10
quench:  g(F)=  0.000E+00 g(S)=  0.000E+00 dE (1.order)= 0.000E+00
 bond charge predicted
       N       E                     dE             d eps       ncg     rms          rms(c)
DAV:   1    -0.222841061265E+03    0.90949E-09    0.30140E-10   198   0.979E-11    0.269E-10
RMM:   2    -0.222841061266E+03   -0.79672E-09    0.00000E+00     0   0.934E-11
 479 F= -.22284106E+03 E0= -.22284206E+03  d E =0.763976E-10
quench:  g(F)=  0.000E+00 g(S)=  0.000E+00 dE (1.order)= 0.000E+00
 bond charge predicted
       N       E                     dE             d eps       ncg     rms          rms(c)
DAV:   1    -0.222841061266E+03   -0.13315E-08    0.27900E-11   198   0.139E-10    0.256E-10
RMM:   2    -0.222841061266E+03    0.35288E-09    0.00000E+00     0   0.734E-11
 480 F= -.22284106E+03 E0= -.22284206E+03  d E =-.181899E-09
quench:  g(F)=  0.000E+00 g(S)=  0.000E+00 dE (1.order)= 0.000E+00
 bond charge predicted
       N       E                     dE             d eps       ncg     rms          rms(c)
DAV:   1    -0.222841061266E+03   -0.10914E-09    0.85694E-11   198   0.128E-10    0.269E-10
RMM:   2    -0.222841061266E+03    0.61118E-09    0.00000E+00     0   0.882E-11
 481 F= -.22284106E+03 E0= -.22284206E+03  d E =0.149157E-09
quench:  g(F)=  0.000E+00 g(S)=  0.000E+00 dE (1.order)= 0.000E+00
 bond charge predicted
       N       E                     dE             d eps       ncg     rms          rms(c)
DAV:   1    -0.222841061266E+03    0.30923E-09    0.18097E-10   198   0.122E-10    0.217E-10
RMM:   2    -0.222841061266E+03    0.19281E-09    0.00000E+00     0   0.731E-11
 482 F= -.22284106E+03 E0= -.22284206E+03  d E =-.109139E-09
quench:  g(F)=  0.000E+00 g(S)=  0.000E+00 dE (1.order)= 0.000E+00
 bond charge predicted
       N       E                     dE             d eps       ncg     rms          rms(c)
DAV:   1    -0.222841061266E+03   -0.38563E-09    0.19645E-10   198   0.970E-11    0.307E-10
RMM:   2    -0.222841061266E+03    0.49113E-09    0.00000E+00     0   0.845E-11
 483 F= -.22284106E+03 E0= -.22284206E+03  d E =-.873115E-10
quench:  g(F)=  0.000E+00 g(S)=  0.000E+00 dE (1.order)= 0.000E+00
 bond charge predicted
       N       E                     dE             d eps       ncg     rms          rms(c)
DAV:   1    -0.222841061265E+03    0.85856E-09    0.16998E-10   198   0.118E-10    0.261E-10
RMM:   2    -0.222841061266E+03   -0.17099E-09    0.00000E+00     0   0.931E-11
 484 F= -.22284106E+03 E0= -.22284206E+03  d E =0.196451E-09
quench:  g(F)=  0.000E+00 g(S)=  0.000E+00 dE (1.order)= 0.000E+00
 bond charge predicted
       N       E                     dE             d eps       ncg     rms          rms(c)
DAV:   1    -0.222841061266E+03   -0.46930E-09    0.14531E-10   198   0.120E-10    0.304E-10
RMM:   2    -0.222841061266E+03    0.22192E-09    0.00000E+00     0   0.790E-11
 485 F= -.22284106E+03 E0= -.22284206E+03  d E =-.763976E-10
quench:  g(F)=  0.000E+00 g(S)=  0.000E+00 dE (1.order)= 0.000E+00
 bond charge predicted
       N       E                     dE             d eps       ncg     rms          rms(c)
DAV:   1    -0.222841061266E+03   -0.38563E-09    0.14322E-10   198   0.115E-10    0.261E-10
RMM:   2    -0.222841061266E+03    0.65120E-09    0.00000E+00     0   0.700E-11
 486 F= -.22284106E+03 E0= -.22284206E+03  d E =0.436557E-10
quench:  g(F)=  0.000E+00 g(S)=  0.000E+00 dE (1.order)= 0.000E+00
 bond charge predicted
       N       E                     dE             d eps       ncg     rms          rms(c)
DAV:   1    -0.222841061265E+03    0.90586E-09    0.17607E-10   198   0.995E-11    0.336E-10
RMM:   2    -0.222841061266E+03   -0.37835E-09    0.00000E+00     0   0.108E-10
 487 F= -.22284106E+03 E0= -.22284206E+03  d E =-.123691E-09
quench:  g(F)=  0.000E+00 g(S)=  0.000E+00 dE (1.order)= 0.000E+00
 bond charge predicted
       N       E                     dE             d eps       ncg     rms          rms(c)
DAV:   1    -0.222841061265E+03    0.53478E-09    0.27701E-10   198   0.185E-10    0.271E-10
RMM:   2    -0.222841061266E+03   -0.81491E-09    0.00000E+00     0   0.111E-10
 488 F= -.22284106E+03 E0= -.22284206E+03  d E =0.982254E-10
quench:  g(F)=  0.000E+00 g(S)=  0.000E+00 dE (1.order)= 0.000E+00
 bond charge predicted
       N       E                     dE             d eps       ncg     rms          rms(c)
DAV:   1    -0.222841061266E+03   -0.66939E-09    0.16754E-10   198   0.173E-10    0.253E-10
RMM:   2    -0.222841061266E+03   -0.15280E-09    0.00000E+00     0   0.112E-10
 489 F= -.22284106E+03 E0= -.22284206E+03  d E =-.727596E-11
quench:  g(F)=  0.000E+00 g(S)=  0.000E+00 dE (1.order)= 0.000E+00
 bond charge predicted
       N       E                     dE             d eps       ncg     rms          rms(c)
DAV:   1    -0.222841061266E+03   -0.58935E-09    0.24358E-10   198   0.107E-10    0.289E-10
RMM:   2    -0.222841061266E+03    0.53478E-09    0.00000E+00     0   0.102E-10
 490 F= -.22284106E+03 E0= -.22284206E+03  d E =0.982254E-10
quench:  g(F)=  0.000E+00 g(S)=  0.000E+00 dE (1.order)= 0.000E+00
 bond charge predicted
       N       E                     dE             d eps       ncg     rms          rms(c)
DAV:   1    -0.222841061265E+03    0.13097E-08    0.17817E-10   198   0.152E-10    0.392E-10
RMM:   2    -0.222841061266E+03   -0.98589E-09    0.00000E+00     0   0.141E-10
 491 F= -.22284106E+03 E0= -.22284206E+03  d E =-.211003E-09
quench:  g(F)=  0.000E+00 g(S)=  0.000E+00 dE (1.order)= 0.000E+00
 bond charge predicted
       N       E                     dE             d eps       ncg     rms          rms(c)
DAV:   1    -0.222841061266E+03   -0.15025E-08    0.80431E-11   198   0.252E-10    0.273E-10
RMM:   2    -0.222841061266E+03    0.57480E-09    0.00000E+00     0   0.124E-10
 492 F= -.22284106E+03 E0= -.22284206E+03  d E =0.582077E-10
quench:  g(F)=  0.000E+00 g(S)=  0.000E+00 dE (1.order)= 0.000E+00
 bond charge predicted
       N       E                     dE             d eps       ncg     rms          rms(c)
DAV:   1    -0.222841061266E+03    0.66211E-09    0.78038E-11   198   0.167E-10    0.344E-10
RMM:   2    -0.222841061266E+03   -0.69122E-10    0.00000E+00     0   0.121E-10
 493 F= -.22284106E+03 E0= -.22284206E+03  d E =0.181899E-10
quench:  g(F)=  0.000E+00 g(S)=  0.000E+00 dE (1.order)= 0.000E+00
 bond charge predicted
       N       E                     dE             d eps       ncg     rms          rms(c)
DAV:   1    -0.222841061265E+03    0.68758E-09    0.17553E-10   198   0.210E-10    0.319E-10
RMM:   2    -0.222841061266E+03   -0.82946E-09    0.00000E+00     0   0.116E-10
 494 F= -.22284106E+03 E0= -.22284206E+03  d E =-.727596E-10
quench:  g(F)=  0.000E+00 g(S)=  0.000E+00 dE (1.order)= 0.000E+00
 bond charge predicted
       N       E                     dE             d eps       ncg     rms          rms(c)
DAV:   1    -0.222841061265E+03   -0.22919E-09    0.28903E-11   198   0.170E-10    0.235E-10
RMM:   2    -0.222841061266E+03   -0.61118E-09    0.00000E+00     0   0.881E-11
 495 F= -.22284106E+03 E0= -.22284206E+03  d E =-.109139E-10
quench:  g(F)=  0.000E+00 g(S)=  0.000E+00 dE (1.order)= 0.000E+00
 bond charge predicted
       N       E                     dE             d eps       ncg     rms          rms(c)
DAV:   1    -0.222841061266E+03   -0.83310E-09    0.26632E-10   198   0.122E-10    0.284E-10
RMM:   2    -0.222841061266E+03    0.29104E-09    0.00000E+00     0   0.926E-11
 496 F= -.22284106E+03 E0= -.22284206E+03  d E =0.691216E-10
quench:  g(F)=  0.000E+00 g(S)=  0.000E+00 dE (1.order)= 0.000E+00
 bond charge predicted
       N       E                     dE             d eps       ncg     rms          rms(c)
DAV:   1    -0.222841061265E+03    0.62573E-09    0.13619E-10   198   0.138E-10    0.333E-10
RMM:   2    -0.222841061266E+03   -0.27649E-09    0.00000E+00     0   0.103E-10
 497 F= -.22284106E+03 E0= -.22284206E+03  d E =0.582077E-10
quench:  g(F)=  0.000E+00 g(S)=  0.000E+00 dE (1.order)= 0.000E+00
 bond charge predicted
       N       E                     dE             d eps       ncg     rms          rms(c)
DAV:   1    -0.222841061265E+03    0.62937E-09    0.11700E-10   198   0.171E-10    0.432E-10
RMM:   2    -0.222841061266E+03   -0.79672E-09    0.00000E+00     0   0.158E-10
 498 F= -.22284106E+03 E0= -.22284206E+03  d E =0.109139E-09
quench:  g(F)=  0.000E+00 g(S)=  0.000E+00 dE (1.order)= 0.000E+00
 bond charge predicted
       N       E                     dE             d eps       ncg     rms          rms(c)
DAV:   1    -0.222841061266E+03   -0.92041E-09    0.96872E-11   198   0.254E-10    0.299E-10
RMM:   2    -0.222841061266E+03   -0.72760E-11    0.00000E+00     0   0.105E-10
 499 F= -.22284106E+03 E0= -.22284206E+03  d E =-.130967E-09
quench:  g(F)=  0.000E+00 g(S)=  0.000E+00 dE (1.order)= 0.000E+00
 bond charge predicted
       N       E                     dE             d eps       ncg     rms          rms(c)
DAV:   1    -0.222841061266E+03   -0.34561E-09    0.21686E-10   198   0.124E-10    0.289E-10
RMM:   2    -0.222841061266E+03    0.26557E-09    0.00000E+00     0   0.930E-11
 500 F= -.22284106E+03 E0= -.22284206E+03  d E =-.727596E-10
quench:  g(F)=  0.000E+00 g(S)=  0.000E+00 dE (1.order)= 0.000E+00
