  79  79   0   0
  0.2352942E+02  0.1210264E-08  0.7093817E-09  0.2165102E-08  0.0000000E+00
   1.0000000000000000E-004
  CAR 
 NEB_refined                             
      8.96354669    -23.90034586  301      0.87433922      1.00000000
    -23.900  0.0000E+00  0.0000E+00
    -23.791  0.0000E+00  0.0000E+00
    -23.681  0.0000E+00  0.0000E+00
    -23.572 -0.9469E-31 -0.1037E-31
    -23.462 -0.6642E-27 -0.7277E-28
    -23.353 -0.2491E-23 -0.2730E-24
    -23.243 -0.5126E-20 -0.5618E-21
    -23.134 -0.5787E-17 -0.6345E-18
    -23.024 -0.3475E-14 -0.3813E-15
    -22.914 -0.1170E-11 -0.1285E-12
    -22.805 -0.2152E-09 -0.2370E-10
    -22.695 -0.2154E-07 -0.2384E-08
    -22.586 -0.1167E-05 -0.1302E-06
    -22.476 -0.3390E-04 -0.3843E-05
    -22.367 -0.5182E-03 -0.6061E-04
    -22.257 -0.4017E-02 -0.5006E-03
    -22.148 -0.1427E-01 -0.2064E-02
    -22.038 -0.1241E-01 -0.3423E-02
    -21.929  0.6648E-01  0.3860E-02
    -21.819  0.3126E+00  0.3811E-01
    -21.709  0.7927E+00  0.1249E+00
    -21.600  0.1229E+01  0.2596E+00
    -21.490  0.1129E+01  0.3833E+00
    -21.381  0.6220E+00  0.4514E+00
    -21.271  0.1860E+00  0.4718E+00
    -21.162 -0.1029E-02  0.4717E+00
    -21.052 -0.2368E-01  0.4691E+00
    -20.943 -0.8412E-02  0.4682E+00
    -20.833 -0.1342E-02  0.4680E+00
    -20.724 -0.1108E-03  0.4680E+00
    -20.614 -0.4913E-05  0.4680E+00
    -20.504 -0.1185E-06  0.4680E+00
    -20.395 -0.1564E-08  0.4680E+00
    -20.285 -0.1132E-10  0.4680E+00
    -20.176 -0.4498E-13  0.4680E+00
    -20.066 -0.1054E-15  0.4680E+00
    -19.957  0.0000E+00  0.4680E+00
    -19.847  0.0000E+00  0.4680E+00
    -19.738  0.0000E+00  0.4680E+00
    -19.628  0.0000E+00  0.4680E+00
    -19.518  0.0000E+00  0.4680E+00
    -19.409  0.0000E+00  0.4680E+00
    -19.299  0.0000E+00  0.4680E+00
    -19.190  0.0000E+00  0.4680E+00
    -19.080  0.0000E+00  0.4680E+00
    -18.971  0.0000E+00  0.4680E+00
    -18.861  0.0000E+00  0.4680E+00
    -18.752  0.0000E+00  0.4680E+00
    -18.642  0.0000E+00  0.4680E+00
    -18.533  0.0000E+00  0.4680E+00
    -18.423  0.0000E+00  0.4680E+00
    -18.313  0.0000E+00  0.4680E+00
    -18.204  0.0000E+00  0.4680E+00
    -18.094  0.0000E+00  0.4680E+00
    -17.985  0.0000E+00  0.4680E+00
    -17.875  0.0000E+00  0.4680E+00
    -17.766  0.0000E+00  0.4680E+00
    -17.656  0.0000E+00  0.4680E+00
    -17.547  0.0000E+00  0.4680E+00
    -17.437  0.0000E+00  0.4680E+00
    -17.328  0.0000E+00  0.4680E+00
    -17.218  0.0000E+00  0.4680E+00
    -17.108  0.0000E+00  0.4680E+00
    -16.999  0.0000E+00  0.4680E+00
    -16.889  0.0000E+00  0.4680E+00
    -16.780  0.0000E+00  0.4680E+00
    -16.670  0.0000E+00  0.4680E+00
    -16.561  0.0000E+00  0.4680E+00
    -16.451  0.0000E+00  0.4680E+00
    -16.342  0.0000E+00  0.4680E+00
    -16.232  0.0000E+00  0.4680E+00
    -16.123  0.0000E+00  0.4680E+00
    -16.013  0.0000E+00  0.4680E+00
    -15.903  0.0000E+00  0.4680E+00
    -15.794  0.0000E+00  0.4680E+00
    -15.684  0.0000E+00  0.4680E+00
    -15.575  0.0000E+00  0.4680E+00
    -15.465  0.0000E+00  0.4680E+00
    -15.356  0.0000E+00  0.4680E+00
    -15.246  0.0000E+00  0.4680E+00
    -15.137  0.0000E+00  0.4680E+00
    -15.027  0.0000E+00  0.4680E+00
    -14.918  0.0000E+00  0.4680E+00
    -14.808  0.0000E+00  0.4680E+00
    -14.698  0.0000E+00  0.4680E+00
    -14.589  0.0000E+00  0.4680E+00
    -14.479  0.0000E+00  0.4680E+00
    -14.370  0.0000E+00  0.4680E+00
    -14.260  0.0000E+00  0.4680E+00
    -14.151  0.0000E+00  0.4680E+00
    -14.041  0.0000E+00  0.4680E+00
    -13.932  0.0000E+00  0.4680E+00
    -13.822  0.0000E+00  0.4680E+00
    -13.713  0.0000E+00  0.4680E+00
    -13.603  0.0000E+00  0.4680E+00
    -13.493  0.0000E+00  0.4680E+00
    -13.384  0.0000E+00  0.4680E+00
    -13.274  0.0000E+00  0.4680E+00
    -13.165  0.0000E+00  0.4680E+00
    -13.055  0.0000E+00  0.4680E+00
    -12.946  0.0000E+00  0.4680E+00
    -12.836  0.0000E+00  0.4680E+00
    -12.727  0.0000E+00  0.4680E+00
    -12.617  0.0000E+00  0.4680E+00
    -12.508  0.0000E+00  0.4680E+00
    -12.398  0.0000E+00  0.4680E+00
    -12.288  0.0000E+00  0.4680E+00
    -12.179 -0.4267E-29  0.4680E+00
    -12.069 -0.2056E-25  0.4680E+00
    -11.960 -0.5420E-22  0.4680E+00
    -11.850 -0.7821E-19  0.4680E+00
    -11.741 -0.5974E-16  0.4680E+00
    -11.631 -0.2578E-13  0.4680E+00
    -11.522 -0.6048E-11  0.4680E+00
    -11.412 -0.7739E-09  0.4680E+00
    -11.303 -0.5385E-07  0.4680E+00
    -11.193 -0.2027E-05  0.4680E+00
    -11.083 -0.4074E-04  0.4680E+00
    -10.974 -0.4251E-03  0.4679E+00
    -10.864 -0.2116E-02  0.4677E+00
    -10.755 -0.3237E-02  0.4674E+00
    -10.645  0.1089E-01  0.4686E+00
    -10.536  0.5404E-01  0.4745E+00
    -10.426  0.9669E-01  0.4851E+00
    -10.317  0.9073E-01  0.4950E+00
    -10.207  0.4216E-01  0.4996E+00
    -10.098 -0.6473E-03  0.4996E+00
     -9.988 -0.5749E-02  0.4989E+00
     -9.878  0.5121E-01  0.5045E+00
     -9.769  0.1788E+00  0.5241E+00
     -9.659  0.2923E+00  0.5561E+00
     -9.550  0.2603E+00  0.5847E+00
     -9.440  0.1115E+00  0.5969E+00
     -9.331  0.7507E-02  0.5977E+00
     -9.221 -0.1088E-01  0.5965E+00
     -9.112 -0.3947E-02  0.5961E+00
     -9.002 -0.5819E-03  0.5960E+00
     -8.893 -0.4306E-04  0.5960E+00
     -8.783 -0.1692E-05  0.5960E+00
     -8.673 -0.3602E-07  0.5960E+00
     -8.564 -0.4194E-09  0.5960E+00
     -8.454 -0.2679E-11  0.5960E+00
     -8.345 -0.9405E-14  0.5960E+00
     -8.235 -0.2432E-16  0.5960E+00
     -8.126  0.0000E+00  0.5960E+00
     -8.016  0.0000E+00  0.5960E+00
     -7.907  0.0000E+00  0.5960E+00
     -7.797  0.0000E+00  0.5960E+00
     -7.687  0.0000E+00  0.5960E+00
     -7.578  0.0000E+00  0.5960E+00
     -7.468  0.0000E+00  0.5960E+00
     -7.359  0.0000E+00  0.5960E+00
     -7.249  0.0000E+00  0.5960E+00
     -7.140  0.0000E+00  0.5960E+00
     -7.030  0.0000E+00  0.5960E+00
     -6.921  0.0000E+00  0.5960E+00
     -6.811  0.0000E+00  0.5960E+00
     -6.702  0.0000E+00  0.5960E+00
     -6.592  0.0000E+00  0.5960E+00
     -6.482  0.0000E+00  0.5960E+00
     -6.373  0.0000E+00  0.5960E+00
     -6.263  0.0000E+00  0.5960E+00
     -6.154  0.0000E+00  0.5960E+00
     -6.044  0.0000E+00  0.5960E+00
     -5.935  0.0000E+00  0.5960E+00
     -5.825  0.0000E+00  0.5960E+00
     -5.716  0.0000E+00  0.5960E+00
     -5.606  0.0000E+00  0.5960E+00
     -5.497  0.0000E+00  0.5960E+00
     -5.387  0.0000E+00  0.5960E+00
     -5.277  0.0000E+00  0.5960E+00
     -5.168  0.0000E+00  0.5960E+00
     -5.058  0.0000E+00  0.5960E+00
     -4.949 -0.3516E-31  0.5960E+00
     -4.839 -0.2330E-27  0.5960E+00
     -4.730 -0.8419E-24  0.5960E+00
     -4.620 -0.1661E-20  0.5960E+00
     -4.511 -0.1790E-17  0.5960E+00
     -4.401 -0.1020E-14  0.5960E+00
     -4.292 -0.3244E-12  0.5960E+00
     -4.182 -0.5612E-10  0.5960E+00
     -4.072 -0.5268E-08  0.5960E+00
     -3.963 -0.2675E-06  0.5960E+00
     -3.853 -0.7306E-05  0.5960E+00
     -3.744 -0.1060E-03  0.5960E+00
     -3.634 -0.7881E-03  0.5959E+00
     -3.525 -0.2627E-02  0.5956E+00
     -3.415 -0.6526E-03  0.5955E+00
     -3.306  0.2107E-01  0.5978E+00
     -3.196  0.6539E-01  0.6050E+00
     -3.087  0.9506E-01  0.6154E+00
     -2.977  0.7825E-01  0.6240E+00
     -2.867  0.3569E-01  0.6279E+00
     -2.758  0.5289E-02  0.6285E+00
     -2.648 -0.2715E-02  0.6282E+00
     -2.539 -0.1438E-02  0.6280E+00
     -2.429 -0.2696E-03  0.6280E+00
     -2.320 -0.2956E-04  0.6280E+00
     -2.210 -0.9335E-04  0.6280E+00
     -2.101 -0.8616E-03  0.6279E+00
     -1.991 -0.3853E-02  0.6275E+00
     -1.882 -0.4819E-02  0.6269E+00
     -1.772  0.2137E-01  0.6293E+00
     -1.662  0.9339E-01  0.6395E+00
     -1.553  0.1645E+00  0.6575E+00
     -1.443  0.1824E+00  0.6775E+00
     -1.334  0.1679E+00  0.6959E+00
     -1.224  0.1428E+00  0.7115E+00
     -1.115  0.9045E-01  0.7215E+00
     -1.005  0.2651E-01  0.7244E+00
     -0.896 -0.7376E-02  0.7236E+00
     -0.786  0.6815E-02  0.7243E+00
     -0.677  0.7278E-01  0.7323E+00
     -0.567  0.1402E+00  0.7476E+00
     -0.457  0.1494E+00  0.7640E+00
     -0.348  0.1322E+00  0.7785E+00
     -0.238  0.1309E+00  0.7928E+00
     -0.129  0.1464E+00  0.8088E+00
     -0.019  0.1557E+00  0.8259E+00
      0.090  0.1475E+00  0.8421E+00
      0.200  0.1516E+00  0.8587E+00
      0.309  0.1742E+00  0.8777E+00
      0.419  0.2037E+00  0.9001E+00
      0.528  0.2304E+00  0.9253E+00
      0.638  0.2186E+00  0.9492E+00
      0.748  0.1628E+00  0.9671E+00
      0.857  0.9149E-01  0.9771E+00
      0.967  0.3096E-01  0.9805E+00
      1.076  0.9189E-03  0.9806E+00
      1.186 -0.3713E-02  0.9802E+00
      1.295 -0.1411E-02  0.9800E+00
      1.405 -0.2317E-03  0.9800E+00
      1.514 -0.1933E-04  0.9800E+00
      1.624 -0.8536E-06  0.9800E+00
      1.733 -0.2023E-07  0.9800E+00
      1.843 -0.2593E-09  0.9800E+00
      1.953 -0.1802E-11  0.9800E+00
      2.062 -0.6811E-14  0.9800E+00
      2.172 -0.1622E-16  0.9800E+00
      2.281 -0.1858E-18  0.9800E+00
      2.391 -0.1288E-15  0.9800E+00
      2.500 -0.4981E-13  0.9800E+00
      2.610 -0.1041E-10  0.9800E+00
      2.719 -0.1171E-08  0.9800E+00
      2.829 -0.7031E-07  0.9800E+00
      2.938 -0.2223E-05  0.9800E+00
      3.048 -0.3598E-04  0.9800E+00
      3.158 -0.2785E-03  0.9800E+00
      3.267 -0.8062E-03  0.9799E+00
      3.377  0.8459E-03  0.9800E+00
      3.486  0.8894E-02  0.9809E+00
      3.596  0.1616E-01  0.9827E+00
      3.705  0.1102E-01  0.9839E+00
      3.815  0.1955E-02  0.9841E+00
      3.924 -0.1033E-02  0.9840E+00
      4.034 -0.1482E-02  0.9839E+00
      4.144 -0.1172E-02  0.9837E+00
      4.253  0.8144E-02  0.9846E+00
      4.363  0.2697E-01  0.9876E+00
      4.472  0.3005E-01  0.9909E+00
      4.582  0.1208E-01  0.9922E+00
      4.691 -0.1206E-02  0.9921E+00
      4.801 -0.3373E-02  0.9917E+00
      4.910  0.4265E-02  0.9922E+00
      5.020  0.2558E-01  0.9950E+00
      5.129  0.4219E-01  0.9996E+00
      5.239  0.4401E-01  0.1004E+01
      5.349  0.5532E-01  0.1010E+01
      5.458  0.7727E-01  0.1019E+01
      5.568  0.9734E-01  0.1030E+01
      5.677  0.1163E+00  0.1042E+01
      5.787  0.1266E+00  0.1056E+01
      5.896  0.1111E+00  0.1068E+01
      6.006  0.7937E-01  0.1077E+01
      6.115  0.7220E-01  0.1085E+01
      6.225  0.8727E-01  0.1095E+01
      6.334  0.8965E-01  0.1104E+01
      6.444  0.8625E-01  0.1114E+01
      6.554  0.1008E+00  0.1125E+01
      6.663  0.1171E+00  0.1138E+01
      6.773  0.1141E+00  0.1150E+01
      6.882  0.1089E+00  0.1162E+01
      6.992  0.8986E-01  0.1172E+01
      7.101  0.4025E-01  0.1176E+01
      7.211  0.2514E-02  0.1177E+01
      7.320 -0.4222E-02  0.1176E+01
      7.430 -0.1456E-02  0.1176E+01
      7.539 -0.2003E-03  0.1176E+01
      7.649 -0.1357E-04  0.1176E+01
      7.759 -0.4802E-06  0.1176E+01
      7.868 -0.9083E-08  0.1176E+01
      7.978 -0.9290E-10  0.1176E+01
      8.087 -0.5168E-12  0.1176E+01
      8.197 -0.1581E-14  0.1176E+01
      8.306  0.0000E+00  0.1176E+01
      8.416  0.0000E+00  0.1176E+01
      8.525  0.0000E+00  0.1176E+01
      8.635  0.0000E+00  0.1176E+01
      8.744  0.0000E+00  0.1176E+01
      8.854  0.0000E+00  0.1176E+01
      8.964  0.0000E+00  0.1176E+01
