  19  19   0   0
  0.2504161E+02  0.6834254E-09  0.8835925E-09  0.7880486E-09  0.0000000E+00
   1.0000000000000000E-004
  CAR 
 NEB_bottleneck                          
      9.66143498    -26.45207024  301      1.06826941      1.00000000
    -26.452  0.0000E+00  0.0000E+00
    -26.332  0.0000E+00  0.0000E+00
    -26.211  0.0000E+00  0.0000E+00
    -26.091 -0.2648E-30 -0.3187E-31
    -25.971 -0.3283E-26 -0.3953E-27
    -25.850 -0.1960E-22 -0.2360E-23
    -25.730 -0.5630E-19 -0.6779E-20
    -25.609 -0.7577E-16 -0.9128E-17
    -25.489 -0.4940E-13 -0.5956E-14
    -25.369 -0.1542E-10 -0.1863E-11
    -25.248 -0.2277E-08 -0.2759E-09
    -25.128 -0.1571E-06 -0.1918E-07
    -25.008 -0.4944E-05 -0.6143E-06
    -24.887 -0.6727E-04 -0.8713E-05
    -24.767 -0.3312E-03 -0.4858E-04
    -24.646  0.3930E-04 -0.4385E-04
    -24.526  0.3846E-02  0.4191E-03
    -24.406  0.7994E-02  0.1381E-02
    -24.285  0.5109E-02  0.1997E-02
    -24.165  0.5339E-03  0.2061E-02
    -24.045 -0.3876E-03  0.2014E-02
    -23.924 -0.1077E-03  0.2001E-02
    -23.804 -0.2176E-04  0.1999E-02
    -23.683 -0.1438E-03  0.1981E-02
    -23.563 -0.6171E-03  0.1907E-02
    -23.443  0.2712E-03  0.1940E-02
    -23.322  0.7400E-02  0.2830E-02
    -23.202  0.1519E-01  0.4659E-02
    -23.081  0.1046E-01  0.5918E-02
    -22.961  0.1526E-02  0.6102E-02
    -22.841 -0.1366E-02  0.5938E-02
    -22.720 -0.6906E-03  0.5855E-02
    -22.600  0.6790E-02  0.6672E-02
    -22.480  0.1989E-01  0.9066E-02
    -22.359  0.1906E-01  0.1136E-01
    -22.239  0.5197E-02  0.1199E-01
    -22.118  0.3696E-02  0.1243E-01
    -21.998  0.1757E-01  0.1455E-01
    -21.878  0.2076E-01  0.1704E-01
    -21.757  0.5603E-02  0.1772E-01
    -21.637 -0.7039E-05  0.1772E-01
    -21.517  0.2860E-01  0.2116E-01
    -21.396  0.8228E-01  0.3107E-01
    -21.276  0.1077E+00  0.4403E-01
    -21.155  0.7113E-01  0.5259E-01
    -21.035  0.1732E-01  0.5468E-01
    -20.915 -0.3071E-02  0.5431E-01
    -20.794 -0.2170E-02  0.5405E-01
    -20.674 -0.3553E-03  0.5400E-01
    -20.554 -0.2433E-04  0.5400E-01
    -20.433 -0.7670E-06  0.5400E-01
    -20.313 -0.1147E-07  0.5400E-01
    -20.192 -0.8232E-10  0.5400E-01
    -20.072 -0.2850E-12  0.5400E-01
    -19.952 -0.4759E-15  0.5400E-01
    -19.831  0.0000E+00  0.5400E-01
    -19.711  0.0000E+00  0.5400E-01
    -19.591  0.0000E+00  0.5400E-01
    -19.470  0.0000E+00  0.5400E-01
    -19.350  0.0000E+00  0.5400E-01
    -19.229  0.0000E+00  0.5400E-01
    -19.109  0.0000E+00  0.5400E-01
    -18.989  0.0000E+00  0.5400E-01
    -18.868  0.0000E+00  0.5400E-01
    -18.748  0.0000E+00  0.5400E-01
    -18.627  0.0000E+00  0.5400E-01
    -18.507  0.0000E+00  0.5400E-01
    -18.387  0.0000E+00  0.5400E-01
    -18.266  0.0000E+00  0.5400E-01
    -18.146  0.0000E+00  0.5400E-01
    -18.026  0.0000E+00  0.5400E-01
    -17.905  0.0000E+00  0.5400E-01
    -17.785  0.0000E+00  0.5400E-01
    -17.664  0.0000E+00  0.5400E-01
    -17.544  0.0000E+00  0.5400E-01
    -17.424  0.0000E+00  0.5400E-01
    -17.303  0.0000E+00  0.5400E-01
    -17.183  0.0000E+00  0.5400E-01
    -17.063  0.0000E+00  0.5400E-01
    -16.942  0.0000E+00  0.5400E-01
    -16.822  0.0000E+00  0.5400E-01
    -16.701  0.0000E+00  0.5400E-01
    -16.581  0.0000E+00  0.5400E-01
    -16.461  0.0000E+00  0.5400E-01
    -16.340  0.0000E+00  0.5400E-01
    -16.220  0.0000E+00  0.5400E-01
    -16.100  0.0000E+00  0.5400E-01
    -15.979  0.0000E+00  0.5400E-01
    -15.859  0.0000E+00  0.5400E-01
    -15.738  0.0000E+00  0.5400E-01
    -15.618  0.0000E+00  0.5400E-01
    -15.498  0.0000E+00  0.5400E-01
    -15.377  0.0000E+00  0.5400E-01
    -15.257  0.0000E+00  0.5400E-01
    -15.137  0.0000E+00  0.5400E-01
    -15.016  0.0000E+00  0.5400E-01
    -14.896  0.0000E+00  0.5400E-01
    -14.775  0.0000E+00  0.5400E-01
    -14.655  0.0000E+00  0.5400E-01
    -14.535  0.0000E+00  0.5400E-01
    -14.414 -0.4912E-32  0.5400E-01
    -14.294 -0.8408E-28  0.5400E-01
    -14.173 -0.6804E-24  0.5400E-01
    -14.053 -0.2659E-20  0.5400E-01
    -13.933 -0.5018E-17  0.5400E-01
    -13.812 -0.4422E-14  0.5400E-01
    -13.692 -0.1928E-11  0.5400E-01
    -13.572 -0.4037E-09  0.5400E-01
    -13.451 -0.4039E-07  0.5400E-01
    -13.331 -0.1909E-05  0.5400E-01
    -13.210 -0.4154E-04  0.5399E-01
    -13.090 -0.3889E-03  0.5395E-01
    -12.970 -0.1210E-02  0.5380E-01
    -12.849  0.1562E-02  0.5399E-01
    -12.729  0.1434E-01  0.5572E-01
    -12.609  0.3037E-01  0.5937E-01
    -12.488  0.4216E-01  0.6445E-01
    -12.368  0.4085E-01  0.6937E-01
    -12.247  0.2604E-01  0.7250E-01
    -12.127  0.1191E-01  0.7393E-01
    -12.007  0.1911E-02  0.7416E-01
    -11.886 -0.9371E-03  0.7405E-01
    -11.766 -0.3801E-03  0.7401E-01
    -11.646 -0.4607E-04  0.7400E-01
    -11.525 -0.2320E-05  0.7400E-01
    -11.405 -0.5263E-07  0.7400E-01
    -11.284 -0.5713E-09  0.7400E-01
    -11.164 -0.2314E-08  0.7400E-01
    -11.044 -0.1590E-06  0.7400E-01
    -10.923 -0.4993E-05  0.7400E-01
    -10.803 -0.6777E-04  0.7399E-01
    -10.683 -0.3335E-03  0.7395E-01
    -10.562  0.1893E-04  0.7395E-01
    -10.442  0.3663E-02  0.7439E-01
    -10.321  0.7636E-02  0.7531E-01
    -10.201  0.6892E-02  0.7614E-01
    -10.081  0.7360E-02  0.7703E-01
     -9.960  0.6339E-02  0.7779E-01
     -9.840  0.1679E-02  0.7799E-01
     -9.719  0.2743E-02  0.7832E-01
     -9.599  0.8836E-02  0.7939E-01
     -9.479  0.1397E-01  0.8107E-01
     -9.358  0.1808E-01  0.8325E-01
     -9.238  0.2091E-01  0.8576E-01
     -9.118  0.2128E-01  0.8833E-01
     -8.997  0.1302E-01  0.8989E-01
     -8.877  0.2201E-02  0.9016E-01
     -8.756 -0.9156E-03  0.9005E-01
     -8.636 -0.3559E-03  0.9001E-01
     -8.516 -0.4091E-04  0.9000E-01
     -8.395 -0.1958E-05  0.9000E-01
     -8.275 -0.4224E-07  0.9000E-01
     -8.155 -0.4241E-09  0.9000E-01
     -8.034 -0.2011E-11  0.9000E-01
     -7.914 -0.4545E-14  0.9000E-01
     -7.793 -0.3689E-17  0.9000E-01
     -7.673  0.0000E+00  0.9000E-01
     -7.553  0.0000E+00  0.9000E-01
     -7.432  0.0000E+00  0.9000E-01
     -7.312  0.0000E+00  0.9000E-01
     -7.192  0.0000E+00  0.9000E-01
     -7.071  0.0000E+00  0.9000E-01
     -6.951  0.0000E+00  0.9000E-01
     -6.830  0.0000E+00  0.9000E-01
     -6.710  0.0000E+00  0.9000E-01
     -6.590  0.0000E+00  0.9000E-01
     -6.469  0.0000E+00  0.9000E-01
     -6.349  0.0000E+00  0.9000E-01
     -6.229  0.0000E+00  0.9000E-01
     -6.108  0.0000E+00  0.9000E-01
     -5.988  0.0000E+00  0.9000E-01
     -5.867  0.0000E+00  0.9000E-01
     -5.747  0.0000E+00  0.9000E-01
     -5.627  0.0000E+00  0.9000E-01
     -5.506  0.0000E+00  0.9000E-01
     -5.386  0.0000E+00  0.9000E-01
     -5.265 -0.3827E-32  0.9000E-01
     -5.145 -0.6477E-28  0.9000E-01
     -5.025 -0.5281E-24  0.9000E-01
     -4.904 -0.2072E-20  0.9000E-01
     -4.784 -0.3905E-17  0.9000E-01
     -4.664 -0.3413E-14  0.9000E-01
     -4.543 -0.1463E-11  0.9000E-01
     -4.423 -0.2974E-09  0.9000E-01
     -4.302 -0.2842E-07  0.9000E-01
     -4.182 -0.1255E-05  0.9000E-01
     -4.062 -0.2467E-04  0.9000E-01
     -3.941 -0.1952E-03  0.8997E-01
     -3.821 -0.3685E-03  0.8993E-01
     -3.701  0.1715E-02  0.9014E-01
     -3.580  0.6692E-02  0.9094E-01
     -3.460  0.6748E-02  0.9175E-01
     -3.339  0.2977E-02  0.9211E-01
     -3.219  0.5431E-02  0.9277E-01
     -3.099  0.7585E-02  0.9368E-01
     -2.978  0.3158E-02  0.9406E-01
     -2.858 -0.1393E-03  0.9404E-01
     -2.738 -0.2926E-03  0.9401E-01
     -2.617 -0.5135E-04  0.9400E-01
     -2.497 -0.3392E-05  0.9400E-01
     -2.376 -0.3024E-06  0.9400E-01
     -2.256 -0.6097E-05  0.9400E-01
     -2.136 -0.7801E-04  0.9399E-01
     -2.015 -0.3539E-03  0.9395E-01
     -1.895  0.1233E-03  0.9396E-01
     -1.775  0.3948E-02  0.9444E-01
     -1.654  0.7622E-02  0.9535E-01
     -1.534  0.6779E-02  0.9617E-01
     -1.413  0.8675E-02  0.9722E-01
     -1.293  0.1427E-01  0.9893E-01
     -1.173  0.1655E-01  0.1009E+00
     -1.052  0.1264E-01  0.1024E+00
     -0.932  0.9814E-02  0.1036E+00
     -0.811  0.9643E-02  0.1048E+00
     -0.691  0.9067E-02  0.1059E+00
     -0.571  0.8639E-02  0.1069E+00
     -0.450  0.8473E-02  0.1079E+00
     -0.330  0.8032E-02  0.1089E+00
     -0.210  0.8752E-02  0.1100E+00
     -0.089  0.1546E-01  0.1118E+00
      0.031  0.2440E-01  0.1148E+00
      0.152  0.2160E-01  0.1174E+00
      0.272  0.1804E-01  0.1195E+00
      0.392  0.2427E-01  0.1225E+00
      0.513  0.2369E-01  0.1253E+00
      0.633  0.1731E-01  0.1274E+00
      0.753  0.1754E-01  0.1295E+00
      0.874  0.2396E-01  0.1324E+00
      0.994  0.2641E-01  0.1356E+00
      1.115  0.1676E-01  0.1376E+00
      1.235  0.4612E-02  0.1381E+00
      1.355 -0.4475E-03  0.1381E+00
      1.476 -0.5500E-03  0.1380E+00
      1.596 -0.1098E-03  0.1380E+00
      1.716 -0.8729E-05  0.1380E+00
      1.837 -0.3090E-06  0.1380E+00
      1.957 -0.5047E-08  0.1380E+00
      2.078 -0.2258E-09  0.1380E+00
      2.198 -0.1920E-07  0.1380E+00
      2.318 -0.9118E-06  0.1380E+00
      2.439 -0.1938E-04  0.1380E+00
      2.559 -0.1683E-03  0.1380E+00
      2.679 -0.3922E-03  0.1379E+00
      2.800  0.1353E-02  0.1381E+00
      2.920  0.6410E-02  0.1389E+00
      3.041  0.7467E-02  0.1398E+00
      3.161  0.2524E-02  0.1401E+00
      3.281 -0.2691E-03  0.1400E+00
      3.402 -0.2498E-03  0.1400E+00
      3.522 -0.3791E-04  0.1400E+00
      3.643 -0.2947E-05  0.1400E+00
      3.763 -0.1611E-04  0.1400E+00
      3.883 -0.1494E-03  0.1400E+00
      4.004 -0.3999E-03  0.1399E+00
      4.124  0.1094E-02  0.1401E+00
      4.244  0.6067E-02  0.1408E+00
      4.365  0.7667E-02  0.1417E+00
      4.485  0.2877E-02  0.1421E+00
      4.606 -0.2205E-03  0.1420E+00
      4.726 -0.4238E-03  0.1420E+00
      4.846 -0.4997E-03  0.1419E+00
      4.967  0.7581E-03  0.1420E+00
      5.087  0.5914E-02  0.1427E+00
      5.207  0.1097E-01  0.1440E+00
      5.328  0.1048E-01  0.1453E+00
      5.448  0.5283E-02  0.1459E+00
      5.569  0.3541E-02  0.1464E+00
      5.689  0.6639E-02  0.1472E+00
      5.809  0.8048E-02  0.1481E+00
      5.930  0.1330E-01  0.1497E+00
      6.050  0.1437E-01  0.1515E+00
      6.170  0.4883E-02  0.1521E+00
      6.291  0.1739E-02  0.1523E+00
      6.411  0.6329E-02  0.1530E+00
      6.532  0.7056E-02  0.1539E+00
      6.652  0.7896E-02  0.1548E+00
      6.772  0.1216E-01  0.1563E+00
      6.893  0.1167E-01  0.1577E+00
      7.013  0.1170E-01  0.1591E+00
      7.133  0.1775E-01  0.1612E+00
      7.254  0.1881E-01  0.1635E+00
      7.374  0.1252E-01  0.1650E+00
      7.495  0.7349E-02  0.1659E+00
      7.615  0.6669E-02  0.1667E+00
      7.735  0.7564E-02  0.1676E+00
      7.856  0.3612E-02  0.1680E+00
      7.976  0.7203E-05  0.1680E+00
      8.097 -0.3330E-03  0.1680E+00
      8.217 -0.6732E-04  0.1680E+00
      8.337 -0.4945E-05  0.1680E+00
      8.458 -0.1571E-06  0.1680E+00
      8.578 -0.2277E-08  0.1680E+00
      8.698 -0.1542E-10  0.1680E+00
      8.819 -0.4940E-13  0.1680E+00
      8.939 -0.7747E-16  0.1680E+00
      9.060  0.0000E+00  0.1680E+00
      9.180  0.0000E+00  0.1680E+00
      9.300  0.0000E+00  0.1680E+00
      9.421  0.0000E+00  0.1680E+00
      9.541  0.0000E+00  0.1680E+00
      9.661  0.0000E+00  0.1680E+00
