  19  19   0   0
  0.2504161E+02  0.6834254E-09  0.8835925E-09  0.7880486E-09  0.0000000E+00
   1.0000000000000000E-004
  CAR 
 NEB_bottleneck                          
      9.66679376    -24.31042439  301      0.97301379      1.00000000
    -24.310  0.0000E+00  0.0000E+00
    -24.197  0.0000E+00  0.0000E+00
    -24.084  0.0000E+00  0.0000E+00
    -23.971 -0.6105E-31 -0.6915E-32
    -23.857 -0.5109E-27 -0.5788E-28
    -23.744 -0.2241E-23 -0.2538E-24
    -23.631 -0.5153E-20 -0.5839E-21
    -23.518 -0.6209E-17 -0.7038E-18
    -23.404 -0.3788E-14 -0.4298E-15
    -23.291 -0.1238E-11 -0.1407E-12
    -23.178 -0.2104E-09 -0.2397E-10
    -23.065 -0.1847E-07 -0.2115E-08
    -22.951 -0.8288E-06 -0.9598E-07
    -22.838 -0.1864E-04 -0.2207E-05
    -22.725 -0.2003E-03 -0.2489E-04
    -22.612 -0.8849E-03 -0.1251E-03
    -22.498 -0.2992E-03 -0.1590E-03
    -22.385  0.8234E-02  0.7736E-03
    -22.272  0.2147E-01  0.3205E-02
    -22.159  0.1980E-01  0.5447E-02
    -22.045  0.5437E-02  0.6063E-02
    -21.932 -0.2479E-02  0.5782E-02
    -21.819  0.2235E-02  0.6035E-02
    -21.706  0.2080E-01  0.8391E-02
    -21.592  0.5041E-01  0.1410E-01
    -21.479  0.8541E-01  0.2377E-01
    -21.366  0.1028E+00  0.3542E-01
    -21.252  0.8310E-01  0.4483E-01
    -21.139  0.5026E-01  0.5052E-01
    -21.026  0.2586E-01  0.5345E-01
    -20.913  0.7398E-02  0.5429E-01
    -20.799 -0.1059E-02  0.5417E-01
    -20.686 -0.1191E-02  0.5403E-01
    -20.573 -0.2616E-03  0.5400E-01
    -20.460 -0.2449E-04  0.5400E-01
    -20.346 -0.1100E-05  0.5400E-01
    -20.233 -0.2473E-07  0.5400E-01
    -20.120 -0.2841E-09  0.5400E-01
    -20.007 -0.1685E-11  0.5400E-01
    -19.893 -0.5191E-14  0.5400E-01
    -19.780 -0.7842E-17  0.5400E-01
    -19.667  0.0000E+00  0.5400E-01
    -19.554  0.0000E+00  0.5400E-01
    -19.440  0.0000E+00  0.5400E-01
    -19.327  0.0000E+00  0.5400E-01
    -19.214  0.0000E+00  0.5400E-01
    -19.101  0.0000E+00  0.5400E-01
    -18.987  0.0000E+00  0.5400E-01
    -18.874  0.0000E+00  0.5400E-01
    -18.761  0.0000E+00  0.5400E-01
    -18.648  0.0000E+00  0.5400E-01
    -18.534  0.0000E+00  0.5400E-01
    -18.421  0.0000E+00  0.5400E-01
    -18.308  0.0000E+00  0.5400E-01
    -18.195  0.0000E+00  0.5400E-01
    -18.081  0.0000E+00  0.5400E-01
    -17.968  0.0000E+00  0.5400E-01
    -17.855  0.0000E+00  0.5400E-01
    -17.741  0.0000E+00  0.5400E-01
    -17.628  0.0000E+00  0.5400E-01
    -17.515  0.0000E+00  0.5400E-01
    -17.402  0.0000E+00  0.5400E-01
    -17.288  0.0000E+00  0.5400E-01
    -17.175  0.0000E+00  0.5400E-01
    -17.062  0.0000E+00  0.5400E-01
    -16.949  0.0000E+00  0.5400E-01
    -16.835  0.0000E+00  0.5400E-01
    -16.722  0.0000E+00  0.5400E-01
    -16.609  0.0000E+00  0.5400E-01
    -16.496  0.0000E+00  0.5400E-01
    -16.382  0.0000E+00  0.5400E-01
    -16.269  0.0000E+00  0.5400E-01
    -16.156  0.0000E+00  0.5400E-01
    -16.043  0.0000E+00  0.5400E-01
    -15.929  0.0000E+00  0.5400E-01
    -15.816  0.0000E+00  0.5400E-01
    -15.703  0.0000E+00  0.5400E-01
    -15.590  0.0000E+00  0.5400E-01
    -15.476  0.0000E+00  0.5400E-01
    -15.363  0.0000E+00  0.5400E-01
    -15.250  0.0000E+00  0.5400E-01
    -15.137  0.0000E+00  0.5400E-01
    -15.023  0.0000E+00  0.5400E-01
    -14.910  0.0000E+00  0.5400E-01
    -14.797  0.0000E+00  0.5400E-01
    -14.684  0.0000E+00  0.5400E-01
    -14.570 -0.3614E-30  0.5400E-01
    -14.457 -0.2573E-26  0.5400E-01
    -14.344 -0.9594E-23  0.5400E-01
    -14.231 -0.1871E-19  0.5400E-01
    -14.117 -0.1809E-16  0.5400E-01
    -14.004 -0.9785E-14  0.5400E-01
    -13.891 -0.2681E-11  0.5400E-01
    -13.777 -0.3794E-09  0.5400E-01
    -13.664 -0.2750E-07  0.5400E-01
    -13.551 -0.1006E-05  0.5400E-01
    -13.438 -0.1803E-04  0.5400E-01
    -13.324 -0.1478E-03  0.5398E-01
    -13.211 -0.4318E-03  0.5393E-01
    -13.098  0.4328E-03  0.5398E-01
    -12.985  0.4206E-02  0.5446E-01
    -12.871  0.7921E-02  0.5535E-01
    -12.758  0.1185E-01  0.5670E-01
    -12.645  0.2136E-01  0.5912E-01
    -12.532  0.3252E-01  0.6280E-01
    -12.418  0.3671E-01  0.6696E-01
    -12.305  0.2942E-01  0.7029E-01
    -12.192  0.2027E-01  0.7259E-01
    -12.079  0.1150E-01  0.7389E-01
    -11.965  0.2383E-02  0.7416E-01
    -11.852 -0.8596E-03  0.7406E-01
    -11.739 -0.4565E-03  0.7401E-01
    -11.626 -0.7150E-04  0.7400E-01
    -11.512 -0.4964E-05  0.7400E-01
    -11.399 -0.1673E-06  0.7400E-01
    -11.286 -0.2837E-08  0.7400E-01
    -11.173 -0.2645E-09  0.7400E-01
    -11.059 -0.1858E-07  0.7400E-01
    -10.946 -0.7272E-06  0.7400E-01
    -10.833 -0.1400E-04  0.7400E-01
    -10.720 -0.1240E-03  0.7398E-01
    -10.606 -0.3994E-03  0.7394E-01
    -10.493  0.3710E-03  0.7398E-01
    -10.380  0.4319E-02  0.7447E-01
    -10.267  0.7811E-02  0.7535E-01
    -10.153  0.7264E-02  0.7618E-01
    -10.040  0.7651E-02  0.7704E-01
     -9.927  0.6310E-02  0.7776E-01
     -9.813  0.1469E-02  0.7793E-01
     -9.700  0.2475E-02  0.7821E-01
     -9.587  0.1159E-01  0.7952E-01
     -9.474  0.1939E-01  0.8171E-01
     -9.360  0.2432E-01  0.8447E-01
     -9.247  0.2706E-01  0.8753E-01
     -9.134  0.1850E-01  0.8963E-01
     -9.021  0.4918E-02  0.9019E-01
     -8.907 -0.7900E-03  0.9010E-01
     -8.794 -0.6998E-03  0.9002E-01
     -8.681 -0.1411E-03  0.9000E-01
     -8.568 -0.1264E-04  0.9000E-01
     -8.454 -0.5570E-06  0.9000E-01
     -8.341 -0.1248E-07  0.9000E-01
     -8.228 -0.1442E-09  0.9000E-01
     -8.115 -0.8643E-12  0.9000E-01
     -8.001 -0.2698E-14  0.9000E-01
     -7.888 -0.3921E-17  0.9000E-01
     -7.775  0.0000E+00  0.9000E-01
     -7.662  0.0000E+00  0.9000E-01
     -7.548  0.0000E+00  0.9000E-01
     -7.435  0.0000E+00  0.9000E-01
     -7.322  0.0000E+00  0.9000E-01
     -7.209  0.0000E+00  0.9000E-01
     -7.095  0.0000E+00  0.9000E-01
     -6.982  0.0000E+00  0.9000E-01
     -6.869  0.0000E+00  0.9000E-01
     -6.756  0.0000E+00  0.9000E-01
     -6.642  0.0000E+00  0.9000E-01
     -6.529  0.0000E+00  0.9000E-01
     -6.416  0.0000E+00  0.9000E-01
     -6.302  0.0000E+00  0.9000E-01
     -6.189  0.0000E+00  0.9000E-01
     -6.076  0.0000E+00  0.9000E-01
     -5.963  0.0000E+00  0.9000E-01
     -5.849  0.0000E+00  0.9000E-01
     -5.736  0.0000E+00  0.9000E-01
     -5.623  0.0000E+00  0.9000E-01
     -5.510  0.0000E+00  0.9000E-01
     -5.396  0.0000E+00  0.9000E-01
     -5.283  0.0000E+00  0.9000E-01
     -5.170 -0.2833E-32  0.9000E-01
     -5.057 -0.2819E-28  0.9000E-01
     -4.943 -0.1470E-24  0.9000E-01
     -4.830 -0.4010E-21  0.9000E-01
     -4.717 -0.5721E-18  0.9000E-01
     -4.604 -0.4133E-15  0.9000E-01
     -4.490 -0.1590E-12  0.9000E-01
     -4.377 -0.3171E-10  0.9000E-01
     -4.264 -0.3254E-08  0.9000E-01
     -4.151 -0.1700E-06  0.9000E-01
     -4.037 -0.4428E-05  0.9000E-01
     -3.924 -0.5500E-04  0.8999E-01
     -3.811 -0.2860E-03  0.8996E-01
     -3.698 -0.2408E-03  0.8993E-01
     -3.584  0.2443E-02  0.9021E-01
     -3.471  0.7099E-02  0.9101E-01
     -3.358  0.6591E-02  0.9176E-01
     -3.245  0.3162E-02  0.9212E-01
     -3.131  0.5439E-02  0.9273E-01
     -3.018  0.7706E-02  0.9361E-01
     -2.905  0.3812E-02  0.9404E-01
     -2.792  0.1284E-03  0.9405E-01
     -2.678 -0.3676E-03  0.9401E-01
     -2.565 -0.9633E-04  0.9400E-01
     -2.452 -0.9698E-05  0.9400E-01
     -2.338 -0.4570E-06  0.9400E-01
     -2.225 -0.1100E-06  0.9400E-01
     -2.112 -0.2906E-05  0.9400E-01
     -1.999 -0.4142E-04  0.9399E-01
     -1.885 -0.2659E-03  0.9396E-01
     -1.772 -0.5405E-03  0.9390E-01
     -1.659  0.1269E-02  0.9405E-01
     -1.546  0.7211E-02  0.9486E-01
     -1.432  0.1320E-01  0.9636E-01
     -1.319  0.1621E-01  0.9819E-01
     -1.206  0.1833E-01  0.1003E+00
     -1.093  0.1725E-01  0.1022E+00
     -0.979  0.1142E-01  0.1035E+00
     -0.866  0.4157E-02  0.1040E+00
     -0.753  0.1901E-02  0.1042E+00
     -0.640  0.5690E-02  0.1048E+00
     -0.526  0.6959E-02  0.1056E+00
     -0.413  0.7172E-02  0.1064E+00
     -0.300  0.1367E-01  0.1080E+00
     -0.187  0.2129E-01  0.1104E+00
     -0.073  0.2601E-01  0.1134E+00
      0.040  0.2596E-01  0.1163E+00
      0.153  0.2330E-01  0.1189E+00
      0.266  0.2466E-01  0.1217E+00
      0.380  0.2502E-01  0.1246E+00
      0.493  0.2268E-01  0.1271E+00
      0.606  0.2182E-01  0.1296E+00
      0.719  0.2143E-01  0.1320E+00
      0.833  0.2180E-01  0.1345E+00
      0.946  0.1878E-01  0.1366E+00
      1.059  0.1053E-01  0.1378E+00
      1.172  0.2650E-02  0.1381E+00
      1.286 -0.4614E-03  0.1381E+00
      1.399 -0.4255E-03  0.1380E+00
      1.512 -0.8935E-04  0.1380E+00
      1.626 -0.8136E-05  0.1380E+00
      1.739 -0.3566E-06  0.1380E+00
      1.852 -0.7817E-08  0.1380E+00
      1.965 -0.8724E-10  0.1380E+00
      2.079 -0.1679E-11  0.1380E+00
      2.192 -0.1847E-09  0.1380E+00
      2.305 -0.1485E-07  0.1380E+00
      2.418 -0.6041E-06  0.1380E+00
      2.532 -0.1211E-04  0.1380E+00
      2.645 -0.1123E-03  0.1380E+00
      2.758 -0.3859E-03  0.1379E+00
      2.871  0.2961E-03  0.1380E+00
      2.985  0.4296E-02  0.1385E+00
      3.098  0.8060E-02  0.1394E+00
      3.211  0.5316E-02  0.1400E+00
      3.324  0.7860E-03  0.1401E+00
      3.438 -0.4072E-03  0.1400E+00
      3.551 -0.1566E-03  0.1400E+00
      3.664 -0.2457E-04  0.1400E+00
      3.777 -0.5838E-04  0.1400E+00
      3.891 -0.2919E-03  0.1400E+00
      4.004 -0.2222E-03  0.1399E+00
      4.117  0.2555E-02  0.1402E+00
      4.230  0.7340E-02  0.1411E+00
      4.344  0.6920E-02  0.1418E+00
      4.457  0.2036E-02  0.1421E+00
      4.570 -0.3121E-03  0.1420E+00
      4.683 -0.2560E-03  0.1420E+00
      4.797 -0.5473E-04  0.1420E+00
      4.910 -0.1025E-03  0.1420E+00
      5.023 -0.3714E-03  0.1419E+00
      5.136  0.1593E-03  0.1420E+00
      5.250  0.3916E-02  0.1424E+00
      5.363  0.7793E-02  0.1433E+00
      5.476  0.5004E-02  0.1439E+00
      5.590  0.1181E-02  0.1440E+00
      5.703  0.5735E-02  0.1446E+00
      5.816  0.1515E-01  0.1464E+00
      5.929  0.2071E-01  0.1487E+00
      6.043  0.2071E-01  0.1510E+00
      6.156  0.1607E-01  0.1529E+00
      6.269  0.8710E-02  0.1539E+00
      6.382  0.1981E-02  0.1541E+00
      6.496 -0.1098E-02  0.1540E+00
      6.609 -0.1751E-03  0.1539E+00
      6.722  0.6523E-02  0.1547E+00
      6.835  0.1413E-01  0.1563E+00
      6.949  0.1253E-01  0.1577E+00
      7.062  0.1185E-01  0.1590E+00
      7.175  0.1860E-01  0.1611E+00
      7.288  0.1871E-01  0.1633E+00
      7.402  0.1287E-01  0.1647E+00
      7.515  0.9335E-02  0.1658E+00
      7.628  0.8637E-02  0.1668E+00
      7.741  0.7843E-02  0.1676E+00
      7.855  0.3582E-02  0.1680E+00
      7.968  0.7940E-04  0.1681E+00
      8.081 -0.3817E-03  0.1680E+00
      8.194 -0.1007E-03  0.1680E+00
      8.308 -0.1029E-04  0.1680E+00
      8.421 -0.4905E-06  0.1680E+00
      8.534 -0.1155E-07  0.1680E+00
      8.647 -0.1378E-09  0.1680E+00
      8.761 -0.8442E-12  0.1680E+00
      8.874 -0.2674E-14  0.1680E+00
      8.987 -0.3921E-17  0.1680E+00
      9.101  0.0000E+00  0.1680E+00
      9.214  0.0000E+00  0.1680E+00
      9.327  0.0000E+00  0.1680E+00
      9.440  0.0000E+00  0.1680E+00
      9.554  0.0000E+00  0.1680E+00
      9.667  0.0000E+00  0.1680E+00
