 vasp.6.3.2 27Jun22 (build Jun 14 2024 17:29:11) complex                         
 POSCAR found type information on POSCAR NaInS 
 08/POSCAR found :  3 types and      19 ions
 LDA part: xc-table for Pade appr. of Perdew
 POSCAR found type information on POSCAR NaInS 
 00/POSCAR found :  3 types and      19 ions
 POSCAR found type information on POSCAR NaInS 
 10/POSCAR found :  3 types and      19 ions
 POSCAR, INCAR and KPOINTS ok, starting setup
 FFT: planning ... GRIDC
 FFT: planning ... GRID_SOFT
 FFT: planning ... GRID
 WAVECAR not read
 entering main loop
       N       E                     dE             d eps       ncg     rms          rms(c)
DAV:   1     0.145162358303E+04    0.14516E+04   -0.62979E+04   168   0.166E+03
DAV:   2     0.168374689337E+03   -0.12832E+04   -0.12472E+04   168   0.454E+02
DAV:   3    -0.533824645339E+02   -0.22176E+03   -0.21781E+03   198   0.194E+02
DAV:   4    -0.699816728273E+02   -0.16599E+02   -0.16427E+02   201   0.483E+01
DAV:   5    -0.705552406170E+02   -0.57357E+00   -0.57205E+00   228   0.103E+01    0.146E+01
RMM:   6    -0.661568353729E+02    0.43984E+01   -0.75446E+00   192   0.689E+00    0.884E+00
RMM:   7    -0.659478698437E+02    0.20897E+00   -0.60474E+00   190   0.499E+00    0.532E+00
RMM:   8    -0.659220724483E+02    0.25797E-01   -0.63580E-01   207   0.322E+00    0.356E+00
RMM:   9    -0.659337963563E+02   -0.11724E-01   -0.33443E-01   201   0.201E+00    0.948E-01
RMM:  10    -0.659152863573E+02    0.18510E-01   -0.55708E-02   216   0.114E+00    0.745E-01
RMM:  11    -0.659151391425E+02    0.14721E-03   -0.32455E-02   218   0.499E-01    0.725E-01
RMM:  12    -0.659151962575E+02   -0.57115E-04   -0.66740E-03   255   0.243E-01    0.109E+00
RMM:  13    -0.659197021667E+02   -0.45059E-02   -0.52192E-03   171   0.204E-01    0.451E-01
RMM:  14    -0.659203817639E+02   -0.67960E-03   -0.17621E-03   176   0.131E-01    0.308E-01
RMM:  15    -0.659204180763E+02   -0.36312E-04   -0.30107E-04   246   0.618E-02    0.302E-01
RMM:  16    -0.659204390852E+02   -0.21009E-04   -0.52677E-05   190   0.243E-02    0.270E-01
RMM:  17    -0.659204969853E+02   -0.57900E-04   -0.12180E-04   170   0.293E-02    0.944E-02
RMM:  18    -0.659205005387E+02   -0.35534E-05   -0.24755E-05   158   0.148E-02    0.685E-02
RMM:  19    -0.659204995955E+02    0.94324E-06   -0.46901E-06   158   0.840E-03
   1 F= -.65920500E+02 E0= -.65916096E+02  d E =-.659205E+02
quench:  g(F)=  0.000E+00 g(S)=  0.000E+00 dE (1.order)= 0.000E+00
 bond charge predicted
       N       E                     dE             d eps       ncg     rms          rms(c)
DAV:   1    -0.659204988690E+02    0.16697E-05   -0.13785E-06   117   0.553E-03    0.743E-02
RMM:   2    -0.659204911331E+02    0.77359E-05   -0.13802E-05   152   0.106E-02    0.441E-02
RMM:   3    -0.659204908734E+02    0.25966E-06   -0.20678E-05   135   0.966E-03    0.860E-03
RMM:   4    -0.659204908412E+02    0.32158E-07   -0.24781E-06   150   0.699E-03
   2 F= -.65920491E+02 E0= -.65916134E+02  d E =0.875425E-05
quench:  g(F)=  0.000E+00 g(S)=  0.000E+00 dE (1.order)= 0.000E+00
 bond charge predicted
       N       E                     dE             d eps       ncg     rms          rms(c)
DAV:   1    -0.659204915175E+02   -0.64415E-06   -0.18801E-06   138   0.570E-03    0.178E-03
RMM:   2    -0.659204913425E+02    0.17504E-06   -0.34705E-07    95   0.258E-03
   3 F= -.65920491E+02 E0= -.65916121E+02  d E =-.501272E-06
quench:  g(F)=  0.000E+00 g(S)=  0.000E+00 dE (1.order)= 0.000E+00
 bond charge predicted
       N       E                     dE             d eps       ncg     rms          rms(c)
DAV:   1    -0.659204912478E+02    0.26975E-06   -0.17270E-07   120   0.170E-03    0.644E-04
RMM:   2    -0.659204911881E+02    0.59708E-07   -0.47168E-08    63   0.102E-03
   4 F= -.65920491E+02 E0= -.65916120E+02  d E =0.154423E-06
quench:  g(F)=  0.000E+00 g(S)=  0.000E+00 dE (1.order)= 0.000E+00
 bond charge predicted
       N       E                     dE             d eps       ncg     rms          rms(c)
DAV:   1    -0.659204911674E+02    0.80439E-07   -0.31691E-08   120   0.103E-03    0.369E-04
RMM:   2    -0.659204911572E+02    0.10141E-07   -0.38035E-10    15   0.486E-04
   5 F= -.65920491E+02 E0= -.65916119E+02  d E =0.308719E-07
quench:  g(F)=  0.000E+00 g(S)=  0.000E+00 dE (1.order)= 0.000E+00
 bond charge predicted
       N       E                     dE             d eps       ncg     rms          rms(c)
DAV:   1    -0.659204911521E+02    0.15254E-07   -0.10993E-08   120   0.511E-04    0.264E-04
RMM:   2    -0.659204911485E+02    0.35780E-08    0.37254-214    12   0.409E-04
   6 F= -.65920491E+02 E0= -.65916119E+02  d E =0.869113E-08
quench:  g(F)=  0.000E+00 g(S)=  0.000E+00 dE (1.order)= 0.000E+00
 bond charge predicted
       N       E                     dE             d eps       ncg     rms          rms(c)
DAV:   1    -0.659204911466E+02    0.54988E-08   -0.45846E-09   120   0.438E-04    0.147E-04
RMM:   2    -0.659204911491E+02   -0.24756E-08    0.76589-124    10   0.227E-04
   7 F= -.65920491E+02 E0= -.65916118E+02  d E =-.554792E-09
quench:  g(F)=  0.000E+00 g(S)=  0.000E+00 dE (1.order)= 0.000E+00
 bond charge predicted
       N       E                     dE             d eps       ncg     rms          rms(c)
DAV:   1    -0.659204911494E+02   -0.28194E-08   -0.19691E-09    93   0.247E-04    0.999E-05
RMM:   2    -0.659204911477E+02    0.17171E-08    0.13393-214     9   0.196E-04
   8 F= -.65920491E+02 E0= -.65916118E+02  d E =0.137334E-08
quench:  g(F)=  0.000E+00 g(S)=  0.000E+00 dE (1.order)= 0.000E+00
 bond charge predicted
       N       E                     dE             d eps       ncg     rms          rms(c)
DAV:   1    -0.659204911467E+02    0.27158E-08   -0.96015E-10    93   0.210E-04    0.648E-05
RMM:   2    -0.659204911473E+02   -0.61664E-09    0.00000E+00     8   0.135E-04
   9 F= -.65920491E+02 E0= -.65916118E+02  d E =0.381988E-09
quench:  g(F)=  0.000E+00 g(S)=  0.000E+00 dE (1.order)= 0.000E+00
 bond charge predicted
       N       E                     dE             d eps       ncg     rms          rms(c)
DAV:   1    -0.659204911470E+02   -0.27285E-09   -0.58109E-10    93   0.146E-04    0.477E-05
RMM:   2    -0.659204911463E+02    0.63301E-09    0.00000E+00     7   0.112E-04
  10 F= -.65920491E+02 E0= -.65916118E+02  d E =0.976797E-09
quench:  g(F)=  0.000E+00 g(S)=  0.000E+00 dE (1.order)= 0.000E+00
 bond charge predicted
       N       E                     dE             d eps       ncg     rms          rms(c)
DAV:   1    -0.659204911453E+02    0.17262E-08   -0.28662E-10    93   0.122E-04    0.348E-05
RMM:   2    -0.659204911461E+02   -0.88403E-09    0.00000E+00     7   0.832E-05
  11 F= -.65920491E+02 E0= -.65916118E+02  d E =0.209184E-09
quench:  g(F)=  0.000E+00 g(S)=  0.000E+00 dE (1.order)= 0.000E+00
 bond charge predicted
       N       E                     dE             d eps       ncg     rms          rms(c)
DAV:   1    -0.659204911460E+02   -0.74579E-09   -0.87066E-11    93   0.903E-05    0.265E-05
RMM:   2    -0.659204911456E+02    0.39108E-09    0.00000E+00     5   0.681E-05
  12 F= -.65920491E+02 E0= -.65916118E+02  d E =0.529326E-09
quench:  g(F)=  0.000E+00 g(S)=  0.000E+00 dE (1.order)= 0.000E+00
 bond charge predicted
       N       E                     dE             d eps       ncg     rms          rms(c)
DAV:   1    -0.659204911449E+02    0.11187E-08   -0.16489E-10    93   0.741E-05    0.210E-05
RMM:   2    -0.659204911457E+02   -0.80945E-09    0.00000E+00     5   0.525E-05
  13 F= -.65920491E+02 E0= -.65916118E+02  d E =-.818545E-10
quench:  g(F)=  0.000E+00 g(S)=  0.000E+00 dE (1.order)= 0.000E+00
 bond charge predicted
       N       E                     dE             d eps       ncg     rms          rms(c)
DAV:   1    -0.659204911459E+02   -0.98407E-09   -0.48147E-11    93   0.572E-05    0.156E-05
RMM:   2    -0.659204911454E+02    0.50568E-09    0.00000E+00     4   0.425E-05
  14 F= -.65920491E+02 E0= -.65916118E+02  d E =0.331056E-09
quench:  g(F)=  0.000E+00 g(S)=  0.000E+00 dE (1.order)= 0.000E+00
 bond charge predicted
       N       E                     dE             d eps       ncg     rms          rms(c)
DAV:   1    -0.659204911450E+02    0.91131E-09   -0.85286E-11    93   0.462E-05    0.136E-05
RMM:   2    -0.659204911455E+02   -0.53842E-09    0.00000E+00     4   0.335E-05
  15 F= -.65920491E+02 E0= -.65916118E+02  d E =-.132786E-09
quench:  g(F)=  0.000E+00 g(S)=  0.000E+00 dE (1.order)= 0.000E+00
 bond charge predicted
       N       E                     dE             d eps       ncg     rms          rms(c)
DAV:   1    -0.659204911457E+02   -0.72760E-09   -0.61395E-11    93   0.368E-05    0.929E-06
RMM:   2    -0.659204911453E+02    0.42564E-09    0.00000E+00     4   0.269E-05
  16 F= -.65920491E+02 E0= -.65916118E+02  d E =0.236469E-09
quench:  g(F)=  0.000E+00 g(S)=  0.000E+00 dE (1.order)= 0.000E+00
 bond charge predicted
       N       E                     dE             d eps       ncg     rms          rms(c)
DAV:   1    -0.659204911454E+02    0.27467E-09    0.38452E-12    93   0.291E-05    0.860E-06
RMM:   2    -0.659204911452E+02    0.22374E-09    0.00000E+00     2   0.214E-05
  17 F= -.65920491E+02 E0= -.65916118E+02  d E =0.727596E-10
quench:  g(F)=  0.000E+00 g(S)=  0.000E+00 dE (1.order)= 0.000E+00
 bond charge predicted
       N       E                     dE             d eps       ncg     rms          rms(c)
DAV:   1    -0.659204911458E+02   -0.42382E-09   -0.10085E-10    93   0.236E-05    0.561E-06
RMM:   2    -0.659204911453E+02    0.57480E-09    0.00000E+00     2   0.170E-05
  18 F= -.65920491E+02 E0= -.65916118E+02  d E =-.727596E-10
quench:  g(F)=  0.000E+00 g(S)=  0.000E+00 dE (1.order)= 0.000E+00
 bond charge predicted
       N       E                     dE             d eps       ncg     rms          rms(c)
DAV:   1    -0.659204911453E+02    0.54933E-09   -0.45303E-11    93   0.184E-05    0.498E-06
RMM:   2    -0.659204911452E+02    0.43656E-10    0.00000E+00     2   0.136E-05
  19 F= -.65920491E+02 E0= -.65916118E+02  d E =0.181899E-10
quench:  g(F)=  0.000E+00 g(S)=  0.000E+00 dE (1.order)= 0.000E+00
 bond charge predicted
       N       E                     dE             d eps       ncg     rms          rms(c)
DAV:   1    -0.659204911455E+02   -0.27103E-09   -0.14659E-11    93   0.151E-05    0.327E-06
RMM:   2    -0.659204911451E+02    0.42746E-09    0.00000E+00     2   0.110E-05
  20 F= -.65920491E+02 E0= -.65916118E+02  d E =0.112777E-09
quench:  g(F)=  0.000E+00 g(S)=  0.000E+00 dE (1.order)= 0.000E+00
 bond charge predicted
       N       E                     dE             d eps       ncg     rms          rms(c)
DAV:   1    -0.659204911449E+02    0.62755E-09   -0.41367E-11    93   0.120E-05    0.306E-06
RMM:   2    -0.659204911452E+02   -0.30741E-09    0.00000E+00     2   0.882E-06
  21 F= -.65920491E+02 E0= -.65916118E+02  d E =-.107320E-09
quench:  g(F)=  0.000E+00 g(S)=  0.000E+00 dE (1.order)= 0.000E+00
 bond charge predicted
       N       E                     dE             d eps       ncg     rms          rms(c)
DAV:   1    -0.659204911446E+02    0.27467E-09    0.74141E-11    93   0.980E-06    0.207E-06
RMM:   2    -0.659204911451E+02   -0.50204E-09    0.00000E+00     2   0.717E-06
  22 F= -.65920491E+02 E0= -.65916118E+02  d E =0.800355E-10
quench:  g(F)=  0.000E+00 g(S)=  0.000E+00 dE (1.order)= 0.000E+00
 bond charge predicted
       N       E                     dE             d eps       ncg     rms          rms(c)
DAV:   1    -0.659204911450E+02   -0.31832E-09   -0.23467E-11    93   0.779E-06    0.193E-06
RMM:   2    -0.659204911451E+02   -0.13642E-09    0.00000E+00     2   0.573E-06
  23 F= -.65920491E+02 E0= -.65916118E+02  d E =0.472937E-10
quench:  g(F)=  0.000E+00 g(S)=  0.000E+00 dE (1.order)= 0.000E+00
 bond charge predicted
       N       E                     dE             d eps       ncg     rms          rms(c)
DAV:   1    -0.659204911455E+02   -0.48749E-09   -0.69601E-11    93   0.636E-06    0.139E-06
RMM:   2    -0.659204911452E+02    0.21464E-09    0.00000E+00     2   0.465E-06
  24 F= -.65920491E+02 E0= -.65916118E+02  d E =-.136424E-09
quench:  g(F)=  0.000E+00 g(S)=  0.000E+00 dE (1.order)= 0.000E+00
 bond charge predicted
       N       E                     dE             d eps       ncg     rms          rms(c)
DAV:   1    -0.659204911452E+02    0.27649E-09   -0.28531E-11    93   0.506E-06    0.122E-06
RMM:   2    -0.659204911452E+02   -0.47294E-10    0.00000E+00     2   0.370E-06
  25 F= -.65920491E+02 E0= -.65916118E+02  d E =0.145519E-10
quench:  g(F)=  0.000E+00 g(S)=  0.000E+00 dE (1.order)= 0.000E+00
 bond charge predicted
       N       E                     dE             d eps       ncg     rms          rms(c)
DAV:   1    -0.659204911449E+02    0.28012E-09   -0.62136E-11    93   0.408E-06    0.854E-07
RMM:   2    -0.659204911451E+02   -0.23829E-09    0.00000E+00     2   0.303E-06
  26 F= -.65920491E+02 E0= -.65916118E+02  d E =0.891305E-10
quench:  g(F)=  0.000E+00 g(S)=  0.000E+00 dE (1.order)= 0.000E+00
 bond charge predicted
       N       E                     dE             d eps       ncg     rms          rms(c)
DAV:   1    -0.659204911452E+02   -0.33106E-09   -0.10532E-10    93   0.329E-06    0.769E-07
RMM:   2    -0.659204911453E+02   -0.43656E-10    0.00000E+00     2   0.242E-06
  27 F= -.65920491E+02 E0= -.65916118E+02  d E =-.136424E-09
quench:  g(F)=  0.000E+00 g(S)=  0.000E+00 dE (1.order)= 0.000E+00
 bond charge predicted
       N       E                     dE             d eps       ncg     rms          rms(c)
DAV:   1    -0.659204911447E+02    0.49295E-09   -0.75502E-11    90   0.268E-06    0.550E-07
RMM:   2    -0.659204911452E+02   -0.43838E-09    0.00000E+00     1   0.198E-06
  28 F= -.65920491E+02 E0= -.65916118E+02  d E =0.982254E-10
quench:  g(F)=  0.000E+00 g(S)=  0.000E+00 dE (1.order)= 0.000E+00
 bond charge predicted
       N       E                     dE             d eps       ncg     rms          rms(c)
DAV:   1    -0.659204911449E+02   -0.13461E-09   -0.48170E-11    84   0.216E-06    0.492E-07
RMM:   2    -0.659204911451E+02   -0.27467E-09    0.00000E+00     1   0.159E-06
  29 F= -.65920491E+02 E0= -.65916118E+02  d E =0.291038E-10
quench:  g(F)=  0.000E+00 g(S)=  0.000E+00 dE (1.order)= 0.000E+00
 bond charge predicted
       N       E                     dE             d eps       ncg     rms          rms(c)
DAV:   1    -0.659204911452E+02   -0.36925E-09   -0.54634E-11    84   0.176E-06    0.365E-07
RMM:   2    -0.659204911451E+02    0.13097E-09    0.00000E+00     1   0.130E-06
  30 F= -.65920491E+02 E0= -.65916118E+02  d E =0.363798E-10
quench:  g(F)=  0.000E+00 g(S)=  0.000E+00 dE (1.order)= 0.000E+00
 bond charge predicted
       N       E                     dE             d eps       ncg     rms          rms(c)
DAV:   1    -0.659204911453E+02   -0.16371E-10    0.88104E-12    84   0.142E-06    0.317E-07
RMM:   2    -0.659204911452E+02    0.45475E-10    0.00000E+00     1   0.104E-06
  31 F= -.65920491E+02 E0= -.65916118E+02  d E =-.101863E-09
quench:  g(F)=  0.000E+00 g(S)=  0.000E+00 dE (1.order)= 0.000E+00
 bond charge predicted
       N       E                     dE             d eps       ncg     rms          rms(c)
DAV:   1    -0.659204911464E+02   -0.11605E-08    0.39707E-11    84   0.115E-06    0.241E-07
RMM:   2    -0.659204911451E+02    0.13133E-08    0.00000E+00     1   0.856E-07
  32 F= -.65920491E+02 E0= -.65916118E+02  d E =0.107320E-09
quench:  g(F)=  0.000E+00 g(S)=  0.000E+00 dE (1.order)= 0.000E+00
 bond charge predicted
       N       E                     dE             d eps       ncg     rms          rms(c)
DAV:   1    -0.659204911444E+02    0.20027E-08   -0.43583E-11    84   0.935E-07    0.204E-07
RMM:   2    -0.659204911451E+02   -0.70577E-09    0.00000E+00     1   0.681E-07
  33 F= -.65920491E+02 E0= -.65916118E+02  d E =-.163709E-10
quench:  g(F)=  0.000E+00 g(S)=  0.000E+00 dE (1.order)= 0.000E+00
 bond charge predicted
       N       E                     dE             d eps       ncg     rms          rms(c)
DAV:   1    -0.659204911450E+02   -0.56389E-09    0.30064E-12    84   0.750E-07    0.156E-07
RMM:   2    -0.659204911451E+02   -0.15280E-09    0.00000E+00     1   0.561E-07
  34 F= -.65920491E+02 E0= -.65916118E+02  d E =-.109139E-10
quench:  g(F)=  0.000E+00 g(S)=  0.000E+00 dE (1.order)= 0.000E+00
 bond charge predicted
       N       E                     dE             d eps       ncg     rms          rms(c)
DAV:   1    -0.659204911450E+02    0.90949E-11   -0.82957E-11    84   0.613E-07    0.130E-07
RMM:   2    -0.659204911451E+02   -0.10914E-09    0.00000E+00     1   0.447E-07
  35 F= -.65920491E+02 E0= -.65916118E+02  d E =0.527507E-10
quench:  g(F)=  0.000E+00 g(S)=  0.000E+00 dE (1.order)= 0.000E+00
 bond charge predicted
       N       E                     dE             d eps       ncg     rms          rms(c)
DAV:   1    -0.659204911449E+02    0.30923E-10   -0.66181E-11    84   0.492E-07    0.992E-08
RMM:   2    -0.659204911451E+02   -0.14734E-09    0.00000E+00     1   0.367E-07
  36 F= -.65920491E+02 E0= -.65916118E+02  d E =-.727596E-11
quench:  g(F)=  0.000E+00 g(S)=  0.000E+00 dE (1.order)= 0.000E+00
 bond charge predicted
       N       E                     dE             d eps       ncg     rms          rms(c)
DAV:   1    -0.659204911445E+02    0.43838E-09   -0.45035E-11    84   0.402E-07    0.838E-08
RMM:   2    -0.659204911450E+02   -0.53114E-09    0.00000E+00     1   0.295E-07
  37 F= -.65920491E+02 E0= -.65916118E+02  d E =0.545697E-10
quench:  g(F)=  0.000E+00 g(S)=  0.000E+00 dE (1.order)= 0.000E+00
 bond charge predicted
       N       E                     dE             d eps       ncg     rms          rms(c)
DAV:   1    -0.659204911456E+02   -0.10823E-08   -0.31785E-11    84   0.324E-07    0.633E-08
RMM:   2    -0.659204911450E+02    0.55479E-09    0.00000E+00     1   0.241E-07
  38 F= -.65920491E+02 E0= -.65916118E+02  d E =0.363798E-11
quench:  g(F)=  0.000E+00 g(S)=  0.000E+00 dE (1.order)= 0.000E+00
 bond charge predicted
       N       E                     dE             d eps       ncg     rms          rms(c)
DAV:   1    -0.659204911448E+02    0.75306E-09    0.12850E-11    84   0.264E-07    0.545E-08
RMM:   2    -0.659204911451E+02   -0.25648E-09    0.00000E+00     1   0.195E-07
  39 F= -.65920491E+02 E0= -.65916118E+02  d E =-.582077E-10
quench:  g(F)=  0.000E+00 g(S)=  0.000E+00 dE (1.order)= 0.000E+00
 bond charge predicted
       N       E                     dE             d eps       ncg     rms          rms(c)
DAV:   1    -0.659204911447E+02    0.13824E-09   -0.80375E-11    84   0.215E-07    0.409E-08
RMM:   2    -0.659204911451E+02   -0.45293E-09    0.00000E+00     1   0.159E-07
  40 F= -.65920491E+02 E0= -.65916118E+02  d E =-.582077E-10
quench:  g(F)=  0.000E+00 g(S)=  0.000E+00 dE (1.order)= 0.000E+00
 bond charge predicted
       N       E                     dE             d eps       ncg     rms          rms(c)
DAV:   1    -0.659204911453E+02   -0.56752E-09   -0.64474E-11    84   0.174E-07    0.356E-08
RMM:   2    -0.659204911452E+02    0.69122E-10    0.00000E+00     1   0.129E-07
  41 F= -.65920491E+02 E0= -.65916118E+02  d E =-.454747E-10
quench:  g(F)=  0.000E+00 g(S)=  0.000E+00 dE (1.order)= 0.000E+00
 bond charge predicted
       N       E                     dE             d eps       ncg     rms          rms(c)
DAV:   1    -0.659204911448E+02    0.50386E-09    0.50552E-11    84   0.142E-07    0.263E-08
RMM:   2    -0.659204911451E+02   -0.36744E-09    0.00000E+00     1   0.105E-07
  42 F= -.65920491E+02 E0= -.65916118E+02  d E =0.673026E-10
quench:  g(F)=  0.000E+00 g(S)=  0.000E+00 dE (1.order)= 0.000E+00
 bond charge predicted
       N       E                     dE             d eps       ncg     rms          rms(c)
DAV:   1    -0.659204911447E+02    0.56389E-10   -0.26700E-12    84   0.115E-07    0.232E-08
RMM:   2    -0.659204911451E+02   -0.36198E-09    0.00000E+00     1   0.851E-08
  43 F= -.65920491E+02 E0= -.65916118E+02  d E =0.618456E-10
quench:  g(F)=  0.000E+00 g(S)=  0.000E+00 dE (1.order)= 0.000E+00
 bond charge predicted
       N       E                     dE             d eps       ncg     rms          rms(c)
DAV:   1    -0.659204911450E+02   -0.31287E-09    0.18135E-11    84   0.947E-08    0.169E-08
RMM:   2    -0.659204911451E+02   -0.67303E-10    0.00000E+00     1   0.692E-08
  44 F= -.65920491E+02 E0= -.65916118E+02  d E =-.181899E-10
quench:  g(F)=  0.000E+00 g(S)=  0.000E+00 dE (1.order)= 0.000E+00
 bond charge predicted
       N       E                     dE             d eps       ncg     rms          rms(c)
DAV:   1    -0.659204911455E+02   -0.49658E-09   -0.54714E-11    84   0.764E-08    0.150E-08
RMM:   2    -0.659204911451E+02    0.37835E-09    0.00000E+00     1   0.563E-08
  45 F= -.65920491E+02 E0= -.65916118E+02  d E =-.509317E-10
quench:  g(F)=  0.000E+00 g(S)=  0.000E+00 dE (1.order)= 0.000E+00
 bond charge predicted
       N       E                     dE             d eps       ncg     rms          rms(c)
DAV:   1    -0.659204911443E+02    0.11605E-08   -0.11641E-10    84   0.621E-08    0.114E-08
RMM:   2    -0.659204911450E+02   -0.66211E-09    0.00000E+00     1   0.457E-08
  46 F= -.65920491E+02 E0= -.65916118E+02  d E =0.120053E-09
quench:  g(F)=  0.000E+00 g(S)=  0.000E+00 dE (1.order)= 0.000E+00
 bond charge predicted
       N       E                     dE             d eps       ncg     rms          rms(c)
DAV:   1    -0.659204911452E+02   -0.84219E-09   -0.42491E-11    84   0.499E-08    0.101E-08
RMM:   2    -0.659204911450E+02    0.14188E-09    0.00000E+00     1   0.373E-08
  47 F= -.65920491E+02 E0= -.65916118E+02  d E =-.381988E-10
quench:  g(F)=  0.000E+00 g(S)=  0.000E+00 dE (1.order)= 0.000E+00
 bond charge predicted
       N       E                     dE             d eps       ncg     rms          rms(c)
DAV:   1    -0.659204911455E+02   -0.35470E-09   -0.23832E-11    84   0.424E-08    0.713E-09
RMM:   2    -0.659204911450E+02    0.49658E-09    0.00000E+00     1   0.304E-08
  48 F= -.65920491E+02 E0= -.65916118E+02  d E =0.000000E+00
quench:  g(F)=  0.000E+00 g(S)=  0.000E+00 dE (1.order)= 0.000E+00
 bond charge predicted
       N       E                     dE             d eps       ncg     rms          rms(c)
DAV:   1    -0.659204911450E+02    0.53660E-09   -0.67365E-12    84   0.335E-08    0.647E-09
RMM:   2    -0.659204911450E+02   -0.40018E-10    0.00000E+00     1   0.246E-08
  49 F= -.65920491E+02 E0= -.65916118E+02  d E =0.000000E+00
quench:  g(F)=  0.000E+00 g(S)=  0.000E+00 dE (1.order)= 0.000E+00
 bond charge predicted
       N       E                     dE             d eps       ncg     rms          rms(c)
DAV:   1    -0.659204911456E+02   -0.57480E-09   -0.15836E-11    84   0.272E-08    0.498E-09
RMM:   2    -0.659204911452E+02    0.42928E-09    0.00000E+00     1   0.202E-08
  50 F= -.65920491E+02 E0= -.65916118E+02  d E =-.105501E-09
quench:  g(F)=  0.000E+00 g(S)=  0.000E+00 dE (1.order)= 0.000E+00
 bond charge predicted
       N       E                     dE             d eps       ncg     rms          rms(c)
DAV:   1    -0.659204911453E+02    0.29468E-09   -0.68903E-12    84   0.221E-08    0.444E-09
RMM:   2    -0.659204911451E+02    0.13824E-09    0.00000E+00     1   0.164E-08
  51 F= -.65920491E+02 E0= -.65916118E+02  d E =0.363798E-11
quench:  g(F)=  0.000E+00 g(S)=  0.000E+00 dE (1.order)= 0.000E+00
 bond charge predicted
       N       E                     dE             d eps       ncg     rms          rms(c)
DAV:   1    -0.659204911450E+02    0.24920E-09    0.79837E-11    84   0.192E-08    0.297E-09
RMM:   2    -0.659204911451E+02   -0.18190E-10    0.00000E+00     1   0.135E-08
  52 F= -.65920491E+02 E0= -.65916118E+02  d E =0.927685E-10
quench:  g(F)=  0.000E+00 g(S)=  0.000E+00 dE (1.order)= 0.000E+00
 bond charge predicted
       N       E                     dE             d eps       ncg     rms          rms(c)
DAV:   1    -0.659204911454E+02   -0.39108E-09    0.70459E-11    84   0.152E-08    0.265E-09
RMM:   2    -0.659204911451E+02    0.30195E-09    0.00000E+00     1   0.109E-08
  53 F= -.65920491E+02 E0= -.65916118E+02  d E =-.709406E-10
quench:  g(F)=  0.000E+00 g(S)=  0.000E+00 dE (1.order)= 0.000E+00
 bond charge predicted
       N       E                     dE             d eps       ncg     rms          rms(c)
DAV:   1    -0.659204911454E+02    0.58208E-10    0.75047E-11    84   0.116E-08    0.229E-09
RMM:   2    -0.659204911451E+02    0.22192E-09    0.00000E+00     1   0.887E-09
  54 F= -.65920491E+02 E0= -.65916118E+02  d E =-.218279E-10
quench:  g(F)=  0.000E+00 g(S)=  0.000E+00 dE (1.order)= 0.000E+00
 bond charge predicted
       N       E                     dE             d eps       ncg     rms          rms(c)
DAV:   1    -0.659204911449E+02    0.44929E-09    0.47141E-11    84   0.997E-09    0.194E-09
RMM:   2    -0.659204911451E+02   -0.17644E-09    0.00000E+00     1   0.728E-09
  55 F= -.65920491E+02 E0= -.65916118E+02  d E =0.509317E-10
quench:  g(F)=  0.000E+00 g(S)=  0.000E+00 dE (1.order)= 0.000E+00
 bond charge predicted
       N       E                     dE             d eps       ncg     rms          rms(c)
DAV:   1    -0.659204911452E+02   -0.26739E-09    0.92697E-11    84   0.847E-09    0.134E-09
RMM:   2    -0.659204911451E+02    0.80036E-10    0.00000E+00     1   0.589E-09
  56 F= -.65920491E+02 E0= -.65916118E+02  d E =-.109139E-10
quench:  g(F)=  0.000E+00 g(S)=  0.000E+00 dE (1.order)= 0.000E+00
 bond charge predicted
       N       E                     dE             d eps       ncg     rms          rms(c)
DAV:   1    -0.659204911448E+02    0.42382E-09    0.87133E-11    84   0.673E-09    0.120E-09
RMM:   2    -0.659204911452E+02   -0.44929E-09    0.00000E+00     1   0.484E-09
  57 F= -.65920491E+02 E0= -.65916118E+02  d E =-.105501E-09
quench:  g(F)=  0.000E+00 g(S)=  0.000E+00 dE (1.order)= 0.000E+00
 bond charge predicted
       N       E                     dE             d eps       ncg     rms          rms(c)
DAV:   1    -0.659204911457E+02   -0.96043E-09    0.49514E-11    84   0.594E-09    0.858E-10
RMM:   2    -0.659204911452E+02    0.51296E-09    0.00000E+00     1   0.403E-09
  58 F= -.65920491E+02 E0= -.65916118E+02  d E =0.181899E-11
quench:  g(F)=  0.000E+00 g(S)=  0.000E+00 dE (1.order)= 0.000E+00
 bond charge predicted
       N       E                     dE             d eps       ncg     rms          rms(c)
DAV:   1    -0.659204911448E+02    0.93678E-09    0.10674E-10    84   0.456E-09    0.800E-10
RMM:   2    -0.659204911451E+02   -0.26921E-09    0.00000E+00     1   0.323E-09
  59 F= -.65920491E+02 E0= -.65916118E+02  d E =0.154614E-09
quench:  g(F)=  0.000E+00 g(S)=  0.000E+00 dE (1.order)= 0.000E+00
 bond charge predicted
       N       E                     dE             d eps       ncg     rms          rms(c)
DAV:   1    -0.659204911458E+02   -0.10041E-08    0.79194E-11    84   0.340E-09    0.675E-10
RMM:   2    -0.659204911452E+02    0.58390E-09    0.00000E+00     1   0.266E-09
  60 F= -.65920491E+02 E0= -.65916118E+02  d E =-.150976E-09
quench:  g(F)=  0.000E+00 g(S)=  0.000E+00 dE (1.order)= 0.000E+00
 bond charge predicted
       N       E                     dE             d eps       ncg     rms          rms(c)
DAV:   1    -0.659204911451E+02    0.68030E-09    0.81943E-11    84   0.288E-09    0.685E-10
RMM:   2    -0.659204911451E+02    0.18190E-11    0.00000E+00     1   0.217E-09
  61 F= -.65920491E+02 E0= -.65916118E+02  d E =0.982254E-10
quench:  g(F)=  0.000E+00 g(S)=  0.000E+00 dE (1.order)= 0.000E+00
 bond charge predicted
       N       E                     dE             d eps       ncg     rms          rms(c)
DAV:   1    -0.659204911455E+02   -0.39290E-09    0.10804E-10    84   0.235E-09    0.502E-10
RMM:   2    -0.659204911452E+02    0.33651E-09    0.00000E+00     1   0.172E-09
  62 F= -.65920491E+02 E0= -.65916118E+02  d E =-.582077E-10
quench:  g(F)=  0.000E+00 g(S)=  0.000E+00 dE (1.order)= 0.000E+00
 bond charge predicted
       N       E                     dE             d eps       ncg     rms          rms(c)
DAV:   1    -0.659204911456E+02   -0.10368E-09    0.35968E-11    84   0.198E-09    0.405E-10
RMM:   2    -0.659204911452E+02    0.44565E-09    0.00000E+00     1   0.144E-09
  63 F= -.65920491E+02 E0= -.65916118E+02  d E =0.545697E-11
quench:  g(F)=  0.000E+00 g(S)=  0.000E+00 dE (1.order)= 0.000E+00
 bond charge predicted
       N       E                     dE             d eps       ncg     rms          rms(c)
DAV:   1    -0.659204911451E+02    0.46930E-09    0.95624E-11    84   0.163E-09    0.367E-10
RMM:   2    -0.659204911451E+02    0.40018E-10    0.00000E+00     1   0.117E-09
  64 F= -.65920491E+02 E0= -.65916118E+02  d E =0.636646E-10
quench:  g(F)=  0.000E+00 g(S)=  0.000E+00 dE (1.order)= 0.000E+00
 bond charge predicted
       N       E                     dE             d eps       ncg     rms          rms(c)
DAV:   1    -0.659204911450E+02    0.16917E-09    0.63153E-11    84   0.123E-09    0.476E-10
RMM:   2    -0.659204911450E+02   -0.63665E-10    0.00000E+00     1   0.101E-09
  65 F= -.65920491E+02 E0= -.65916118E+02  d E =0.654836E-10
quench:  g(F)=  0.000E+00 g(S)=  0.000E+00 dE (1.order)= 0.000E+00
 bond charge predicted
       N       E                     dE             d eps       ncg     rms          rms(c)
DAV:   1    -0.659204911447E+02    0.24374E-09    0.42564E-11    84   0.106E-09    0.384E-10
RMM:   2    -0.659204911452E+02   -0.46566E-09    0.00000E+00     1   0.798E-10
  66 F= -.65920491E+02 E0= -.65916118E+02  d E =-.158252E-09
quench:  g(F)=  0.000E+00 g(S)=  0.000E+00 dE (1.order)= 0.000E+00
 bond charge predicted
       N       E                     dE             d eps       ncg     rms          rms(c)
DAV:   1    -0.659204911448E+02   -0.10550E-09    0.37470E-11    84   0.859E-10    0.340E-10
RMM:   2    -0.659204911451E+02   -0.28194E-09    0.00000E+00     1   0.677E-10
  67 F= -.65920491E+02 E0= -.65916118E+02  d E =0.782165E-10
quench:  g(F)=  0.000E+00 g(S)=  0.000E+00 dE (1.order)= 0.000E+00
 bond charge predicted
       N       E                     dE             d eps       ncg     rms          rms(c)
DAV:   1    -0.659204911446E+02    0.21464E-09    0.80906E-11    84   0.718E-10    0.235E-10
RMM:   2    -0.659204911452E+02   -0.55297E-09    0.00000E+00     1   0.535E-10
  68 F= -.65920491E+02 E0= -.65916118E+02  d E =-.563887E-10
quench:  g(F)=  0.000E+00 g(S)=  0.000E+00 dE (1.order)= 0.000E+00
 bond charge predicted
       N       E                     dE             d eps       ncg     rms          rms(c)
DAV:   1    -0.659204911450E+02   -0.43110E-09    0.11391E-10    84   0.562E-10    0.212E-10
RMM:   2    -0.659204911452E+02   -0.17644E-09    0.00000E+00     1   0.461E-10
  69 F= -.65920491E+02 E0= -.65916118E+02  d E =-.545697E-10
quench:  g(F)=  0.000E+00 g(S)=  0.000E+00 dE (1.order)= 0.000E+00
 bond charge predicted
       N       E                     dE             d eps       ncg     rms          rms(c)
DAV:   1    -0.659204911450E+02    0.54570E-11    0.83027E-11    84   0.464E-10    0.198E-10
RMM:   2    -0.659204911451E+02   -0.29104E-10    0.00000E+00     1   0.363E-10
  70 F= -.65920491E+02 E0= -.65916118E+02  d E =0.152795E-09
quench:  g(F)=  0.000E+00 g(S)=  0.000E+00 dE (1.order)= 0.000E+00
 bond charge predicted
       N       E                     dE             d eps       ncg     rms          rms(c)
DAV:   1    -0.659204911448E+02    0.26012E-09    0.13657E-10    84   0.425E-10    0.293E-10
RMM:   2    -0.659204911451E+02   -0.28558E-09    0.00000E+00     1   0.332E-10
  71 F= -.65920491E+02 E0= -.65916118E+02  d E =0.363798E-11
quench:  g(F)=  0.000E+00 g(S)=  0.000E+00 dE (1.order)= 0.000E+00
 bond charge predicted
       N       E                     dE             d eps       ncg     rms          rms(c)
DAV:   1    -0.659204911452E+02   -0.42564E-09    0.10010E-10    84   0.364E-10    0.226E-10
RMM:   2    -0.659204911451E+02    0.69122E-10    0.00000E+00     1   0.286E-10
  72 F= -.65920491E+02 E0= -.65916118E+02  d E =-.709406E-10
quench:  g(F)=  0.000E+00 g(S)=  0.000E+00 dE (1.order)= 0.000E+00
 bond charge predicted
       N       E                     dE             d eps       ncg     rms          rms(c)
DAV:   1    -0.659204911450E+02    0.25648E-09    0.54211E-11    84   0.315E-10    0.375E-10
RMM:   2    -0.659204911452E+02   -0.21282E-09    0.00000E+00     0   0.322E-10
  73 F= -.65920491E+02 E0= -.65916118E+02  d E =-.254659E-10
quench:  g(F)=  0.000E+00 g(S)=  0.000E+00 dE (1.order)= 0.000E+00
 bond charge predicted
       N       E                     dE             d eps       ncg     rms          rms(c)
DAV:   1    -0.659204911453E+02   -0.30559E-09    0.30283E-11    84   0.361E-10    0.336E-10
RMM:   2    -0.659204911451E+02    0.19827E-09    0.00000E+00     1   0.250E-10
  74 F= -.65920491E+02 E0= -.65916118E+02  d E =0.105501E-09
quench:  g(F)=  0.000E+00 g(S)=  0.000E+00 dE (1.order)= 0.000E+00
 bond charge predicted
       N       E                     dE             d eps       ncg     rms          rms(c)
DAV:   1    -0.659204911451E+02    0.17826E-09    0.76025E-11    84   0.309E-10    0.298E-10
RMM:   2    -0.659204911452E+02   -0.78217E-10    0.00000E+00     0   0.237E-10
  75 F= -.65920491E+02 E0= -.65916118E+02  d E =-.982254E-10
quench:  g(F)=  0.000E+00 g(S)=  0.000E+00 dE (1.order)= 0.000E+00
 bond charge predicted
       N       E                     dE             d eps       ncg     rms          rms(c)
DAV:   1    -0.659204911451E+02   -0.41837E-10    0.42289E-11    84   0.308E-10    0.203E-10
RMM:   2    -0.659204911450E+02    0.89130E-10    0.00000E+00     1   0.189E-10
  76 F= -.65920491E+02 E0= -.65916118E+02  d E =0.125510E-09
quench:  g(F)=  0.000E+00 g(S)=  0.000E+00 dE (1.order)= 0.000E+00
 bond charge predicted
       N       E                     dE             d eps       ncg     rms          rms(c)
DAV:   1    -0.659204911454E+02   -0.26012E-09    0.77924E-11    84   0.203E-10    0.303E-10
RMM:   2    -0.659204911451E+02    0.32196E-09    0.00000E+00     0   0.218E-10
  77 F= -.65920491E+02 E0= -.65916118E+02  d E =-.272848E-10
quench:  g(F)=  0.000E+00 g(S)=  0.000E+00 dE (1.order)= 0.000E+00
 bond charge predicted
       N       E                     dE             d eps       ncg     rms          rms(c)
DAV:   1    -0.659204911447E+02    0.66211E-09    0.86777E-11    84   0.229E-10    0.230E-10
RMM:   2    -0.659204911452E+02   -0.50204E-09    0.00000E+00     1   0.166E-10
  78 F= -.65920491E+02 E0= -.65916118E+02  d E =-.161890E-09
quench:  g(F)=  0.000E+00 g(S)=  0.000E+00 dE (1.order)= 0.000E+00
 bond charge predicted
       N       E                     dE             d eps       ncg     rms          rms(c)
DAV:   1    -0.659204911447E+02   -0.16371E-10    0.94921E-11    84   0.203E-10    0.342E-10
RMM:   2    -0.659204911451E+02   -0.38381E-09    0.00000E+00     0   0.208E-10
  79 F= -.65920491E+02 E0= -.65916118E+02  d E =0.101863E-09
quench:  g(F)=  0.000E+00 g(S)=  0.000E+00 dE (1.order)= 0.000E+00
 bond charge predicted
       N       E                     dE             d eps       ncg     rms          rms(c)
DAV:   1    -0.659204911454E+02   -0.69667E-09    0.83199E-11    84   0.236E-10    0.127E-10
RMM:   2    -0.659204911452E+02    0.26921E-09    0.00000E+00     1   0.144E-10
  80 F= -.65920491E+02 E0= -.65916118E+02  d E =-.436557E-10
quench:  g(F)=  0.000E+00 g(S)=  0.000E+00 dE (1.order)= 0.000E+00
 bond charge predicted
       N       E                     dE             d eps       ncg     rms          rms(c)
DAV:   1    -0.659204911446E+02    0.85129E-09    0.12623E-10    84   0.138E-10    0.203E-10
RMM:   2    -0.659204911450E+02   -0.44383E-09    0.00000E+00     0   0.166E-10
  81 F= -.65920491E+02 E0= -.65916118E+02  d E =0.138243E-09
quench:  g(F)=  0.000E+00 g(S)=  0.000E+00 dE (1.order)= 0.000E+00
 bond charge predicted
       N       E                     dE             d eps       ncg     rms          rms(c)
DAV:   1    -0.659204911450E+02   -0.40382E-09    0.10865E-10    84   0.190E-10    0.184E-10
RMM:   2    -0.659204911451E+02   -0.10004E-09    0.00000E+00     1   0.169E-10
  82 F= -.65920491E+02 E0= -.65916118E+02  d E =-.600267E-10
quench:  g(F)=  0.000E+00 g(S)=  0.000E+00 dE (1.order)= 0.000E+00
 bond charge predicted
       N       E                     dE             d eps       ncg     rms          rms(c)
DAV:   1    -0.659204911456E+02   -0.63301E-09    0.10867E-10    84   0.164E-10    0.229E-10
RMM:   2    -0.659204911452E+02    0.46202E-09    0.00000E+00     0   0.142E-10
  83 F= -.65920491E+02 E0= -.65916118E+02  d E =-.709406E-10
quench:  g(F)=  0.000E+00 g(S)=  0.000E+00 dE (1.order)= 0.000E+00
 bond charge predicted
       N       E                     dE             d eps       ncg     rms          rms(c)
DAV:   1    -0.659204911451E+02    0.56207E-09    0.85971E-11    84   0.182E-10    0.125E-10
RMM:   2    -0.659204911450E+02    0.25466E-10    0.00000E+00     1   0.954E-11
  84 F= -.65920491E+02 E0= -.65916118E+02  d E =0.125510E-09
quench:  g(F)=  0.000E+00 g(S)=  0.000E+00 dE (1.order)= 0.000E+00
 bond charge predicted
       N       E                     dE             d eps       ncg     rms          rms(c)
DAV:   1    -0.659204911447E+02    0.31650E-09    0.57967E-11    84   0.121E-10    0.169E-10
RMM:   2    -0.659204911451E+02   -0.38563E-09    0.00000E+00     0   0.122E-10
  85 F= -.65920491E+02 E0= -.65916118E+02  d E =-.945874E-10
quench:  g(F)=  0.000E+00 g(S)=  0.000E+00 dE (1.order)= 0.000E+00
 bond charge predicted
       N       E                     dE             d eps       ncg     rms          rms(c)
DAV:   1    -0.659204911450E+02   -0.28194E-09    0.91975E-11    84   0.195E-10    0.215E-10
RMM:   2    -0.659204911452E+02   -0.13824E-09    0.00000E+00     1   0.139E-10
  86 F= -.65920491E+02 E0= -.65916118E+02  d E =-.345608E-10
quench:  g(F)=  0.000E+00 g(S)=  0.000E+00 dE (1.order)= 0.000E+00
 bond charge predicted
       N       E                     dE             d eps       ncg     rms          rms(c)
DAV:   1    -0.659204911452E+02   -0.16917E-09    0.14012E-10    84   0.127E-10    0.155E-10
RMM:   2    -0.659204911452E+02    0.72760E-11    0.00000E+00     0   0.119E-10
  87 F= -.65920491E+02 E0= -.65916118E+02  d E =-.236469E-10
quench:  g(F)=  0.000E+00 g(S)=  0.000E+00 dE (1.order)= 0.000E+00
 bond charge predicted
       N       E                     dE             d eps       ncg     rms          rms(c)
DAV:   1    -0.659204911451E+02    0.58208E-10    0.11875E-10    84   0.137E-10    0.137E-10
RMM:   2    -0.659204911452E+02   -0.36380E-10    0.00000E+00     0   0.110E-10
  88 F= -.65920491E+02 E0= -.65916118E+02  d E =0.145519E-10
quench:  g(F)=  0.000E+00 g(S)=  0.000E+00 dE (1.order)= 0.000E+00
 bond charge predicted
       N       E                     dE             d eps       ncg     rms          rms(c)
DAV:   1    -0.659204911449E+02    0.27285E-09    0.10037E-10    84   0.153E-10    0.321E-10
RMM:   2    -0.659204911451E+02   -0.25648E-09    0.00000E+00     0   0.192E-10
  89 F= -.65920491E+02 E0= -.65916118E+02  d E =0.527507E-10
quench:  g(F)=  0.000E+00 g(S)=  0.000E+00 dE (1.order)= 0.000E+00
 bond charge predicted
       N       E                     dE             d eps       ncg     rms          rms(c)
DAV:   1    -0.659204911454E+02   -0.58208E-09    0.69181E-11    84   0.230E-10    0.425E-10
RMM:   2    -0.659204911451E+02    0.35106E-09    0.00000E+00     0   0.228E-10
  90 F= -.65920491E+02 E0= -.65916118E+02  d E =0.254659E-10
quench:  g(F)=  0.000E+00 g(S)=  0.000E+00 dE (1.order)= 0.000E+00
 bond charge predicted
       N       E                     dE             d eps       ncg     rms          rms(c)
DAV:   1    -0.659204911455E+02   -0.80036E-10    0.12080E-10    84   0.307E-10    0.180E-10
RMM:   2    -0.659204911451E+02    0.40018E-09    0.00000E+00     0   0.168E-10
  91 F= -.65920491E+02 E0= -.65916118E+02  d E =-.309228E-10
quench:  g(F)=  0.000E+00 g(S)=  0.000E+00 dE (1.order)= 0.000E+00
 bond charge predicted
       N       E                     dE             d eps       ncg     rms          rms(c)
DAV:   1    -0.659204911448E+02    0.71668E-09    0.84501E-11    84   0.131E-10    0.238E-10
RMM:   2    -0.659204911450E+02   -0.24193E-09    0.00000E+00     0   0.150E-10
  92 F= -.65920491E+02 E0= -.65916118E+02  d E =0.745786E-10
quench:  g(F)=  0.000E+00 g(S)=  0.000E+00 dE (1.order)= 0.000E+00
 bond charge predicted
       N       E                     dE             d eps       ncg     rms          rms(c)
DAV:   1    -0.659204911453E+02   -0.51477E-09    0.14323E-10    84   0.159E-10    0.220E-10
RMM:   2    -0.659204911451E+02    0.18736E-09    0.00000E+00     0   0.181E-10
  93 F= -.65920491E+02 E0= -.65916118E+02  d E =-.854925E-10
quench:  g(F)=  0.000E+00 g(S)=  0.000E+00 dE (1.order)= 0.000E+00
 bond charge predicted
       N       E                     dE             d eps       ncg     rms          rms(c)
DAV:   1    -0.659204911455E+02   -0.20009E-09    0.10614E-10    84   0.180E-10    0.371E-10
RMM:   2    -0.659204911452E+02    0.31650E-09    0.00000E+00     0   0.217E-10
  94 F= -.65920491E+02 E0= -.65916118E+02  d E =-.709406E-10
quench:  g(F)=  0.000E+00 g(S)=  0.000E+00 dE (1.order)= 0.000E+00
 bond charge predicted
       N       E                     dE             d eps       ncg     rms          rms(c)
DAV:   1    -0.659204911444E+02    0.10750E-08    0.12168E-10    84   0.312E-10    0.256E-10
RMM:   2    -0.659204911451E+02   -0.67303E-09    0.00000E+00     0   0.187E-10
  95 F= -.65920491E+02 E0= -.65916118E+02  d E =0.854925E-10
quench:  g(F)=  0.000E+00 g(S)=  0.000E+00 dE (1.order)= 0.000E+00
 bond charge predicted
       N       E                     dE             d eps       ncg     rms          rms(c)
DAV:   1    -0.659204911450E+02   -0.59117E-09    0.68212E-11    84   0.185E-10    0.212E-10
RMM:   2    -0.659204911451E+02   -0.60027E-10    0.00000E+00     0   0.156E-10
  96 F= -.65920491E+02 E0= -.65916118E+02  d E =0.218279E-10
quench:  g(F)=  0.000E+00 g(S)=  0.000E+00 dE (1.order)= 0.000E+00
 bond charge predicted
       N       E                     dE             d eps       ncg     rms          rms(c)
DAV:   1    -0.659204911454E+02   -0.38199E-09    0.91349E-11    84   0.145E-10    0.361E-10
RMM:   2    -0.659204911452E+02    0.23647E-09    0.00000E+00     0   0.199E-10
  97 F= -.65920491E+02 E0= -.65916118E+02  d E =-.854925E-10
quench:  g(F)=  0.000E+00 g(S)=  0.000E+00 dE (1.order)= 0.000E+00
 bond charge predicted
       N       E                     dE             d eps       ncg     rms          rms(c)
DAV:   1    -0.659204911449E+02    0.48931E-09    0.44307E-11    84   0.276E-10    0.327E-10
RMM:   2    -0.659204911451E+02   -0.20191E-09    0.00000E+00     0   0.212E-10
  98 F= -.65920491E+02 E0= -.65916118E+02  d E =0.509317E-10
quench:  g(F)=  0.000E+00 g(S)=  0.000E+00 dE (1.order)= 0.000E+00
 bond charge predicted
       N       E                     dE             d eps       ncg     rms          rms(c)
DAV:   1    -0.659204911457E+02   -0.78580E-09    0.72310E-11    84   0.245E-10    0.134E-10
RMM:   2    -0.659204911451E+02    0.60754E-09    0.00000E+00     0   0.166E-10
  99 F= -.65920491E+02 E0= -.65916118E+02  d E =0.236469E-10
quench:  g(F)=  0.000E+00 g(S)=  0.000E+00 dE (1.order)= 0.000E+00
 bond charge predicted
       N       E                     dE             d eps       ncg     rms          rms(c)
DAV:   1    -0.659204911444E+02    0.13551E-08    0.91095E-11    84   0.108E-10    0.294E-10
RMM:   2    -0.659204911451E+02   -0.74579E-09    0.00000E+00     0   0.149E-10
 100 F= -.65920491E+02 E0= -.65916118E+02  d E =0.181899E-11
quench:  g(F)=  0.000E+00 g(S)=  0.000E+00 dE (1.order)= 0.000E+00
 bond charge predicted
       N       E                     dE             d eps       ncg     rms          rms(c)
DAV:   1    -0.659204911449E+02   -0.50932E-09    0.99109E-11    84   0.197E-10    0.261E-10
RMM:   2    -0.659204911452E+02   -0.36562E-09    0.00000E+00     0   0.139E-10
 101 F= -.65920491E+02 E0= -.65916118E+02  d E =-.129148E-09
quench:  g(F)=  0.000E+00 g(S)=  0.000E+00 dE (1.order)= 0.000E+00
 bond charge predicted
       N       E                     dE             d eps       ncg     rms          rms(c)
DAV:   1    -0.659204911446E+02    0.29286E-09    0.10831E-10    84   0.186E-10    0.201E-10
RMM:   2    -0.659204911451E+02   -0.55661E-09    0.00000E+00     0   0.143E-10
 102 F= -.65920491E+02 E0= -.65916118E+02  d E =0.101863E-09
quench:  g(F)=  0.000E+00 g(S)=  0.000E+00 dE (1.order)= 0.000E+00
 bond charge predicted
       N       E                     dE             d eps       ncg     rms          rms(c)
DAV:   1    -0.659204911460E+02   -0.14697E-08    0.12379E-10    84   0.171E-10    0.335E-10
RMM:   2    -0.659204911451E+02    0.91859E-09    0.00000E+00     0   0.190E-10
 103 F= -.65920491E+02 E0= -.65916118E+02  d E =0.545697E-11
quench:  g(F)=  0.000E+00 g(S)=  0.000E+00 dE (1.order)= 0.000E+00
 bond charge predicted
       N       E                     dE             d eps       ncg     rms          rms(c)
DAV:   1    -0.659204911454E+02    0.61846E-09    0.68156E-11    84   0.216E-10    0.235E-10
RMM:   2    -0.659204911451E+02    0.29831E-09    0.00000E+00     0   0.177E-10
 104 F= -.65920491E+02 E0= -.65916118E+02  d E =-.181899E-11
quench:  g(F)=  0.000E+00 g(S)=  0.000E+00 dE (1.order)= 0.000E+00
 bond charge predicted
       N       E                     dE             d eps       ncg     rms          rms(c)
DAV:   1    -0.659204911452E+02    0.19463E-09    0.14082E-10    84   0.223E-10    0.330E-10
RMM:   2    -0.659204911452E+02    0.54570E-10    0.00000E+00     0   0.235E-10
 105 F= -.65920491E+02 E0= -.65916118E+02  d E =-.491127E-10
quench:  g(F)=  0.000E+00 g(S)=  0.000E+00 dE (1.order)= 0.000E+00
 bond charge predicted
       N       E                     dE             d eps       ncg     rms          rms(c)
DAV:   1    -0.659204911447E+02    0.57298E-09    0.67007E-11    84   0.269E-10    0.407E-10
RMM:   2    -0.659204911451E+02   -0.43292E-09    0.00000E+00     0   0.200E-10
 106 F= -.65920491E+02 E0= -.65916118E+02  d E =0.854925E-10
quench:  g(F)=  0.000E+00 g(S)=  0.000E+00 dE (1.order)= 0.000E+00
 bond charge predicted
       N       E                     dE             d eps       ncg     rms          rms(c)
DAV:   1    -0.659204911444E+02    0.26921E-09    0.99152E-11    84   0.270E-10    0.302E-10
RMM:   2    -0.659204911451E+02   -0.71304E-09    0.00000E+00     0   0.216E-10
 107 F= -.65920491E+02 E0= -.65916118E+02  d E =-.109139E-10
quench:  g(F)=  0.000E+00 g(S)=  0.000E+00 dE (1.order)= 0.000E+00
 bond charge predicted
       N       E                     dE             d eps       ncg     rms          rms(c)
DAV:   1    -0.659204911461E+02   -0.17171E-08    0.65904E-12    84   0.276E-10    0.198E-10
RMM:   2    -0.659204911452E+02    0.91677E-09    0.00000E+00     0   0.154E-10
 108 F= -.65920491E+02 E0= -.65916118E+02  d E =-.873115E-10
quench:  g(F)=  0.000E+00 g(S)=  0.000E+00 dE (1.order)= 0.000E+00
 bond charge predicted
       N       E                     dE             d eps       ncg     rms          rms(c)
DAV:   1    -0.659204911448E+02    0.13406E-08    0.12487E-10    84   0.167E-10    0.250E-10
RMM:   2    -0.659204911452E+02   -0.39108E-09    0.00000E+00     0   0.245E-10
 109 F= -.65920491E+02 E0= -.65916118E+02  d E =0.327418E-10
quench:  g(F)=  0.000E+00 g(S)=  0.000E+00 dE (1.order)= 0.000E+00
 bond charge predicted
       N       E                     dE             d eps       ncg     rms          rms(c)
DAV:   1    -0.659204911451E+02   -0.32378E-09    0.12065E-10    84   0.211E-10    0.219E-10
RMM:   2    -0.659204911451E+02    0.29104E-10    0.00000E+00     0   0.132E-10
 110 F= -.65920491E+02 E0= -.65916118E+02  d E =0.964064E-10
quench:  g(F)=  0.000E+00 g(S)=  0.000E+00 dE (1.order)= 0.000E+00
 bond charge predicted
       N       E                     dE             d eps       ncg     rms          rms(c)
DAV:   1    -0.659204911455E+02   -0.44020E-09    0.10110E-10    84   0.173E-10    0.218E-10
RMM:   2    -0.659204911452E+02    0.35834E-09    0.00000E+00     0   0.202E-10
 111 F= -.65920491E+02 E0= -.65916118E+02  d E =-.110958E-09
quench:  g(F)=  0.000E+00 g(S)=  0.000E+00 dE (1.order)= 0.000E+00
 bond charge predicted
       N       E                     dE             d eps       ncg     rms          rms(c)
DAV:   1    -0.659204911448E+02    0.68576E-09    0.42816E-11    84   0.187E-10    0.370E-10
RMM:   2    -0.659204911451E+02   -0.26921E-09    0.00000E+00     0   0.217E-10
 112 F= -.65920491E+02 E0= -.65916118E+02  d E =0.582077E-10
quench:  g(F)=  0.000E+00 g(S)=  0.000E+00 dE (1.order)= 0.000E+00
 bond charge predicted
       N       E                     dE             d eps       ncg     rms          rms(c)
DAV:   1    -0.659204911453E+02   -0.48021E-09    0.61596E-11    84   0.312E-10    0.263E-10
RMM:   2    -0.659204911451E+02    0.19099E-09    0.00000E+00     0   0.199E-10
 113 F= -.65920491E+02 E0= -.65916118E+02  d E =-.200089E-10
quench:  g(F)=  0.000E+00 g(S)=  0.000E+00 dE (1.order)= 0.000E+00
 bond charge predicted
       N       E                     dE             d eps       ncg     rms          rms(c)
DAV:   1    -0.659204911447E+02    0.62028E-09    0.86347E-11    84   0.216E-10    0.283E-10
RMM:   2    -0.659204911452E+02   -0.51296E-09    0.00000E+00     0   0.211E-10
 114 F= -.65920491E+02 E0= -.65916118E+02  d E =-.836735E-10
quench:  g(F)=  0.000E+00 g(S)=  0.000E+00 dE (1.order)= 0.000E+00
 bond charge predicted
       N       E                     dE             d eps       ncg     rms          rms(c)
DAV:   1    -0.659204911451E+02   -0.35834E-09    0.14052E-10    84   0.227E-10    0.163E-10
RMM:   2    -0.659204911451E+02   -0.20009E-10    0.00000E+00     0   0.166E-10
 115 F= -.65920491E+02 E0= -.65916118E+02  d E =0.134605E-09
quench:  g(F)=  0.000E+00 g(S)=  0.000E+00 dE (1.order)= 0.000E+00
 bond charge predicted
       N       E                     dE             d eps       ncg     rms          rms(c)
DAV:   1    -0.659204911452E+02   -0.16553E-09    0.91679E-11    84   0.182E-10    0.104E-10
RMM:   2    -0.659204911450E+02    0.18372E-09    0.00000E+00     0   0.118E-10
 116 F= -.65920491E+02 E0= -.65916118E+02  d E =0.381988E-10
quench:  g(F)=  0.000E+00 g(S)=  0.000E+00 dE (1.order)= 0.000E+00
 bond charge predicted
       N       E                     dE             d eps       ncg     rms          rms(c)
DAV:   1    -0.659204911456E+02   -0.32742E-09    0.10548E-10    84   0.154E-10    0.392E-10
RMM:   2    -0.659204911450E+02    0.51841E-09    0.00000E+00     0   0.210E-10
 117 F= -.65920491E+02 E0= -.65916118E+02  d E =0.727596E-11
quench:  g(F)=  0.000E+00 g(S)=  0.000E+00 dE (1.order)= 0.000E+00
 bond charge predicted
       N       E                     dE             d eps       ncg     rms          rms(c)
DAV:   1    -0.659204911457E+02   -0.15280E-09    0.65166E-11    84   0.260E-10    0.299E-10
RMM:   2    -0.659204911452E+02    0.55297E-09    0.00000E+00     0   0.196E-10
 118 F= -.65920491E+02 E0= -.65916118E+02  d E =-.118234E-09
quench:  g(F)=  0.000E+00 g(S)=  0.000E+00 dE (1.order)= 0.000E+00
 bond charge predicted
       N       E                     dE             d eps       ncg     rms          rms(c)
DAV:   1    -0.659204911446E+02    0.11350E-08    0.92929E-11    84   0.221E-10    0.197E-10
RMM:   2    -0.659204911452E+02   -0.60390E-09    0.00000E+00     0   0.166E-10
 119 F= -.65920491E+02 E0= -.65916118E+02  d E =-.218279E-10
quench:  g(F)=  0.000E+00 g(S)=  0.000E+00 dE (1.order)= 0.000E+00
 bond charge predicted
       N       E                     dE             d eps       ncg     rms          rms(c)
DAV:   1    -0.659204911457E+02   -0.11078E-08    0.15581E-10    84   0.181E-10    0.193E-10
RMM:   2    -0.659204911451E+02    0.58026E-09    0.00000E+00     0   0.124E-10
 120 F= -.65920491E+02 E0= -.65916118E+02  d E =0.763976E-10
quench:  g(F)=  0.000E+00 g(S)=  0.000E+00 dE (1.order)= 0.000E+00
 bond charge predicted
       N       E                     dE             d eps       ncg     rms          rms(c)
DAV:   1    -0.659204911444E+02    0.12533E-08    0.11936E-10    84   0.145E-10    0.142E-10
RMM:   2    -0.659204911452E+02   -0.76579E-09    0.00000E+00     0   0.107E-10
 121 F= -.65920491E+02 E0= -.65916118E+02  d E =-.927685E-10
quench:  g(F)=  0.000E+00 g(S)=  0.000E+00 dE (1.order)= 0.000E+00
 bond charge predicted
       N       E                     dE             d eps       ncg     rms          rms(c)
DAV:   1    -0.659204911455E+02   -0.10768E-08    0.81453E-11    84   0.108E-10    0.165E-10
RMM:   2    -0.659204911451E+02    0.37835E-09    0.00000E+00     0   0.133E-10
 122 F= -.65920491E+02 E0= -.65916118E+02  d E =0.673026E-10
quench:  g(F)=  0.000E+00 g(S)=  0.000E+00 dE (1.order)= 0.000E+00
 bond charge predicted
       N       E                     dE             d eps       ncg     rms          rms(c)
DAV:   1    -0.659204911450E+02    0.47658E-09    0.63963E-11    84   0.141E-10    0.203E-10
RMM:   2    -0.659204911451E+02   -0.11460E-09    0.00000E+00     0   0.169E-10
 123 F= -.65920491E+02 E0= -.65916118E+02  d E =-.163709E-10
quench:  g(F)=  0.000E+00 g(S)=  0.000E+00 dE (1.order)= 0.000E+00
 bond charge predicted
       N       E                     dE             d eps       ncg     rms          rms(c)
DAV:   1    -0.659204911447E+02    0.30013E-09    0.91787E-11    84   0.158E-10    0.152E-10
RMM:   2    -0.659204911452E+02   -0.45657E-09    0.00000E+00     0   0.109E-10
 124 F= -.65920491E+02 E0= -.65916118E+02  d E =-.418368E-10
quench:  g(F)=  0.000E+00 g(S)=  0.000E+00 dE (1.order)= 0.000E+00
 bond charge predicted
       N       E                     dE             d eps       ncg     rms          rms(c)
DAV:   1    -0.659204911450E+02   -0.29468E-09    0.64116E-11    84   0.133E-10    0.345E-10
RMM:   2    -0.659204911451E+02   -0.10004E-09    0.00000E+00     0   0.190E-10
 125 F= -.65920491E+02 E0= -.65916118E+02  d E =0.618456E-10
quench:  g(F)=  0.000E+00 g(S)=  0.000E+00 dE (1.order)= 0.000E+00
 bond charge predicted
       N       E                     dE             d eps       ncg     rms          rms(c)
DAV:   1    -0.659204911451E+02   -0.11278E-09    0.96367E-11    84   0.262E-10    0.212E-10
RMM:   2    -0.659204911450E+02    0.85493E-10    0.00000E+00     0   0.149E-10
 126 F= -.65920491E+02 E0= -.65916118E+02  d E =0.727596E-10
quench:  g(F)=  0.000E+00 g(S)=  0.000E+00 dE (1.order)= 0.000E+00
 bond charge predicted
       N       E                     dE             d eps       ncg     rms          rms(c)
DAV:   1    -0.659204911455E+02   -0.36925E-09    0.56025E-11    84   0.176E-10    0.278E-10
RMM:   2    -0.659204911452E+02    0.28740E-09    0.00000E+00     0   0.176E-10
 127 F= -.65920491E+02 E0= -.65916118E+02  d E =-.167347E-09
quench:  g(F)=  0.000E+00 g(S)=  0.000E+00 dE (1.order)= 0.000E+00
 bond charge predicted
       N       E                     dE             d eps       ncg     rms          rms(c)
DAV:   1    -0.659204911447E+02    0.78580E-09    0.10745E-10    84   0.209E-10    0.239E-10
RMM:   2    -0.659204911452E+02   -0.48203E-09    0.00000E+00     0   0.163E-10
 128 F= -.65920491E+02 E0= -.65916118E+02  d E =0.163709E-10
quench:  g(F)=  0.000E+00 g(S)=  0.000E+00 dE (1.order)= 0.000E+00
 bond charge predicted
       N       E                     dE             d eps       ncg     rms          rms(c)
DAV:   1    -0.659204911451E+02   -0.35288E-09    0.10530E-10    84   0.185E-10    0.229E-10
RMM:   2    -0.659204911451E+02   -0.63665E-10    0.00000E+00     0   0.175E-10
 129 F= -.65920491E+02 E0= -.65916118E+02  d E =0.654836E-10
quench:  g(F)=  0.000E+00 g(S)=  0.000E+00 dE (1.order)= 0.000E+00
 bond charge predicted
       N       E                     dE             d eps       ncg     rms          rms(c)
DAV:   1    -0.659204911456E+02   -0.50932E-09    0.14729E-10    84   0.149E-10    0.237E-10
RMM:   2    -0.659204911452E+02    0.38563E-09    0.00000E+00     0   0.200E-10
 130 F= -.65920491E+02 E0= -.65916118E+02  d E =-.600267E-10
quench:  g(F)=  0.000E+00 g(S)=  0.000E+00 dE (1.order)= 0.000E+00
 bond charge predicted
       N       E                     dE             d eps       ncg     rms          rms(c)
DAV:   1    -0.659204911452E+02    0.34925E-09    0.39710E-11    84   0.220E-10    0.253E-10
RMM:   2    -0.659204911452E+02    0.58208E-10    0.00000E+00     0   0.158E-10
 131 F= -.65920491E+02 E0= -.65916118E+02  d E =0.218279E-10
quench:  g(F)=  0.000E+00 g(S)=  0.000E+00 dE (1.order)= 0.000E+00
 bond charge predicted
       N       E                     dE             d eps       ncg     rms          rms(c)
DAV:   1    -0.659204911447E+02    0.48567E-09    0.84727E-11    84   0.185E-10    0.435E-10
RMM:   2    -0.659204911452E+02   -0.46748E-09    0.00000E+00     0   0.238E-10
 132 F= -.65920491E+02 E0= -.65916118E+02  d E =-.400178E-10
quench:  g(F)=  0.000E+00 g(S)=  0.000E+00 dE (1.order)= 0.000E+00
 bond charge predicted
       N       E                     dE             d eps       ncg     rms          rms(c)
DAV:   1    -0.659204911449E+02   -0.19827E-09    0.10772E-10    84   0.320E-10    0.160E-10
RMM:   2    -0.659204911451E+02   -0.19827E-09    0.00000E+00     0   0.134E-10
 133 F= -.65920491E+02 E0= -.65916118E+02  d E =0.709406E-10
quench:  g(F)=  0.000E+00 g(S)=  0.000E+00 dE (1.order)= 0.000E+00
 bond charge predicted
       N       E                     dE             d eps       ncg     rms          rms(c)
DAV:   1    -0.659204911449E+02    0.72760E-11    0.13859E-10    84   0.166E-10    0.298E-10
RMM:   2    -0.659204911451E+02   -0.20918E-09    0.00000E+00     0   0.147E-10
 134 F= -.65920491E+02 E0= -.65916118E+02  d E =-.363798E-11
quench:  g(F)=  0.000E+00 g(S)=  0.000E+00 dE (1.order)= 0.000E+00
 bond charge predicted
       N       E                     dE             d eps       ncg     rms          rms(c)
DAV:   1    -0.659204911452E+02   -0.26739E-09    0.10885E-10    84   0.217E-10    0.263E-10
RMM:   2    -0.659204911451E+02    0.81855E-10    0.00000E+00     0   0.172E-10
 135 F= -.65920491E+02 E0= -.65916118E+02  d E =0.236469E-10
quench:  g(F)=  0.000E+00 g(S)=  0.000E+00 dE (1.order)= 0.000E+00
 bond charge predicted
       N       E                     dE             d eps       ncg     rms          rms(c)
DAV:   1    -0.659204911447E+02    0.46930E-09    0.39723E-11    84   0.223E-10    0.173E-10
RMM:   2    -0.659204911451E+02   -0.41109E-09    0.00000E+00     0   0.148E-10
 136 F= -.65920491E+02 E0= -.65916118E+02  d E =-.236469E-10
quench:  g(F)=  0.000E+00 g(S)=  0.000E+00 dE (1.order)= 0.000E+00
 bond charge predicted
       N       E                     dE             d eps       ncg     rms          rms(c)
DAV:   1    -0.659204911448E+02   -0.21828E-10    0.10372E-10    84   0.140E-10    0.199E-10
RMM:   2    -0.659204911452E+02   -0.39472E-09    0.00000E+00     0   0.183E-10
 137 F= -.65920491E+02 E0= -.65916118E+02  d E =-.545697E-11
quench:  g(F)=  0.000E+00 g(S)=  0.000E+00 dE (1.order)= 0.000E+00
 bond charge predicted
       N       E                     dE             d eps       ncg     rms          rms(c)
DAV:   1    -0.659204911455E+02   -0.73487E-09    0.12951E-10    84   0.172E-10    0.342E-10
RMM:   2    -0.659204911451E+02    0.35652E-09    0.00000E+00     0   0.196E-10
 138 F= -.65920491E+02 E0= -.65916118E+02  d E =0.163709E-10
quench:  g(F)=  0.000E+00 g(S)=  0.000E+00 dE (1.order)= 0.000E+00
 bond charge predicted
       N       E                     dE             d eps       ncg     rms          rms(c)
DAV:   1    -0.659204911449E+02    0.54570E-09    0.81467E-12    84   0.257E-10    0.222E-10
RMM:   2    -0.659204911451E+02   -0.12733E-09    0.00000E+00     0   0.142E-10
 139 F= -.65920491E+02 E0= -.65916118E+02  d E =0.618456E-10
quench:  g(F)=  0.000E+00 g(S)=  0.000E+00 dE (1.order)= 0.000E+00
 bond charge predicted
       N       E                     dE             d eps       ncg     rms          rms(c)
DAV:   1    -0.659204911452E+02   -0.20736E-09    0.12126E-10    84   0.163E-10    0.173E-10
RMM:   2    -0.659204911451E+02    0.10186E-09    0.00000E+00     0   0.137E-10
 140 F= -.65920491E+02 E0= -.65916118E+02  d E =0.218279E-10
quench:  g(F)=  0.000E+00 g(S)=  0.000E+00 dE (1.order)= 0.000E+00
 bond charge predicted
       N       E                     dE             d eps       ncg     rms          rms(c)
DAV:   1    -0.659204911454E+02   -0.24738E-09    0.13230E-10    84   0.140E-10    0.282E-10
RMM:   2    -0.659204911451E+02    0.30377E-09    0.00000E+00     0   0.178E-10
 141 F= -.65920491E+02 E0= -.65916118E+02  d E =-.454747E-10
quench:  g(F)=  0.000E+00 g(S)=  0.000E+00 dE (1.order)= 0.000E+00
 bond charge predicted
       N       E                     dE             d eps       ncg     rms          rms(c)
DAV:   1    -0.659204911452E+02    0.24374E-09    0.11831E-10    84   0.185E-10    0.162E-10
RMM:   2    -0.659204911451E+02    0.29104E-10    0.00000E+00     0   0.966E-11
 142 F= -.65920491E+02 E0= -.65916118E+02  d E =-.309228E-10
quench:  g(F)=  0.000E+00 g(S)=  0.000E+00 dE (1.order)= 0.000E+00
 bond charge predicted
       N       E                     dE             d eps       ncg     rms          rms(c)
DAV:   1    -0.659204911460E+02   -0.88585E-09    0.93960E-11    84   0.118E-10    0.241E-10
RMM:   2    -0.659204911451E+02    0.98407E-09    0.00000E+00     0   0.151E-10
 143 F= -.65920491E+02 E0= -.65916118E+02  d E =0.691216E-10
quench:  g(F)=  0.000E+00 g(S)=  0.000E+00 dE (1.order)= 0.000E+00
 bond charge predicted
       N       E                     dE             d eps       ncg     rms          rms(c)
DAV:   1    -0.659204911455E+02    0.52933E-09    0.18076E-10    84   0.184E-10    0.352E-10
RMM:   2    -0.659204911451E+02    0.40563E-09    0.00000E+00     0   0.192E-10
 144 F= -.65920491E+02 E0= -.65916118E+02  d E =-.491127E-10
quench:  g(F)=  0.000E+00 g(S)=  0.000E+00 dE (1.order)= 0.000E+00
 bond charge predicted
       N       E                     dE             d eps       ncg     rms          rms(c)
DAV:   1    -0.659204911452E+02    0.32378E-09    0.38308E-11    84   0.279E-10    0.113E-10
RMM:   2    -0.659204911451E+02    0.52751E-10    0.00000E+00     0   0.109E-10
 145 F= -.65920491E+02 E0= -.65916118E+02  d E =-.291038E-10
quench:  g(F)=  0.000E+00 g(S)=  0.000E+00 dE (1.order)= 0.000E+00
 bond charge predicted
       N       E                     dE             d eps       ncg     rms          rms(c)
DAV:   1    -0.659204911452E+02   -0.16371E-10    0.83482E-11    84   0.152E-10    0.268E-10
RMM:   2    -0.659204911451E+02    0.12733E-09    0.00000E+00     0   0.171E-10
 146 F= -.65920491E+02 E0= -.65916118E+02  d E =0.582077E-10
quench:  g(F)=  0.000E+00 g(S)=  0.000E+00 dE (1.order)= 0.000E+00
 bond charge predicted
       N       E                     dE             d eps       ncg     rms          rms(c)
DAV:   1    -0.659204911448E+02    0.38199E-09    0.13502E-10    84   0.205E-10    0.176E-10
RMM:   2    -0.659204911452E+02   -0.33106E-09    0.00000E+00     0   0.165E-10
 147 F= -.65920491E+02 E0= -.65916118E+02  d E =-.763976E-10
quench:  g(F)=  0.000E+00 g(S)=  0.000E+00 dE (1.order)= 0.000E+00
 bond charge predicted
       N       E                     dE             d eps       ncg     rms          rms(c)
DAV:   1    -0.659204911452E+02   -0.35288E-09    0.64254E-11    84   0.176E-10    0.184E-10
RMM:   2    -0.659204911451E+02    0.58208E-10    0.00000E+00     0   0.176E-10
 148 F= -.65920491E+02 E0= -.65916118E+02  d E =0.363798E-10
quench:  g(F)=  0.000E+00 g(S)=  0.000E+00 dE (1.order)= 0.000E+00
 bond charge predicted
       N       E                     dE             d eps       ncg     rms          rms(c)
DAV:   1    -0.659204911453E+02   -0.74579E-10    0.43967E-11    84   0.185E-10    0.354E-10
RMM:   2    -0.659204911451E+02    0.10550E-09    0.00000E+00     0   0.165E-10
 149 F= -.65920491E+02 E0= -.65916118E+02  d E =-.272848E-10
quench:  g(F)=  0.000E+00 g(S)=  0.000E+00 dE (1.order)= 0.000E+00
 bond charge predicted
       N       E                     dE             d eps       ncg     rms          rms(c)
DAV:   1    -0.659204911455E+02   -0.24374E-09    0.93299E-11    84   0.214E-10    0.277E-10
RMM:   2    -0.659204911452E+02    0.30013E-09    0.00000E+00     0   0.180E-10
 150 F= -.65920491E+02 E0= -.65916118E+02  d E =-.491127E-10
quench:  g(F)=  0.000E+00 g(S)=  0.000E+00 dE (1.order)= 0.000E+00
 bond charge predicted
       N       E                     dE             d eps       ncg     rms          rms(c)
DAV:   1    -0.659204911447E+02    0.79490E-09    0.82656E-11    84   0.226E-10    0.159E-10
RMM:   2    -0.659204911451E+02   -0.41109E-09    0.00000E+00     0   0.161E-10
 151 F= -.65920491E+02 E0= -.65916118E+02  d E =0.836735E-10
quench:  g(F)=  0.000E+00 g(S)=  0.000E+00 dE (1.order)= 0.000E+00
 bond charge predicted
       N       E                     dE             d eps       ncg     rms          rms(c)
DAV:   1    -0.659204911456E+02   -0.90404E-09    0.11685E-10    84   0.139E-10    0.377E-10
RMM:   2    -0.659204911451E+02    0.45839E-09    0.00000E+00     0   0.203E-10
 152 F= -.65920491E+02 E0= -.65916118E+02  d E =-.345608E-10
quench:  g(F)=  0.000E+00 g(S)=  0.000E+00 dE (1.order)= 0.000E+00
 bond charge predicted
       N       E                     dE             d eps       ncg     rms          rms(c)
DAV:   1    -0.659204911447E+02    0.92950E-09    0.53398E-11    84   0.241E-10    0.237E-10
RMM:   2    -0.659204911451E+02   -0.42928E-09    0.00000E+00     0   0.169E-10
 153 F= -.65920491E+02 E0= -.65916118E+02  d E =0.418368E-10
quench:  g(F)=  0.000E+00 g(S)=  0.000E+00 dE (1.order)= 0.000E+00
 bond charge predicted
       N       E                     dE             d eps       ncg     rms          rms(c)
DAV:   1    -0.659204911453E+02   -0.66211E-09    0.78830E-11    84   0.201E-10    0.953E-11
RMM:   2    -0.659204911451E+02    0.19463E-09    0.00000E+00     0   0.126E-10
 154 F= -.65920491E+02 E0= -.65916118E+02  d E =-.381988E-10
quench:  g(F)=  0.000E+00 g(S)=  0.000E+00 dE (1.order)= 0.000E+00
 bond charge predicted
       N       E                     dE             d eps       ncg     rms          rms(c)
DAV:   1    -0.659204911446E+02    0.77671E-09    0.58741E-11    84   0.166E-10    0.154E-10
RMM:   2    -0.659204911451E+02   -0.51659E-09    0.00000E+00     0   0.108E-10
 155 F= -.65920491E+02 E0= -.65916118E+02  d E =0.654836E-10
quench:  g(F)=  0.000E+00 g(S)=  0.000E+00 dE (1.order)= 0.000E+00
 bond charge predicted
       N       E                     dE             d eps       ncg     rms          rms(c)
DAV:   1    -0.659204911452E+02   -0.64938E-09    0.98446E-11    84   0.126E-10    0.116E-10
RMM:   2    -0.659204911451E+02    0.10004E-09    0.00000E+00     0   0.116E-10
 156 F= -.65920491E+02 E0= -.65916118E+02  d E =-.327418E-10
quench:  g(F)=  0.000E+00 g(S)=  0.000E+00 dE (1.order)= 0.000E+00
 bond charge predicted
       N       E                     dE             d eps       ncg     rms          rms(c)
DAV:   1    -0.659204911451E+02    0.11096E-09    0.41712E-11    84   0.157E-10    0.238E-10
RMM:   2    -0.659204911451E+02   -0.18190E-11    0.00000E+00     0   0.146E-10
 157 F= -.65920491E+02 E0= -.65916118E+02  d E =0.909495E-11
quench:  g(F)=  0.000E+00 g(S)=  0.000E+00 dE (1.order)= 0.000E+00
 bond charge predicted
       N       E                     dE             d eps       ncg     rms          rms(c)
DAV:   1    -0.659204911457E+02   -0.59845E-09    0.79436E-11    84   0.183E-10    0.296E-10
RMM:   2    -0.659204911451E+02    0.60390E-09    0.00000E+00     0   0.174E-10
 158 F= -.65920491E+02 E0= -.65916118E+02  d E =0.727596E-11
quench:  g(F)=  0.000E+00 g(S)=  0.000E+00 dE (1.order)= 0.000E+00
 bond charge predicted
       N       E                     dE             d eps       ncg     rms          rms(c)
DAV:   1    -0.659204911451E+02    0.57662E-09    0.14989E-10    84   0.196E-10    0.321E-10
RMM:   2    -0.659204911450E+02    0.80036E-10    0.00000E+00     0   0.168E-10
 159 F= -.65920491E+02 E0= -.65916118E+02  d E =0.527507E-10
quench:  g(F)=  0.000E+00 g(S)=  0.000E+00 dE (1.order)= 0.000E+00
 bond charge predicted
       N       E                     dE             d eps       ncg     rms          rms(c)
DAV:   1    -0.659204911457E+02   -0.57662E-09    0.11098E-10    84   0.208E-10    0.410E-10
RMM:   2    -0.659204911452E+02    0.48203E-09    0.00000E+00     0   0.208E-10
 160 F= -.65920491E+02 E0= -.65916118E+02  d E =-.174623E-09
quench:  g(F)=  0.000E+00 g(S)=  0.000E+00 dE (1.order)= 0.000E+00
 bond charge predicted
       N       E                     dE             d eps       ncg     rms          rms(c)
DAV:   1    -0.659204911447E+02    0.10132E-08    0.75911E-11    84   0.262E-10    0.224E-10
RMM:   2    -0.659204911452E+02   -0.48385E-09    0.00000E+00     0   0.196E-10
 161 F= -.65920491E+02 E0= -.65916118E+02  d E =0.472937E-10
quench:  g(F)=  0.000E+00 g(S)=  0.000E+00 dE (1.order)= 0.000E+00
 bond charge predicted
       N       E                     dE             d eps       ncg     rms          rms(c)
DAV:   1    -0.659204911454E+02   -0.68212E-09    0.12090E-10    84   0.200E-10    0.211E-10
RMM:   2    -0.659204911450E+02    0.32924E-09    0.00000E+00     0   0.151E-10
 162 F= -.65920491E+02 E0= -.65916118E+02  d E =0.130967E-09
quench:  g(F)=  0.000E+00 g(S)=  0.000E+00 dE (1.order)= 0.000E+00
 bond charge predicted
       N       E                     dE             d eps       ncg     rms          rms(c)
DAV:   1    -0.659204911450E+02    0.34561E-09    0.10925E-10    84   0.198E-10    0.164E-10
RMM:   2    -0.659204911451E+02   -0.10914E-09    0.00000E+00     0   0.149E-10
 163 F= -.65920491E+02 E0= -.65916118E+02  d E =-.927685E-10
quench:  g(F)=  0.000E+00 g(S)=  0.000E+00 dE (1.order)= 0.000E+00
 bond charge predicted
       N       E                     dE             d eps       ncg     rms          rms(c)
DAV:   1    -0.659204911448E+02    0.24011E-09    0.85946E-11    84   0.145E-10    0.133E-10
RMM:   2    -0.659204911452E+02   -0.41837E-09    0.00000E+00     0   0.121E-10
 164 F= -.65920491E+02 E0= -.65916118E+02  d E =-.691216E-10
quench:  g(F)=  0.000E+00 g(S)=  0.000E+00 dE (1.order)= 0.000E+00
 bond charge predicted
       N       E                     dE             d eps       ncg     rms          rms(c)
DAV:   1    -0.659204911446E+02    0.18917E-09    0.80650E-11    84   0.122E-10    0.207E-10
RMM:   2    -0.659204911452E+02   -0.59663E-09    0.00000E+00     0   0.151E-10
 165 F= -.65920491E+02 E0= -.65916118E+02  d E =0.109139E-10
quench:  g(F)=  0.000E+00 g(S)=  0.000E+00 dE (1.order)= 0.000E+00
 bond charge predicted
       N       E                     dE             d eps       ncg     rms          rms(c)
DAV:   1    -0.659204911457E+02   -0.11423E-08    0.73610E-11    84   0.149E-10    0.436E-10
RMM:   2    -0.659204911452E+02    0.56752E-09    0.00000E+00     0   0.226E-10
 166 F= -.65920491E+02 E0= -.65916118E+02  d E =0.218279E-10
quench:  g(F)=  0.000E+00 g(S)=  0.000E+00 dE (1.order)= 0.000E+00
 bond charge predicted
       N       E                     dE             d eps       ncg     rms          rms(c)
DAV:   1    -0.659204911446E+02    0.11660E-08    0.87843E-11    84   0.319E-10    0.428E-10
RMM:   2    -0.659204911451E+02   -0.48385E-09    0.00000E+00     0   0.247E-10
 167 F= -.65920491E+02 E0= -.65916118E+02  d E =0.114596E-09
quench:  g(F)=  0.000E+00 g(S)=  0.000E+00 dE (1.order)= 0.000E+00
 bond charge predicted
       N       E                     dE             d eps       ncg     rms          rms(c)
DAV:   1    -0.659204911452E+02   -0.62573E-09    0.45958E-11    84   0.318E-10    0.416E-10
RMM:   2    -0.659204911452E+02    0.90949E-11    0.00000E+00     0   0.273E-10
 168 F= -.65920491E+02 E0= -.65916118E+02  d E =-.132786E-09
quench:  g(F)=  0.000E+00 g(S)=  0.000E+00 dE (1.order)= 0.000E+00
 bond charge predicted
       N       E                     dE             d eps       ncg     rms          rms(c)
DAV:   1    -0.659204911459E+02   -0.69849E-09    0.83416E-11    84   0.320E-10    0.176E-10
RMM:   2    -0.659204911451E+02    0.82036E-09    0.00000E+00     0   0.149E-10
 169 F= -.65920491E+02 E0= -.65916118E+02  d E =0.112777E-09
quench:  g(F)=  0.000E+00 g(S)=  0.000E+00 dE (1.order)= 0.000E+00
 bond charge predicted
       N       E                     dE             d eps       ncg     rms          rms(c)
DAV:   1    -0.659204911448E+02    0.11296E-08    0.71367E-11    84   0.170E-10    0.269E-10
RMM:   2    -0.659204911451E+02   -0.33833E-09    0.00000E+00     0   0.195E-10
 170 F= -.65920491E+02 E0= -.65916118E+02  d E =-.291038E-10
quench:  g(F)=  0.000E+00 g(S)=  0.000E+00 dE (1.order)= 0.000E+00
 bond charge predicted
       N       E                     dE             d eps       ncg     rms          rms(c)
DAV:   1    -0.659204911449E+02   -0.16917E-09    0.12804E-10    84   0.181E-10    0.223E-10
RMM:   2    -0.659204911452E+02   -0.25648E-09    0.00000E+00     0   0.137E-10
 171 F= -.65920491E+02 E0= -.65916118E+02  d E =-.873115E-10
quench:  g(F)=  0.000E+00 g(S)=  0.000E+00 dE (1.order)= 0.000E+00
 bond charge predicted
       N       E                     dE             d eps       ncg     rms          rms(c)
DAV:   1    -0.659204911455E+02   -0.55479E-09    0.85010E-11    84   0.203E-10    0.218E-10
RMM:   2    -0.659204911452E+02    0.31469E-09    0.00000E+00     0   0.139E-10
 172 F= -.65920491E+02 E0= -.65916118E+02  d E =0.163709E-10
quench:  g(F)=  0.000E+00 g(S)=  0.000E+00 dE (1.order)= 0.000E+00
 bond charge predicted
       N       E                     dE             d eps       ncg     rms          rms(c)
DAV:   1    -0.659204911451E+02    0.40200E-09    0.72864E-11    84   0.177E-10    0.420E-10
RMM:   2    -0.659204911451E+02   -0.10914E-10    0.00000E+00     0   0.218E-10
 173 F= -.65920491E+02 E0= -.65916118E+02  d E =0.763976E-10
quench:  g(F)=  0.000E+00 g(S)=  0.000E+00 dE (1.order)= 0.000E+00
 bond charge predicted
       N       E                     dE             d eps       ncg     rms          rms(c)
DAV:   1    -0.659204911449E+02    0.17462E-09    0.11193E-10    84   0.280E-10    0.357E-10
RMM:   2    -0.659204911451E+02   -0.20009E-09    0.00000E+00     0   0.192E-10
 174 F= -.65920491E+02 E0= -.65916118E+02  d E =-.145519E-10
quench:  g(F)=  0.000E+00 g(S)=  0.000E+00 dE (1.order)= 0.000E+00
 bond charge predicted
       N       E                     dE             d eps       ncg     rms          rms(c)
DAV:   1    -0.659204911447E+02    0.22555E-09    0.83085E-11    84   0.242E-10    0.223E-10
RMM:   2    -0.659204911451E+02   -0.43474E-09    0.00000E+00     0   0.139E-10
 175 F= -.65920491E+02 E0= -.65916118E+02  d E =-.909495E-11
quench:  g(F)=  0.000E+00 g(S)=  0.000E+00 dE (1.order)= 0.000E+00
 bond charge predicted
       N       E                     dE             d eps       ncg     rms          rms(c)
DAV:   1    -0.659204911450E+02   -0.34379E-09    0.92054E-11    84   0.170E-10    0.413E-10
RMM:   2    -0.659204911451E+02   -0.12005E-09    0.00000E+00     0   0.217E-10
 176 F= -.65920491E+02 E0= -.65916118E+02  d E =-.291038E-10
quench:  g(F)=  0.000E+00 g(S)=  0.000E+00 dE (1.order)= 0.000E+00
 bond charge predicted
       N       E                     dE             d eps       ncg     rms          rms(c)
DAV:   1    -0.659204911455E+02   -0.48931E-09    0.80818E-11    84   0.299E-10    0.318E-10
RMM:   2    -0.659204911451E+02    0.45475E-09    0.00000E+00     0   0.185E-10
 177 F= -.65920491E+02 E0= -.65916118E+02  d E =0.854925E-10
quench:  g(F)=  0.000E+00 g(S)=  0.000E+00 dE (1.order)= 0.000E+00
 bond charge predicted
       N       E                     dE             d eps       ncg     rms          rms(c)
DAV:   1    -0.659204911445E+02    0.10459E-08    0.16843E-10    84   0.240E-10    0.154E-10
RMM:   2    -0.659204911451E+02   -0.64028E-09    0.00000E+00     0   0.142E-10
 178 F= -.65920491E+02 E0= -.65916118E+02  d E =-.491127E-10
quench:  g(F)=  0.000E+00 g(S)=  0.000E+00 dE (1.order)= 0.000E+00
 bond charge predicted
       N       E                     dE             d eps       ncg     rms          rms(c)
DAV:   1    -0.659204911455E+02   -0.10514E-08    0.92188E-11    84   0.166E-10    0.190E-10
RMM:   2    -0.659204911451E+02    0.45657E-09    0.00000E+00     0   0.143E-10
 179 F= -.65920491E+02 E0= -.65916118E+02  d E =0.454747E-10
quench:  g(F)=  0.000E+00 g(S)=  0.000E+00 dE (1.order)= 0.000E+00
 bond charge predicted
       N       E                     dE             d eps       ncg     rms          rms(c)
DAV:   1    -0.659204911454E+02    0.92768E-10    0.89135E-11    84   0.159E-10    0.272E-10
RMM:   2    -0.659204911451E+02    0.29104E-09    0.00000E+00     0   0.183E-10
 180 F= -.65920491E+02 E0= -.65916118E+02  d E =-.727596E-10
quench:  g(F)=  0.000E+00 g(S)=  0.000E+00 dE (1.order)= 0.000E+00
 bond charge predicted
       N       E                     dE             d eps       ncg     rms          rms(c)
DAV:   1    -0.659204911455E+02   -0.78217E-10    0.64048E-11    84   0.204E-10    0.181E-10
RMM:   2    -0.659204911451E+02    0.39472E-09    0.00000E+00     0   0.131E-10
 181 F= -.65920491E+02 E0= -.65916118E+02  d E =0.254659E-10
quench:  g(F)=  0.000E+00 g(S)=  0.000E+00 dE (1.order)= 0.000E+00
 bond charge predicted
       N       E                     dE             d eps       ncg     rms          rms(c)
DAV:   1    -0.659204911448E+02    0.65847E-09    0.55378E-11    84   0.162E-10    0.349E-10
RMM:   2    -0.659204911451E+02   -0.30013E-09    0.00000E+00     0   0.202E-10
 182 F= -.65920491E+02 E0= -.65916118E+02  d E =-.363798E-10
quench:  g(F)=  0.000E+00 g(S)=  0.000E+00 dE (1.order)= 0.000E+00
 bond charge predicted
       N       E                     dE             d eps       ncg     rms          rms(c)
DAV:   1    -0.659204911453E+02   -0.49658E-09    0.31486E-11    84   0.260E-10    0.379E-10
RMM:   2    -0.659204911451E+02    0.26557E-09    0.00000E+00     0   0.215E-10
 183 F= -.65920491E+02 E0= -.65916118E+02  d E =0.691216E-10
quench:  g(F)=  0.000E+00 g(S)=  0.000E+00 dE (1.order)= 0.000E+00
 bond charge predicted
       N       E                     dE             d eps       ncg     rms          rms(c)
DAV:   1    -0.659204911448E+02    0.49658E-09    0.34028E-11    84   0.278E-10    0.252E-10
RMM:   2    -0.659204911451E+02   -0.24374E-09    0.00000E+00     0   0.178E-10
 184 F= -.65920491E+02 E0= -.65916118E+02  d E =-.127329E-10
quench:  g(F)=  0.000E+00 g(S)=  0.000E+00 dE (1.order)= 0.000E+00
 bond charge predicted
       N       E                     dE             d eps       ncg     rms          rms(c)
DAV:   1    -0.659204911449E+02   -0.40018E-10    0.73535E-11    84   0.245E-10    0.302E-10
RMM:   2    -0.659204911451E+02   -0.24556E-09    0.00000E+00     0   0.191E-10
 185 F= -.65920491E+02 E0= -.65916118E+02  d E =-.418368E-10
quench:  g(F)=  0.000E+00 g(S)=  0.000E+00 dE (1.order)= 0.000E+00
 bond charge predicted
       N       E                     dE             d eps       ncg     rms          rms(c)
DAV:   1    -0.659204911446E+02    0.28922E-09    0.96595E-11    84   0.204E-10    0.247E-10
RMM:   2    -0.659204911451E+02   -0.49658E-09    0.00000E+00     0   0.198E-10
 186 F= -.65920491E+02 E0= -.65916118E+02  d E =0.381988E-10
quench:  g(F)=  0.000E+00 g(S)=  0.000E+00 dE (1.order)= 0.000E+00
 bond charge predicted
       N       E                     dE             d eps       ncg     rms          rms(c)
DAV:   1    -0.659204911450E+02   -0.42928E-09    0.12395E-10    84   0.213E-10    0.226E-10
RMM:   2    -0.659204911452E+02   -0.15280E-09    0.00000E+00     0   0.182E-10
 187 F= -.65920491E+02 E0= -.65916118E+02  d E =-.854925E-10
[...]
 bond charge predicted
       N       E                     dE             d eps       ncg     rms          rms(c)
DAV:   1    -0.659204911449E+02   -0.32742E-10    0.76316E-11    84   0.235E-10    0.284E-10
RMM:   2    -0.659204911451E+02   -0.23101E-09    0.00000E+00     0   0.216E-10
 953 F= -.65920491E+02 E0= -.65916118E+02  d E =-.891305E-10
quench:  g(F)=  0.000E+00 g(S)=  0.000E+00 dE (1.order)= 0.000E+00
 bond charge predicted
       N       E                     dE             d eps       ncg     rms          rms(c)
DAV:   1    -0.659204911453E+02   -0.42382E-09    0.10430E-10    84   0.233E-10    0.333E-10
RMM:   2    -0.659204911451E+02    0.19645E-09    0.00000E+00     0   0.184E-10
 954 F= -.65920491E+02 E0= -.65916118E+02  d E =0.363798E-11
quench:  g(F)=  0.000E+00 g(S)=  0.000E+00 dE (1.order)= 0.000E+00
 bond charge predicted
       N       E                     dE             d eps       ncg     rms          rms(c)
DAV:   1    -0.659204911450E+02    0.29650E-09    0.69486E-11    84   0.244E-10    0.283E-10
RMM:   2    -0.659204911451E+02   -0.74579E-10    0.00000E+00     0   0.170E-10
 955 F= -.65920491E+02 E0= -.65916118E+02  d E =0.254659E-10
quench:  g(F)=  0.000E+00 g(S)=  0.000E+00 dE (1.order)= 0.000E+00
 bond charge predicted
       N       E                     dE             d eps       ncg     rms          rms(c)
DAV:   1    -0.659204911448E+02    0.24374E-09    0.65250E-11    84   0.234E-10    0.260E-10
RMM:   2    -0.659204911450E+02   -0.23829E-09    0.00000E+00     0   0.141E-10
 956 F= -.65920491E+02 E0= -.65916118E+02  d E =0.800355E-10
quench:  g(F)=  0.000E+00 g(S)=  0.000E+00 dE (1.order)= 0.000E+00
 bond charge predicted
       N       E                     dE             d eps       ncg     rms          rms(c)
DAV:   1    -0.659204911455E+02   -0.65120E-09    0.11675E-10    84   0.177E-10    0.106E-10
RMM:   2    -0.659204911451E+02    0.39472E-09    0.00000E+00     0   0.102E-10
 957 F= -.65920491E+02 E0= -.65916118E+02  d E =-.181899E-10
quench:  g(F)=  0.000E+00 g(S)=  0.000E+00 dE (1.order)= 0.000E+00
 bond charge predicted
       N       E                     dE             d eps       ncg     rms          rms(c)
DAV:   1    -0.659204911448E+02    0.64392E-09    0.10739E-10    84   0.128E-10    0.205E-10
RMM:   2    -0.659204911451E+02   -0.32560E-09    0.00000E+00     0   0.117E-10
 958 F= -.65920491E+02 E0= -.65916118E+02  d E =-.763976E-10
quench:  g(F)=  0.000E+00 g(S)=  0.000E+00 dE (1.order)= 0.000E+00
 bond charge predicted
       N       E                     dE             d eps       ncg     rms          rms(c)
DAV:   1    -0.659204911449E+02   -0.83674E-10    0.39770E-11    84   0.148E-10    0.295E-10
RMM:   2    -0.659204911451E+02   -0.19827E-09    0.00000E+00     0   0.163E-10
 959 F= -.65920491E+02 E0= -.65916118E+02  d E =0.436557E-10
quench:  g(F)=  0.000E+00 g(S)=  0.000E+00 dE (1.order)= 0.000E+00
 bond charge predicted
       N       E                     dE             d eps       ncg     rms          rms(c)
DAV:   1    -0.659204911449E+02    0.12733E-10    0.63904E-11    84   0.237E-10    0.155E-10
RMM:   2    -0.659204911451E+02   -0.20191E-09    0.00000E+00     0   0.133E-10
 960 F= -.65920491E+02 E0= -.65916118E+02  d E =0.909495E-11
quench:  g(F)=  0.000E+00 g(S)=  0.000E+00 dE (1.order)= 0.000E+00
 bond charge predicted
       N       E                     dE             d eps       ncg     rms          rms(c)
DAV:   1    -0.659204911457E+02   -0.83310E-09    0.11421E-10    84   0.144E-10    0.331E-10
RMM:   2    -0.659204911450E+02    0.66757E-09    0.00000E+00     0   0.198E-10
 961 F= -.65920491E+02 E0= -.65916118E+02  d E =0.363798E-10
quench:  g(F)=  0.000E+00 g(S)=  0.000E+00 dE (1.order)= 0.000E+00
 bond charge predicted
       N       E                     dE             d eps       ncg     rms          rms(c)
DAV:   1    -0.659204911458E+02   -0.11278E-09    0.12187E-10    84   0.263E-10    0.162E-10
RMM:   2    -0.659204911451E+02    0.73669E-09    0.00000E+00     0   0.165E-10
 962 F= -.65920491E+02 E0= -.65916118E+02  d E =-.436557E-10
quench:  g(F)=  0.000E+00 g(S)=  0.000E+00 dE (1.order)= 0.000E+00
 bond charge predicted
       N       E                     dE             d eps       ncg     rms          rms(c)
DAV:   1    -0.659204911453E+02    0.57116E-09    0.10144E-10    84   0.151E-10    0.473E-10
RMM:   2    -0.659204911451E+02    0.11278E-09    0.00000E+00     0   0.260E-10
 963 F= -.65920491E+02 E0= -.65916118E+02  d E =-.527507E-10
quench:  g(F)=  0.000E+00 g(S)=  0.000E+00 dE (1.order)= 0.000E+00
 bond charge predicted
       N       E                     dE             d eps       ncg     rms          rms(c)
DAV:   1    -0.659204911450E+02    0.30013E-09    0.83686E-11    84   0.329E-10    0.206E-10
RMM:   2    -0.659204911452E+02   -0.25102E-09    0.00000E+00     0   0.167E-10
 964 F= -.65920491E+02 E0= -.65916118E+02  d E =-.636646E-10
quench:  g(F)=  0.000E+00 g(S)=  0.000E+00 dE (1.order)= 0.000E+00
 bond charge predicted
       N       E                     dE             d eps       ncg     rms          rms(c)
DAV:   1    -0.659204911457E+02   -0.71486E-09    0.82705E-11    84   0.184E-10    0.258E-10
RMM:   2    -0.659204911451E+02    0.56934E-09    0.00000E+00     0   0.169E-10
 965 F= -.65920491E+02 E0= -.65916118E+02  d E =0.105501E-09
quench:  g(F)=  0.000E+00 g(S)=  0.000E+00 dE (1.order)= 0.000E+00
 bond charge predicted
       N       E                     dE             d eps       ncg     rms          rms(c)
DAV:   1    -0.659204911455E+02    0.13461E-09    0.89487E-11    84   0.191E-10    0.264E-10
RMM:   2    -0.659204911451E+02    0.40563E-09    0.00000E+00     0   0.153E-10
 966 F= -.65920491E+02 E0= -.65916118E+02  d E =-.291038E-10
quench:  g(F)=  0.000E+00 g(S)=  0.000E+00 dE (1.order)= 0.000E+00
 bond charge predicted
       N       E                     dE             d eps       ncg     rms          rms(c)
DAV:   1    -0.659204911452E+02    0.37835E-09    0.96096E-11    84   0.187E-10    0.199E-10
RMM:   2    -0.659204911451E+02    0.49113E-10    0.00000E+00     0   0.152E-10
 967 F= -.65920491E+02 E0= -.65916118E+02  d E =0.218279E-10
quench:  g(F)=  0.000E+00 g(S)=  0.000E+00 dE (1.order)= 0.000E+00
 bond charge predicted
       N       E                     dE             d eps       ncg     rms          rms(c)
DAV:   1    -0.659204911449E+02    0.29831E-09   -0.31133E-12    84   0.172E-10    0.292E-10
RMM:   2    -0.659204911451E+02   -0.26012E-09    0.00000E+00     0   0.170E-10
 968 F= -.65920491E+02 E0= -.65916118E+02  d E =-.109139E-10
quench:  g(F)=  0.000E+00 g(S)=  0.000E+00 dE (1.order)= 0.000E+00
 bond charge predicted
       N       E                     dE             d eps       ncg     rms          rms(c)
DAV:   1    -0.659204911452E+02   -0.34197E-09    0.75317E-11    84   0.182E-10    0.287E-10
RMM:   2    -0.659204911452E+02    0.00000E+00    0.00000E+00     0   0.199E-10
 969 F= -.65920491E+02 E0= -.65916118E+02  d E =-.818545E-10
quench:  g(F)=  0.000E+00 g(S)=  0.000E+00 dE (1.order)= 0.000E+00
 bond charge predicted
       N       E                     dE             d eps       ncg     rms          rms(c)
DAV:   1    -0.659204911447E+02    0.48931E-09    0.11615E-10    84   0.226E-10    0.251E-10
RMM:   2    -0.659204911452E+02   -0.44201E-09    0.00000E+00     0   0.178E-10
 970 F= -.65920491E+02 E0= -.65916118E+02  d E =0.472937E-10
quench:  g(F)=  0.000E+00 g(S)=  0.000E+00 dE (1.order)= 0.000E+00
 bond charge predicted
       N       E                     dE             d eps       ncg     rms          rms(c)
DAV:   1    -0.659204911453E+02   -0.58390E-09    0.78932E-11    84   0.190E-10    0.352E-10
RMM:   2    -0.659204911451E+02    0.24011E-09    0.00000E+00     0   0.197E-10
 971 F= -.65920491E+02 E0= -.65916118E+02  d E =0.982254E-10
quench:  g(F)=  0.000E+00 g(S)=  0.000E+00 dE (1.order)= 0.000E+00
 bond charge predicted
       N       E                     dE             d eps       ncg     rms          rms(c)
DAV:   1    -0.659204911454E+02   -0.15098E-09    0.44466E-11    84   0.262E-10    0.227E-10
RMM:   2    -0.659204911451E+02    0.30559E-09    0.00000E+00     0   0.160E-10
 972 F= -.65920491E+02 E0= -.65916118E+02  d E =-.854925E-10
quench:  g(F)=  0.000E+00 g(S)=  0.000E+00 dE (1.order)= 0.000E+00
 bond charge predicted
       N       E                     dE             d eps       ncg     rms          rms(c)
DAV:   1    -0.659204911453E+02    0.18736E-09    0.51995E-11    84   0.191E-10    0.446E-10
RMM:   2    -0.659204911451E+02    0.20191E-09    0.00000E+00     0   0.244E-10
 973 F= -.65920491E+02 E0= -.65916118E+02  d E =0.836735E-10
quench:  g(F)=  0.000E+00 g(S)=  0.000E+00 dE (1.order)= 0.000E+00
 bond charge predicted
       N       E                     dE             d eps       ncg     rms          rms(c)
DAV:   1    -0.659204911448E+02    0.44201E-09    0.68185E-11    84   0.311E-10    0.314E-10
RMM:   2    -0.659204911451E+02   -0.33106E-09    0.00000E+00     0   0.183E-10
 974 F= -.65920491E+02 E0= -.65916118E+02  d E =-.909495E-10
quench:  g(F)=  0.000E+00 g(S)=  0.000E+00 dE (1.order)= 0.000E+00
 bond charge predicted
       N       E                     dE             d eps       ncg     rms          rms(c)
DAV:   1    -0.659204911452E+02   -0.40200E-09    0.85411E-11    84   0.264E-10    0.126E-10
RMM:   2    -0.659204911451E+02    0.16007E-09    0.00000E+00     0   0.119E-10
 975 F= -.65920491E+02 E0= -.65916118E+02  d E =0.891305E-10
quench:  g(F)=  0.000E+00 g(S)=  0.000E+00 dE (1.order)= 0.000E+00
 bond charge predicted
       N       E                     dE             d eps       ncg     rms          rms(c)
DAV:   1    -0.659204911457E+02   -0.44929E-09    0.96794E-11    84   0.144E-10    0.189E-10
RMM:   2    -0.659204911451E+02    0.54752E-09    0.00000E+00     0   0.108E-10
 976 F= -.65920491E+02 E0= -.65916118E+02  d E =-.618456E-10
quench:  g(F)=  0.000E+00 g(S)=  0.000E+00 dE (1.order)= 0.000E+00
 bond charge predicted
       N       E                     dE             d eps       ncg     rms          rms(c)
DAV:   1    -0.659204911448E+02    0.87857E-09    0.12720E-10    84   0.136E-10    0.175E-10
RMM:   2    -0.659204911452E+02   -0.37835E-09    0.00000E+00     0   0.119E-10
 977 F= -.65920491E+02 E0= -.65916118E+02  d E =-.472937E-10
quench:  g(F)=  0.000E+00 g(S)=  0.000E+00 dE (1.order)= 0.000E+00
 bond charge predicted
       N       E                     dE             d eps       ncg     rms          rms(c)
DAV:   1    -0.659204911453E+02   -0.54024E-09    0.13078E-10    84   0.132E-10    0.266E-10
RMM:   2    -0.659204911452E+02    0.12733E-09    0.00000E+00     0   0.190E-10
 978 F= -.65920491E+02 E0= -.65916118E+02  d E =-.345608E-10
quench:  g(F)=  0.000E+00 g(S)=  0.000E+00 dE (1.order)= 0.000E+00
 bond charge predicted
       N       E                     dE             d eps       ncg     rms          rms(c)
DAV:   1    -0.659204911459E+02   -0.60936E-09    0.10877E-10    84   0.187E-10    0.261E-10
RMM:   2    -0.659204911451E+02    0.83128E-09    0.00000E+00     0   0.191E-10
 979 F= -.65920491E+02 E0= -.65916118E+02  d E =0.945874E-10
quench:  g(F)=  0.000E+00 g(S)=  0.000E+00 dE (1.order)= 0.000E+00
 bond charge predicted
       N       E                     dE             d eps       ncg     rms          rms(c)
DAV:   1    -0.659204911455E+02    0.44020E-09    0.81345E-11    84   0.234E-10    0.196E-10
RMM:   2    -0.659204911451E+02    0.36198E-09    0.00000E+00     0   0.135E-10
 980 F= -.65920491E+02 E0= -.65916118E+02  d E =-.291038E-10
quench:  g(F)=  0.000E+00 g(S)=  0.000E+00 dE (1.order)= 0.000E+00
 bond charge predicted
       N       E                     dE             d eps       ncg     rms          rms(c)
DAV:   1    -0.659204911450E+02    0.54752E-09    0.12540E-10    84   0.128E-10    0.104E-10
RMM:   2    -0.659204911451E+02   -0.18372E-09    0.00000E+00     0   0.102E-10
 981 F= -.65920491E+02 E0= -.65916118E+02  d E =0.181899E-11
quench:  g(F)=  0.000E+00 g(S)=  0.000E+00 dE (1.order)= 0.000E+00
 bond charge predicted
       N       E                     dE             d eps       ncg     rms          rms(c)
DAV:   1    -0.659204911449E+02    0.83674E-10    0.77808E-11    84   0.104E-10    0.165E-10
RMM:   2    -0.659204911452E+02   -0.33651E-09    0.00000E+00     0   0.120E-10
 982 F= -.65920491E+02 E0= -.65916118E+02  d E =-.691216E-10
quench:  g(F)=  0.000E+00 g(S)=  0.000E+00 dE (1.order)= 0.000E+00
 bond charge predicted
       N       E                     dE             d eps       ncg     rms          rms(c)
DAV:   1    -0.659204911448E+02    0.25466E-10    0.37505E-11    84   0.151E-10    0.267E-10
RMM:   2    -0.659204911451E+02   -0.22374E-09    0.00000E+00     0   0.142E-10
 983 F= -.65920491E+02 E0= -.65916118E+02  d E =0.138243E-09
quench:  g(F)=  0.000E+00 g(S)=  0.000E+00 dE (1.order)= 0.000E+00
 bond charge predicted
       N       E                     dE             d eps       ncg     rms          rms(c)
DAV:   1    -0.659204911448E+02    0.45475E-10    0.50849E-11    84   0.189E-10    0.349E-10
RMM:   2    -0.659204911452E+02   -0.35834E-09    0.00000E+00     0   0.215E-10
 984 F= -.65920491E+02 E0= -.65916118E+02  d E =-.891305E-10
quench:  g(F)=  0.000E+00 g(S)=  0.000E+00 dE (1.order)= 0.000E+00
 bond charge predicted
       N       E                     dE             d eps       ncg     rms          rms(c)
DAV:   1    -0.659204911448E+02   -0.90949E-11    0.99355E-11    84   0.265E-10    0.158E-10
RMM:   2    -0.659204911451E+02   -0.32742E-09    0.00000E+00     0   0.148E-10
 985 F= -.65920491E+02 E0= -.65916118E+02  d E =0.218279E-10
quench:  g(F)=  0.000E+00 g(S)=  0.000E+00 dE (1.order)= 0.000E+00
 bond charge predicted
       N       E                     dE             d eps       ncg     rms          rms(c)
DAV:   1    -0.659204911454E+02   -0.54570E-09    0.68124E-11    84   0.149E-10    0.146E-10
RMM:   2    -0.659204911452E+02    0.18008E-09    0.00000E+00     0   0.141E-10
 986 F= -.65920491E+02 E0= -.65916118E+02  d E =-.381988E-10
quench:  g(F)=  0.000E+00 g(S)=  0.000E+00 dE (1.order)= 0.000E+00
 bond charge predicted
       N       E                     dE             d eps       ncg     rms          rms(c)
DAV:   1    -0.659204911453E+02    0.25466E-10    0.11884E-10    84   0.153E-10    0.320E-10
RMM:   2    -0.659204911451E+02    0.18008E-09    0.00000E+00     0   0.176E-10
 987 F= -.65920491E+02 E0= -.65916118E+02  d E =0.254659E-10
quench:  g(F)=  0.000E+00 g(S)=  0.000E+00 dE (1.order)= 0.000E+00
 bond charge predicted
       N       E                     dE             d eps       ncg     rms          rms(c)
DAV:   1    -0.659204911454E+02   -0.65484E-10    0.11731E-10    84   0.213E-10    0.340E-10
RMM:   2    -0.659204911452E+02    0.21100E-09    0.00000E+00     0   0.183E-10
 988 F= -.65920491E+02 E0= -.65916118E+02  d E =-.345608E-10
quench:  g(F)=  0.000E+00 g(S)=  0.000E+00 dE (1.order)= 0.000E+00
 bond charge predicted
       N       E                     dE             d eps       ncg     rms          rms(c)
DAV:   1    -0.659204911450E+02    0.42746E-09    0.48910E-11    84   0.253E-10    0.163E-10
RMM:   2    -0.659204911452E+02   -0.23101E-09    0.00000E+00     0   0.162E-10
 989 F= -.65920491E+02 E0= -.65916118E+02  d E =-.145519E-10
quench:  g(F)=  0.000E+00 g(S)=  0.000E+00 dE (1.order)= 0.000E+00
 bond charge predicted
       N       E                     dE             d eps       ncg     rms          rms(c)
DAV:   1    -0.659204911455E+02   -0.53114E-09    0.13634E-10    84   0.138E-10    0.237E-10
RMM:   2    -0.659204911451E+02    0.37471E-09    0.00000E+00     0   0.139E-10
 990 F= -.65920491E+02 E0= -.65916118E+02  d E =0.745786E-10
quench:  g(F)=  0.000E+00 g(S)=  0.000E+00 dE (1.order)= 0.000E+00
 bond charge predicted
       N       E                     dE             d eps       ncg     rms          rms(c)
DAV:   1    -0.659204911447E+02    0.78944E-09    0.71486E-11    84   0.188E-10    0.183E-10
RMM:   2    -0.659204911451E+02   -0.40200E-09    0.00000E+00     0   0.126E-10
 991 F= -.65920491E+02 E0= -.65916118E+02  d E =0.127329E-10
quench:  g(F)=  0.000E+00 g(S)=  0.000E+00 dE (1.order)= 0.000E+00
 bond charge predicted
       N       E                     dE             d eps       ncg     rms          rms(c)
DAV:   1    -0.659204911456E+02   -0.90768E-09    0.14550E-10    84   0.139E-10    0.320E-10
RMM:   2    -0.659204911452E+02    0.41473E-09    0.00000E+00     0   0.189E-10
 992 F= -.65920491E+02 E0= -.65916118E+02  d E =-.909495E-10
quench:  g(F)=  0.000E+00 g(S)=  0.000E+00 dE (1.order)= 0.000E+00
 bond charge predicted
       N       E                     dE             d eps       ncg     rms          rms(c)
DAV:   1    -0.659204911447E+02    0.89312E-09    0.91406E-11    84   0.224E-10    0.302E-10
RMM:   2    -0.659204911451E+02   -0.42382E-09    0.00000E+00     0   0.176E-10
 993 F= -.65920491E+02 E0= -.65916118E+02  d E =0.545697E-10
quench:  g(F)=  0.000E+00 g(S)=  0.000E+00 dE (1.order)= 0.000E+00
 bond charge predicted
       N       E                     dE             d eps       ncg     rms          rms(c)
DAV:   1    -0.659204911455E+02   -0.73123E-09    0.98498E-11    84   0.206E-10    0.186E-10
RMM:   2    -0.659204911452E+02    0.23829E-09    0.00000E+00     0   0.169E-10
 994 F= -.65920491E+02 E0= -.65916118E+02  d E =-.691216E-10
quench:  g(F)=  0.000E+00 g(S)=  0.000E+00 dE (1.order)= 0.000E+00
 bond charge predicted
       N       E                     dE             d eps       ncg     rms          rms(c)
DAV:   1    -0.659204911449E+02    0.54206E-09    0.12785E-10    84   0.153E-10    0.520E-10
RMM:   2    -0.659204911452E+02   -0.27649E-09    0.00000E+00     0   0.278E-10
 995 F= -.65920491E+02 E0= -.65916118E+02  d E =0.272848E-10
quench:  g(F)=  0.000E+00 g(S)=  0.000E+00 dE (1.order)= 0.000E+00
 bond charge predicted
       N       E                     dE             d eps       ncg     rms          rms(c)
DAV:   1    -0.659204911450E+02   -0.76398E-10    0.30096E-11    84   0.349E-10    0.346E-10
RMM:   2    -0.659204911450E+02   -0.49113E-10    0.00000E+00     0   0.199E-10
 996 F= -.65920491E+02 E0= -.65916118E+02  d E =0.150976E-09
quench:  g(F)=  0.000E+00 g(S)=  0.000E+00 dE (1.order)= 0.000E+00
 bond charge predicted
       N       E                     dE             d eps       ncg     rms          rms(c)
DAV:   1    -0.659204911449E+02    0.11096E-09    0.82981E-11    84   0.244E-10    0.229E-10
RMM:   2    -0.659204911452E+02   -0.28922E-09    0.00000E+00     0   0.197E-10
 997 F= -.65920491E+02 E0= -.65916118E+02  d E =-.129148E-09
quench:  g(F)=  0.000E+00 g(S)=  0.000E+00 dE (1.order)= 0.000E+00
 bond charge predicted
       N       E                     dE             d eps       ncg     rms          rms(c)
DAV:   1    -0.659204911450E+02   -0.17462E-09    0.68162E-11    84   0.217E-10    0.168E-10
RMM:   2    -0.659204911452E+02   -0.12187E-09    0.00000E+00     0   0.138E-10
 998 F= -.65920491E+02 E0= -.65916118E+02  d E =-.727596E-11
quench:  g(F)=  0.000E+00 g(S)=  0.000E+00 dE (1.order)= 0.000E+00
 bond charge predicted
       N       E                     dE             d eps       ncg     rms          rms(c)
DAV:   1    -0.659204911450E+02    0.54570E-10    0.11912E-10    84   0.197E-10    0.643E-10
RMM:   2    -0.659204911451E+02   -0.92768E-10    0.00000E+00     0   0.361E-10
 999 F= -.65920491E+02 E0= -.65916118E+02  d E =0.836735E-10
quench:  g(F)=  0.000E+00 g(S)=  0.000E+00 dE (1.order)= 0.000E+00
 bond charge predicted
       N       E                     dE             d eps       ncg     rms          rms(c)
DAV:   1    -0.659204911446E+02    0.43110E-09    0.50868E-11    84   0.437E-10    0.573E-10
RMM:   2    -0.659204911451E+02   -0.51659E-09    0.00000E+00     0   0.339E-10
1000 F= -.65920491E+02 E0= -.65916118E+02  d E =0.727596E-11
quench:  g(F)=  0.000E+00 g(S)=  0.000E+00 dE (1.order)= 0.000E+00
