 vasp.6.3.2 27Jun22 (build Mar 25 2024 10:42:18) complex                         
 executed on             LinuxGNU date 2024.05.15  13:48:36
 running on   32 total cores
 distrk:  each k-point on   32 cores,    1 groups
 distr:  one band on NCORE=   1 cores,   32 groups


--------------------------------------------------------------------------------------------------------


 INCAR:
   ALGO = All
   EDIFF = 1e-08
   EDIFFG = -0.001
   ENAUG = 1360
   ENCUT = 680
   IBRION = 2
   ISIF = 3
   ISMEAR = 2
   ISPIN = 2
   KSPACING = 0.22
   LAECHG = True
   LASPH = True
   LCHARG = True
   LELF = False
   LMIXTAU = True
   LORBIT = 11
   LREAL = Auto
   LVTOT = True
   LWAVE = False
   MAGMOM = 24*0.0
   METAGGA = R2scan
   NELM = 200
   NSW = 99
   PREC = Accurate
   SIGMA = 0.2

 POTCAR:    PAW_PBE Na_pv 19Sep2006               
 POTCAR:    PAW_PBE S 06Sep2000                   
 WARNING: For LVTOT=.TRUE., VASP.5.x writes the TOTAL local potential to the
     file LOCPOT. If you want only the Hartree contributions, use LVHAR=.TRUE.
     instead. 

 -----------------------------------------------------------------------------
|                                                                             |
|           W    W    AA    RRRRR   N    N  II  N    N   GGGG   !!!           |
|           W    W   A  A   R    R  NN   N  II  NN   N  G    G  !!!           |
|           W    W  A    A  R    R  N N  N  II  N N  N  G       !!!           |
|           W WW W  AAAAAA  RRRRR   N  N N  II  N  N N  G  GGG   !            |
|           WW  WW  A    A  R   R   N   NN  II  N   NN  G    G                |
|           W    W  A    A  R    R  N    N  II  N    N   GGGG   !!!           |
|                                                                             |
|     For optimal performance we recommend to set                             |
|       NCORE = 2 up to number-of-cores-per-socket                            |
|     NCORE specifies how many cores store one orbital (NPAR=cpu/NCORE).      |
|     This setting can greatly improve the performance of VASP for DFT.       |
|     The default, NCORE=1 might be grossly inefficient on modern             |
|     multi-core architectures or massively parallel machines. Do your        |
|     own testing! More info at https://www.vasp.at/wiki/index.php/NCORE      |
|     Unfortunately you need to use the default for GW and RPA                |
|     calculations (for HF NCORE is supported but not extensively tested      |
|     yet).                                                                   |
|                                                                             |
 -----------------------------------------------------------------------------

 POTCAR:    PAW_PBE Na_pv 19Sep2006               
   SHA256 =  6a2f546d9e11350984debacf3dc457d8cffc0868e817d445faca461816a32b94 Na_pv/POTCAR          
   COPYR  = (c) Copyright 19Sep2006 Georg Kresse                                                    
   COPYR  = This file is part of the software VASP. Any use, copying, and all other rights are regul
   COPYR  = If you do not have a valid VASP license, you may not use, copy or distribute this file. 
   VRHFIN =Na: p6s1                                                                                 
   LEXCH  = PE                                                                                      
   EATOM  =   766.0439 eV,   56.3026 Ry                                                             
                                                                                                    
   TITEL  = PAW_PBE Na_pv 19Sep2006                                                                 
   LULTRA =        F    use ultrasoft PP ?                                                          
   IUNSCR =        1    unscreen: 0-lin 1-nonlin 2-no                                               
   RPACOR =    1.800    partial core radius                                                         
   POMASS =   22.990; ZVAL   =    7.000    mass and valenz                                          
   RCORE  =    2.200    outmost cutoff radius                                                       
   RWIGS  =    2.200; RWIGS  =    1.164    wigner-seitz radius (au A)                               
   ENMAX  =  259.561; ENMIN  =  194.671 eV                                                          
   ICORE  =        2    local potential                                                             
   LCOR   =        T    correct aug charges                                                         
   LPAW   =        T    paw PP                                                                      
   EAUG   =  368.056                                                                                
   DEXC   =    0.000                                                                                
   RMAX   =    2.245    core radius for proj-oper                                                   
   RAUG   =    1.300    factor for augmentation sphere                                              
   RDEP   =    2.259    radius for radial grids                                                     
   RDEPT  =    1.738    core radius for aug-charge                                                  
                                                                                                    
   Atomic configuration                                                                             
    5 entries                                                                                       
     n  l   j            E        occ.                                                              
     1  0  0.50     -1033.6933   2.0000                                                             
     2  0  0.50       -56.7526   2.0000                                                             
     2  1  1.50       -28.6721   6.0000                                                             
     3  0  0.50        -2.7440   1.0000                                                             
     3  2  1.50        -1.3606   0.0000                                                             
   Description                                                                                      
     l       E           TYP  RCUT    TYP  RCUT                                                     
     1    -28.6720912     23  2.000                                                                 
     1      6.8029130     23  2.000                                                                 
     0     -2.7439560     23  2.200                                                                 
     0     34.0145650     23  2.200                                                                 
     2     -1.3605826     23  2.200                                                                 
  local pseudopotential read in
  partial core-charges read in
  partial kinetic energy density read in
  atomic valenz-charges read in
  non local Contribution for L=           1  read in
    real space projection operators read in
  non local Contribution for L=           1  read in
    real space projection operators read in
  non local Contribution for L=           0  read in
    real space projection operators read in
  non local Contribution for L=           0  read in
    real space projection operators read in
    PAW grid and wavefunctions read in

   number of l-projection  operators is LMAX  =           4
   number of lm-projection operators is LMMAX =           8

 POTCAR:    PAW_PBE S 06Sep2000                   
   SHA256 =  0fc7481fb0695f01bdc6462160264c5c84044ae9ec85a907d398b887a2bc3132 S/POTCAR              
   COPYR  = (c) Copyright 06Sep2000 Georg Kresse                                                    
   COPYR  = This file is part of the software VASP. Any use, copying, and all other rights are regul
   COPYR  = If you do not have a valid VASP license, you may not use, copy or distribute this file. 
   VRHFIN =S : s2p4                                                                                 
   LEXCH  = PE                                                                                      
   EATOM  =   276.8230 eV,   20.3459 Ry                                                             
                                                                                                    
   TITEL  = PAW_PBE S 06Sep2000                                                                     
   LULTRA =        F    use ultrasoft PP ?                                                          
   IUNSCR =        1    unscreen: 0-lin 1-nonlin 2-no                                               
   RPACOR =    1.500    partial core radius                                                         
   POMASS =   32.066; ZVAL   =    6.000    mass and valenz                                          
   RCORE  =    1.900    outmost cutoff radius                                                       
   RWIGS  =    2.200; RWIGS  =    1.164    wigner-seitz radius (au A)                               
   ENMAX  =  258.689; ENMIN  =  194.016 eV                                                          
   ICORE  =        2    local potential                                                             
   LCOR   =        T    correct aug charges                                                         
   LPAW   =        T    paw PP                                                                      
   EAUG   =  335.092                                                                                
   DEXC   =    0.000                                                                                
   RMAX   =    1.942    core radius for proj-oper                                                   
   RAUG   =    1.300    factor for augmentation sphere                                              
   RDEP   =    1.954    radius for radial grids                                                     
   RDEPT  =    1.744    core radius for aug-charge                                                  
                                                                                                    
   Atomic configuration                                                                             
    6 entries                                                                                       
     n  l   j            E        occ.                                                              
     1  0  0.50     -2405.8406   2.0000                                                             
     2  0  0.50      -211.7007   2.0000                                                             
     2  1  1.50      -156.4958   6.0000                                                             
     3  0  0.50       -17.2562   2.0000                                                             
     3  1  0.50        -7.0085   4.0000                                                             
     3  2  1.50        -6.8029   0.0000                                                             
   Description                                                                                      
     l       E           TYP  RCUT    TYP  RCUT                                                     
     0    -17.2561641     23  1.900                                                                 
     0    -15.8743224     23  1.900                                                                 
     1     -7.0085400     23  1.900                                                                 
     1     -2.7779785     23  1.900                                                                 
     2     -6.8029130     23  1.900                                                                 
  local pseudopotential read in
  partial core-charges read in
  partial kinetic energy density read in
  atomic valenz-charges read in
  non local Contribution for L=           0  read in
    real space projection operators read in
  non local Contribution for L=           0  read in
    real space projection operators read in
  non local Contribution for L=           1  read in
    real space projection operators read in
  non local Contribution for L=           1  read in
    real space projection operators read in
    PAW grid and wavefunctions read in

   number of l-projection  operators is LMAX  =           4
   number of lm-projection operators is LMMAX =           8

 Optimization of the real space projectors (new method)

 maximal supplied QI-value         = 17.01
 optimisation between [QCUT,QGAM] = [ 13.27, 26.70] = [ 49.28,199.66] Ry 
 Optimized for a Real-space Cutoff    1.38 Angstroem

   l    n(q)    QCUT    max X(q) W(low)/X(q) W(high)/X(q)  e(spline) 
   1     11    13.266     4.940    0.11E-03    0.62E-04    0.24E-06
   1     11    13.266     6.253    0.16E-03    0.89E-04    0.35E-06
   0     11    13.266    37.438    0.39E-04    0.39E-05    0.18E-06
   0     11    13.266     9.606    0.17E-04    0.30E-05    0.12E-06
 Optimization of the real space projectors (new method)

 maximal supplied QI-value         = 19.84
 optimisation between [QCUT,QGAM] = [ 13.29, 26.59] = [ 49.49,197.96] Ry 
 Optimized for a Real-space Cutoff    1.16 Angstroem

   l    n(q)    QCUT    max X(q) W(low)/X(q) W(high)/X(q)  e(spline) 
   0      9    13.294   187.594    0.14E-03    0.96E-04    0.62E-07
   0      9    13.294   164.243    0.14E-03    0.95E-04    0.61E-07
   1      9    13.294    67.533    0.58E-04    0.17E-03    0.14E-06
   1      9    13.294    50.729    0.57E-04    0.16E-03    0.13E-06
  PAW_PBE Na_pv 19Sep2006               :
 energy of atom  1       EATOM= -766.0439
 kinetic energy error for atom=    0.0010 (will be added to EATOM!!)
  PAW_PBE S 06Sep2000                   :
 energy of atom  2       EATOM= -276.8230
 kinetic energy error for atom=    0.0008 (will be added to EATOM!!)


 POSCAR: Na8 S16
  positions in direct lattice
  No initial velocities read in

 METAGGA = R2SCA    LMAXTAU =  6    LMIXTAU =  T

 exchange correlation table for  LEXCH =        8
   RHO(1)=    0.500       N(1)  =     2000
   RHO(2)=  100.500       N(2)  =     4000



--------------------------------------------------------------------------------------------------------


 ion  position               nearest neighbor table
   1  0.000  0.172  0.172-
   2  0.000  0.828  0.828-
   3  0.500  0.578  0.078-
   4  0.500  0.922  0.422-
   5  0.523  0.375  0.398-
   6  0.977  0.602  0.125-
   7  0.023  0.148  0.625-
   8  0.477  0.875  0.852-
   9  0.284  0.548  0.328-  17 2.07
  10  0.220  0.672  0.956-  18 2.07
  11  0.780  0.736  0.452-  19 2.07
  12  0.720  0.706  0.922-  20 2.07
  13  0.280  0.202  0.986-  21 2.07
  14  0.716  0.044  0.264-  22 2.07
  15  0.784  0.078  0.798-  23 2.07
  16  0.216  0.014  0.294-  24 2.07
  17  0.263  0.514  0.544-  20 2.05   9 2.07
  18  0.970  0.456  0.718-  23 2.05  10 2.07
  19  0.030  0.749  0.486-  24 2.05  11 2.07
  20  0.470  0.468  0.706-  17 2.05  12 2.07
  21  0.530  0.236  0.999-  22 2.05  13 2.07
  22  0.737  0.282  0.251-  21 2.05  14 2.07
  23  0.763  0.294  0.764-  18 2.05  15 2.07
  24  0.237  0.001  0.532-  19 2.05  16 2.07

  LATTYP: Found a body centered tetragonal cell.
 ALAT       =     9.5806885694
 C/A-ratio  =     1.2172355165
  
  Lattice vectors:
  
 A1 = (   4.8502472500,  -7.3962310400,   1.2907190700)
 A2 = (  -0.0221741100,   0.0338137700,  -8.9383136000)
 A3 = (   3.2510684500,   7.3962310400,   3.8237972700)


Analysis of symmetry for initial positions (statically):
=====================================================================
 Subroutine PRICEL returns:
 Original cell was already a primitive cell.
 

 Routine SETGRP: Setting up the symmetry group for a 
 body centered tetragonal supercell.


 Subroutine GETGRP returns: Found  8 space group operations
 (whereof  4 operations were pure point group operations)
 out of a pool of 16 trial point group operations.


The static configuration has the point symmetry S_4 .
 The point group associated with its full space group is D_2d.


Analysis of symmetry for dynamics (positions and initial velocities):
=====================================================================
 Subroutine PRICEL returns:
 Original cell was already a primitive cell.
 

 Routine SETGRP: Setting up the symmetry group for a 
 body centered tetragonal supercell.


 Subroutine GETGRP returns: Found  8 space group operations
 (whereof  4 operations were pure point group operations)
 out of a pool of 16 trial point group operations.


The dynamic configuration has the point symmetry S_4 .
 The point group associated with its full space group is D_2d.


Analysis of structural, dynamic, and magnetic symmetry:
=====================================================================
 Subroutine PRICEL returns:
 Original cell was already a primitive cell.
 

 Routine SETGRP: Setting up the symmetry group for a 
 body centered tetragonal supercell.


 Subroutine GETGRP returns: Found  8 space group operations
 (whereof  4 operations were pure point group operations)
 out of a pool of 16 trial point group operations.


The overall configuration has the point symmetry S_4 .
 The point group associated with its full space group is D_2d.


 Subroutine INISYM returns: Found  8 space group operations
 (whereof  4 operations are pure point group operations),
 and found     1 'primitive' translations


----------------------------------------------------------------------------------------

                                     Primitive cell                                     

  volume of cell :     535.2231

  direct lattice vectors                    reciprocal lattice vectors
     8.079141590  0.033813770 -3.823797260     0.123436740  0.080946458  0.000000001
    -4.850247250  7.396231040 -1.290719070    -0.000323120  0.135081421  0.000511817
     0.022174110 -0.033813770  8.938313600     0.052759394  0.054134933  0.111951835

  length of vectors
     8.938405769  8.938405210  8.938405063     0.147610832  0.135082777  0.135082783

  position of ions in fractional coordinates (direct lattice)
     1.000000000  0.171978330  0.171978330
     1.000000000  0.828021670  0.828021670
     0.500000000  0.578021670  0.078021670
     0.500000000  0.921978330  0.421978330
     0.522593900  0.375000000  0.397593900
     0.977406100  0.602406100  0.125000000
     0.022593900  0.147593900  0.625000000
     0.477406100  0.875000000  0.852406100
     0.284170860  0.547833820  0.328137190
     0.219693640  0.671862810  0.956033680
     0.780306360  0.736339040  0.452166180
     0.719693640  0.706033680  0.921862810
     0.280306360  0.202166180  0.986339040
     0.715829140  0.043966320  0.263660960
     0.784170860  0.078137190  0.797833820
     0.215829140  0.013660960  0.293966320
     0.262705580  0.514096170  0.544387560
     0.969706610  0.455612440  0.718320020
     0.030293390  0.748611410  0.485903830
     0.469706610  0.468320020  0.705612440
     0.530293390  0.235903830  0.998611410
     0.737294420  0.281679980  0.251388590
     0.762705580  0.294387560  0.764096170
     0.237294420  0.001388590  0.531679980

  ion indices of the primitive-cell ions
   primitive index   ion index
                 1           1
                 2           2
                 3           3
                 4           4
                 5           5
                 6           6
                 7           7
                 8           8
                 9           9
                10          10
                11          11
                12          12
                13          13
                14          14
                15          15
                16          16
                17          17
                18          18
                19          19
                20          20
                21          21
                22          22
                23          23
                24          24

----------------------------------------------------------------------------------------


 -----------------------------------------------------------------------------
|                                                                             |
|           W    W    AA    RRRRR   N    N  II  N    N   GGGG   !!!           |
|           W    W   A  A   R    R  NN   N  II  NN   N  G    G  !!!           |
|           W    W  A    A  R    R  N N  N  II  N N  N  G       !!!           |
|           W WW W  AAAAAA  RRRRR   N  N N  II  N  N N  G  GGG   !            |
|           WW  WW  A    A  R   R   N   NN  II  N   NN  G    G                |
|           W    W  A    A  R    R  N    N  II  N    N   GGGG   !!!           |
|                                                                             |
|     The requested file  could not be found or opened for reading            |
|     k-point information. Automatic k-point generation is used as a          |
|     fallback, which may lead to unwanted results.                           |
|                                                                             |
 -----------------------------------------------------------------------------



Automatic generation of k-mesh.
 Grid dimensions derived from KSPACING:
 generate k-points for:    5    4    4

 Generating k-lattice:

  Cartesian coordinates                     Fractional coordinates (reciprocal lattice)
     0.024687348  0.016189292  0.000000000     0.200000000 -0.000000000 -0.000000000
    -0.000080780  0.033770355  0.000127954     0.000000000  0.250000000 -0.000000000
     0.013189849  0.013533733  0.027987959    -0.000000000  0.000000000  0.250000000

  Length of vectors
     0.029522166  0.033770694  0.033770696

  Shift w.r.t. Gamma in fractional coordinates (k-lattice)
     0.000000000  0.000000000  0.000000000

 -----------------------------------------------------------------------------
|                                                                             |
|           W    W    AA    RRRRR   N    N  II  N    N   GGGG   !!!           |
|           W    W   A  A   R    R  NN   N  II  NN   N  G    G  !!!           |
|           W    W  A    A  R    R  N N  N  II  N N  N  G       !!!           |
|           W WW W  AAAAAA  RRRRR   N  N N  II  N  N N  G  GGG   !            |
|           WW  WW  A    A  R   R   N   NN  II  N   NN  G    G                |
|           W    W  A    A  R    R  N    N  II  N    N   GGGG   !!!           |
|                                                                             |
|     Your reciprocal lattice and k-lattice belong to different lattice       |
|     classes:                                                                |
|                                                                             |
|        The reciprocal lattice is body-centered tetragonal,                  |
|        whereas your k-lattice is base-centered monoclinic.                  |
|                                                                             |
|     Results are often still useful ...                                      |
|                                                                             |
 -----------------------------------------------------------------------------

 WARNING: IBZKPT: internal override: KBLOWUP is changed to .FALSE.
      ... skipping the blow-up phase ...

 
 Subroutine IBZKPT returns following result:
 ===========================================
 
 Found     27 irreducible k-points:
 
 Following reciprocal coordinates:
            Coordinates               Weight
  0.000000  0.000000  0.000000      1.000000
  0.200000  0.000000  0.000000      2.000000
  0.400000  0.000000  0.000000      2.000000
  0.000000  0.250000  0.000000      4.000000
  0.200000  0.250000  0.000000      4.000000
  0.400000  0.250000  0.000000      4.000000
 -0.400000  0.250000  0.000000      4.000000
 -0.200000  0.250000  0.000000      4.000000
  0.000000  0.500000  0.000000      2.000000
  0.200000  0.500000  0.000000      4.000000
  0.400000  0.500000  0.000000      4.000000
  0.000000  0.250000  0.250000      2.000000
  0.200000  0.250000  0.250000      2.000000
  0.400000  0.250000  0.250000      2.000000
 -0.400000  0.250000  0.250000      2.000000
 -0.200000  0.250000  0.250000      2.000000
  0.000000  0.500000  0.250000      4.000000
  0.200000  0.500000  0.250000      4.000000
  0.400000  0.500000  0.250000      4.000000
 -0.400000  0.500000  0.250000      4.000000
 -0.200000  0.500000  0.250000      4.000000
  0.000000 -0.250000  0.250000      2.000000
  0.200000 -0.250000  0.250000      4.000000
  0.400000 -0.250000  0.250000      4.000000
  0.000000  0.500000  0.500000      1.000000
  0.200000  0.500000  0.500000      2.000000
  0.400000  0.500000  0.500000      2.000000
 
 Following cartesian coordinates:
            Coordinates               Weight
  0.000000  0.000000  0.000000      1.000000
  0.024687  0.016189  0.000000      2.000000
  0.049375  0.032379  0.000000      2.000000
 -0.000081  0.033770  0.000128      4.000000
  0.024607  0.049960  0.000128      4.000000
  0.049294  0.066149  0.000128      4.000000
 -0.049455  0.001392  0.000128      4.000000
 -0.024768  0.017581  0.000128      4.000000
 -0.000162  0.067541  0.000256      2.000000
  0.024526  0.083730  0.000256      4.000000
  0.049213  0.099919  0.000256      4.000000
  0.013109  0.047304  0.028116      2.000000
  0.037796  0.063493  0.028116      2.000000
  0.062484  0.079683  0.028116      2.000000
 -0.036266  0.014926  0.028116      2.000000
 -0.011578  0.031115  0.028116      2.000000
  0.013028  0.081074  0.028244      4.000000
  0.037716  0.097264  0.028244      4.000000
  0.062403  0.113453  0.028244      4.000000
 -0.036346  0.048696  0.028244      4.000000
 -0.011659  0.064885  0.028244      4.000000
  0.013271 -0.020237  0.027860      2.000000
  0.037958 -0.004047  0.027860      4.000000
  0.062645  0.012142  0.027860      4.000000
  0.026218  0.094608  0.056232      1.000000
  0.050905  0.110797  0.056232      2.000000
  0.075593  0.126987  0.056232      2.000000
 


--------------------------------------------------------------------------------------------------------




 Dimension of arrays:
   k-points           NKPTS =     27   k-points in BZ     NKDIM =     27   number of bands    NBANDS=     96
   number of dos      NEDOS =    301   number of ions     NIONS =     24
   non local maximal  LDIM  =      4   non local SUM 2l+1 LMDIM =      8
   total plane-waves  NPLWV = 512000
   max r-space proj   IRMAX =  10615   max aug-charges    IRDMAX=  30334
   dimension x,y,z NGX =    80 NGY =   80 NGZ =   80
   dimension x,y,z NGXF=   160 NGYF=  160 NGZF=  160
   support grid    NGXF=   160 NGYF=  160 NGZF=  160
   ions per type =               8  16
   NGX,Y,Z   is equivalent  to a cutoff of  14.88, 14.88, 14.88 a.u.
   NGXF,Y,Z  is equivalent  to a cutoff of  29.76, 29.76, 29.76 a.u.

 SYSTEM =  unknown system                          
 POSCAR =  Na8 S16                                 

 Startparameter for this run:
   NWRITE =      2    write-flag & timer
   PREC   = accura    normal or accurate (medium, high low for compatibility)
   ISTART =      0    job   : 0-new  1-cont  2-samecut
   ICHARG =      2    charge: 1-file 2-atom 10-const
   ISPIN  =      2    spin polarized calculation?
   LNONCOLLINEAR =      F non collinear calculations
   LSORBIT =      F    spin-orbit coupling
   INIWAV =      1    electr: 0-lowe 1-rand  2-diag
   LASPH  =      T    aspherical Exc in radial PAW
 Electronic Relaxation 1
   ENCUT  =  680.0 eV  49.98 Ry    7.07 a.u.  19.01 19.01 19.01*2*pi/ulx,y,z
   ENINI  =  680.0     initial cutoff
   ENAUG  = 1360.0 eV  augmentation charge cutoff
   NELM   =    200;   NELMIN=  2; NELMDL= -5     # of ELM steps 
   EDIFF  = 0.1E-07   stopping-criterion for ELM
   LREAL  =      T    real-space projection
   NLSPLINE    = F    spline interpolate recip. space projectors
   LCOMPAT=      F    compatible to vasp.4.4
   GGA_COMPAT  = T    GGA compatible to vasp.4.4-vasp.4.6
   LMAXPAW     = -100 max onsite density
   LMAXMIX     =    2 max onsite mixed and CHGCAR
   VOSKOWN=      0    Vosko Wilk Nusair interpolation
   ROPT   =   -0.00025  -0.00025
 Ionic relaxation
   EDIFFG = -.1E-02   stopping-criterion for IOM
   NSW    =     99    number of steps for IOM
   NBLOCK =      1;   KBLOCK =     99    inner block; outer block 
   IBRION =      2    ionic relax: 0-MD 1-quasi-New 2-CG
   NFREE  =      1    steps in history (QN), initial steepest desc. (CG)
   ISIF   =      3    stress and relaxation
   IWAVPR =     11    prediction:  0-non 1-charg 2-wave 3-comb
   ISYM   =      2    0-nonsym 1-usesym 2-fastsym
   LCORR  =      T    Harris-Foulkes like correction to forces

   POTIM  = 0.5000    time-step for ionic-motion
   TEIN   =    0.0    initial temperature
   TEBEG  =    0.0;   TEEND  =   0.0 temperature during run
   SMASS  =  -3.00    Nose mass-parameter (am)
   estimated Nose-frequenzy (Omega)   =  0.10E-29 period in steps = 0.13E+47 mass=  -0.183E-26a.u.
   SCALEE = 1.0000    scale energy and forces
   NPACO  =    256;   APACO  = 10.0  distance and # of slots for P.C.
   PSTRESS=    0.0 pullay stress

  Mass of Ions in am
   POMASS =  22.99 32.07
  Ionic Valenz
   ZVAL   =   7.00  6.00
  Atomic Wigner-Seitz radii
   RWIGS  =  -1.00 -1.00
  virtual crystal weights 
   VCA    =   1.00  1.00
   NELECT =     152.0000    total number of electrons
   NUPDOWN=      -1.0000    fix difference up-down

 DOS related values:
   EMIN   =  10.00;   EMAX   =-10.00  energy-range for DOS
   EFERMI =   0.00
   ISMEAR =     2;   SIGMA  =   0.20  broadening in eV -4-tet -1-fermi 0-gaus

 Electronic relaxation 2 (details)
   IALGO  =     58    algorithm
   LDIAG  =      T    sub-space diagonalisation (order eigenvalues)
   LSUBROT=      F    optimize rotation matrix (better conditioning)
   TURBO    =      0    0=normal 1=particle mesh
   IRESTART =      0    0=no restart 2=restart with 2 vectors
   NREBOOT  =      0    no. of reboots
   NMIN     =      0    reboot dimension
   EREF     =   0.00    reference energy to select bands
   IMIX   =      4    mixing-type and parameters
     AMIX     =   0.40;   BMIX     =  1.00
     AMIX_MAG =   1.60;   BMIX_MAG =  1.00
     AMIN     =   0.10
     WC   =   100.;   INIMIX=   1;  MIXPRE=   1;  MAXMIX= -45

 Intra band minimization:
   WEIMIN = 0.0010     energy-eigenvalue tresh-hold
   EBREAK =  0.26E-10  absolut break condition
   DEPER  =   0.30     relativ break condition  

   TIME   =   0.40     timestep for ELM

  volume/ion in A,a.u.               =      22.30       150.49
  Fermi-wavevector in a.u.,A,eV,Ry     =   1.076080  2.033496 15.754831  1.157947
  Thomas-Fermi vector in A             =   2.211954

 Write flags
   LWAVE        =      F    write WAVECAR
   LDOWNSAMPLE  =      F    k-point downsampling of WAVECAR
   LCHARG       =      T    write CHGCAR
   LVTOT        =      T    write LOCPOT, total local potential
   LVHAR        =      F    write LOCPOT, Hartree potential only
   LELF         =      F    write electronic localiz. function (ELF)
   LORBIT       =     11    0 simple, 1 ext, 2 COOP (PROOUT), +10 PAW based schemes


 Dipole corrections
   LMONO  =      F    monopole corrections only (constant potential shift)
   LDIPOL =      F    correct potential (dipole corrections)
   IDIPOL =      0    1-x, 2-y, 3-z, 4-all directions 
   EPSILON=  1.0000000 bulk dielectric constant

 Exchange correlation treatment:
   GGA     =    --    GGA type
   LEXCH   =     8    internal setting for exchange type
   LIBXC   =     F    Libxc                    
   VOSKOWN =     0    Vosko Wilk Nusair interpolation
   LHFCALC =     F    Hartree Fock is set to
   LHFONE  =     F    Hartree Fock one center treatment
   AEXX    =    0.0000 exact exchange contribution

 Linear response parameters
   LEPSILON=     F    determine dielectric tensor
   LRPA    =     F    only Hartree local field effects (RPA)
   LNABLA  =     F    use nabla operator in PAW spheres
   LVEL    =     F    velocity operator in full k-point grid
   CSHIFT  =0.1000    complex shift for real part using Kramers Kronig
   OMEGAMAX=  -1.0    maximum frequency
   DEG_THRESHOLD= 0.2000000E-02 threshold for treating states as degnerate
   RTIME   =   -0.100 relaxation time in fs
  (WPLASMAI=    0.000 imaginary part of plasma frequency in eV, 0.658/RTIME)
   DFIELD  = 0.0000000 0.0000000 0.0000000 field for delta impulse in time

  Optional k-point grid parameters
   LKPOINTS_OPT  =     F    use optional k-point grid
   KPOINTS_OPT_MODE=     1    mode for optional k-point grid

 Orbital magnetization related:
   ORBITALMAG=     F  switch on orbital magnetization
   LCHIMAG   =     F  perturbation theory with respect to B field
   DQ        =  0.001000  dq finite difference perturbation B field
   LLRAUG    =     F  two centre corrections for induced B field



--------------------------------------------------------------------------------------------------------


 conjugate gradient relaxation of ions
 charge density and potential will be updated during run
 spin polarized calculation
 Conjugate gradient for all bands (Freysoldt, et al. PRB 79, 241103 (2009))
 preconditioned conjugated gradient                                        
 perform sub-space diagonalisation
    before iterative eigenvector-optimisation
 modified Broyden-mixing scheme, WC =      100.0
 initial mixing is a Kerker type mixing with AMIX =  0.4000 and BMIX =      1.0000
 Hartree-type preconditioning will be used
 using additional bands           20
 real space projection scheme for non local part
 use partial core corrections
 no Harris-corrections to forces 
 use gradient corrections 
 use of overlap-Matrix (Vanderbilt PP)
 Methfessel and Paxton  Order N= 2 SIGMA  =   0.20


--------------------------------------------------------------------------------------------------------


  energy-cutoff  :      680.00
  volume of cell :      535.22
      direct lattice vectors                 reciprocal lattice vectors
     8.079141590  0.033813770 -3.823797260     0.123436740  0.080946458  0.000000001
    -4.850247250  7.396231040 -1.290719070    -0.000323120  0.135081421  0.000511817
     0.022174110 -0.033813770  8.938313600     0.052759394  0.054134933  0.111951835

  length of vectors
     8.938405769  8.938405210  8.938405063     0.147610832  0.135082777  0.135082783



 k-points in units of 2pi/SCALE and weight: read from INCAR                         
   0.00000000  0.00000000  0.00000000       0.013
   0.02468735  0.01618929  0.00000000       0.025
   0.04937470  0.03237858  0.00000000       0.025
  -0.00008078  0.03377036  0.00012795       0.050
   0.02460657  0.04995965  0.00012795       0.050
   0.04929392  0.06614894  0.00012795       0.050
  -0.04945548  0.00139177  0.00012795       0.050
  -0.02476813  0.01758106  0.00012795       0.050
  -0.00016156  0.06754071  0.00025591       0.025
   0.02452579  0.08373000  0.00025591       0.050
   0.04921314  0.09991929  0.00025591       0.050
   0.01310907  0.04730409  0.02811591       0.025
   0.03779642  0.06349338  0.02811591       0.025
   0.06248376  0.07968267  0.02811591       0.025
  -0.03626563  0.01492551  0.02811591       0.025
  -0.01157828  0.03111480  0.02811591       0.025
   0.01302829  0.08107444  0.02824387       0.050
   0.03771564  0.09726374  0.02824387       0.050
   0.06240298  0.11345303  0.02824387       0.050
  -0.03634641  0.04869586  0.02824387       0.050
  -0.01165906  0.06488515  0.02824387       0.050
   0.01327063 -0.02023662  0.02786000       0.025
   0.03795798 -0.00404733  0.02786000       0.050
   0.06264532  0.01214196  0.02786000       0.050
   0.02621814  0.09460818  0.05623183       0.013
   0.05090549  0.11079747  0.05623183       0.025
   0.07559283  0.12698676  0.05623183       0.025

 k-points in reciprocal lattice and weights: read from INCAR                         
   0.00000000  0.00000000  0.00000000       0.013
   0.20000000  0.00000000  0.00000000       0.025
   0.40000000  0.00000000  0.00000000       0.025
   0.00000000  0.25000000  0.00000000       0.050
   0.20000000  0.25000000  0.00000000       0.050
   0.40000000  0.25000000  0.00000000       0.050
  -0.40000000  0.25000000  0.00000000       0.050
  -0.20000000  0.25000000  0.00000000       0.050
   0.00000000  0.50000000  0.00000000       0.025
   0.20000000  0.50000000  0.00000000       0.050
   0.40000000  0.50000000  0.00000000       0.050
   0.00000000  0.25000000  0.25000000       0.025
   0.20000000  0.25000000  0.25000000       0.025
   0.40000000  0.25000000  0.25000000       0.025
  -0.40000000  0.25000000  0.25000000       0.025
  -0.20000000  0.25000000  0.25000000       0.025
   0.00000000  0.50000000  0.25000000       0.050
   0.20000000  0.50000000  0.25000000       0.050
   0.40000000  0.50000000  0.25000000       0.050
  -0.40000000  0.50000000  0.25000000       0.050
  -0.20000000  0.50000000  0.25000000       0.050
   0.00000000 -0.25000000  0.25000000       0.025
   0.20000000 -0.25000000  0.25000000       0.050
   0.40000000 -0.25000000  0.25000000       0.050
   0.00000000  0.50000000  0.50000000       0.013
   0.20000000  0.50000000  0.50000000       0.025
   0.40000000  0.50000000  0.50000000       0.025

 position of ions in fractional coordinates (direct lattice) 
   0.00000000  0.17197833  0.17197833
   0.00000000  0.82802167  0.82802167
   0.50000000  0.57802167  0.07802167
   0.50000000  0.92197833  0.42197833
   0.52259390  0.37500000  0.39759390
   0.97740610  0.60240610  0.12500000
   0.02259390  0.14759390  0.62500000
   0.47740610  0.87500000  0.85240610
   0.28417086  0.54783382  0.32813719
   0.21969364  0.67186281  0.95603368
   0.78030636  0.73633904  0.45216618
   0.71969364  0.70603368  0.92186281
   0.28030636  0.20216618  0.98633904
   0.71582914  0.04396632  0.26366096
   0.78417086  0.07813719  0.79783382
   0.21582914  0.01366096  0.29396632
   0.26270558  0.51409617  0.54438756
   0.96970661  0.45561244  0.71832002
   0.03029339  0.74861141  0.48590383
   0.46970661  0.46832002  0.70561244
   0.53029339  0.23590383  0.99861141
   0.73729442  0.28167998  0.25138859
   0.76270558  0.29438756  0.76409617
   0.23729442  0.00138859  0.53167998

 position of ions in cartesian coordinates  (Angst):
  -0.83032396  1.26617623  1.31522054
  -3.99774918  6.09624104  6.33237399
   1.23775284  4.28945050 -1.96058007
  -0.42289507  6.82180295  0.66986100
   2.41208368  2.77781336  1.07150619
   4.97755551  4.48435776 -3.39765061
  -0.51946877  1.07126896  5.30954925
  -0.36803352  6.45902200  4.66418971
  -0.35399672  4.05041884  1.13928179
  -1.46256553  4.94435414  6.83807876
   2.74280554  5.45722932  0.10746295
   2.41051039  5.21515212  4.57664519
   1.30595000  1.47139415  7.48343322
   5.57588390  0.34047457 -0.43724933
   5.97413397  0.57745871  4.03192534
   1.68397359  0.09839750  1.78464382
  -0.35898665  3.79284932  3.19782012
   5.64049213  3.37831520  2.12454046
  -3.37543136  5.52149704  3.26107801
   1.53900465  3.45582620  3.90645284
   3.16226680  1.72896363  6.59368196
   4.59606278  2.09980052 -0.93584405
   4.75109707  2.17731139  3.53332804
   1.92218974  0.00031605  3.84316436



--------------------------------------------------------------------------------------------------------


 k-point   1 :   0.0000 0.0000 0.0000  plane waves:   21529
 k-point   2 :   0.2000 0.0000 0.0000  plane waves:   21517
 k-point   3 :   0.4000 0.0000 0.0000  plane waves:   21507
 k-point   4 :   0.0000 0.2500 0.0000  plane waves:   21522
 k-point   5 :   0.2000 0.2500 0.0000  plane waves:   21543
 k-point   6 :   0.4000 0.2500 0.0000  plane waves:   21546
 k-point   7 :  -0.4000 0.2500 0.0000  plane waves:   21548
 k-point   8 :  -0.2000 0.2500 0.0000  plane waves:   21520
 k-point   9 :   0.0000 0.5000 0.0000  plane waves:   21524
 k-point  10 :   0.2000 0.5000 0.0000  plane waves:   21549
 k-point  11 :   0.4000 0.5000 0.0000  plane waves:   21543
 k-point  12 :   0.0000 0.2500 0.2500  plane waves:   21577
 k-point  13 :   0.2000 0.2500 0.2500  plane waves:   21523
 k-point  14 :   0.4000 0.2500 0.2500  plane waves:   21554
 k-point  15 :  -0.4000 0.2500 0.2500  plane waves:   21558
 k-point  16 :  -0.2000 0.2500 0.2500  plane waves:   21601
 k-point  17 :   0.0000 0.5000 0.2500  plane waves:   21545
 k-point  18 :   0.2000 0.5000 0.2500  plane waves:   21537
 k-point  19 :   0.4000 0.5000 0.2500  plane waves:   21561
 k-point  20 :  -0.4000 0.5000 0.2500  plane waves:   21572
 k-point  21 :  -0.2000 0.5000 0.2500  plane waves:   21564
 k-point  22 :   0.0000-0.2500 0.2500  plane waves:   21499
 k-point  23 :   0.2000-0.2500 0.2500  plane waves:   21549
 k-point  24 :   0.4000-0.2500 0.2500  plane waves:   21573
 k-point  25 :   0.0000 0.5000 0.5000  plane waves:   21504
 k-point  26 :   0.2000 0.5000 0.5000  plane waves:   21562
 k-point  27 :   0.4000 0.5000 0.5000  plane waves:   21574

 maximum and minimum number of plane-waves per node :     21601    21499

 maximum number of plane-waves:     21601
 maximum index in each direction: 
   IXMAX=   19   IYMAX=   19   IZMAX=   19
   IXMIN=  -19   IYMIN=  -19   IZMIN=  -19


 serial   3D FFT for wavefunctions
 parallel 3D FFT for charge:
    minimum data exchange during FFTs selected (reduces bandwidth)


 total amount of memory used by VASP MPI-rank0   309559. kBytes
=======================================================================

   base      :      30000. kBytes
   nonlr-proj:      16875. kBytes
   fftplans  :       6488. kBytes
   grid      :      86348. kBytes
   one-center:        147. kBytes
   wavefun   :     169701. kBytes

     INWAV:  cpu time      0.0000: real time      0.0002
 Broyden mixing: mesh for mixing (old mesh)
   NGX = 39   NGY = 39   NGZ = 39
  (NGX  =160   NGY  =160   NGZ  =160)
  gives a total of  59319 points

 initial charge density was supplied:
 charge density of overlapping atoms calculated
 number of electron     152.0000000 magnetization       0.0000000
 keeping initial charge density in first step


--------------------------------------------------------------------------------------------------------


 Maximum index for non-local projection operator        10255
 Maximum index for augmentation-charges          958 (set IRDMAX)


--------------------------------------------------------------------------------------------------------


 First call to EWALD:  gamma=   0.218
 Maximum number of real-space cells 3x 3x 3
 Maximum number of reciprocal cells 3x 3x 3

    FEWALD:  cpu time      0.0014: real time      0.0014


--------------------------------------- Iteration      1(   1)  ---------------------------------------


    POTLOK:  cpu time      0.6276: real time      0.6277
    SETDIJ:  cpu time      0.7213: real time      0.7215
    TRIAL :  cpu time     82.9236: real time     82.9409
    CORREC:  cpu time      0.0013: real time      0.0013
    --------------------------------------------
      LOOP:  cpu time     84.2950: real time     84.3126

 eigenvalue-minimisations  : 10368
 total energy-change (2. order) : 0.1428576E+04  (-0.8556542E+04)
 number of electron     152.0000000 magnetization       0.0000000
 augmentation part      152.0000000 magnetization       0.0000000

 Free energy of the ion-electron system (eV)
  ---------------------------------------------------
  alpha Z        PSCENC =       213.27357224
  Ewald energy   TEWEN  =     -6774.02189484
  -Hartree energ DENC   =     -2456.25626916
  -exchange      EXHF   =         0.00000000
  -V(xc)+E(xc)   XCENC  =       511.63641218
  PAW double counting   =      7382.45554429    -8130.97684682
  entropy T*S    EENTRO =        -0.00374431
  eigenvalues    EBANDS =       124.97031623
  atomic energy  EATOM  =     10557.49888305
  ---------------------------------------------------
  free energy    TOTEN  =      1428.57597285 eV

  energy without entropy =     1428.57971716  energy(sigma->0) =     1428.57690893


--------------------------------------------------------------------------------------------------------




--------------------------------------- Iteration      1(   2)  ---------------------------------------


    TRIAL :  cpu time     78.4606: real time     78.4736
    CORREC:  cpu time      0.0015: real time      0.0015
    --------------------------------------------
      LOOP:  cpu time     78.4636: real time     78.4770

 eigenvalue-minimisations  : 10368
 total energy-change (2. order) :-0.1417773E+04  (-0.1387472E+04)
 number of electron     152.0000000 magnetization       0.0000000
 augmentation part      152.0000000 magnetization       0.0000000

 Free energy of the ion-electron system (eV)
  ---------------------------------------------------
  alpha Z        PSCENC =       213.27357224
  Ewald energy   TEWEN  =     -6774.02189484
  -Hartree energ DENC   =     -2456.25626916
  -exchange      EXHF   =         0.00000000
  -V(xc)+E(xc)   XCENC  =       511.63641218
  PAW double counting   =      7382.45554429    -8130.97684682
  entropy T*S    EENTRO =         0.00781092
  eigenvalues    EBANDS =     -1292.81379817
  atomic energy  EATOM  =     10557.49888305
  ---------------------------------------------------
  free energy    TOTEN  =        10.80341368 eV

  energy without entropy =       10.79560276  energy(sigma->0) =       10.80146095


--------------------------------------------------------------------------------------------------------




--------------------------------------- Iteration      1(   3)  ---------------------------------------


    TRIAL :  cpu time     89.7082: real time     89.7240
    CORREC:  cpu time      0.0014: real time      0.0014
    --------------------------------------------
      LOOP:  cpu time     89.7107: real time     89.7269

 eigenvalue-minimisations  : 13792
 total energy-change (2. order) :-0.2031879E+03  (-0.2018351E+03)
 number of electron     152.0000000 magnetization       0.0000000
 augmentation part      152.0000000 magnetization       0.0000000

 Free energy of the ion-electron system (eV)
  ---------------------------------------------------
  alpha Z        PSCENC =       213.27357224
  Ewald energy   TEWEN  =     -6774.02189484
  -Hartree energ DENC   =     -2456.25626916
  -exchange      EXHF   =         0.00000000
  -V(xc)+E(xc)   XCENC  =       511.63641218
  PAW double counting   =      7382.45554429    -8130.97684682
  entropy T*S    EENTRO =         0.02055052
  eigenvalues    EBANDS =     -1496.01445318
  atomic energy  EATOM  =     10557.49888305
  ---------------------------------------------------
  free energy    TOTEN  =      -192.38450173 eV

  energy without entropy =     -192.40505225  energy(sigma->0) =     -192.38963936


--------------------------------------------------------------------------------------------------------




--------------------------------------- Iteration      1(   4)  ---------------------------------------


    TRIAL :  cpu time     93.6854: real time     93.6989
    CORREC:  cpu time      0.0015: real time      0.0015
    --------------------------------------------
      LOOP:  cpu time     93.6872: real time     93.7036

 eigenvalue-minimisations  : 13184
 total energy-change (2. order) :-0.7844643E+01  (-0.7815607E+01)
 number of electron     152.0000000 magnetization       0.0000000
 augmentation part      152.0000000 magnetization       0.0000000

 Free energy of the ion-electron system (eV)
  ---------------------------------------------------
  alpha Z        PSCENC =       213.27357224
  Ewald energy   TEWEN  =     -6774.02189484
  -Hartree energ DENC   =     -2456.25626916
  -exchange      EXHF   =         0.00000000
  -V(xc)+E(xc)   XCENC  =       511.63641218
  PAW double counting   =      7382.45554429    -8130.97684682
  entropy T*S    EENTRO =         0.02311546
  eigenvalues    EBANDS =     -1503.86166127
  atomic energy  EATOM  =     10557.49888305
  ---------------------------------------------------
  free energy    TOTEN  =      -200.22914488 eV

  energy without entropy =     -200.25226034  energy(sigma->0) =     -200.23492375


--------------------------------------------------------------------------------------------------------




--------------------------------------- Iteration      1(   5)  ---------------------------------------


    TRIAL :  cpu time     94.2142: real time     94.2299
    CORREC:  cpu time      0.0014: real time      0.0014
    CHARGE:  cpu time     11.4862: real time     11.4878
    --------------------------------------------
      LOOP:  cpu time    105.7030: real time    105.7206

 eigenvalue-minimisations  : 15104
 total energy-change (2. order) :-0.2042232E+00  (-0.2041814E+00)
 number of electron     152.0000002 magnetization       0.0000009
 augmentation part       22.2784243 magnetization      -0.0001704

 Free energy of the ion-electron system (eV)
  ---------------------------------------------------
  alpha Z        PSCENC =       213.27357224
  Ewald energy   TEWEN  =     -6774.02189484
  -Hartree energ DENC   =     -2456.25626916
  -exchange      EXHF   =         0.00000000
  -V(xc)+E(xc)   XCENC  =       511.63641218
  PAW double counting   =      7382.45554429    -8130.97684682
  entropy T*S    EENTRO =         0.02311196
  eigenvalues    EBANDS =     -1504.06588097
  atomic energy  EATOM  =     10557.49888305
  ---------------------------------------------------
  free energy    TOTEN  =      -200.43336809 eV

  energy without entropy =     -200.45648004  energy(sigma->0) =     -200.43914608


--------------------------------------------------------------------------------------------------------




--------------------------------------- Iteration      1(   6)  ---------------------------------------


    POTLOK:  cpu time      4.0567: real time      4.0572
    SETDIJ:  cpu time      0.8366: real time      0.8366
    TRIAL :  cpu time     62.9124: real time     62.9225
    CORREC:  cpu time     27.5749: real time     27.5783
    CHARGE:  cpu time     13.4157: real time     13.4170
    --------------------------------------------
      LOOP:  cpu time    108.8002: real time    108.8161

 eigenvalue-minimisations  :     0
 total energy-change (2. order) : 0.3059579E+02  (-0.3454842E+01)
 number of electron     152.0000002 magnetization       0.0000059
 augmentation part       22.8427534 magnetization      -0.0000671

 Free energy of the ion-electron system (eV)
  ---------------------------------------------------
  alpha Z        PSCENC =       213.27357224
  Ewald energy   TEWEN  =     -6774.02189484
  -Hartree energ DENC   =     -2497.21087487
  -exchange      EXHF   =         0.00000000
  -V(xc)+E(xc)   XCENC  =       521.24382493
  PAW double counting   =     14337.84416301   -15087.64256461
  entropy T*S    EENTRO =         0.02304932
  eigenvalues    EBANDS =     -1440.84580178
  atomic energy  EATOM  =     10557.49888305
  ---------------------------------------------------
  free energy    TOTEN  =      -169.83758091 eV

  energy without entropy =     -169.86063023  energy(sigma->0) =     -169.84334324


--------------------------------------------------------------------------------------------------------




--------------------------------------- Iteration      1(   7)  ---------------------------------------


    POTLOK:  cpu time      2.1373: real time      2.1376
    SETDIJ:  cpu time      0.7454: real time      0.7455
    TRIAL :  cpu time     62.3305: real time     62.3429
    CORREC:  cpu time     26.4599: real time     26.4653
    CHARGE:  cpu time     10.2053: real time     10.2070
    --------------------------------------------
      LOOP:  cpu time    101.8789: real time    101.9034

 eigenvalue-minimisations  :     0
 total energy-change (2. order) :-0.3455484E+01  (-0.3909681E+00)
 number of electron     152.0000002 magnetization       0.0000101
 augmentation part       22.6233336 magnetization      -0.0000950

 Free energy of the ion-electron system (eV)
  ---------------------------------------------------
  alpha Z        PSCENC =       213.27357224
  Ewald energy   TEWEN  =     -6774.02189484
  -Hartree energ DENC   =     -2505.13349546
  -exchange      EXHF   =         0.00000000
  -V(xc)+E(xc)   XCENC  =       521.05567840
  PAW double counting   =     15067.55270496   -15832.52824090
  entropy T*S    EENTRO =         0.02277778
  eigenvalues    EBANDS =     -1421.01332173
  atomic energy  EATOM  =     10557.49888305
  ---------------------------------------------------
  free energy    TOTEN  =      -173.29306497 eV

  energy without entropy =     -173.31584276  energy(sigma->0) =     -173.29875942


--------------------------------------------------------------------------------------------------------




--------------------------------------- Iteration      1(   8)  ---------------------------------------


    POTLOK:  cpu time      0.5491: real time      0.5492
    SETDIJ:  cpu time      0.7208: real time      0.7209
    TRIAL :  cpu time     55.5388: real time     55.5493
    CORREC:  cpu time     31.2998: real time     31.3090
    CHARGE:  cpu time     11.5691: real time     11.5778
    --------------------------------------------
      LOOP:  cpu time     99.6786: real time     99.7077

 eigenvalue-minimisations  :     0
 total energy-change (2. order) :-0.3905692E+00  (-0.2283561E+00)
 number of electron     152.0000002 magnetization       0.0000215
 augmentation part       22.7699035 magnetization      -0.0000758

 Free energy of the ion-electron system (eV)
  ---------------------------------------------------
  alpha Z        PSCENC =       213.27357224
  Ewald energy   TEWEN  =     -6774.02189484
  -Hartree energ DENC   =     -2484.51042519
  -exchange      EXHF   =         0.00000000
  -V(xc)+E(xc)   XCENC  =       519.26165885
  PAW double counting   =     15409.84504684   -16161.24256620
  entropy T*S    EENTRO =         0.02212742
  eigenvalues    EBANDS =     -1453.81068669
  atomic energy  EATOM  =     10557.49888305
  ---------------------------------------------------
  free energy    TOTEN  =      -173.68363416 eV

  energy without entropy =     -173.70576158  energy(sigma->0) =     -173.68916602


--------------------------------------------------------------------------------------------------------




--------------------------------------- Iteration      1(   9)  ---------------------------------------


    POTLOK:  cpu time      0.6711: real time      0.6712
    SETDIJ:  cpu time      0.7020: real time      0.7021
    TRIAL :  cpu time     71.8736: real time     71.8882
    CORREC:  cpu time     27.7165: real time     27.7231
    CHARGE:  cpu time     10.9154: real time     10.9177
    --------------------------------------------
      LOOP:  cpu time    111.8959: real time    111.9204

 eigenvalue-minimisations  :     0
 total energy-change (2. order) :-0.2292277E+00  (-0.5358299E-01)
 number of electron     152.0000002 magnetization       0.0000281
 augmentation part       22.7961340 magnetization      -0.0000358

 Free energy of the ion-electron system (eV)
  ---------------------------------------------------
  alpha Z        PSCENC =       213.27357224
  Ewald energy   TEWEN  =     -6774.02189484
  -Hartree energ DENC   =     -2487.48186229
  -exchange      EXHF   =         0.00000000
  -V(xc)+E(xc)   XCENC  =       519.55031130
  PAW double counting   =     15878.30371487   -16633.42061486
  entropy T*S    EENTRO =         0.02157292
  eigenvalues    EBANDS =     -1447.63709878
  atomic energy  EATOM  =     10557.49888305
  ---------------------------------------------------
  free energy    TOTEN  =      -173.91286189 eV

  energy without entropy =     -173.93443481  energy(sigma->0) =     -173.91825512


--------------------------------------------------------------------------------------------------------




--------------------------------------- Iteration      1(  10)  ---------------------------------------


    POTLOK:  cpu time      0.5724: real time      0.5725
    SETDIJ:  cpu time      0.8069: real time      0.8070
    TRIAL :  cpu time     57.7059: real time     57.7193
    CORREC:  cpu time     33.6106: real time     33.6183
    CHARGE:  cpu time     11.0101: real time     11.0119
    --------------------------------------------
      LOOP:  cpu time    103.7065: real time    103.7329

 eigenvalue-minimisations  :     0
 total energy-change (2. order) :-0.5364997E-01  (-0.1470615E-01)
 number of electron     152.0000002 magnetization       0.0000298
 augmentation part       22.7583554 magnetization      -0.0000164

 Free energy of the ion-electron system (eV)
  ---------------------------------------------------
  alpha Z        PSCENC =       213.27357224
  Ewald energy   TEWEN  =     -6774.02189484
  -Hartree energ DENC   =     -2490.19149892
  -exchange      EXHF   =         0.00000000
  -V(xc)+E(xc)   XCENC  =       519.83903165
  PAW double counting   =     15968.34324896   -16724.67218300
  entropy T*S    EENTRO =         0.02125269
  eigenvalues    EBANDS =     -1444.05724391
  atomic energy  EATOM  =     10557.49888305
  ---------------------------------------------------
  free energy    TOTEN  =      -173.96651186 eV

  energy without entropy =     -173.98776455  energy(sigma->0) =     -173.97182503


--------------------------------------------------------------------------------------------------------




--------------------------------------- Iteration      1(  11)  ---------------------------------------


    POTLOK:  cpu time      5.8642: real time      5.8653
    SETDIJ:  cpu time      0.7402: real time      0.7403
    TRIAL :  cpu time     61.5104: real time     61.5256
    CORREC:  cpu time     29.3236: real time     29.3299
    CHARGE:  cpu time     11.3965: real time     11.3985
    --------------------------------------------
      LOOP:  cpu time    108.8359: real time    108.8735

 eigenvalue-minimisations  :     0
 total energy-change (2. order) :-0.1474745E-01  (-0.5968963E-02)
 number of electron     152.0000002 magnetization       0.0000291
 augmentation part       22.7830970 magnetization      -0.0000098

 Free energy of the ion-electron system (eV)
  ---------------------------------------------------
  alpha Z        PSCENC =       213.27357224
  Ewald energy   TEWEN  =     -6774.02189484
  -Hartree energ DENC   =     -2488.35803306
  -exchange      EXHF   =         0.00000000
  -V(xc)+E(xc)   XCENC  =       519.70316826
  PAW double counting   =     15955.34261744   -16709.97137197
  entropy T*S    EENTRO =         0.02103127
  eigenvalues    EBANDS =     -1447.46945311
  atomic energy  EATOM  =     10557.49888305
  ---------------------------------------------------
  free energy    TOTEN  =      -173.98125931 eV

  energy without entropy =     -174.00229058  energy(sigma->0) =     -173.98651713


--------------------------------------------------------------------------------------------------------




--------------------------------------- Iteration      1(  12)  ---------------------------------------


    POTLOK:  cpu time      4.7697: real time      4.7704
    SETDIJ:  cpu time      0.7158: real time      0.7207
    TRIAL :  cpu time     67.6335: real time     67.6476
    CORREC:  cpu time     25.4148: real time     25.4207
    CHARGE:  cpu time     11.0185: real time     11.0204
    --------------------------------------------
      LOOP:  cpu time    109.5568: real time    109.5846

 eigenvalue-minimisations  :     0
 total energy-change (2. order) :-0.5988463E-02  (-0.2117682E-02)
 number of electron     152.0000002 magnetization       0.0000268
 augmentation part       22.7830390 magnetization      -0.0000097

 Free energy of the ion-electron system (eV)
  ---------------------------------------------------
  alpha Z        PSCENC =       213.27357224
  Ewald energy   TEWEN  =     -6774.02189484
  -Hartree energ DENC   =     -2489.48376216
  -exchange      EXHF   =         0.00000000
  -V(xc)+E(xc)   XCENC  =       519.78088678
  PAW double counting   =     15919.28941054   -16674.91908326
  entropy T*S    EENTRO =         0.02090616
  eigenvalues    EBANDS =     -1445.42629138
  atomic energy  EATOM  =     10557.49888305
  ---------------------------------------------------
  free energy    TOTEN  =      -173.98724777 eV

  energy without entropy =     -174.00815393  energy(sigma->0) =     -173.99247431


--------------------------------------------------------------------------------------------------------




--------------------------------------- Iteration      1(  13)  ---------------------------------------


    POTLOK:  cpu time      4.2913: real time      4.2919
    SETDIJ:  cpu time      0.7188: real time      0.7190
    TRIAL :  cpu time     62.5790: real time     62.5926
    CORREC:  cpu time     28.1653: real time     28.1708
    CHARGE:  cpu time     10.5882: real time     10.5906
    --------------------------------------------
      LOOP:  cpu time    106.3444: real time    106.3668

 eigenvalue-minimisations  :     0
 total energy-change (2. order) :-0.2174384E-02  (-0.5358887E-03)
 number of electron     152.0000002 magnetization       0.0000239
 augmentation part       22.7803645 magnetization      -0.0000048

 Free energy of the ion-electron system (eV)
  ---------------------------------------------------
  alpha Z        PSCENC =       213.27357224
  Ewald energy   TEWEN  =     -6774.02189484
  -Hartree energ DENC   =     -2489.09548641
  -exchange      EXHF   =         0.00000000
  -V(xc)+E(xc)   XCENC  =       519.74258937
  PAW double counting   =     15883.99349827   -16639.47298962
  entropy T*S    EENTRO =         0.02085891
  eigenvalues    EBANDS =     -1445.92850037
  atomic energy  EATOM  =     10557.49888305
  ---------------------------------------------------
  free energy    TOTEN  =      -173.98942215 eV

  energy without entropy =     -174.01028107  energy(sigma->0) =     -173.99463688


--------------------------------------------------------------------------------------------------------




--------------------------------------- Iteration      1(  14)  ---------------------------------------


    POTLOK:  cpu time      0.5640: real time      0.5958
    SETDIJ:  cpu time      0.7323: real time      0.7324
    TRIAL :  cpu time     55.1287: real time     55.1831
    CORREC:  cpu time     28.1438: real time     28.1472
    CHARGE:  cpu time     10.2215: real time     10.2233
    --------------------------------------------
      LOOP:  cpu time     94.7912: real time     99.2822

 eigenvalue-minimisations  :     0
 total energy-change (2. order) :-0.5600803E-03  (-0.2581856E-03)
 number of electron     152.0000002 magnetization       0.0000200
 augmentation part       22.7852051 magnetization      -0.0000006

 Free energy of the ion-electron system (eV)
  ---------------------------------------------------
  alpha Z        PSCENC =       213.27357224
  Ewald energy   TEWEN  =     -6774.02189484
  -Hartree energ DENC   =     -2488.84423359
  -exchange      EXHF   =         0.00000000
  -V(xc)+E(xc)   XCENC  =       519.72142270
  PAW double counting   =     15864.86682224   -16620.16387426
  entropy T*S    EENTRO =         0.02082856
  eigenvalues    EBANDS =     -1446.34153869
  atomic energy  EATOM  =     10557.49888305
  ---------------------------------------------------
  free energy    TOTEN  =      -173.98998223 eV

  energy without entropy =     -174.01081079  energy(sigma->0) =     -173.99518937


--------------------------------------------------------------------------------------------------------




--------------------------------------- Iteration      1(  15)  ---------------------------------------


    POTLOK:  cpu time      0.5654: real time      0.5654
    SETDIJ:  cpu time      0.7293: real time      0.7294
    TRIAL :  cpu time     70.9450: real time     70.9636
    CORREC:  cpu time     29.8756: real time     29.8807
    CHARGE:  cpu time     11.3253: real time     11.3266
    --------------------------------------------
      LOOP:  cpu time    113.4413: real time    113.6137

 eigenvalue-minimisations  :     0
 total energy-change (2. order) :-0.2601299E-03  (-0.6621860E-04)
 number of electron     152.0000002 magnetization       0.0000168
 augmentation part       22.7850131 magnetization      -0.0000010

 Free energy of the ion-electron system (eV)
  ---------------------------------------------------
  alpha Z        PSCENC =       213.27357224
  Ewald energy   TEWEN  =     -6774.02189484
  -Hartree energ DENC   =     -2489.08819025
  -exchange      EXHF   =         0.00000000
  -V(xc)+E(xc)   XCENC  =       519.74005618
  PAW double counting   =     15851.99352441   -16607.46533654
  entropy T*S    EENTRO =         0.02081549
  eigenvalues    EBANDS =     -1445.94168517
  atomic energy  EATOM  =     10557.49888305
  ---------------------------------------------------
  free energy    TOTEN  =      -173.99024236 eV

  energy without entropy =     -174.01105785  energy(sigma->0) =     -173.99544624


--------------------------------------------------------------------------------------------------------




--------------------------------------- Iteration      1(  16)  ---------------------------------------


    POTLOK:  cpu time      0.5193: real time      0.5193
    SETDIJ:  cpu time      0.7433: real time      0.7434
    TRIAL :  cpu time     70.3364: real time     70.3460
    CORREC:  cpu time     27.7143: real time     27.7182
    CHARGE:  cpu time     11.0858: real time     11.0874
    --------------------------------------------
      LOOP:  cpu time    110.4008: real time    110.4165

 eigenvalue-minimisations  :     0
 total energy-change (2. order) :-0.6890785E-04  (-0.1209908E-04)
 number of electron     152.0000002 magnetization       0.0000152
 augmentation part       22.7848214 magnetization      -0.0000014

 Free energy of the ion-electron system (eV)
  ---------------------------------------------------
  alpha Z        PSCENC =       213.27357224
  Ewald energy   TEWEN  =     -6774.02189484
  -Hartree energ DENC   =     -2489.04042381
  -exchange      EXHF   =         0.00000000
  -V(xc)+E(xc)   XCENC  =       519.73632169
  PAW double counting   =     15848.56890786   -16603.99996014
  entropy T*S    EENTRO =         0.02081205
  eigenvalues    EBANDS =     -1446.02653280
  atomic energy  EATOM  =     10557.49888305
  ---------------------------------------------------
  free energy    TOTEN  =      -173.99031127 eV

  energy without entropy =     -174.01112332  energy(sigma->0) =     -173.99551428


--------------------------------------------------------------------------------------------------------




--------------------------------------- Iteration      1(  17)  ---------------------------------------


    POTLOK:  cpu time      0.5299: real time      0.5300
    SETDIJ:  cpu time      0.7159: real time      0.7159
    TRIAL :  cpu time     61.8561: real time     61.8655
    CORREC:  cpu time     28.8114: real time     28.8149
    CHARGE:  cpu time     11.4582: real time     11.4596
    --------------------------------------------
      LOOP:  cpu time    103.3726: real time    103.3873

 eigenvalue-minimisations  :     0
 total energy-change (2. order) :-0.1008371E-04  (-0.4946820E-05)
 number of electron     152.0000002 magnetization       0.0000138
 augmentation part       22.7851314 magnetization      -0.0000013

 Free energy of the ion-electron system (eV)
  ---------------------------------------------------
  alpha Z        PSCENC =       213.27357224
  Ewald energy   TEWEN  =     -6774.02189484
  -Hartree energ DENC   =     -2489.01398282
  -exchange      EXHF   =         0.00000000
  -V(xc)+E(xc)   XCENC  =       519.73443293
  PAW double counting   =     15849.07524831   -16604.48652757
  entropy T*S    EENTRO =         0.02081069
  eigenvalues    EBANDS =     -1446.07086471
  atomic energy  EATOM  =     10557.49888305
  ---------------------------------------------------
  free energy    TOTEN  =      -173.99032136 eV

  energy without entropy =     -174.01113204  energy(sigma->0) =     -173.99552403


--------------------------------------------------------------------------------------------------------




--------------------------------------- Iteration      1(  18)  ---------------------------------------


    POTLOK:  cpu time      8.0838: real time      8.0849
    SETDIJ:  cpu time      0.7259: real time      0.7260
    TRIAL :  cpu time     63.6890: real time     63.6964
    CORREC:  cpu time     30.9510: real time     30.9558
    CHARGE:  cpu time     11.8460: real time     11.8482
    --------------------------------------------
      LOOP:  cpu time    115.3091: real time    115.3296

 eigenvalue-minimisations  :     0
 total energy-change (2. order) :-0.5031434E-05  (-0.1321327E-05)
 number of electron     152.0000002 magnetization       0.0000129
 augmentation part       22.7851497 magnetization      -0.0000012

 Free energy of the ion-electron system (eV)
  ---------------------------------------------------
  alpha Z        PSCENC =       213.27357224
  Ewald energy   TEWEN  =     -6774.02189484
  -Hartree energ DENC   =     -2489.02450638
  -exchange      EXHF   =         0.00000000
  -V(xc)+E(xc)   XCENC  =       519.73543395
  PAW double counting   =     15850.21908894   -16605.63933380
  entropy T*S    EENTRO =         0.02081008
  eigenvalues    EBANDS =     -1446.05238022
  atomic energy  EATOM  =     10557.49888305
  ---------------------------------------------------
  free energy    TOTEN  =      -173.99032639 eV

  energy without entropy =     -174.01113647  energy(sigma->0) =     -173.99552891


--------------------------------------------------------------------------------------------------------




--------------------------------------- Iteration      1(  19)  ---------------------------------------


    POTLOK:  cpu time      3.3882: real time      3.3885
    SETDIJ:  cpu time      0.7030: real time      0.7030
    TRIAL :  cpu time     62.2525: real time     62.2604
    CORREC:  cpu time     31.2028: real time     31.2062
    CHARGE:  cpu time     10.7906: real time     10.7918
    --------------------------------------------
      LOOP:  cpu time    108.3385: real time    108.3518

 eigenvalue-minimisations  :     0
 total energy-change (2. order) :-0.9018113E-06  (-0.9290280E-06)
 number of electron     152.0000002 magnetization       0.0000121
 augmentation part       22.7851997 magnetization      -0.0000012

 Free energy of the ion-electron system (eV)
  ---------------------------------------------------
  alpha Z        PSCENC =       213.27357224
  Ewald energy   TEWEN  =     -6774.02189484
  -Hartree energ DENC   =     -2489.02214960
  -exchange      EXHF   =         0.00000000
  -V(xc)+E(xc)   XCENC  =       519.73533316
  PAW double counting   =     15850.77332717   -16606.19173429
  entropy T*S    EENTRO =         0.02080952
  eigenvalues    EBANDS =     -1446.05647425
  atomic energy  EATOM  =     10557.49888305
  ---------------------------------------------------
  free energy    TOTEN  =      -173.99032729 eV

  energy without entropy =     -174.01113681  energy(sigma->0) =     -173.99552967


--------------------------------------------------------------------------------------------------------




--------------------------------------- Iteration      1(  20)  ---------------------------------------


    POTLOK:  cpu time      0.5389: real time      0.5389
    SETDIJ:  cpu time      0.7094: real time      0.7859
    TRIAL :  cpu time     63.8648: real time     63.8734
    CORREC:  cpu time     31.6313: real time     31.6353
    CHARGE:  cpu time     11.0994: real time     11.1009
    --------------------------------------------
      LOOP:  cpu time    107.8451: real time    107.9362

 eigenvalue-minimisations  :     0
 total energy-change (2. order) :-0.7115068E-06  (-0.5676549E-06)
 number of electron     152.0000002 magnetization       0.0000113
 augmentation part       22.7852425 magnetization      -0.0000011

 Free energy of the ion-electron system (eV)
  ---------------------------------------------------
  alpha Z        PSCENC =       213.27357224
  Ewald energy   TEWEN  =     -6774.02189484
  -Hartree energ DENC   =     -2489.02218439
  -exchange      EXHF   =         0.00000000
  -V(xc)+E(xc)   XCENC  =       519.73540106
  PAW double counting   =     15851.25939628   -16606.67766320
  entropy T*S    EENTRO =         0.02080909
  eigenvalues    EBANDS =     -1446.05664771
  atomic energy  EATOM  =     10557.49888305
  ---------------------------------------------------
  free energy    TOTEN  =      -173.99032800 eV

  energy without entropy =     -174.01113710  energy(sigma->0) =     -173.99553027


--------------------------------------------------------------------------------------------------------




--------------------------------------- Iteration      1(  21)  ---------------------------------------


    POTLOK:  cpu time      2.2338: real time      2.2341
    SETDIJ:  cpu time      0.7751: real time      0.7753
    TRIAL :  cpu time     62.6515: real time     62.6639
    CORREC:  cpu time     27.2081: real time     27.2123
    CHARGE:  cpu time     14.1795: real time     14.1817
    --------------------------------------------
      LOOP:  cpu time    107.0492: real time    107.0689

 eigenvalue-minimisations  :     0
 total energy-change (2. order) :-0.3730729E-06  (-0.3631330E-06)
 number of electron     152.0000002 magnetization       0.0000107
 augmentation part       22.7852766 magnetization      -0.0000010

 Free energy of the ion-electron system (eV)
  ---------------------------------------------------
  alpha Z        PSCENC =       213.27357224
  Ewald energy   TEWEN  =     -6774.02189484
  -Hartree energ DENC   =     -2489.02249855
  -exchange      EXHF   =         0.00000000
  -V(xc)+E(xc)   XCENC  =       519.73547224
  PAW double counting   =     15851.62837936   -16607.04669880
  entropy T*S    EENTRO =         0.02080877
  eigenvalues    EBANDS =     -1446.05635216
  atomic energy  EATOM  =     10557.49888305
  ---------------------------------------------------
  free energy    TOTEN  =      -173.99032837 eV

  energy without entropy =     -174.01113715  energy(sigma->0) =     -173.99553057


--------------------------------------------------------------------------------------------------------




--------------------------------------- Iteration      1(  22)  ---------------------------------------


    POTLOK:  cpu time      2.0372: real time      2.0374
    SETDIJ:  cpu time      0.7619: real time      0.7619
    TRIAL :  cpu time     68.3080: real time     68.3170
    CORREC:  cpu time     27.7411: real time     27.7439
    CHARGE:  cpu time     11.7279: real time     11.7296
    --------------------------------------------
      LOOP:  cpu time    110.5996: real time    110.6290

 eigenvalue-minimisations  :     0
 total energy-change (2. order) :-0.1849585E-06  (-0.2453399E-06)
 number of electron     152.0000002 magnetization       0.0000102
 augmentation part       22.7853041 magnetization      -0.0000010

 Free energy of the ion-electron system (eV)
  ---------------------------------------------------
  alpha Z        PSCENC =       213.27357224
  Ewald energy   TEWEN  =     -6774.02189484
  -Hartree energ DENC   =     -2489.02276969
  -exchange      EXHF   =         0.00000000
  -V(xc)+E(xc)   XCENC  =       519.73552810
  PAW double counting   =     15851.91527048   -16607.33364604
  entropy T*S    EENTRO =         0.02080853
  eigenvalues    EBANDS =     -1446.05608063
  atomic energy  EATOM  =     10557.49888305
  ---------------------------------------------------
  free energy    TOTEN  =      -173.99032856 eV

  energy without entropy =     -174.01113708  energy(sigma->0) =     -173.99553069


--------------------------------------------------------------------------------------------------------




--------------------------------------- Iteration      1(  23)  ---------------------------------------


    POTLOK:  cpu time      4.2883: real time      4.2887
    SETDIJ:  cpu time      0.7283: real time      0.7283
    TRIAL :  cpu time     66.7975: real time     66.8074
    CORREC:  cpu time     26.1650: real time     26.1676
    CHARGE:  cpu time     11.6274: real time     11.6289
    --------------------------------------------
      LOOP:  cpu time    109.6074: real time    109.6282

 eigenvalue-minimisations  :     0
 total energy-change (2. order) :-0.8607458E-07  (-0.1735829E-06)
 number of electron     152.0000002 magnetization       0.0000097
 augmentation part       22.7853267 magnetization      -0.0000009

 Free energy of the ion-electron system (eV)
  ---------------------------------------------------
  alpha Z        PSCENC =       213.27357224
  Ewald energy   TEWEN  =     -6774.02189484
  -Hartree energ DENC   =     -2489.02298081
  -exchange      EXHF   =         0.00000000
  -V(xc)+E(xc)   XCENC  =       519.73557191
  PAW double counting   =     15852.14694696   -16607.56537062
  entropy T*S    EENTRO =         0.02080833
  eigenvalues    EBANDS =     -1446.05586505
  atomic energy  EATOM  =     10557.49888305
  ---------------------------------------------------
  free energy    TOTEN  =      -173.99032864 eV

  energy without entropy =     -174.01113697  energy(sigma->0) =     -173.99553073


--------------------------------------------------------------------------------------------------------




--------------------------------------- Iteration      1(  24)  ---------------------------------------


    POTLOK:  cpu time      7.4281: real time      7.4288
    SETDIJ:  cpu time      0.7295: real time      0.7296
    TRIAL :  cpu time     58.5482: real time     58.5553
    CORREC:  cpu time     36.1561: real time     36.1602
    CHARGE:  cpu time     11.3585: real time     11.3599
    --------------------------------------------
      LOOP:  cpu time    114.2217: real time    114.2381

 eigenvalue-minimisations  :     0
 total energy-change (2. order) :-0.3365312E-07  (-0.1270298E-06)
 number of electron     152.0000002 magnetization       0.0000093
 augmentation part       22.7853455 magnetization      -0.0000009

 Free energy of the ion-electron system (eV)
  ---------------------------------------------------
  alpha Z        PSCENC =       213.27357224
  Ewald energy   TEWEN  =     -6774.02189484
  -Hartree energ DENC   =     -2489.02314465
  -exchange      EXHF   =         0.00000000
  -V(xc)+E(xc)   XCENC  =       519.73560738
  PAW double counting   =     15852.34024430   -16607.75870913
  entropy T*S    EENTRO =         0.02080817
  eigenvalues    EBANDS =     -1446.05569534
  atomic energy  EATOM  =     10557.49888305
  ---------------------------------------------------
  free energy    TOTEN  =      -173.99032868 eV

  energy without entropy =     -174.01113685  energy(sigma->0) =     -173.99553072


--------------------------------------------------------------------------------------------------------




--------------------------------------- Iteration      1(  25)  ---------------------------------------


    POTLOK:  cpu time      0.5487: real time      0.5487
    SETDIJ:  cpu time      0.7159: real time      0.7160
    TRIAL :  cpu time     63.6036: real time     63.6123
    CORREC:  cpu time     26.9990: real time     27.0030
    CHARGE:  cpu time     10.9986: real time     11.0001
    --------------------------------------------
      LOOP:  cpu time    102.8676: real time    102.8831

 eigenvalue-minimisations  :     0
 total energy-change (2. order) :-0.4654794E-08  (-0.9621166E-07)
[...]
     42      -3.9101      1.00000
     43      -3.6889      1.00000
     44      -3.6889      1.00000
     45      -3.0602      1.00000
     46      -3.0602      1.00000
     47      -2.8318      1.00000
     48      -2.8318      1.00000
     49      -2.4467      1.00000
     50      -2.4467      1.00000
     51      -2.1041      1.00000
     52      -2.1040      1.00000
     53      -1.2482      1.00000
     54      -1.2481      1.00000
     55      -1.1134      1.00000
     56      -1.1134      1.00000
     57      -0.9559      1.00000
     58      -0.9559      1.00000
     59      -0.5031      1.00000
     60      -0.5031      1.00000
     61       0.0797      1.00000
     62       0.0798      1.00000
     63       0.3910      1.00000
     64       0.3911      1.00000
     65       0.5922      1.00000
     66       0.5923      1.00000
     67       1.0124      1.00000
     68       1.0124      1.00000
     69       1.3839      0.99994
     70       1.3839      0.99994
     71       1.5325      0.99836
     72       1.5326      0.99836
     73       1.7910      1.02990
     74       1.7910      1.02991
     75       1.8311      1.04727
     76       1.8311      1.04728
     77       4.6594      0.00000
     78       4.6595      0.00000
     79       5.0232      0.00000
     80       5.0232      0.00000
     81       5.2233      0.00000
     82       5.2234      0.00000
     83       5.4998      0.00000
     84       5.4998      0.00000
     85       6.1972      0.00000
     86       6.1972      0.00000
     87       6.5709      0.00000
     88       6.5709      0.00000
     89       7.2659      0.00000
     90       7.2659      0.00000
     91       8.0303      0.00000
     92       8.0303      0.00000
     93       8.1904      0.00000
     94       8.1906      0.00000
     95       8.5299      0.00000
     96       8.5309      0.00000


--------------------------------------------------------------------------------------------------------


 soft charge-density along one line, spin component           1
         0         1         2         3         4         5         6         7         8         9
 total charge-density along one line

 soft charge-density along one line, spin component           2
         0         1         2         3         4         5         6         7         8         9
 total charge-density along one line

 pseudopotential strength for first ion, spin component:           1
-25.696  -0.008  -0.000   2.718   0.002   0.000   0.001   0.005
 -0.008 -25.694   0.003   0.002   2.718  -0.001   0.002   0.005
 -0.000   0.003 -25.699   0.000  -0.001   2.719  -0.001  -0.003
  2.718   0.002   0.000   7.600   0.004  -0.001   0.003   0.006
  0.002   2.718  -0.001   0.004   7.599  -0.004   0.003   0.006
  0.000  -0.001   2.719  -0.001  -0.004   7.598  -0.002  -0.004
  0.001   0.002  -0.001   0.003   0.003  -0.002   1.598   7.669
  0.005   0.005  -0.003   0.006   0.006  -0.004   7.669  36.789
 pseudopotential strength for first ion, spin component:           2
-25.696  -0.008  -0.000   2.718   0.002   0.000   0.001   0.005
 -0.008 -25.694   0.003   0.002   2.718  -0.001   0.002   0.005
 -0.000   0.003 -25.699   0.000  -0.001   2.719  -0.001  -0.003
  2.718   0.002   0.000   7.600   0.004  -0.001   0.003   0.006
  0.002   2.718  -0.001   0.004   7.599  -0.004   0.003   0.006
  0.000  -0.001   2.719  -0.001  -0.004   7.598  -0.002  -0.004
  0.001   0.002  -0.001   0.003   0.003  -0.002   1.598   7.669
  0.005   0.005  -0.003   0.006   0.006  -0.004   7.669  36.789
 total augmentation occupancy for first ion, spin component:           1
  2.001   0.000  -0.000  -0.009   0.001   0.000  -0.004   0.002
  0.000   2.001  -0.000   0.001  -0.009  -0.001  -0.004   0.002
 -0.000  -0.000   2.001   0.000  -0.001  -0.009   0.003  -0.001
 -0.009   0.001   0.000   0.015  -0.002   0.000  -0.005   0.000
  0.001  -0.009  -0.001  -0.002   0.016   0.002  -0.005   0.000
  0.000  -0.001  -0.009   0.000   0.002   0.016   0.003  -0.000
 -0.004  -0.004   0.003  -0.005  -0.005   0.003   0.386   0.001
  0.002   0.002  -0.001   0.000   0.000  -0.000   0.001   0.000
 total augmentation occupancy for first ion, spin component:           2
  0.000   0.000   0.000   0.000  -0.000  -0.000   0.000  -0.000
  0.000  -0.000  -0.000  -0.000   0.000   0.000   0.000  -0.000
  0.000  -0.000  -0.000  -0.000   0.000  -0.000  -0.000   0.000
  0.000  -0.000  -0.000  -0.000   0.000   0.000  -0.000   0.000
 -0.000   0.000   0.000   0.000  -0.000   0.000  -0.000   0.000
 -0.000   0.000  -0.000   0.000   0.000   0.000   0.000  -0.000
  0.000   0.000  -0.000  -0.000  -0.000   0.000  -0.000   0.000
 -0.000  -0.000   0.000   0.000   0.000  -0.000   0.000  -0.000


------------------------ aborting loop because EDIFF is reached ----------------------------------------





 total charge

# of ion       s       p       d       tot
------------------------------------------
    1        0.044   5.982   0.000   6.026
    2        0.044   5.982   0.000   6.026
    3        0.044   5.982   0.000   6.026
    4        0.044   5.982   0.000   6.026
    5        0.037   5.977   0.000   6.014
    6        0.037   5.977   0.000   6.014
    7        0.037   5.977   0.000   6.014
    8        0.037   5.977   0.000   6.014
    9        1.338   2.377   0.000   3.715
   10        1.338   2.377   0.000   3.715
   11        1.338   2.377   0.000   3.715
   12        1.338   2.377   0.000   3.715
   13        1.338   2.377   0.000   3.715
   14        1.338   2.377   0.000   3.715
   15        1.338   2.377   0.000   3.715
   16        1.338   2.377   0.000   3.715
   17        1.353   2.287   0.000   3.641
   18        1.353   2.287   0.000   3.641
   19        1.353   2.287   0.000   3.641
   20        1.353   2.287   0.000   3.641
   21        1.353   2.287   0.000   3.641
   22        1.353   2.287   0.000   3.641
   23        1.353   2.287   0.000   3.641
   24        1.353   2.287   0.000   3.641
--------------------------------------------------
tot         21.860  85.149   0.000 107.008



 magnetization (x)

# of ion       s       p       d       tot
------------------------------------------
    1       -0.000  -0.000   0.000  -0.000
    2       -0.000  -0.000   0.000  -0.000
    3       -0.000  -0.000   0.000  -0.000
    4       -0.000  -0.000   0.000  -0.000
    5        0.000   0.000   0.000   0.000
    6        0.000   0.000   0.000   0.000
    7        0.000   0.000   0.000   0.000
    8        0.000   0.000   0.000   0.000
    9        0.000   0.000   0.000   0.000
   10        0.000   0.000   0.000   0.000
   11        0.000   0.000   0.000   0.000
   12        0.000   0.000   0.000   0.000
   13        0.000   0.000   0.000   0.000
   14        0.000   0.000   0.000   0.000
   15        0.000   0.000   0.000   0.000
   16        0.000   0.000   0.000   0.000
   17       -0.000  -0.000   0.000  -0.000
   18       -0.000  -0.000   0.000  -0.000
   19       -0.000  -0.000   0.000  -0.000
   20       -0.000  -0.000   0.000  -0.000
   21       -0.000  -0.000   0.000  -0.000
   22       -0.000  -0.000   0.000  -0.000
   23       -0.000  -0.000   0.000  -0.000
   24       -0.000  -0.000   0.000  -0.000
--------------------------------------------------
tot          0.000  -0.000   0.000  -0.000

    FORLOC:  cpu time      0.0149: real time      0.0149
    FORNL :  cpu time      6.9327: real time      6.9343
    STRESS:  cpu time    146.0362: real time    146.1041
    FORCOR:  cpu time      3.9403: real time      3.9409
    OFIELD:  cpu time      0.0015: real time      0.0015

  FORCE on cell =-STRESS in cart. coord.  units (eV):
  Direction    XX          YY          ZZ          XY          YZ          ZX
  --------------------------------------------------------------------------------------
  Alpha Z   212.20158   212.20158   212.20158
  Ewald   -2221.39945 -2265.28150 -2271.36273    50.49176   -79.97691    52.44804
  Hartree   840.03954   829.92073   828.51888    11.64190   -18.44061    12.09271
  E(xc)    -661.71077  -661.66249  -661.62870    -0.05486     0.10123    -0.06569
  Local    -905.15475  -862.49908  -856.58801   -49.08030    77.74170   -50.98196
  n-local   956.64872   958.91325   959.19231    -2.62385     4.13676    -2.70408
  augment   102.19678   101.04781   100.89203     1.31636    -2.08991     1.36818
  Kinetic  1677.18562  1687.15755  1689.20312   -11.49916    18.52578   -12.13814
  Fock        0.00000     0.00000     0.00000     0.00000     0.00000     0.00000
  -------------------------------------------------------------------------------------
  Total       0.09857     0.06952     0.06550     0.03343    -0.05295     0.03472
  in kB       0.29359     0.20707     0.19508     0.09956    -0.15769     0.10341
  external pressure =        0.23 kB  Pullay stress =        0.00 kB


 VOLUME and BASIS-vectors are now :
 -----------------------------------------------------------------------------
  energy-cutoff  :      680.00
  volume of cell :      537.93
      direct lattice vectors                 reciprocal lattice vectors
     8.093111622  0.038985761 -3.826694873     0.123172772  0.080773355  0.000000001
    -4.857297535  7.406982151 -1.298782219    -0.000371464  0.134867327  0.000588394
     0.025565759 -0.038985758  8.952171974     0.052597533  0.054093942  0.111790100

  length of vectors
     8.952294079  8.952293515  8.952293368     0.147295169  0.134869122  0.134869127


 FORCES acting on ions:
    Electron-Ion                     Ewald-Force                    Non-Local-Force
 -----------------------------------------------------------------------------------------------
   -.749E+01 0.114E+02 0.119E+02   0.774E+01 -.118E+02 -.123E+02   -.244E+00 0.372E+00 0.386E+00
   0.749E+01 -.114E+02 -.119E+02   -.774E+01 0.118E+02 0.122E+02   0.244E+00 -.372E+00 -.386E+00
   0.749E+01 -.114E+02 -.119E+02   -.773E+01 0.118E+02 0.123E+02   0.244E+00 -.372E+00 -.386E+00
   -.749E+01 0.114E+02 0.119E+02   0.774E+01 -.118E+02 -.123E+02   -.244E+00 0.372E+00 0.386E+00
   -.159E+02 0.191E-03 -.101E+02   0.147E+02 0.139E-02 0.929E+01   0.123E+01 0.412E-09 0.779E+00
   0.635E+01 0.146E+02 -.101E+02   -.586E+01 -.135E+02 0.928E+01   -.492E+00 -.113E+01 0.779E+00
   -.635E+01 -.146E+02 0.101E+02   0.586E+01 0.135E+02 -.928E+01   0.492E+00 0.113E+01 -.779E+00
   0.159E+02 -.165E-03 0.101E+02   -.147E+02 -.116E-02 -.928E+01   -.123E+01 -.412E-09 -.779E+00
   -.476E+01 -.132E+02 0.625E+02   0.447E+01 0.134E+02 -.683E+02   0.316E+00 -.183E+00 0.577E+01
   -.337E+02 -.446E+02 -.312E+02   0.361E+02 0.495E+02 0.334E+02   -.230E+01 -.483E+01 -.220E+01
   0.624E+02 0.875E+00 -.142E+02   -.677E+02 -.124E+01 0.167E+02   0.523E+01 0.363E+00 -.244E+01
   -.257E+02 -.569E+02 -.143E+02   0.281E+02 0.616E+02 0.167E+02   -.242E+01 -.465E+01 -.244E+01
   0.544E+02 0.132E+02 -.312E+02   -.598E+02 -.134E+02 0.334E+02   0.535E+01 0.183E+00 -.220E+01
   -.239E+02 0.569E+02 -.171E+02   0.272E+02 -.616E+02 0.182E+02   -.325E+01 0.465E+01 -.113E+01
   -.427E+02 0.446E+02 -.171E+02   0.457E+02 -.495E+02 0.182E+02   -.297E+01 0.483E+01 -.113E+01
   0.140E+02 -.875E+00 0.625E+02   -.141E+02 0.124E+01 -.683E+02   0.414E-01 -.363E+00 0.577E+01
   0.627E+02 -.320E+01 -.322E+02   -.709E+02 0.250E+01 0.399E+02   0.813E+01 0.703E+00 -.765E+01
   -.208E+01 0.323E+01 0.704E+02   0.950E-01 -.607E+01 -.812E+02   0.200E+01 0.285E+01 0.106E+02
   -.386E+02 0.588E+02 -.605E+01   0.472E+02 -.660E+02 0.628E+01   -.858E+01 0.718E+01 -.217E+00
   -.385E+02 0.588E+02 -.605E+01   0.417E+02 -.696E+02 0.628E+01   -.316E+01 0.107E+02 -.217E+00
   -.213E+01 0.320E+01 0.704E+02   0.552E+01 -.250E+01 -.812E+02   -.341E+01 -.703E+00 0.106E+02
   -.220E+02 -.588E+02 -.322E+02   0.236E+02 0.696E+02 0.350E+02   -.156E+01 -.107E+02 -.276E+01
   0.627E+02 -.323E+01 -.322E+02   -.732E+02 0.606E+01 0.350E+02   0.105E+02 -.285E+01 -.276E+01
   -.221E+02 -.588E+02 -.322E+02   0.260E+02 0.660E+02 0.399E+02   -.389E+01 -.718E+01 -.765E+01
 -----------------------------------------------------------------------------------------------
   0.224E-02 -.349E-03 -.132E-02   -.675E-13 0.000E+00 -.426E-13   0.222E-14 -.124E-13 0.355E-14


 POSITION                                       TOTAL-FORCE (eV/Angst)
 -----------------------------------------------------------------------------------
     -0.83449      1.27253      1.32182        -0.001042      0.001589      0.001650
     -3.99724      6.09547      6.33157         0.001042     -0.001589     -0.001650
      1.24446      4.29246     -1.97121         0.001042     -0.001589     -0.001650
     -0.42451      6.83751      0.67243        -0.001042      0.001589      0.001650
      2.41004      2.78249      1.06740        -0.000259     -0.000000     -0.000164
      4.99059      4.50262     -3.40869         0.000103      0.000238     -0.000164
     -0.52128      1.06236      5.32204        -0.000103     -0.000238      0.000164
     -0.35660      6.46649      4.67264         0.000259      0.000000      0.000164
     -0.34839      4.05642      1.14440        -0.001781      0.010571     -0.011578
     -1.46352      4.94109      6.84674         0.014166      0.006075      0.003371
      2.75441      5.47073      0.10117        -0.014316     -0.005847     -0.003133
      2.41341      5.21925      4.57728         0.011068      0.010800     -0.003133
      1.31892      1.46957      7.49612        -0.011218     -0.010571      0.003371
      5.58025      0.34574     -0.43894         0.001931     -0.010800      0.011340
      5.98748      0.58491      4.03717         0.009136     -0.006075      0.011340
      1.68583      0.09425      1.79380        -0.008986      0.005847     -0.011578
     -0.35489      3.79789      3.20248        -0.009656     -0.001838      0.011385
      5.65305      3.38159      2.12913        -0.004127     -0.004886     -0.013613
     -3.37757      5.52882      3.25923         0.012658     -0.008123      0.000100
      1.54274      3.45932      3.90863         0.002405     -0.014847      0.000100
      3.17417      1.72811      6.60520         0.006126      0.001838     -0.013613
      4.60218      2.10567     -0.93744         0.001125      0.014847      0.002128
      4.76319      2.18340      3.53866        -0.014065      0.004886      0.002128
      1.92553     -0.00282      3.85185         0.005534      0.008123      0.011385
 -----------------------------------------------------------------------------------
    total drift:                                0.002243     -0.000349     -0.001322


--------------------------------------------------------------------------------------------------------



  FREE ENERGIE OF THE ION-ELECTRON SYSTEM (eV)
  ---------------------------------------------------
  free  energy   TOTEN  =      -173.99182856 eV

  energy  without entropy=     -174.01268276  energy(sigma->0) =     -173.99704211

 d Force = 0.3068453E-03[ 0.790E-04, 0.535E-03]  d Energy = 0.3190046E-03-0.122E-04
 d Force =-0.3729380E+00[-0.375E+00,-0.371E+00]  d Ewald  = 0.1699376E+01-0.207E+01


--------------------------------------------------------------------------------------------------------


    POTLOK:  cpu time      5.0674: real time      5.0778


--------------------------------------------------------------------------------------------------------




--------------------------------------------------------------------------------------------------------


    WAVPRE:  cpu time      0.0335: real time      0.0472
    FEWALD:  cpu time      0.0013: real time      0.0013
    GENKIN:  cpu time      0.1062: real time      0.1062
    ORTHCH:  cpu time      2.4954: real time      2.4957
    POTLOK:  cpu time      4.9303: real time      4.9313
    EDDIAG:  cpu time     19.4512: real time     19.4570
    CHARGE:  cpu time     13.9886: real time     13.9909
     LOOP+:  cpu time   5692.2628: real time   5694.2977


--------------------------------------- Iteration     11(   1)  ---------------------------------------


    POTLOK:  cpu time      0.5551: real time      0.5551
    SETDIJ:  cpu time      0.7253: real time      0.7254
    TRIAL :  cpu time     73.2963: real time     73.3155
    CORREC:  cpu time    119.0563: real time    119.0846
    CHARGE:  cpu time     13.5169: real time     13.5202
    --------------------------------------------
      LOOP:  cpu time    207.1794: real time    207.2304

 eigenvalue-minimisations  :     0
 total energy-change (2. order) : 0.7385882E-02  (-0.1270732E-02)
 number of electron     152.0000004 magnetization      -0.0000003
 augmentation part       22.7948018 magnetization      -0.0000002

 Free energy of the ion-electron system (eV)
  ---------------------------------------------------
  alpha Z        PSCENC =       212.14366187
  Ewald energy   TEWEN  =     -6758.26401503
  -Hartree energ DENC   =     -2498.28834998
  -exchange      EXHF   =         0.00000000
  -V(xc)+E(xc)   XCENC  =       519.60089326
  PAW double counting   =     15925.66262729   -16680.77886200
  entropy T*S    EENTRO =         0.02095872
  eigenvalues    EBANDS =     -1451.58022142
  atomic energy  EATOM  =     10557.49888305
  ---------------------------------------------------
  free energy    TOTEN  =      -173.98444269 eV

  energy without entropy =     -174.00540141  energy(sigma->0) =     -173.98968237


--------------------------------------------------------------------------------------------------------




--------------------------------------- Iteration     11(   2)  ---------------------------------------


    POTLOK:  cpu time      2.6942: real time      2.6948
    SETDIJ:  cpu time      0.7249: real time      0.7250
    TRIAL :  cpu time     72.1836: real time     72.2006
    CORREC:  cpu time     33.2165: real time     33.2237
    CHARGE:  cpu time     12.1384: real time     12.1405
    --------------------------------------------
      LOOP:  cpu time    120.9588: real time    120.9859

 eigenvalue-minimisations  :     0
 total energy-change (2. order) :-0.4864110E-02  (-0.1692736E-02)
 number of electron     152.0000004 magnetization      -0.0000005
 augmentation part       22.7813461 magnetization      -0.0000002

 Free energy of the ion-electron system (eV)
  ---------------------------------------------------
  alpha Z        PSCENC =       212.14366187
  Ewald energy   TEWEN  =     -6758.26401503
  -Hartree energ DENC   =     -2498.52893115
  -exchange      EXHF   =         0.00000000
  -V(xc)+E(xc)   XCENC  =       519.63552189
  PAW double counting   =     15890.75362789   -16646.41397218
  entropy T*S    EENTRO =         0.02096972
  eigenvalues    EBANDS =     -1450.83504186
  atomic energy  EATOM  =     10557.49888305
  ---------------------------------------------------
  free energy    TOTEN  =      -173.98930680 eV

  energy without entropy =     -174.01027652  energy(sigma->0) =     -173.99454923


--------------------------------------------------------------------------------------------------------




--------------------------------------- Iteration     11(   3)  ---------------------------------------


    POTLOK:  cpu time      3.7035: real time      3.7039
    SETDIJ:  cpu time      0.7237: real time      0.7238
    TRIAL :  cpu time     70.8594: real time     70.8784
    CORREC:  cpu time     35.4186: real time     35.4259
    CHARGE:  cpu time     11.8878: real time     11.8900
    --------------------------------------------
      LOOP:  cpu time    122.5935: real time    122.6225

 eigenvalue-minimisations  :     0
 total energy-change (2. order) :-0.1743887E-02  (-0.8202080E-03)
 number of electron     152.0000004 magnetization      -0.0000008
 augmentation part       22.7926022 magnetization       0.0000006

 Free energy of the ion-electron system (eV)
  ---------------------------------------------------
  alpha Z        PSCENC =       212.14366187
  Ewald energy   TEWEN  =     -6758.26401503
  -Hartree energ DENC   =     -2497.58180512
  -exchange      EXHF   =         0.00000000
