 112 112   0   0
  0.2260158E+02  0.1218282E-08  0.1532313E-08  0.1373046E-08  0.2000000E-14
   800.00000000000000     
  CAR 
 NVT-AIMD mp-560538_Na3AlS3 800K         
      9.46467670    -24.21280213  301      1.82103782      1.00000000
    -24.213  0.0000E+00  0.0000E+00
    -24.101  0.0000E+00  0.0000E+00
    -23.988  0.0000E+00  0.0000E+00
    -23.876 -0.4174E-28 -0.4665E-29
    -23.764 -0.3198E-24 -0.3575E-25
    -23.652 -0.1299E-20 -0.1452E-21
    -23.539 -0.2817E-17 -0.3151E-18
    -23.427 -0.3259E-14 -0.3647E-15
    -23.315 -0.1946E-11 -0.2179E-12
    -23.202 -0.6347E-09 -0.7117E-10
    -23.090 -0.1100E-06 -0.1237E-07
    -22.978 -0.1012E-04 -0.1143E-05
    -22.866 -0.4923E-03 -0.5612E-04
    -22.753 -0.1259E-01 -0.1461E-02
    -22.641 -0.1666E+00 -0.2003E-01
    -22.529 -0.1088E+01 -0.1411E+00
    -22.417 -0.2910E+01 -0.4642E+00
    -22.304  0.1449E+01 -0.2996E+00
    -22.192  0.2690E+02  0.2695E+01
    -22.080  0.7219E+02  0.1071E+02
    -21.968  0.1150E+03  0.2347E+02
    -21.855  0.1414E+03  0.3916E+02
    -21.743  0.1553E+03  0.5642E+02
    -21.631  0.1752E+03  0.7593E+02
    -21.519  0.2124E+03  0.9963E+02
    -21.406  0.2530E+03  0.1279E+03
    -21.294  0.2799E+03  0.1592E+03
    -21.182  0.2874E+03  0.1914E+03
    -21.070  0.2667E+03  0.2213E+03
    -20.957  0.2150E+03  0.2454E+03
    -20.845  0.1548E+03  0.2628E+03
    -20.733  0.1072E+03  0.2749E+03
    -20.621  0.6766E+02  0.2824E+03
    -20.508  0.3427E+02  0.2863E+03
    -20.396  0.1304E+02  0.2878E+03
    -20.284  0.3104E+01  0.2881E+03
    -20.172 -0.2457E+00  0.2881E+03
    -20.059 -0.5550E+00  0.2880E+03
    -19.947 -0.1965E+00  0.2880E+03
    -19.835 -0.3182E-01  0.2880E+03
    -19.722 -0.2610E-02  0.2880E+03
    -19.610 -0.1117E-03  0.2880E+03
    -19.498 -0.2520E-05  0.2880E+03
    -19.386 -0.3013E-07  0.2880E+03
    -19.273 -0.1912E-09  0.2880E+03
    -19.161 -0.6440E-12  0.2880E+03
    -19.049 -0.1101E-14  0.2880E+03
    -18.937  0.0000E+00  0.2880E+03
    -18.824  0.0000E+00  0.2880E+03
    -18.712  0.0000E+00  0.2880E+03
    -18.600  0.0000E+00  0.2880E+03
    -18.488  0.0000E+00  0.2880E+03
    -18.375  0.0000E+00  0.2880E+03
    -18.263  0.0000E+00  0.2880E+03
    -18.151  0.0000E+00  0.2880E+03
    -18.039  0.0000E+00  0.2880E+03
    -17.926  0.0000E+00  0.2880E+03
    -17.814  0.0000E+00  0.2880E+03
    -17.702  0.0000E+00  0.2880E+03
    -17.590  0.0000E+00  0.2880E+03
    -17.477  0.0000E+00  0.2880E+03
    -17.365  0.0000E+00  0.2880E+03
    -17.253  0.0000E+00  0.2880E+03
    -17.141  0.0000E+00  0.2880E+03
    -17.028  0.0000E+00  0.2880E+03
    -16.916  0.0000E+00  0.2880E+03
    -16.804  0.0000E+00  0.2880E+03
    -16.691  0.0000E+00  0.2880E+03
    -16.579  0.0000E+00  0.2880E+03
    -16.467  0.0000E+00  0.2880E+03
    -16.355  0.0000E+00  0.2880E+03
    -16.242  0.0000E+00  0.2880E+03
    -16.130  0.0000E+00  0.2880E+03
    -16.018  0.0000E+00  0.2880E+03
    -15.906  0.0000E+00  0.2880E+03
    -15.793  0.0000E+00  0.2880E+03
    -15.681  0.0000E+00  0.2880E+03
    -15.569  0.0000E+00  0.2880E+03
    -15.457  0.0000E+00  0.2880E+03
    -15.344  0.0000E+00  0.2880E+03
    -15.232  0.0000E+00  0.2880E+03
    -15.120  0.0000E+00  0.2880E+03
    -15.008  0.0000E+00  0.2880E+03
    -14.895  0.0000E+00  0.2880E+03
    -14.783  0.0000E+00  0.2880E+03
    -14.671  0.0000E+00  0.2880E+03
    -14.559  0.0000E+00  0.2880E+03
    -14.446  0.0000E+00  0.2880E+03
    -14.334  0.0000E+00  0.2880E+03
    -14.222  0.0000E+00  0.2880E+03
    -14.110  0.0000E+00  0.2880E+03
    -13.997  0.0000E+00  0.2880E+03
    -13.885  0.0000E+00  0.2880E+03
    -13.773  0.0000E+00  0.2880E+03
    -13.661  0.0000E+00  0.2880E+03
    -13.548  0.0000E+00  0.2880E+03
    -13.436  0.0000E+00  0.2880E+03
    -13.324 -0.3820E-31  0.2880E+03
    -13.211 -0.4357E-27  0.2880E+03
    -13.099 -0.1980E-23  0.2880E+03
    -12.987 -0.4882E-20  0.2880E+03
    -12.875 -0.6528E-17  0.2880E+03
    -12.762 -0.4601E-14  0.2880E+03
    -12.650 -0.1791E-11  0.2880E+03
    -12.538 -0.3768E-09  0.2880E+03
    -12.426 -0.4266E-07  0.2880E+03
    -12.313 -0.2583E-05  0.2880E+03
    -12.201 -0.8288E-04  0.2880E+03
    -12.089 -0.1383E-02  0.2880E+03
    -11.977 -0.1151E-01  0.2880E+03
    -11.864 -0.4256E-01  0.2880E+03
    -11.752 -0.3089E-01  0.2880E+03
    -11.640  0.2191E+00  0.2880E+03
    -11.528  0.7781E+00  0.2881E+03
    -11.415  0.1726E+01  0.2883E+03
    -11.303  0.3674E+01  0.2887E+03
    -11.191  0.6830E+01  0.2895E+03
    -11.079  0.9584E+01  0.2905E+03
    -10.966  0.1086E+02  0.2917E+03
    -10.854  0.1286E+02  0.2932E+03
    -10.742  0.1766E+02  0.2951E+03
    -10.630  0.2350E+02  0.2978E+03
    -10.517  0.2397E+02  0.3005E+03
    -10.405  0.1761E+02  0.3024E+03
    -10.293  0.1427E+02  0.3040E+03
    -10.181  0.1831E+02  0.3061E+03
    -10.068  0.2588E+02  0.3089E+03
     -9.956  0.3640E+02  0.3130E+03
     -9.844  0.4957E+02  0.3185E+03
     -9.731  0.6154E+02  0.3254E+03
     -9.619  0.6674E+02  0.3328E+03
     -9.507  0.6537E+02  0.3401E+03
     -9.395  0.6412E+02  0.3473E+03
     -9.282  0.6447E+02  0.3545E+03
     -9.170  0.6298E+02  0.3616E+03
     -9.058  0.5869E+02  0.3681E+03
     -8.946  0.5059E+02  0.3738E+03
     -8.833  0.3781E+02  0.3781E+03
     -8.721  0.2430E+02  0.3808E+03
     -8.609  0.1426E+02  0.3824E+03
     -8.497  0.8183E+01  0.3833E+03
     -8.384  0.4359E+01  0.3838E+03
     -8.272  0.1776E+01  0.3840E+03
     -8.160  0.3068E+00  0.3840E+03
     -8.048 -0.1319E+00  0.3840E+03
     -7.935 -0.8553E-01  0.3840E+03
     -7.823 -0.1848E-01  0.3840E+03
     -7.711 -0.1895E-02  0.3840E+03
     -7.599 -0.9873E-04  0.3840E+03
     -7.486 -0.2676E-05  0.3840E+03
     -7.374 -0.3811E-07  0.3840E+03
     -7.262 -0.2864E-09  0.3840E+03
     -7.150 -0.1138E-11  0.3840E+03
     -7.037 -0.2331E-14  0.3840E+03
     -6.925  0.0000E+00  0.3840E+03
     -6.813  0.0000E+00  0.3840E+03
     -6.701  0.0000E+00  0.3840E+03
     -6.588  0.0000E+00  0.3840E+03
     -6.476  0.0000E+00  0.3840E+03
     -6.364  0.0000E+00  0.3840E+03
     -6.251  0.0000E+00  0.3840E+03
     -6.139  0.0000E+00  0.3840E+03
     -6.027  0.0000E+00  0.3840E+03
     -5.915  0.0000E+00  0.3840E+03
     -5.802  0.0000E+00  0.3840E+03
     -5.690  0.0000E+00  0.3840E+03
     -5.578  0.0000E+00  0.3840E+03
     -5.466  0.0000E+00  0.3840E+03
     -5.353 -0.6571E-30  0.3840E+03
     -5.241 -0.5417E-26  0.3840E+03
     -5.129 -0.2324E-22  0.3840E+03
     -5.017 -0.5327E-19  0.3840E+03
     -4.904 -0.6525E-16  0.3840E+03
     -4.792 -0.4137E-13  0.3840E+03
     -4.680 -0.1436E-10  0.3840E+03
     -4.568 -0.2657E-08  0.3840E+03
     -4.455 -0.2615E-06  0.3840E+03
     -4.343 -0.1366E-04  0.3840E+03
     -4.231 -0.3765E-03  0.3840E+03
     -4.119 -0.5406E-02  0.3840E+03
     -4.006 -0.3916E-01  0.3840E+03
     -3.894 -0.1284E+00  0.3840E+03
     -3.782 -0.7815E-01  0.3840E+03
     -3.670  0.6765E+00  0.3840E+03
     -3.557  0.2592E+01  0.3843E+03
     -3.445  0.6205E+01  0.3850E+03
     -3.333  0.1249E+02  0.3864E+03
     -3.221  0.2137E+02  0.3888E+03
     -3.108  0.3089E+02  0.3922E+03
     -2.996  0.3926E+02  0.3966E+03
     -2.884  0.4573E+02  0.4017E+03
     -2.771  0.4625E+02  0.4069E+03
     -2.659  0.3672E+02  0.4110E+03
     -2.547  0.2215E+02  0.4135E+03
     -2.435  0.1088E+02  0.4147E+03
     -2.322  0.4928E+01  0.4153E+03
     -2.210  0.2672E+01  0.4156E+03
     -2.098  0.3368E+01  0.4160E+03
     -1.986  0.6726E+01  0.4167E+03
     -1.873  0.1291E+02  0.4181E+03
     -1.761  0.2291E+02  0.4207E+03
     -1.649  0.3612E+02  0.4247E+03
     -1.537  0.4967E+02  0.4303E+03
     -1.424  0.5936E+02  0.4369E+03
     -1.312  0.6290E+02  0.4439E+03
     -1.200  0.6193E+02  0.4509E+03
     -1.088  0.5837E+02  0.4574E+03
     -0.975  0.5292E+02  0.4633E+03
     -0.863  0.5082E+02  0.4690E+03
     -0.751  0.5633E+02  0.4753E+03
     -0.639  0.6529E+02  0.4826E+03
     -0.526  0.7155E+02  0.4906E+03
     -0.414  0.7652E+02  0.4991E+03
     -0.302  0.8266E+02  0.5083E+03
     -0.190  0.8728E+02  0.5181E+03
     -0.077  0.8758E+02  0.5279E+03
      0.035  0.8365E+02  0.5372E+03
      0.147  0.7855E+02  0.5460E+03
      0.259  0.7770E+02  0.5547E+03
      0.372  0.8425E+02  0.5641E+03
      0.484  0.9086E+02  0.5743E+03
      0.596  0.9270E+02  0.5846E+03
      0.709  0.9524E+02  0.5953E+03
      0.821  0.9880E+02  0.6063E+03
      0.933  0.9899E+02  0.6174E+03
      1.045  0.9461E+02  0.6279E+03
      1.158  0.8659E+02  0.6376E+03
      1.270  0.7722E+02  0.6463E+03
      1.382  0.6666E+02  0.6537E+03
      1.494  0.5373E+02  0.6598E+03
      1.607  0.4158E+02  0.6644E+03
      1.719  0.3214E+02  0.6680E+03
      1.831  0.2173E+02  0.6705E+03
      1.943  0.1059E+02  0.6716E+03
      2.056  0.3254E+01  0.6720E+03
      2.168  0.3883E+00  0.6721E+03
      2.280 -0.2403E+00  0.6720E+03
      2.392 -0.1599E+00  0.6720E+03
      2.505 -0.4020E-01  0.6720E+03
      2.617 -0.4886E-02  0.6720E+03
      2.729 -0.3021E-03  0.6720E+03
      2.841 -0.9698E-05  0.6720E+03
      2.954 -0.1927E-06  0.6720E+03
      3.066 -0.2535E-05  0.6720E+03
      3.178 -0.1149E-03  0.6720E+03
      3.290 -0.2686E-02  0.6720E+03
      3.403 -0.3117E-01  0.6720E+03
      3.515 -0.1615E+00  0.6720E+03
      3.627 -0.2034E+00  0.6720E+03
      3.740  0.1080E+01  0.6721E+03
      3.852  0.4215E+01  0.6725E+03
      3.964  0.6201E+01  0.6732E+03
      4.076  0.4853E+01  0.6738E+03
      4.189  0.1954E+01  0.6740E+03
      4.301 -0.1560E-01  0.6740E+03
      4.413 -0.4276E-01  0.6740E+03
      4.525  0.1781E+01  0.6742E+03
      4.638  0.4160E+01  0.6747E+03
      4.750  0.6237E+01  0.6754E+03
      4.862  0.9183E+01  0.6764E+03
      4.974  0.1453E+02  0.6780E+03
      5.087  0.2286E+02  0.6806E+03
      5.199  0.3092E+02  0.6840E+03
      5.311  0.3721E+02  0.6882E+03
      5.423  0.4211E+02  0.6929E+03
      5.536  0.4456E+02  0.6979E+03
      5.648  0.4761E+02  0.7032E+03
      5.760  0.5231E+02  0.7090E+03
      5.872  0.5465E+02  0.7151E+03
      5.985  0.5621E+02  0.7214E+03
      6.097  0.5910E+02  0.7280E+03
      6.209  0.6174E+02  0.7349E+03
      6.321  0.6424E+02  0.7421E+03
      6.434  0.6526E+02  0.7494E+03
      6.546  0.6359E+02  0.7565E+03
      6.658  0.6119E+02  0.7633E+03
      6.770  0.5897E+02  0.7699E+03
      6.883  0.5719E+02  0.7763E+03
      6.995  0.5644E+02  0.7826E+03
      7.107  0.5643E+02  0.7889E+03
      7.220  0.5588E+02  0.7952E+03
      7.332  0.5223E+02  0.8010E+03
      7.444  0.4094E+02  0.8056E+03
      7.556  0.2049E+02  0.8079E+03
      7.669  0.3359E+01  0.8083E+03
      7.781 -0.1555E+01  0.8081E+03
      7.893 -0.7958E+00  0.8080E+03
      8.005 -0.1364E+00  0.8080E+03
      8.118 -0.1096E-01  0.8080E+03
      8.230 -0.4437E-03  0.8080E+03
      8.342 -0.9307E-05  0.8080E+03
      8.454 -0.1024E-06  0.8080E+03
      8.567 -0.5940E-09  0.8080E+03
      8.679 -0.1824E-11  0.8080E+03
      8.791 -0.3009E-14  0.8080E+03
      8.903  0.0000E+00  0.8080E+03
      9.016  0.0000E+00  0.8080E+03
      9.128  0.0000E+00  0.8080E+03
      9.240  0.0000E+00  0.8080E+03
      9.352  0.0000E+00  0.8080E+03
      9.465  0.0000E+00  0.8080E+03
      9.42244794    -24.04651811  301      1.77142278      1.00000000
    -24.047  0.0000E+00  0.0000E+00
    -23.935  0.0000E+00  0.0000E+00
    -23.823  0.0000E+00  0.0000E+00
    -23.712 -0.3766E-28 -0.4194E-29
    -23.600 -0.2836E-24 -0.3160E-25
    -23.489 -0.1133E-20 -0.1263E-21
    -23.377 -0.2429E-17 -0.2706E-18
    -23.266 -0.2791E-14 -0.3111E-15
    -23.154 -0.1665E-11 -0.1858E-12
    -23.042 -0.5455E-09 -0.6095E-10
    -22.931 -0.9546E-07 -0.1069E-07
    -22.819 -0.8897E-05 -0.1002E-05
    -22.708 -0.4396E-03 -0.4995E-04
    -22.596 -0.1140E-01 -0.1320E-02
    -22.485 -0.1520E+00 -0.1825E-01
    -22.373 -0.9872E+00 -0.1281E+00
    -22.262 -0.2534E+01 -0.4102E+00
    -22.150  0.1714E+01 -0.2189E+00
    -22.038  0.2348E+02  0.2395E+01
    -21.927  0.5927E+02  0.8990E+01
    -21.815  0.9631E+02  0.1971E+02
    -21.704  0.1403E+03  0.3532E+02
    -21.592  0.2060E+03  0.5824E+02
    -21.481  0.2876E+03  0.9025E+02
    -21.369  0.3517E+03  0.1294E+03
    -21.257  0.3733E+03  0.1710E+03
    -21.146  0.3507E+03  0.2101E+03
    -21.034  0.2806E+03  0.2413E+03
    -20.923  0.1838E+03  0.2618E+03
    -20.811  0.1076E+03  0.2738E+03
    -20.700  0.6510E+02  0.2811E+03
    -20.588  0.3929E+02  0.2854E+03
    -20.476  0.1926E+02  0.2876E+03
    -20.365  0.5272E+01  0.2882E+03
    -20.253 -0.4731E+00  0.2881E+03
    -20.142 -0.8475E+00  0.2880E+03
    -20.030 -0.2558E+00  0.2880E+03
    -19.919 -0.3650E-01  0.2880E+03
    -19.807 -0.2785E-02  0.2880E+03
    -19.696 -0.1180E-03  0.2880E+03
    -19.584 -0.2804E-05  0.2880E+03
    -19.472 -0.3736E-07  0.2880E+03
    -19.361 -0.2774E-09  0.2880E+03
    -19.249 -0.1140E-11  0.2880E+03
    -19.138 -0.2550E-14  0.2880E+03
    -19.026  0.0000E+00  0.2880E+03
    -18.915  0.0000E+00  0.2880E+03
    -18.803  0.0000E+00  0.2880E+03
    -18.691  0.0000E+00  0.2880E+03
    -18.580  0.0000E+00  0.2880E+03
    -18.468  0.0000E+00  0.2880E+03
    -18.357  0.0000E+00  0.2880E+03
    -18.245  0.0000E+00  0.2880E+03
    -18.134  0.0000E+00  0.2880E+03
    -18.022  0.0000E+00  0.2880E+03
    -17.911  0.0000E+00  0.2880E+03
    -17.799  0.0000E+00  0.2880E+03
    -17.687  0.0000E+00  0.2880E+03
    -17.576  0.0000E+00  0.2880E+03
    -17.464  0.0000E+00  0.2880E+03
    -17.353  0.0000E+00  0.2880E+03
    -17.241  0.0000E+00  0.2880E+03
    -17.130  0.0000E+00  0.2880E+03
    -17.018  0.0000E+00  0.2880E+03
    -16.906  0.0000E+00  0.2880E+03
    -16.795  0.0000E+00  0.2880E+03
    -16.683  0.0000E+00  0.2880E+03
    -16.572  0.0000E+00  0.2880E+03
    -16.460  0.0000E+00  0.2880E+03
    -16.349  0.0000E+00  0.2880E+03
    -16.237  0.0000E+00  0.2880E+03
    -16.126  0.0000E+00  0.2880E+03
    -16.014  0.0000E+00  0.2880E+03
    -15.902  0.0000E+00  0.2880E+03
    -15.791  0.0000E+00  0.2880E+03
    -15.679  0.0000E+00  0.2880E+03
    -15.568  0.0000E+00  0.2880E+03
    -15.456  0.0000E+00  0.2880E+03
    -15.345  0.0000E+00  0.2880E+03
    -15.233  0.0000E+00  0.2880E+03
    -15.121  0.0000E+00  0.2880E+03
    -15.010  0.0000E+00  0.2880E+03
    -14.898  0.0000E+00  0.2880E+03
    -14.787  0.0000E+00  0.2880E+03
    -14.675  0.0000E+00  0.2880E+03
    -14.564  0.0000E+00  0.2880E+03
    -14.452  0.0000E+00  0.2880E+03
    -14.341  0.0000E+00  0.2880E+03
    -14.229  0.0000E+00  0.2880E+03
    -14.117  0.0000E+00  0.2880E+03
    -14.006  0.0000E+00  0.2880E+03
    -13.894  0.0000E+00  0.2880E+03
    -13.783  0.0000E+00  0.2880E+03
    -13.671  0.0000E+00  0.2880E+03
    -13.560  0.0000E+00  0.2880E+03
    -13.448  0.0000E+00  0.2880E+03
    -13.336  0.0000E+00  0.2880E+03
    -13.225  0.0000E+00  0.2880E+03
    -13.113  0.0000E+00  0.2880E+03
    -13.002 -0.5592E-30  0.2880E+03
    -12.890 -0.4562E-26  0.2880E+03
    -12.779 -0.1927E-22  0.2880E+03
    -12.667 -0.4393E-19  0.2880E+03
    -12.556 -0.5404E-16  0.2880E+03
    -12.444 -0.3478E-13  0.2880E+03
    -12.332 -0.1236E-10  0.2880E+03
    -12.221 -0.2362E-08  0.2880E+03
    -12.109 -0.2417E-06  0.2880E+03
    -11.998 -0.1315E-04  0.2880E+03
    -11.886 -0.3768E-03  0.2880E+03
    -11.775 -0.5565E-02  0.2880E+03
    -11.663 -0.4057E-01  0.2880E+03
    -11.551 -0.1298E+00  0.2880E+03
    -11.440 -0.7861E-01  0.2880E+03
    -11.328  0.6067E+00  0.2880E+03
    -11.217  0.2646E+01  0.2883E+03
    -11.105  0.7404E+01  0.2892E+03
    -10.994  0.1466E+02  0.2908E+03
    -10.882  0.2126E+02  0.2932E+03
    -10.770  0.2421E+02  0.2959E+03
    -10.659  0.2263E+02  0.2984E+03
    -10.547  0.1891E+02  0.3005E+03
    -10.436  0.1518E+02  0.3022E+03
    -10.324  0.1280E+02  0.3036E+03
    -10.213  0.1582E+02  0.3054E+03
    -10.101  0.2581E+02  0.3082E+03
     -9.990  0.4018E+02  0.3127E+03
     -9.878  0.5289E+02  0.3186E+03
     -9.766  0.5989E+02  0.3253E+03
     -9.655  0.6391E+02  0.3324E+03
     -9.543  0.6781E+02  0.3399E+03
     -9.432  0.7203E+02  0.3480E+03
     -9.320  0.7301E+02  0.3561E+03
     -9.209  0.6735E+02  0.3636E+03
     -9.097  0.5582E+02  0.3698E+03
     -8.985  0.4302E+02  0.3746E+03
     -8.874  0.3253E+02  0.3782E+03
     -8.762  0.2322E+02  0.3808E+03
     -8.651  0.1433E+02  0.3824E+03
     -8.539  0.7722E+01  0.3833E+03
     -8.428  0.3635E+01  0.3837E+03
     -8.316  0.1569E+01  0.3839E+03
     -8.205  0.8996E+00  0.3840E+03
     -8.093  0.4551E+00  0.3840E+03
     -7.981  0.6438E-01  0.3840E+03
     -7.870 -0.4563E-01  0.3840E+03
     -7.758 -0.2164E-01  0.3840E+03
     -7.647 -0.3719E-02  0.3840E+03
     -7.535 -0.3059E-03  0.3840E+03
     -7.424 -0.1285E-04  0.3840E+03
     -7.312 -0.2821E-06  0.3840E+03
     -7.200 -0.3272E-08  0.3840E+03
     -7.089 -0.2017E-10  0.3840E+03
     -6.977 -0.6626E-13  0.3840E+03
     -6.866 -0.1197E-15  0.3840E+03
     -6.754  0.0000E+00  0.3840E+03
     -6.643  0.0000E+00  0.3840E+03
     -6.531  0.0000E+00  0.3840E+03
     -6.420  0.0000E+00  0.3840E+03
     -6.308  0.0000E+00  0.3840E+03
     -6.196  0.0000E+00  0.3840E+03
     -6.085  0.0000E+00  0.3840E+03
     -5.973  0.0000E+00  0.3840E+03
     -5.862  0.0000E+00  0.3840E+03
     -5.750  0.0000E+00  0.3840E+03
     -5.639  0.0000E+00  0.3840E+03
     -5.527  0.0000E+00  0.3840E+03
     -5.415  0.0000E+00  0.3840E+03
     -5.304 -0.1391E-28  0.3840E+03
     -5.192 -0.8628E-25  0.3840E+03
     -5.081 -0.2879E-21  0.3840E+03
     -4.969 -0.5166E-18  0.3840E+03
     -4.858 -0.4984E-15  0.3840E+03
     -4.746 -0.2497E-12  0.3840E+03
     -4.635 -0.6893E-10  0.3840E+03
     -4.523 -0.1017E-07  0.3840E+03
     -4.411 -0.7986E-06  0.3840E+03
     -4.300 -0.3319E-04  0.3840E+03
     -4.188 -0.7224E-03  0.3840E+03
     -4.077 -0.8090E-02  0.3840E+03
     -3.965 -0.4503E-01  0.3840E+03
     -3.854 -0.1135E+00  0.3840E+03
     -3.742 -0.6376E-01  0.3840E+03
     -3.630  0.4454E+00  0.3840E+03
     -3.519  0.2442E+01  0.3843E+03
     -3.407  0.8335E+01  0.3852E+03
     -3.296  0.1913E+02  0.3874E+03
     -3.184  0.3102E+02  0.3908E+03
     -3.073  0.3967E+02  0.3952E+03
     -2.961  0.4434E+02  0.4002E+03
     -2.850  0.4395E+02  0.4051E+03
     -2.738  0.3737E+02  0.4092E+03
     -2.626  0.2717E+02  0.4122E+03
     -2.515  0.1749E+02  0.4142E+03
     -2.403  0.1015E+02  0.4153E+03
     -2.292  0.4688E+01  0.4158E+03
     -2.180  0.8892E+00  0.4159E+03
     -2.069  0.5604E+00  0.4160E+03
     -1.957  0.5680E+01  0.4166E+03
     -1.845  0.1821E+02  0.4187E+03
     -1.734  0.3717E+02  0.4228E+03
     -1.622  0.5388E+02  0.4288E+03
     -1.511  0.6181E+02  0.4357E+03
     -1.399  0.6313E+02  0.4427E+03
     -1.288  0.6008E+02  0.4494E+03
     -1.176  0.5451E+02  0.4555E+03
     -1.064  0.4990E+02  0.4610E+03
     -0.953  0.4985E+02  0.4666E+03
     -0.841  0.5683E+02  0.4729E+03
     -0.730  0.6584E+02  0.4803E+03
     -0.618  0.6926E+02  0.4880E+03
     -0.507  0.7039E+02  0.4958E+03
     -0.395  0.7636E+02  0.5043E+03
     -0.284  0.8545E+02  0.5138E+03
     -0.172  0.9106E+02  0.5240E+03
     -0.060  0.8933E+02  0.5339E+03
      0.051  0.8314E+02  0.5432E+03
      0.163  0.7796E+02  0.5519E+03
      0.274  0.7816E+02  0.5606E+03
      0.386  0.8452E+02  0.5700E+03
      0.497  0.9125E+02  0.5801E+03
      0.609  0.9616E+02  0.5908E+03
      0.721  0.1011E+03  0.6021E+03
      0.832  0.1032E+03  0.6136E+03
      0.944  0.9990E+02  0.6247E+03
      1.055  0.9353E+02  0.6351E+03
      1.167  0.8596E+02  0.6447E+03
      1.278  0.7541E+02  0.6531E+03
      1.390  0.5990E+02  0.6598E+03
      1.501  0.4364E+02  0.6646E+03
      1.613  0.3162E+02  0.6682E+03
      1.725  0.2028E+02  0.6704E+03
      1.836  0.8459E+01  0.6714E+03
      1.948  0.1820E+01  0.6716E+03
      2.059  0.9889E+00  0.6717E+03
      2.171  0.1586E+01  0.6719E+03
      2.282  0.1131E+01  0.6720E+03
      2.394  0.2571E+00  0.6720E+03
      2.506 -0.6957E-01  0.6720E+03
      2.617 -0.4523E-01  0.6720E+03
      2.729 -0.8458E-02  0.6720E+03
      2.840 -0.7321E-03  0.6720E+03
      2.952 -0.3213E-04  0.6720E+03
      3.063 -0.7492E-06  0.6720E+03
      3.175 -0.1161E-05  0.6720E+03
      3.286 -0.6298E-04  0.6720E+03
      3.398 -0.1793E-02  0.6720E+03
      3.510 -0.2576E-01  0.6720E+03
      3.621 -0.1719E+00  0.6720E+03
      3.733 -0.3733E+00  0.6719E+03
      3.844  0.9037E+00  0.6720E+03
      3.956  0.5214E+01  0.6726E+03
      4.067  0.7875E+01  0.6735E+03
      4.179  0.4530E+01  0.6740E+03
      4.291  0.5334E+00  0.6741E+03
      4.402 -0.4168E+00  0.6740E+03
      4.514 -0.2606E+00  0.6740E+03
      4.625 -0.1441E+00  0.6740E+03
      4.737  0.2270E+00  0.6740E+03
      4.848  0.2469E+01  0.6743E+03
      4.960  0.9930E+01  0.6754E+03
      5.071  0.2200E+02  0.6778E+03
      5.183  0.3265E+02  0.6815E+03
      5.295  0.3877E+02  0.6858E+03
      5.406  0.4304E+02  0.6906E+03
      5.518  0.4860E+02  0.6960E+03
      5.629  0.5370E+02  0.7020E+03
      5.741  0.5546E+02  0.7081E+03
      5.852  0.5552E+02  0.7143E+03
      5.964  0.5650E+02  0.7206E+03
      6.076  0.5909E+02  0.7272E+03
      6.187  0.6256E+02  0.7342E+03
      6.299  0.6517E+02  0.7414E+03
      6.410  0.6545E+02  0.7487E+03
      6.522  0.6353E+02  0.7558E+03
      6.633  0.6136E+02  0.7626E+03
      6.745  0.6040E+02  0.7693E+03
      6.856  0.6043E+02  0.7761E+03
      6.968  0.5972E+02  0.7827E+03
      7.080  0.5767E+02  0.7892E+03
      7.191  0.5553E+02  0.7953E+03
      7.303  0.5259E+02  0.8012E+03
      7.414  0.4143E+02  0.8058E+03
      7.526  0.1969E+02  0.8080E+03
      7.637  0.2564E+01  0.8083E+03
      7.749 -0.1676E+01  0.8081E+03
      7.861 -0.7470E+00  0.8080E+03
      7.972 -0.1203E+00  0.8080E+03
      8.084 -0.9257E-02  0.8080E+03
      8.195 -0.3635E-03  0.8080E+03
      8.307 -0.7462E-05  0.8080E+03
      8.418 -0.8101E-07  0.8080E+03
      8.530 -0.4676E-09  0.8080E+03
      8.642 -0.1439E-11  0.8080E+03
      8.753 -0.2548E-14  0.8080E+03
      8.865  0.0000E+00  0.8080E+03
      8.976  0.0000E+00  0.8080E+03
      9.088  0.0000E+00  0.8080E+03
      9.199  0.0000E+00  0.8080E+03
      9.311  0.0000E+00  0.8080E+03
      9.422  0.0000E+00  0.8080E+03
      9.42364634    -24.00707068  301      1.78297392      1.00000000
    -24.007  0.0000E+00  0.0000E+00
    -23.896  0.0000E+00  0.0000E+00
    -23.784  0.0000E+00  0.0000E+00
    -23.673 -0.4662E-28 -0.5201E-29
    -23.561 -0.3546E-24 -0.3957E-25
    -23.450 -0.1435E-20 -0.1602E-21
    -23.338 -0.3109E-17 -0.3471E-18
    -23.227 -0.3600E-14 -0.4020E-15
    -23.116 -0.2156E-11 -0.2410E-12
    -23.004 -0.7063E-09 -0.7906E-10
    -22.893 -0.1230E-06 -0.1380E-07
    -22.781 -0.1133E-04 -0.1278E-05
    -22.670 -0.5489E-03 -0.6251E-04
    -22.558 -0.1379E-01 -0.1601E-02
    -22.447 -0.1746E+00 -0.2107E-01
    -22.336 -0.1031E+01 -0.1360E+00
    -22.224 -0.2020E+01 -0.3609E+00
    -22.113  0.4205E+01  0.1088E+00
    -22.001  0.2441E+02  0.2830E+01
    -21.890  0.4642E+02  0.7999E+01
    -21.778  0.6784E+02  0.1555E+02
    -21.667  0.1081E+03  0.2758E+02
    -21.555  0.1679E+03  0.4628E+02
    -21.444  0.2433E+03  0.7340E+02
    -21.333  0.3226E+03  0.1094E+03
    -21.221  0.3685E+03  0.1504E+03
    -21.110  0.3646E+03  0.1911E+03
    -20.998  0.3159E+03  0.2263E+03
    -20.887  0.2371E+03  0.2528E+03
    -20.775  0.1551E+03  0.2701E+03
    -20.664  0.8816E+02  0.2800E+03
    -20.553  0.4485E+02  0.2850E+03
    -20.441  0.2077E+02  0.2873E+03
    -20.330  0.6706E+01  0.2881E+03
    -20.218  0.4712E+00  0.2881E+03
    -20.107 -0.6159E+00  0.2880E+03
    -19.995 -0.3129E+00  0.2880E+03
    -19.884 -0.8097E-01  0.2880E+03
    -19.773 -0.1239E-01  0.2880E+03
    -19.661 -0.1086E-02  0.2880E+03
    -19.550 -0.5249E-04  0.2880E+03
    -19.438 -0.1373E-05  0.2880E+03
    -19.327 -0.1929E-07  0.2880E+03
    -19.215 -0.1452E-09  0.2880E+03
    -19.104 -0.5845E-12  0.2880E+03
    -18.992 -0.1275E-14  0.2880E+03
    -18.881  0.0000E+00  0.2880E+03
    -18.770  0.0000E+00  0.2880E+03
    -18.658  0.0000E+00  0.2880E+03
    -18.547  0.0000E+00  0.2880E+03
    -18.435  0.0000E+00  0.2880E+03
    -18.324  0.0000E+00  0.2880E+03
    -18.212  0.0000E+00  0.2880E+03
    -18.101  0.0000E+00  0.2880E+03
    -17.990  0.0000E+00  0.2880E+03
    -17.878  0.0000E+00  0.2880E+03
    -17.767  0.0000E+00  0.2880E+03
    -17.655  0.0000E+00  0.2880E+03
    -17.544  0.0000E+00  0.2880E+03
    -17.432  0.0000E+00  0.2880E+03
    -17.321  0.0000E+00  0.2880E+03
    -17.209  0.0000E+00  0.2880E+03
    -17.098  0.0000E+00  0.2880E+03
    -16.987  0.0000E+00  0.2880E+03
    -16.875  0.0000E+00  0.2880E+03
    -16.764  0.0000E+00  0.2880E+03
    -16.652  0.0000E+00  0.2880E+03
    -16.541  0.0000E+00  0.2880E+03
    -16.429  0.0000E+00  0.2880E+03
    -16.318  0.0000E+00  0.2880E+03
    -16.207  0.0000E+00  0.2880E+03
    -16.095  0.0000E+00  0.2880E+03
    -15.984  0.0000E+00  0.2880E+03
    -15.872  0.0000E+00  0.2880E+03
    -15.761  0.0000E+00  0.2880E+03
    -15.649  0.0000E+00  0.2880E+03
    -15.538  0.0000E+00  0.2880E+03
    -15.427  0.0000E+00  0.2880E+03
    -15.315  0.0000E+00  0.2880E+03
    -15.204  0.0000E+00  0.2880E+03
    -15.092  0.0000E+00  0.2880E+03
    -14.981  0.0000E+00  0.2880E+03
    -14.869  0.0000E+00  0.2880E+03
    -14.758  0.0000E+00  0.2880E+03
    -14.646  0.0000E+00  0.2880E+03
    -14.535  0.0000E+00  0.2880E+03
    -14.424  0.0000E+00  0.2880E+03
    -14.312  0.0000E+00  0.2880E+03
    -14.201  0.0000E+00  0.2880E+03
    -14.089  0.0000E+00  0.2880E+03
    -13.978  0.0000E+00  0.2880E+03
    -13.866  0.0000E+00  0.2880E+03
    -13.755  0.0000E+00  0.2880E+03
    -13.644  0.0000E+00  0.2880E+03
    -13.532  0.0000E+00  0.2880E+03
    -13.421  0.0000E+00  0.2880E+03
    -13.309  0.0000E+00  0.2880E+03
    -13.198 -0.1588E-31  0.2880E+03
    -13.086 -0.2195E-27  0.2880E+03
    -12.975 -0.1082E-23  0.2880E+03
    -12.863 -0.2869E-20  0.2880E+03
    -12.752 -0.4096E-17  0.2880E+03
    -12.641 -0.3055E-14  0.2880E+03
    -12.529 -0.1251E-11  0.2880E+03
    -12.418 -0.2747E-09  0.2880E+03
    -12.306 -0.3220E-07  0.2880E+03
    -12.195 -0.2003E-05  0.2880E+03
    -12.083 -0.6538E-04  0.2880E+03
    -11.972 -0.1094E-02  0.2880E+03
    -11.861 -0.8872E-02  0.2880E+03
    -11.749 -0.2851E-01  0.2880E+03
    -11.638  0.1310E-01  0.2880E+03
    -11.526  0.2662E+00  0.2880E+03
    -11.415  0.5028E+00  0.2881E+03
    -11.303  0.3150E+00  0.2881E+03
    -11.192  0.6118E+00  0.2882E+03
    -11.081  0.2919E+01  0.2885E+03
    -10.969  0.7414E+01  0.2893E+03
    -10.858  0.1542E+02  0.2911E+03
    -10.746  0.2624E+02  0.2940E+03
    -10.635  0.3173E+02  0.2975E+03
    -10.523  0.2777E+02  0.3006E+03
    -10.412  0.1826E+02  0.3027E+03
    -10.300  0.8990E+01  0.3037E+03
    -10.189  0.7011E+01  0.3044E+03
    -10.078  0.1591E+02  0.3062E+03
     -9.966  0.3261E+02  0.3098E+03
     -9.855  0.4926E+02  0.3153E+03
     -9.743  0.5984E+02  0.3220E+03
     -9.632  0.6699E+02  0.3295E+03
     -9.520  0.7252E+02  0.3376E+03
     -9.409  0.7455E+02  0.3459E+03
     -9.298  0.7256E+02  0.3540E+03
     -9.186  0.6704E+02  0.3614E+03
     -9.075  0.6071E+02  0.3682E+03
     -8.963  0.5431E+02  0.3743E+03
     -8.852  0.4393E+02  0.3792E+03
     -8.740  0.2831E+02  0.3823E+03
     -8.629  0.1295E+02  0.3838E+03
     -8.518  0.3118E+01  0.3841E+03
     -8.406 -0.4251E+00  0.3841E+03
     -8.295 -0.5467E+00  0.3840E+03
     -8.183 -0.1535E+00  0.3840E+03
     -8.072 -0.2000E-01  0.3840E+03
     -7.960 -0.1338E-02  0.3840E+03
     -7.849 -0.4739E-04  0.3840E+03
     -7.737 -0.9023E-06  0.3840E+03
     -7.626 -0.9298E-08  0.3840E+03
     -7.515 -0.5205E-10  0.3840E+03
     -7.403 -0.1588E-12  0.3840E+03
     -7.292 -0.1589E-15  0.3840E+03
     -7.180  0.0000E+00  0.3840E+03
     -7.069  0.0000E+00  0.3840E+03
     -6.957  0.0000E+00  0.3840E+03
     -6.846  0.0000E+00  0.3840E+03
     -6.735  0.0000E+00  0.3840E+03
     -6.623  0.0000E+00  0.3840E+03
     -6.512  0.0000E+00  0.3840E+03
     -6.400  0.0000E+00  0.3840E+03
     -6.289  0.0000E+00  0.3840E+03
     -6.177  0.0000E+00  0.3840E+03
     -6.066  0.0000E+00  0.3840E+03
     -5.954  0.0000E+00  0.3840E+03
     -5.843  0.0000E+00  0.3840E+03
     -5.732  0.0000E+00  0.3840E+03
     -5.620  0.0000E+00  0.3840E+03
     -5.509  0.0000E+00  0.3840E+03
     -5.397  0.0000E+00  0.3840E+03
     -5.286 -0.1910E-28  0.3840E+03
     -5.174 -0.1120E-24  0.3840E+03
     -5.063 -0.3536E-21  0.3840E+03
     -4.952 -0.6014E-18  0.3840E+03
     -4.840 -0.5409E-15  0.3840E+03
     -4.729 -0.2624E-12  0.3840E+03
     -4.617 -0.6898E-10  0.3840E+03
     -4.506 -0.9698E-08  0.3840E+03
     -4.394 -0.7257E-06  0.3840E+03
     -4.283 -0.2864E-04  0.3840E+03
     -4.172 -0.5862E-03  0.3840E+03
     -4.060 -0.6010E-02  0.3840E+03
     -3.949 -0.2825E-01  0.3840E+03
     -3.837 -0.4195E-01  0.3840E+03
     -3.726  0.6775E-01  0.3840E+03
     -3.614  0.2443E+00  0.3840E+03
     -3.503  0.5518E+00  0.3841E+03
     -3.391  0.2980E+01  0.3844E+03
     -3.280  0.1087E+02  0.3856E+03
     -3.169  0.2470E+02  0.3884E+03
     -3.057  0.4037E+02  0.3929E+03
     -2.946  0.5159E+02  0.3986E+03
     -2.834  0.5339E+02  0.4046E+03
     -2.723  0.4577E+02  0.4097E+03
     -2.611  0.3239E+02  0.4133E+03
     -2.500  0.1743E+02  0.4153E+03
     -2.389  0.6244E+01  0.4160E+03
     -2.277  0.9549E+00  0.4161E+03
     -2.166 -0.5758E+00  0.4160E+03
     -2.054 -0.4980E+00  0.4159E+03
     -1.943  0.1859E+01  0.4161E+03
     -1.831  0.1063E+02  0.4173E+03
     -1.720  0.2716E+02  0.4204E+03
     -1.608  0.4674E+02  0.4256E+03
     -1.497  0.6263E+02  0.4325E+03
     -1.386  0.6873E+02  0.4402E+03
     -1.274  0.6714E+02  0.4477E+03
     -1.163  0.6237E+02  0.4547E+03
     -1.051  0.5369E+02  0.4606E+03
     -0.940  0.4721E+02  0.4659E+03
     -0.828  0.5136E+02  0.4716E+03
     -0.717  0.6187E+02  0.4785E+03
     -0.606  0.6780E+02  0.4861E+03
     -0.494  0.7017E+02  0.4939E+03
     -0.383  0.7677E+02  0.5025E+03
     -0.271  0.8622E+02  0.5121E+03
     -0.160  0.9266E+02  0.5224E+03
     -0.048  0.9239E+02  0.5327E+03
      0.063  0.8487E+02  0.5422E+03
      0.174  0.7603E+02  0.5507E+03
      0.286  0.7403E+02  0.5589E+03
      0.397  0.7922E+02  0.5678E+03