       N       E                     dE             d eps       ncg     rms          rms(c)
DAV:   1     0.624563274660E+04    0.62456E+04   -0.26890E+05   872   0.139E+03
DAV:   2     0.431909703591E+03   -0.58137E+04   -0.55785E+04   896   0.389E+02
DAV:   3    -0.427713240172E+03   -0.85962E+03   -0.85034E+03   972   0.164E+02
DAV:   4    -0.477901183849E+03   -0.50188E+02   -0.49897E+02   936   0.374E+01
DAV:   5    -0.480284006191E+03   -0.23828E+01   -0.23801E+01  1152   0.841E+00    0.356E+01
RMM:   6    -0.456625979191E+03    0.23658E+02   -0.42281E+01   857   0.603E+00    0.237E+01
RMM:   7    -0.455522916259E+03    0.11031E+01   -0.57820E+01   863   0.597E+00    0.123E+01
RMM:   8    -0.455153728645E+03    0.36919E+00   -0.11112E+01   830   0.400E+00    0.437E+00
RMM:   9    -0.454668368438E+03    0.48536E+00   -0.10793E+00   934   0.189E+00    0.109E+00
RMM:  10    -0.454779501046E+03   -0.11113E+00   -0.92370E-01   941   0.956E-01    0.185E+00
RMM:  11    -0.454710101864E+03    0.69399E-01   -0.27346E-01   841   0.622E-01    0.216E-01
RMM:  12    -0.454714017012E+03   -0.39151E-02   -0.30252E-02  1136   0.310E-01    0.151E-01
RMM:  13    -0.454714900222E+03   -0.88321E-03   -0.18430E-02   964   0.147E-01    0.226E-01
RMM:  14    -0.454715292137E+03   -0.39191E-03   -0.22124E-03  1088   0.647E-02    0.273E-01
RMM:  15    -0.454715383035E+03   -0.90897E-04   -0.24408E-04   910   0.240E-02    0.350E-01
RMM:  16    -0.454715364443E+03    0.18592E-04   -0.30699E-05   591   0.930E-03    0.388E-01
RMM:  17    -0.454715274982E+03    0.89461E-04   -0.77469E-05   692   0.155E-02    0.393E-01
RMM:  18    -0.454714688798E+03    0.58618E-03   -0.28287E-03  1024   0.404E-02    0.274E-01
RMM:  19    -0.454714692220E+03   -0.34219E-05   -0.82827E-05   888   0.110E-02
      1 T=   800. E= -.44323639E+03 F= -.45471469E+03 E0= -.45478829E+03  EK= 0.11478E+02 SP= 0.00E+00 SK= 0.00E+00
       N       E                     dE             d eps       ncg     rms          rms(c)
DAV:   1    -0.454423201940E+03    0.29149E+00   -0.76977E+01   912   0.130E+01    0.318E+00
RMM:   2    -0.454607772828E+03   -0.18457E+00   -0.20385E+00  1081   0.278E+00    0.979E-01
RMM:   3    -0.454630990524E+03   -0.23218E-01   -0.30920E-01   871   0.121E+00    0.773E-01
RMM:   4    -0.454635206452E+03   -0.42159E-02   -0.90135E-02  1171   0.585E-01    0.627E-01
RMM:   5    -0.454633116816E+03    0.20896E-02   -0.68568E-03   887   0.145E-01    0.441E-01
RMM:   6    -0.454632692536E+03    0.42428E-03   -0.78667E-03   844   0.112E-01    0.128E-01
RMM:   7    -0.454632816805E+03   -0.12427E-03   -0.17718E-03  1099   0.731E-02    0.788E-02
RMM:   8    -0.454632723933E+03    0.92873E-04   -0.49062E-04   823   0.313E-02    0.482E-02
RMM:   9    -0.454632719731E+03    0.42014E-05   -0.67061E-05   838   0.212E-02
      2 T=   794. E= -.44323678E+03 F= -.45463272E+03 E0= -.45470506E+03  EK= 0.11396E+02 SP= -.12E-05 SK= 0.11E-10
       N       E                     dE             d eps       ncg     rms          rms(c)
DAV:   1    -0.454381608379E+03    0.25112E+00   -0.49403E-01  1160   0.292E+00    0.103E+00
RMM:   2    -0.454393708826E+03   -0.12100E-01   -0.12207E-01   808   0.622E-01    0.250E-01
RMM:   3    -0.454395763524E+03   -0.20547E-02   -0.21092E-02  1108   0.273E-01    0.300E-01
RMM:   4    -0.454395983553E+03   -0.22003E-03   -0.34851E-03   926   0.121E-01    0.145E-01
RMM:   5    -0.454396076686E+03   -0.93132E-04   -0.11291E-03  1225   0.617E-02    0.111E-01
RMM:   6    -0.454396093020E+03   -0.16335E-04   -0.11034E-04   818   0.191E-02    0.856E-02
RMM:   7    -0.454396092006E+03    0.10143E-05   -0.28413E-05   519   0.114E-02
      3 T=   778. E= -.44323775E+03 F= -.45439609E+03 E0= -.45446705E+03  EK= 0.11160E+02 SP= -.20E-02 SK= 0.29E-04
       N       E                     dE             d eps       ncg     rms          rms(c)
DAV:   1    -0.453995591447E+03    0.40050E+00   -0.78675E-01  1144   0.285E+00    0.154E+00
RMM:   2    -0.454015415812E+03   -0.19824E-01   -0.19514E-01   823   0.717E-01    0.324E-01
RMM:   3    -0.454018872753E+03   -0.34569E-02   -0.37340E-02  1097   0.344E-01    0.511E-01
RMM:   4    -0.454019229220E+03   -0.35647E-03   -0.51939E-03   953   0.141E-01    0.224E-01
RMM:   5    -0.454019341899E+03   -0.11268E-03   -0.17980E-03  1169   0.689E-02    0.707E-02
RMM:   6    -0.454019318096E+03    0.23803E-04   -0.15122E-04   902   0.228E-02    0.646E-02
RMM:   7    -0.454019322221E+03   -0.41249E-05   -0.12576E-04   761   0.156E-02    0.528E-02
RMM:   8    -0.454019315883E+03    0.63373E-05   -0.25544E-05   579   0.982E-03
      4 T=   752. E= -.44323626E+03 F= -.45401932E+03 E0= -.45408861E+03  EK= 0.10794E+02 SP= -.12E-01 SK= 0.43E-03
       N       E                     dE             d eps       ncg     rms          rms(c)
DAV:   1    -0.453514308147E+03    0.50501E+00   -0.21146E-01  1248   0.226E+00    0.792E-01
RMM:   2    -0.453523534455E+03   -0.92263E-02   -0.88658E-02   833   0.493E-01    0.119E-01
RMM:   3    -0.453525396069E+03   -0.18616E-02   -0.18762E-02  1097   0.237E-01    0.270E-01
RMM:   4    -0.453525647379E+03   -0.25131E-03   -0.28326E-03  1071   0.954E-02    0.200E-01
RMM:   5    -0.453525658424E+03   -0.11045E-04   -0.35833E-04  1108   0.314E-02    0.141E-01
RMM:   6    -0.453525655815E+03    0.26081E-05   -0.38585E-05   555   0.107E-02
      5 T=   720. E= -.44323438E+03 F= -.45352566E+03 E0= -.45359268E+03  EK= 0.10327E+02 SP= -.39E-01 SK= 0.25E-02
       N       E                     dE             d eps       ncg     rms          rms(c)
DAV:   1    -0.452935413582E+03    0.59024E+00   -0.10159E-01  1256   0.203E+00    0.450E-01
RMM:   2    -0.452942799519E+03   -0.73859E-02   -0.69595E-02   861   0.405E-01    0.138E-01
RMM:   3    -0.452944282619E+03   -0.14831E-02   -0.15099E-02  1097   0.202E-01    0.255E-01
RMM:   4    -0.452944468336E+03   -0.18572E-03   -0.21399E-03  1077   0.806E-02    0.203E-01
RMM:   5    -0.452944461293E+03    0.70434E-05   -0.28220E-04  1057   0.262E-02    0.139E-01
RMM:   6    -0.452944453845E+03    0.74471E-05   -0.32756E-05   558   0.990E-03
      6 T=   683. E= -.44323273E+03 F= -.45294445E+03 E0= -.45300893E+03  EK= 0.97960E+01 SP= -.93E-01 SK= 0.92E-02
       N       E                     dE             d eps       ncg     rms          rms(c)
DAV:   1    -0.452301373513E+03    0.64309E+00   -0.70713E-02  1248   0.188E+00    0.423E-01
RMM:   2    -0.452306621718E+03   -0.52482E-02   -0.48801E-02   869   0.342E-01    0.623E-02
RMM:   3    -0.452307704063E+03   -0.10823E-02   -0.10980E-02  1097   0.174E-01    0.172E-01
RMM:   4    -0.452307853033E+03   -0.14897E-03   -0.16726E-03  1094   0.693E-02    0.136E-01
RMM:   5    -0.452307856455E+03   -0.34222E-05   -0.15898E-04   997   0.193E-02    0.117E-01
RMM:   6    -0.452307855707E+03    0.74871E-06   -0.11421E-05   482   0.632E-03
      7 T=   644. E= -.44323076E+03 F= -.45230786E+03 E0= -.45237005E+03  EK= 0.92413E+01 SP= -.19E+00 SK= 0.26E-01
       N       E                     dE             d eps       ncg     rms          rms(c)
DAV:   1    -0.451645924620E+03    0.66193E+00   -0.37536E-02  1296   0.179E+00    0.134E-01
RMM:   2    -0.451650240425E+03   -0.43158E-02   -0.39357E-02   898   0.292E-01    0.178E-01
RMM:   3    -0.451651009265E+03   -0.76884E-03   -0.77109E-03  1097   0.143E-01    0.229E-01
RMM:   4    -0.451651139921E+03   -0.13066E-03   -0.12628E-03  1100   0.584E-02    0.237E-01
RMM:   5    -0.451651147990E+03   -0.80687E-05   -0.84084E-05   902   0.155E-02
      8 T=   607. E= -.44322908E+03 F= -.45165115E+03 E0= -.45171138E+03  EK= 0.87045E+01 SP= -.34E+00 SK= 0.59E-01
       N       E                     dE             d eps       ncg     rms          rms(c)
DAV:   1    -0.451001063925E+03    0.65008E+00   -0.43836E-02  1280   0.171E+00    0.134E-01
RMM:   2    -0.451004890590E+03   -0.38267E-02   -0.35060E-02   906   0.277E-01    0.295E-01
RMM:   3    -0.451005656297E+03   -0.76571E-03   -0.71211E-03  1096   0.136E-01    0.429E-01
RMM:   4    -0.451005647214E+03    0.90823E-05   -0.10271E-03   988   0.606E-02    0.329E-01
RMM:   5    -0.451005637424E+03    0.97901E-05   -0.36263E-04   983   0.319E-02    0.220E-01
RMM:   6    -0.451005642210E+03   -0.47858E-05   -0.59547E-05   711   0.127E-02
      9 T=   573. E= -.44322742E+03 F= -.45100564E+03 E0= -.45106435E+03  EK= 0.82223E+01 SP= -.56E+00 SK= 0.12E+00
       N       E                     dE             d eps       ncg     rms          rms(c)
DAV:   1    -0.450392678318E+03    0.61296E+00   -0.32917E-02  1284   0.165E+00    0.413E-01
RMM:   2    -0.450395474693E+03   -0.27964E-02   -0.30370E-02   924   0.266E-01    0.104E-01
RMM:   3    -0.450396082731E+03   -0.60804E-03   -0.57905E-03  1096   0.122E-01    0.115E-01
RMM:   4    -0.450396054760E+03    0.27970E-04   -0.10132E-03  1019   0.510E-02    0.790E-02
RMM:   5    -0.450396047678E+03    0.70827E-05   -0.16514E-04   916   0.204E-02    0.220E-02
RMM:   6    -0.450396044163E+03    0.35151E-05   -0.33623E-05   606   0.959E-03
     10 T=   545. E= -.44322620E+03 F= -.45039604E+03 E0= -.45045285E+03  EK= 0.78230E+01 SP= -.86E+00 SK= 0.21E+00
       N       E                     dE             d eps       ncg     rms          rms(c)
DAV:   1    -0.449835244854E+03    0.56080E+00   -0.25244E-02  1272   0.160E+00    0.554E-01
RMM:   2    -0.449838222608E+03   -0.29778E-02   -0.28127E-02   945   0.230E-01    0.176E-01
RMM:   3    -0.449838950043E+03   -0.72743E-03   -0.51006E-03  1109   0.114E-01    0.120E-01
RMM:   4    -0.449838722348E+03    0.22769E-03   -0.99554E-04   986   0.480E-02    0.374E-02
RMM:   5    -0.449838726646E+03   -0.42973E-05   -0.16934E-04   939   0.180E-02    0.158E-02
RMM:   6    -0.449838726400E+03    0.24532E-06   -0.15556E-05   503   0.688E-03
     11 T=   525. E= -.44322550E+03 F= -.44983873E+03 E0= -.44989262E+03  EK= 0.75263E+01 SP= -.12E+01 SK= 0.34E+00
       N       E                     dE             d eps       ncg     rms          rms(c)
DAV:   1    -0.449338074740E+03    0.50065E+00   -0.30632E-02  1268   0.159E+00    0.116E-01
RMM:   2    -0.449341049553E+03   -0.29748E-02   -0.27192E-02   945   0.233E-01    0.150E-01
RMM:   3    -0.449341488229E+03   -0.43868E-03   -0.45120E-03  1097   0.109E-01    0.179E-01
RMM:   4    -0.449341568834E+03   -0.80605E-04   -0.81034E-04  1105   0.454E-02    0.180E-01
RMM:   5    -0.449341573031E+03   -0.41970E-05   -0.57152E-05   696   0.118E-02
     12 T=   512. E= -.44322489E+03 F= -.44934157E+03 E0= -.44939046E+03  EK= 0.73442E+01 SP= -.17E+01 SK= 0.51E+00
       N       E                     dE             d eps       ncg     rms          rms(c)
DAV:   1    -0.448901458758E+03    0.44011E+00   -0.23931E-02  1260   0.158E+00    0.330E-01
RMM:   2    -0.448903948851E+03   -0.24901E-02   -0.23167E-02   950   0.215E-01    0.342E-01
RMM:   3    -0.448904326292E+03   -0.37744E-03   -0.38582E-03  1096   0.101E-01    0.367E-01
RMM:   4    -0.448904554493E+03   -0.22820E-03   -0.86087E-04  1025   0.491E-02    0.471E-01
RMM:   5    -0.448904630198E+03   -0.75705E-04   -0.20394E-04   997   0.222E-02    0.440E-01
RMM:   6    -0.448905773685E+03   -0.11435E-02   -0.95123E-03  1197   0.147E-01    0.867E-01
RMM:   7    -0.448904613724E+03    0.11600E-02   -0.13494E-03   829   0.653E-02    0.492E-01
RMM:   8    -0.448904229869E+03    0.38386E-03   -0.10837E-03   909   0.449E-02    0.246E-01
RMM:   9    -0.448904315090E+03   -0.85222E-04   -0.87197E-05   745   0.171E-02    0.302E-01
RMM:  10    -0.448904206862E+03    0.10823E-03   -0.11958E-04   866   0.161E-02    0.205E-01
RMM:  11    -0.448904130717E+03    0.76145E-04   -0.98263E-05   806   0.116E-02    0.147E-01
RMM:  12    -0.448904096568E+03    0.34150E-04   -0.57781E-05   738   0.782E-03    0.165E-01
RMM:  13    -0.448904007813E+03    0.88754E-04   -0.20167E-04   839   0.107E-02    0.163E-01
RMM:  14    -0.448903991279E+03    0.16534E-04   -0.44551E-05   684   0.709E-03    0.175E-01
RMM:  15    -0.448903990883E+03    0.39661E-06   -0.36544E-06   463   0.353E-03
     13 T=   507. E= -.44322459E+03 F= -.44890399E+03 E0= -.44893914E+03  EK= 0.72809E+01 SP= -.23E+01 SK= 0.72E+00
       N       E                     dE             d eps       ncg     rms          rms(c)
DAV:   1    -0.448516957547E+03    0.38703E+00   -0.21790E-02  1304   0.164E+00    0.123E+00
RMM:   2    -0.448517995801E+03   -0.10383E-02   -0.30963E-02   942   0.224E-01    0.598E-01
RMM:   3    -0.448517682902E+03    0.31290E-03   -0.70732E-03  1093   0.123E-01    0.131E-01
RMM:   4    -0.448517694784E+03   -0.11882E-04   -0.13914E-03  1034   0.569E-02    0.766E-02
RMM:   5    -0.448517550155E+03    0.14463E-03   -0.25031E-04   954   0.233E-02    0.321E-02
RMM:   6    -0.448517528594E+03    0.21561E-04   -0.95061E-05   819   0.126E-02    0.185E-02
RMM:   7    -0.448517517211E+03    0.11383E-04   -0.26933E-05   553   0.743E-03    0.103E-02
RMM:   8    -0.448517511867E+03    0.53447E-05   -0.26721E-05   581   0.665E-03
     14 T=   511. E= -.44322308E+03 F= -.44851751E+03 E0= -.44854041E+03  EK= 0.73352E+01 SP= -.30E+01 SK= 0.97E+00
       N       E                     dE             d eps       ncg     rms          rms(c)
DAV:   1    -0.448179750189E+03    0.33777E+00   -0.37453E-02  1272   0.169E+00    0.564E-01
RMM:   2    -0.448177887372E+03    0.18628E-02   -0.34055E-02   935   0.264E-01    0.474E-01
RMM:   3    -0.448176852694E+03    0.10347E-02   -0.10513E-02  1090   0.131E-01    0.324E-01
RMM:   4    -0.448175566120E+03    0.12866E-02   -0.44777E-03   949   0.735E-02    0.125E-01
RMM:   5    -0.448175207408E+03    0.35871E-03   -0.83311E-04  1009   0.423E-02    0.501E-02
RMM:   6    -0.448175093244E+03    0.11416E-03   -0.42502E-04   854   0.242E-02    0.309E-02
RMM:   7    -0.448175080459E+03    0.12786E-04   -0.11131E-04   888   0.135E-02    0.259E-02
RMM:   8    -0.448175057302E+03    0.23157E-04   -0.56488E-05   652   0.977E-03    0.639E-03
RMM:   9    -0.448175052316E+03    0.49857E-05   -0.40327E-05   642   0.695E-03
     15 T=   523. E= -.44322264E+03 F= -.44817505E+03 E0= -.44819670E+03  EK= 0.75051E+01 SP= -.38E+01 SK= 0.13E+01
       N       E                     dE             d eps       ncg     rms          rms(c)
DAV:   1    -0.447861421130E+03    0.31364E+00   -0.36910E-02  1216   0.162E+00    0.441E-01
RMM:   2    -0.447863525529E+03   -0.21044E-02   -0.29278E-02   936   0.241E-01    0.143E-01
RMM:   3    -0.447863523031E+03    0.24982E-05   -0.59161E-03  1093   0.116E-01    0.117E-01
RMM:   4    -0.447863109633E+03    0.41340E-03   -0.12362E-03  1025   0.512E-02    0.719E-02
RMM:   5    -0.447862727875E+03    0.38176E-03   -0.59039E-04   853   0.246E-02    0.341E-02
RMM:   6    -0.447862496395E+03    0.23148E-03   -0.64571E-04   860   0.228E-02    0.233E-02
RMM:   7    -0.447862465684E+03    0.30711E-04   -0.15687E-04   958   0.150E-02    0.133E-02
RMM:   8    -0.447862450928E+03    0.14756E-04   -0.45053E-05   685   0.874E-03    0.924E-03
RMM:   9    -0.447862450181E+03    0.74661E-06   -0.15514E-05   497   0.581E-03
     16 T=   543. E= -.44322231E+03 F= -.44786245E+03 E0= -.44788340E+03  EK= 0.77852E+01 SP= -.47E+01 SK= 0.16E+01
       N       E                     dE             d eps       ncg     rms          rms(c)
DAV:   1    -0.447561089552E+03    0.30136E+00   -0.37232E-02  1248   0.164E+00    0.256E-01
RMM:   2    -0.447564298325E+03   -0.32088E-02   -0.29776E-02   944   0.243E-01    0.591E-02
RMM:   3    -0.447564773087E+03   -0.47476E-03   -0.48554E-03  1099   0.113E-01    0.939E-02
RMM:   4    -0.447564846298E+03   -0.73211E-04   -0.79632E-04  1085   0.464E-02    0.759E-02
RMM:   5    -0.447564850431E+03   -0.41332E-05   -0.89506E-05   751   0.137E-02
     17 T=   569. E= -.44322145E+03 F= -.44756485E+03 E0= -.44758538E+03  EK= 0.81699E+01 SP= -.57E+01 SK= 0.19E+01
       N       E                     dE             d eps       ncg     rms          rms(c)
DAV:   1    -0.447265649536E+03    0.29920E+00   -0.36053E-02  1264   0.167E+00    0.981E-02
RMM:   2    -0.447268775946E+03   -0.31264E-02   -0.28093E-02   939   0.239E-01    0.138E-01
RMM:   3    -0.447269250396E+03   -0.47445E-03   -0.48471E-03  1097   0.112E-01    0.175E-01
RMM:   4    -0.447269327458E+03   -0.77062E-04   -0.79916E-04  1118   0.464E-02    0.169E-01
RMM:   5    -0.447269327251E+03    0.20695E-06   -0.63929E-05   713   0.123E-02
     18 T=   603. E= -.44322078E+03 F= -.44726933E+03 E0= -.44728973E+03  EK= 0.86532E+01 SP= -.67E+01 SK= 0.21E+01
       N       E                     dE             d eps       ncg     rms          rms(c)
DAV:   1    -0.446958395176E+03    0.31093E+00   -0.31369E-02  1236   0.174E+00    0.996E-02
RMM:   2    -0.446961526102E+03   -0.31309E-02   -0.27900E-02   947   0.237E-01    0.229E-01
RMM:   3    -0.446962039189E+03   -0.51309E-03   -0.47293E-03  1097   0.110E-01    0.303E-01
RMM:   4    -0.446962071264E+03   -0.32075E-04   -0.70086E-04  1086   0.452E-02    0.269E-01
RMM:   5    -0.446962028199E+03    0.43065E-04   -0.18974E-04   880   0.242E-02    0.179E-01
RMM:   6    -0.446962013001E+03    0.15199E-04   -0.68240E-05   787   0.110E-02    0.133E-01
RMM:   7    -0.446962017326E+03   -0.43256E-05   -0.73693E-06   476   0.571E-03
     19 T=   643. E= -.44322019E+03 F= -.44696202E+03 E0= -.44698254E+03  EK= 0.92278E+01 SP= -.79E+01 SK= 0.24E+01
       N       E                     dE             d eps       ncg     rms          rms(c)
DAV:   1    -0.446626967990E+03    0.33505E+00   -0.29126E-02  1260   0.181E+00    0.414E-01
RMM:   2    -0.446629985570E+03   -0.30176E-02   -0.29420E-02   936   0.257E-01    0.108E-01
RMM:   3    -0.446630714124E+03   -0.72855E-03   -0.56652E-03  1098   0.118E-01    0.128E-01
RMM:   4    -0.446630500496E+03    0.21363E-03   -0.10145E-03   990   0.510E-02    0.662E-02
RMM:   5    -0.446630511480E+03   -0.10984E-04   -0.21400E-04   935   0.208E-02    0.267E-02
RMM:   6    -0.446630512606E+03   -0.11264E-05   -0.29602E-05   540   0.944E-03
     20 T=   689. E= -.44321968E+03 F= -.44663051E+03 E0= -.44665158E+03  EK= 0.98851E+01 SP= -.91E+01 SK= 0.26E+01
       N       E                     dE             d eps       ncg     rms          rms(c)
DAV:   1    -0.446257756713E+03    0.37275E+00   -0.34743E-02  1288   0.186E+00    0.403E-01
RMM:   2    -0.446261493346E+03   -0.37366E-02   -0.35015E-02   945   0.257E-01    0.106E-01
RMM:   3    -0.446262060753E+03   -0.56741E-03   -0.58672E-03  1098   0.124E-01    0.637E-02
RMM:   4    -0.446262138752E+03   -0.77998E-04   -0.90469E-04  1073   0.516E-02    0.322E-02
RMM:   5    -0.446262149856E+03   -0.11104E-04   -0.14812E-04   899   0.180E-02    0.221E-02
RMM:   6    -0.446262146955E+03    0.29008E-05   -0.14499E-05   494   0.672E-03
     21 T=   740. E= -.44321924E+03 F= -.44626215E+03 E0= -.44628424E+03  EK= 0.10612E+02 SP= -.10E+02 SK= 0.27E+01
       N       E                     dE             d eps       ncg     rms          rms(c)
DAV:   1    -0.445840904175E+03    0.42125E+00   -0.34144E-02  1304   0.196E+00    0.188E-01
RMM:   2    -0.445845214511E+03   -0.43103E-02   -0.39024E-02   950   0.273E-01    0.118E-01
RMM:   3    -0.445845810044E+03   -0.59553E-03   -0.62809E-03  1098   0.127E-01    0.145E-01
RMM:   4    -0.445845898167E+03   -0.88123E-04   -0.10375E-03  1093   0.531E-02    0.141E-01
RMM:   5    -0.445845903829E+03   -0.56623E-05   -0.12275E-04   847   0.166E-02    0.131E-01
RMM:   6    -0.445845890727E+03    0.13102E-04   -0.18170E-05   493   0.749E-03    0.965E-02
RMM:   7    -0.445845877307E+03    0.13420E-04   -0.15356E-04   767   0.121E-02    0.606E-02
RMM:   8    -0.445845875610E+03    0.16975E-05   -0.18111E-05   548   0.664E-03
     22 T=   794. E= -.44321963E+03 F= -.44584588E+03 E0= -.44586861E+03  EK= 0.11392E+02 SP= -.12E+02 SK= 0.28E+01
       N       E                     dE             d eps       ncg     rms          rms(c)
DAV:   1    -0.445368879179E+03    0.47700E+00   -0.33917E-02  1288   0.202E+00    0.439E-01
RMM:   2    -0.445372874645E+03   -0.39955E-02   -0.37520E-02   942   0.282E-01    0.106E-01
RMM:   3    -0.445373527292E+03   -0.65265E-03   -0.66304E-03  1098   0.133E-01    0.838E-02
RMM:   4    -0.445373625255E+03   -0.97963E-04   -0.10897E-03  1033   0.564E-02    0.666E-02
RMM:   5    -0.445373595288E+03    0.29967E-04   -0.21800E-04   971   0.226E-02    0.282E-02
RMM:   6    -0.445373586906E+03    0.83822E-05   -0.46039E-05   630   0.103E-02
     23 T=   851. E= -.44322052E+03 F= -.44537359E+03 E0= -.44539541E+03  EK= 0.12204E+02 SP= -.13E+02 SK= 0.27E+01
       N       E                     dE             d eps       ncg     rms          rms(c)
DAV:   1    -0.444835058085E+03    0.53854E+00   -0.31647E-02  1304   0.210E+00    0.222E-01
RMM:   2    -0.444839476217E+03   -0.44181E-02   -0.38816E-02   950   0.289E-01    0.138E-01
RMM:   3    -0.444840123029E+03   -0.64681E-03   -0.67306E-03  1099   0.135E-01    0.168E-01
RMM:   4    -0.444840232975E+03   -0.10995E-03   -0.11188E-03  1109   0.555E-02    0.174E-01
RMM:   5    -0.444840260002E+03   -0.27027E-04   -0.10701E-04   879   0.171E-02    0.206E-01
RMM:   6    -0.444840205337E+03    0.54665E-04   -0.40178E-04   818   0.333E-02    0.501E-02
RMM:   7    -0.444840220791E+03   -0.15454E-04   -0.17245E-04   892   0.143E-02    0.842E-02
RMM:   8    -0.444840211116E+03    0.96752E-05   -0.11682E-05   485   0.708E-03
     24 T=   908. E= -.44322207E+03 F= -.44484021E+03 E0= -.44485920E+03  EK= 0.13024E+02 SP= -.14E+02 SK= 0.26E+01
       N       E                     dE             d eps       ncg     rms          rms(c)
DAV:   1    -0.444241070601E+03    0.59915E+00   -0.39293E-02  1272   0.218E+00    0.489E-01
RMM:   2    -0.444245551951E+03   -0.44813E-02   -0.47086E-02   933   0.325E-01    0.126E-01
RMM:   3    -0.444246216601E+03   -0.66465E-03   -0.86566E-03  1100   0.152E-01    0.111E-01
RMM:   4    -0.444246280489E+03   -0.63888E-04   -0.14024E-03  1013   0.652E-02    0.734E-02
RMM:   5    -0.444246225706E+03    0.54783E-04   -0.41944E-04   986   0.303E-02    0.324E-02
RMM:   6    -0.444246191574E+03    0.34132E-04   -0.11383E-04   855   0.148E-02    0.155E-02
RMM:   7    -0.444246173702E+03    0.17872E-04   -0.38541E-05   621   0.751E-03    0.887E-03
RMM:   8    -0.444246167472E+03    0.62294E-05   -0.24622E-05   559   0.593E-03
     25 T=   964. E= -.44322381E+03 F= -.44424617E+03 E0= -.44426351E+03  EK= 0.13826E+02 SP= -.15E+02 SK= 0.24E+01
       N       E                     dE             d eps       ncg     rms          rms(c)
DAV:   1    -0.443592211131E+03    0.65396E+00   -0.50267E-02  1304   0.221E+00    0.333E-01
RMM:   2    -0.443597621529E+03   -0.54104E-02   -0.47061E-02   931   0.325E-01    0.122E-01
RMM:   3    -0.443598445225E+03   -0.82370E-03   -0.85857E-03  1098   0.154E-01    0.168E-01
RMM:   4    -0.443598591589E+03   -0.14636E-03   -0.15987E-03  1098   0.647E-02    0.153E-01
RMM:   5    -0.443598599254E+03   -0.76645E-05   -0.12846E-04   914   0.178E-02    0.155E-01
RMM:   6    -0.443598585156E+03    0.14097E-04   -0.18130E-05   498   0.769E-03    0.146E-01
RMM:   7    -0.443598595549E+03   -0.10393E-04   -0.20688E-04   816   0.199E-02    0.200E-01
RMM:   8    -0.443598693034E+03   -0.97484E-04   -0.18613E-04   854   0.212E-02    0.419E-01
RMM:   9    -0.443598591386E+03    0.10165E-03   -0.10179E-03  1154   0.507E-02    0.198E-01
RMM:  10    -0.443598621742E+03   -0.30356E-04   -0.89983E-05   892   0.144E-02    0.264E-01
RMM:  11    -0.443598558395E+03    0.63348E-04   -0.13632E-04   843   0.189E-02    0.501E-02
RMM:  12    -0.443598555937E+03    0.24583E-05   -0.33246E-05   604   0.810E-03
     26 T=  1016. E= -.44322556E+03 F= -.44359856E+03 E0= -.44361464E+03  EK= 0.14583E+02 SP= -.16E+02 SK= 0.21E+01
       N       E                     dE             d eps       ncg     rms          rms(c)
DAV:   1    -0.442903500471E+03    0.69506E+00   -0.60757E-02  1296   0.228E+00    0.516E-01
RMM:   2    -0.442910106063E+03   -0.66056E-02   -0.58752E-02   941   0.366E-01    0.105E-01
RMM:   3    -0.442911174618E+03   -0.10686E-02   -0.10650E-02  1099   0.173E-01    0.130E-01
RMM:   4    -0.442911349781E+03   -0.17516E-03   -0.19327E-03  1063   0.730E-02    0.813E-02
RMM:   5    -0.442911369540E+03   -0.19759E-04   -0.30270E-04  1044   0.266E-02    0.366E-02
RMM:   6    -0.442911367312E+03    0.22279E-05   -0.26873E-05   534   0.896E-03
     27 T=  1064. E= -.44322649E+03 F= -.44291137E+03 E0= -.44292649E+03  EK= 0.15273E+02 SP= -.17E+02 SK= 0.18E+01
       N       E                     dE             d eps       ncg     rms          rms(c)
DAV:   1    -0.442203433290E+03    0.70794E+00   -0.61778E-02  1312   0.234E+00    0.345E-01
RMM:   2    -0.442210308430E+03   -0.68751E-02   -0.58850E-02   937   0.366E-01    0.120E-01
RMM:   3    -0.442211445455E+03   -0.11370E-02   -0.10981E-02  1097   0.176E-01    0.176E-01
RMM:   4    -0.442211662974E+03   -0.21752E-03   -0.22068E-03  1129   0.744E-02    0.167E-01
RMM:   5    -0.442211679195E+03   -0.16221E-04   -0.13461E-04   963   0.186E-02    0.182E-01
RMM:   6    -0.442211656334E+03    0.22862E-04   -0.52746E-05   693   0.113E-02    0.104E-01
RMM:   7    -0.442211653069E+03    0.32643E-05   -0.81684E-05   668   0.987E-03
     28 T=  1107. E= -.44322865E+03 F= -.44221165E+03 E0= -.44222626E+03  EK= 0.15882E+02 SP= -.18E+02 SK= 0.15E+01
       N       E                     dE             d eps       ncg     rms          rms(c)
DAV:   1    -0.441519669135E+03    0.69199E+00   -0.76342E-02  1288   0.238E+00    0.500E-01
RMM:   2    -0.441527210796E+03   -0.75417E-02   -0.65632E-02   932   0.388E-01    0.690E-02
RMM:   3    -0.441528544238E+03   -0.13334E-02   -0.12798E-02  1097   0.188E-01    0.144E-01
RMM:   4    -0.441528788289E+03   -0.24405E-03   -0.25126E-03  1119   0.792E-02    0.119E-01
RMM:   5    -0.441528798184E+03   -0.98952E-05   -0.17383E-04  1025   0.208E-02    0.100E-01
RMM:   6    -0.441528797614E+03    0.56987E-06   -0.13878E-05   487   0.705E-03
     29 T=  1143. E= -.44323058E+03 F= -.44152880E+03 E0= -.44154343E+03  EK= 0.16401E+02 SP= -.19E+02 SK= 0.11E+01
       N       E                     dE             d eps       ncg     rms          rms(c)
DAV:   1    -0.440882716610E+03    0.64608E+00   -0.79341E-02  1304   0.242E+00    0.405E-01
RMM:   2    -0.440890493335E+03   -0.77767E-02   -0.65316E-02   936   0.386E-01    0.134E-01
RMM:   3    -0.440891834464E+03   -0.13411E-02   -0.13012E-02  1097   0.190E-01    0.190E-01
RMM:   4    -0.440892095256E+03   -0.26079E-03   -0.26706E-03  1113   0.807E-02    0.152E-01
RMM:   5    -0.440892088778E+03    0.64785E-05   -0.19450E-04  1014   0.210E-02    0.983E-02
RMM:   6    -0.440892082442E+03    0.63360E-05   -0.27198E-05   547   0.928E-03
     30 T=  1173. E= -.44323185E+03 F= -.44089208E+03 E0= -.44090747E+03  EK= 0.16825E+02 SP= -.20E+02 SK= 0.79E+00
       N       E                     dE             d eps       ncg     rms          rms(c)
DAV:   1    -0.440313528527E+03    0.57856E+00   -0.85543E-02  1304   0.247E+00    0.520E-01
RMM:   2    -0.440321995103E+03   -0.84666E-02   -0.72929E-02   923   0.400E-01    0.702E-02
RMM:   3    -0.440323533434E+03   -0.15383E-02   -0.14937E-02  1099   0.201E-01    0.142E-01
RMM:   4    -0.440323800442E+03   -0.26701E-03   -0.28071E-03  1130   0.837E-02    0.107E-01
RMM:   5    -0.440323808022E+03   -0.75803E-05   -0.17092E-04  1011   0.205E-02    0.889E-02
RMM:   6    -0.440323806169E+03    0.18530E-05   -0.14219E-05   484   0.718E-03
     31 T=  1195. E= -.44323309E+03 F= -.44032381E+03 E0= -.44034160E+03  EK= 0.17144E+02 SP= -.21E+02 SK= 0.50E+00
       N       E                     dE             d eps       ncg     rms          rms(c)
DAV:   1    -0.439825983246E+03    0.49782E+00   -0.77591E-02  1304   0.250E+00    0.347E-01
RMM:   2    -0.439833517626E+03   -0.75344E-02   -0.66651E-02   902   0.397E-01    0.138E-01
RMM:   3    -0.439834835032E+03   -0.13174E-02   -0.15253E-02  1098   0.200E-01    0.222E-01
RMM:   4    -0.439835043219E+03   -0.20819E-03   -0.27817E-03  1122   0.824E-02    0.191E-01
RMM:   5    -0.439834954891E+03    0.88328E-04   -0.19806E-04  1015   0.213E-02    0.150E-01
RMM:   6    -0.439834794614E+03    0.16028E-03   -0.11608E-04   756   0.123E-02    0.922E-02
RMM:   7    -0.439834503467E+03    0.29115E-03   -0.99407E-04   990   0.242E-02    0.895E-02
RMM:   8    -0.439834500526E+03    0.29415E-05   -0.58943E-05   672   0.112E-02
     32 T=  1209. E= -.44323345E+03 F= -.43983450E+03 E0= -.43986230E+03  EK= 0.17346E+02 SP= -.21E+02 SK= 0.26E+00
       N       E                     dE             d eps       ncg     rms          rms(c)
DAV:   1    -0.439473178208E+03    0.36133E+00   -0.40665E-01  1304   0.262E+00    0.119E+00
RMM:   2    -0.439438936166E+03    0.34242E-01   -0.20355E-01   862   0.499E-01    0.503E-01
RMM:   3    -0.439432786188E+03    0.61500E-02   -0.30602E-02  1044   0.272E-01    0.394E-01
RMM:   4    -0.439428783269E+03    0.40029E-02   -0.10839E-02  1038   0.127E-01    0.271E-01
RMM:   5    -0.439427143046E+03    0.16402E-02   -0.73114E-03   919   0.715E-02    0.123E-01
RMM:   6    -0.439426935707E+03    0.20734E-03   -0.80015E-04   843   0.373E-02    0.930E-02
RMM:   7    -0.439426953919E+03   -0.18212E-04   -0.48883E-04   863   0.201E-02    0.648E-02
RMM:   8    -0.439426876069E+03    0.77851E-04   -0.84531E-05   713   0.118E-02    0.221E-02
RMM:   9    -0.439426864395E+03    0.11673E-04   -0.49526E-05   676   0.761E-03    0.204E-02
RMM:  10    -0.439426850169E+03    0.14226E-04   -0.17445E-05   529   0.525E-03    0.882E-03
RMM:  11    -0.439426849343E+03    0.82667E-06   -0.78502E-06   482   0.412E-03
     33 T=  1214. E= -.44323421E+03 F= -.43942685E+03 E0= -.43945949E+03  EK= 0.17413E+02 SP= -.21E+02 SK= 0.10E+00
       N       E                     dE             d eps       ncg     rms          rms(c)
DAV:   1    -0.439101524287E+03    0.32533E+00   -0.15558E-01  1304   0.258E+00    0.636E-01
RMM:   2    -0.439097092117E+03    0.44322E-02   -0.90138E-02   883   0.417E-01    0.294E-01
RMM:   3    -0.439096364810E+03    0.72731E-03   -0.26493E-02  1094   0.227E-01    0.287E-01
RMM:   4    -0.439095861337E+03    0.50347E-03   -0.43120E-03   982   0.980E-02    0.203E-01
RMM:   5    -0.439095450664E+03    0.41067E-03   -0.14951E-03   912   0.423E-02    0.108E-01
RMM:   6    -0.439095250330E+03    0.20033E-03   -0.65938E-04   930   0.268E-02    0.684E-02
RMM:   7    -0.439095232632E+03    0.17698E-04   -0.19980E-04   741   0.159E-02    0.570E-02
RMM:   8    -0.439095191886E+03    0.40745E-04   -0.10954E-04   739   0.129E-02    0.261E-02
RMM:   9    -0.439095169477E+03    0.22409E-04   -0.93079E-05   737   0.976E-03    0.137E-02
RMM:  10    -0.439095169701E+03   -0.22396E-06   -0.11695E-05   508   0.539E-03
     34 T=  1208. E= -.44323553E+03 F= -.43909517E+03 E0= -.43912762E+03  EK= 0.17332E+02 SP= -.21E+02 SK= 0.15E-01
       N       E                     dE             d eps       ncg     rms          rms(c)
DAV:   1    -0.438817413912E+03    0.27776E+00   -0.73480E-02  1288   0.249E+00    0.475E-01
RMM:   2    -0.438823656687E+03   -0.62428E-02   -0.65368E-02   900   0.388E-01    0.154E-01
RMM:   3    -0.438824590347E+03   -0.93366E-03   -0.15758E-02  1103   0.198E-01    0.203E-01
RMM:   4    -0.438824570964E+03    0.19383E-04   -0.28514E-03  1055   0.812E-02    0.163E-01
RMM:   5    -0.438824460561E+03    0.11040E-03   -0.34351E-04   945   0.253E-02    0.887E-02
RMM:   6    -0.438824352095E+03    0.10847E-03   -0.23535E-04   816   0.173E-02    0.271E-02
RMM:   7    -0.438824343340E+03    0.87551E-05   -0.71121E-05   838   0.108E-02
     35 T=  1191. E= -.44323613E+03 F= -.43882434E+03 E0= -.43885604E+03  EK= 0.17091E+02 SP= -.22E+02 SK= 0.46E-02
       N       E                     dE             d eps       ncg     rms          rms(c)
DAV:   1    -0.438589922820E+03    0.23443E+00   -0.72896E-02  1328   0.247E+00    0.440E-01
RMM:   2    -0.438597132031E+03   -0.72092E-02   -0.61930E-02   893   0.380E-01    0.987E-02
RMM:   3    -0.438598596385E+03   -0.14644E-02   -0.14366E-02  1102   0.192E-01    0.188E-01
RMM:   4    -0.438598791428E+03   -0.19504E-03   -0.22712E-03  1114   0.748E-02    0.158E-01
RMM:   5    -0.438598777306E+03    0.14122E-04   -0.16474E-04  1007   0.195E-02    0.124E-01
RMM:   6    -0.438598768755E+03    0.85516E-05   -0.22158E-05   522   0.768E-03
     36 T=  1163. E= -.44323509E+03 F= -.43859877E+03 E0= -.43862906E+03  EK= 0.16691E+02 SP= -.21E+02 SK= 0.61E-01
       N       E                     dE             d eps       ncg     rms          rms(c)
DAV:   1    -0.438400992344E+03    0.19778E+00   -0.72820E-02  1296   0.243E+00    0.550E-01
RMM:   2    -0.438407854239E+03   -0.68619E-02   -0.57925E-02   897   0.372E-01    0.893E-02
RMM:   3    -0.438409274971E+03   -0.14207E-02   -0.13650E-02  1107   0.186E-01    0.155E-01
RMM:   4    -0.438409397659E+03   -0.12269E-03   -0.21047E-03  1100   0.713E-02    0.117E-01
RMM:   5    -0.438409401005E+03   -0.33460E-05   -0.16968E-04  1003   0.198E-02    0.732E-02
RMM:   6    -0.438409398406E+03    0.25988E-05   -0.23803E-05   524   0.758E-03
     37 T=  1125. E= -.44323318E+03 F= -.43840940E+03 E0= -.43843821E+03  EK= 0.16148E+02 SP= -.21E+02 SK= 0.17E+00
       N       E                     dE             d eps       ncg     rms          rms(c)
DAV:   1    -0.438243078095E+03    0.16632E+00   -0.72694E-02  1304   0.238E+00    0.377E-01
RMM:   2    -0.438250140387E+03   -0.70623E-02   -0.62621E-02   896   0.373E-01    0.124E-01
RMM:   3    -0.438251479052E+03   -0.13387E-02   -0.13789E-02  1106   0.186E-01    0.217E-01
RMM:   4    -0.438251644741E+03   -0.16569E-03   -0.19595E-03  1094   0.704E-02    0.183E-01
RMM:   5    -0.438251638976E+03    0.57650E-05   -0.17220E-04  1029   0.207E-02    0.164E-01
RMM:   6    -0.438251627694E+03    0.11282E-04   -0.18007E-05   500   0.720E-03    0.139E-01
RMM:   7    -0.438251592571E+03    0.35123E-04   -0.83876E-05   670   0.897E-03    0.556E-02
RMM:   8    -0.438251589602E+03    0.29696E-05   -0.16391E-04   834   0.107E-02    0.458E-02
RMM:   9    -0.438251589820E+03   -0.21856E-06   -0.85828E-06   473   0.500E-03
     38 T=  1080. E= -.44323113E+03 F= -.43825159E+03 E0= -.43827857E+03  EK= 0.15489E+02 SP= -.21E+02 SK= 0.31E+00
       N       E                     dE             d eps       ncg     rms          rms(c)
DAV:   1    -0.438114350542E+03    0.13724E+00   -0.72146E-02  1296   0.234E+00    0.608E-01
RMM:   2    -0.438120514698E+03   -0.61642E-02   -0.61780E-02   912   0.365E-01    0.119E-01
RMM:   3    -0.438121497836E+03   -0.98314E-03   -0.13230E-02  1103   0.180E-01    0.148E-01
RMM:   4    -0.438121489710E+03    0.81254E-05   -0.20909E-03  1062   0.717E-02    0.108E-01
RMM:   5    -0.438121275243E+03    0.21447E-03   -0.38184E-04   917   0.268E-02    0.441E-02
RMM:   6    -0.438121085041E+03    0.19020E-03   -0.44735E-04   823   0.200E-02    0.270E-02
RMM:   7    -0.438121027099E+03    0.57942E-04   -0.28501E-04   875   0.160E-02    0.220E-02
RMM:   8    -0.438121023747E+03    0.33521E-05   -0.48611E-05   731   0.920E-03
     39 T=  1028. E= -.44322801E+03 F= -.43812102E+03 E0= -.43814100E+03  EK= 0.14749E+02 SP= -.20E+02 SK= 0.46E+00
       N       E                     dE             d eps       ncg     rms          rms(c)
DAV:   1    -0.438019871867E+03    0.10116E+00   -0.58711E-02  1280   0.239E+00    0.397E-01
RMM:   2    -0.438019046387E+03    0.82548E-03   -0.63643E-02   903   0.360E-01    0.222E-01
RMM:   3    -0.438018549099E+03    0.49729E-03   -0.16692E-02  1099   0.186E-01    0.252E-01
RMM:   4    -0.438018198602E+03    0.35050E-03   -0.23797E-03  1054   0.759E-02    0.204E-01
RMM:   5    -0.438017147030E+03    0.10516E-02   -0.14745E-03   816   0.447E-02    0.566E-02
RMM:   6    -0.438016877436E+03    0.26959E-03   -0.10896E-03   869   0.324E-02    0.799E-02
RMM:   7    -0.438016867391E+03    0.10045E-04   -0.26567E-04   966   0.197E-02    0.320E-02
RMM:   8    -0.438016838390E+03    0.29001E-04   -0.95040E-05   723   0.117E-02    0.102E-02
RMM:   9    -0.438016836041E+03    0.23494E-05   -0.51719E-05   657   0.795E-03
     40 T=   973. E= -.44322623E+03 F= -.43801684E+03 E0= -.43803471E+03  EK= 0.13963E+02 SP= -.20E+02 SK= 0.60E+00
       N       E                     dE             d eps       ncg     rms          rms(c)
DAV:   1    -0.437929565035E+03    0.87273E-01   -0.44366E-02  1296   0.223E+00    0.442E-01
RMM:   2    -0.437934477688E+03   -0.49127E-02   -0.55011E-02   919   0.330E-01    0.110E-01
RMM:   3    -0.437935220292E+03   -0.74260E-03   -0.10514E-02  1100   0.163E-01    0.141E-01
RMM:   4    -0.437935268434E+03   -0.48142E-04   -0.16627E-03  1057   0.660E-02    0.116E-01
RMM:   5    -0.437935159171E+03    0.10926E-03   -0.27411E-04   929   0.241E-02    0.483E-02
RMM:   6    -0.437935085307E+03    0.73864E-04   -0.17954E-04   823   0.155E-02    0.211E-02
RMM:   7    -0.437935075665E+03    0.96415E-05   -0.62299E-05   769   0.946E-03
     41 T=   917. E= -.44322516E+03 F= -.43793508E+03 E0= -.43795188E+03  EK= 0.13164E+02 SP= -.19E+02 SK= 0.71E+00
       N       E                     dE             d eps       ncg     rms          rms(c)
DAV:   1    -0.437862469930E+03    0.72615E-01   -0.40640E-02  1304   0.215E+00    0.355E-01
RMM:   2    -0.437867398625E+03   -0.49287E-02   -0.45369E-02   916   0.312E-01    0.848E-02
RMM:   3    -0.437868223090E+03   -0.82447E-03   -0.85854E-03  1102   0.151E-01    0.144E-01
RMM:   4    -0.437868334575E+03   -0.11148E-03   -0.13059E-03  1088   0.602E-02    0.119E-01
RMM:   5    -0.437868336574E+03   -0.19986E-05   -0.13717E-04   967   0.185E-02    0.101E-01
RMM:   6    -0.437868332532E+03    0.40424E-05   -0.13465E-05   490   0.667E-03
     42 T=   862. E= -.44322488E+03 F= -.43786833E+03 E0= -.43788434E+03  EK= 0.12374E+02 SP= -.19E+02 SK= 0.78E+00
       N       E                     dE             d eps       ncg     rms          rms(c)
DAV:   1    -0.437801713784E+03    0.66623E-01   -0.27507E-02  1320   0.207E+00    0.339E-01
RMM:   2    -0.437805399527E+03   -0.36857E-02   -0.33523E-02   897   0.282E-01    0.781E-02
RMM:   3    -0.437806134601E+03   -0.73507E-03   -0.74769E-03  1102   0.139E-01    0.130E-01
RMM:   4    -0.437806231894E+03   -0.97294E-04   -0.10370E-03  1072   0.554E-02    0.861E-02
RMM:   5    -0.437806240057E+03   -0.81625E-05   -0.13582E-04   965   0.185E-02    0.531E-02
RMM:   6    -0.437806237243E+03    0.28138E-05   -0.12056E-05   485   0.672E-03
     43 T=   809. E= -.44322403E+03 F= -.43780624E+03 E0= -.43782146E+03  EK= 0.11610E+02 SP= -.18E+02 SK= 0.81E+00
       N       E                     dE             d eps       ncg     rms          rms(c)
DAV:   1    -0.437740675980E+03    0.65564E-01   -0.28392E-02  1320   0.200E+00    0.352E-01
RMM:   2    -0.437744754103E+03   -0.40781E-02   -0.38703E-02   915   0.284E-01    0.698E-02
RMM:   3    -0.437745419189E+03   -0.66509E-03   -0.70512E-03  1098   0.137E-01    0.122E-01
RMM:   4    -0.437745498016E+03   -0.78826E-04   -0.10220E-03  1081   0.550E-02    0.972E-02
RMM:   5    -0.437745496970E+03    0.10455E-05   -0.12128E-04   949   0.172E-02    0.779E-02
RMM:   6    -0.437745493445E+03    0.35249E-05   -0.11835E-05   485   0.629E-03
     44 T=   759. E= -.44322363E+03 F= -.43774549E+03 E0= -.43775999E+03  EK= 0.10887E+02 SP= -.17E+02 SK= 0.80E+00
       N       E                     dE             d eps       ncg     rms          rms(c)
DAV:   1    -0.437682221384E+03    0.63276E-01   -0.36281E-02  1304   0.192E+00    0.295E-01
RMM:   2    -0.437686156144E+03   -0.39348E-02   -0.37081E-02   902   0.279E-01    0.877E-02
RMM:   3    -0.437686845933E+03   -0.68979E-03   -0.72087E-03  1100   0.136E-01    0.148E-01
RMM:   4    -0.437686927441E+03   -0.81507E-04   -0.92579E-04  1068   0.533E-02    0.113E-01
RMM:   5    -0.437686934682E+03   -0.72410E-05   -0.14120E-04   959   0.190E-02    0.833E-02
RMM:   6    -0.437686933756E+03    0.92576E-06   -0.11956E-05   478   0.658E-03
     45 T=   712. E= -.44322369E+03 F= -.43768693E+03 E0= -.43770075E+03  EK= 0.10220E+02 SP= -.17E+02 SK= 0.75E+00
       N       E                     dE             d eps       ncg     rms          rms(c)
DAV:   1    -0.437630629043E+03    0.56306E-01   -0.30697E-02  1232   0.186E+00    0.329E-01
RMM:   2    -0.437634352885E+03   -0.37238E-02   -0.36095E-02   913   0.271E-01    0.653E-02
RMM:   3    -0.437634972678E+03   -0.61979E-03   -0.65839E-03  1099   0.132E-01    0.119E-01
RMM:   4    -0.437635048443E+03   -0.75765E-04   -0.94157E-04  1054   0.528E-02    0.906E-02
RMM:   5    -0.437635053413E+03   -0.49701E-05   -0.15084E-04   964   0.184E-02    0.620E-02
RMM:   6    -0.437635052192E+03    0.12213E-05   -0.15424E-05   499   0.698E-03
     46 T=   671. E= -.44322386E+03 F= -.43763505E+03 E0= -.43764826E+03  EK= 0.96220E+01 SP= -.16E+02 SK= 0.66E+00
       N       E                     dE             d eps       ncg     rms          rms(c)
DAV:   1    -0.437590931060E+03    0.44122E-01   -0.31227E-02  1296   0.180E+00    0.259E-01
RMM:   2    -0.437594332277E+03   -0.34012E-02   -0.32684E-02   913   0.258E-01    0.782E-02
RMM:   3    -0.437594910683E+03   -0.57841E-03   -0.61293E-03  1099   0.125E-01    0.136E-01
RMM:   4    -0.437594980517E+03   -0.69834E-04   -0.83301E-04  1079   0.494E-02    0.112E-01
RMM:   5    -0.437594981836E+03   -0.13187E-05   -0.10145E-04   895   0.159E-02    0.928E-02
RMM:   6    -0.437594975523E+03    0.63131E-05   -0.13538E-05   475   0.657E-03
     47 T=   635. E= -.44322405E+03 F= -.43759498E+03 E0= -.43760795E+03  EK= 0.91038E+01 SP= -.15E+02 SK= 0.55E+00
       N       E                     dE             d eps       ncg     rms          rms(c)
DAV:   1    -0.437566826119E+03    0.28156E-01   -0.25558E-02  1288   0.175E+00    0.429E-01
RMM:   2    -0.437569779434E+03   -0.29533E-02   -0.29352E-02   928   0.243E-01    0.641E-02
RMM:   3    -0.437570261435E+03   -0.48200E-03   -0.52341E-03  1099   0.117E-01    0.666E-02
RMM:   4    -0.437570318769E+03   -0.57334E-04   -0.71571E-04  1052   0.471E-02    0.448E-02
RMM:   5    -0.437570319877E+03   -0.11086E-05   -0.13105E-04   924   0.175E-02    0.257E-02
RMM:   6    -0.437570312901E+03    0.69764E-05   -0.14881E-05   499   0.670E-03
     48 T=   604. E= -.44322431E+03 F= -.43757031E+03 E0= -.43758444E+03  EK= 0.86703E+01 SP= -.15E+02 SK= 0.43E+00
       N       E                     dE             d eps       ncg     rms          rms(c)
DAV:   1    -0.437560248848E+03    0.10071E-01   -0.27429E-02  1288   0.171E+00    0.229E-01
RMM:   2    -0.437563281338E+03   -0.30325E-02   -0.29813E-02   926   0.241E-01    0.949E-02
RMM:   3    -0.437563728610E+03   -0.44727E-03   -0.49819E-03  1099   0.115E-01    0.146E-01
RMM:   4    -0.437563777641E+03   -0.49031E-04   -0.64527E-04  1080   0.446E-02    0.126E-01
RMM:   5    -0.437563774957E+03    0.26835E-05   -0.86118E-05   800   0.141E-02
     49 T=   580. E= -.44322495E+03 F= -.43756377E+03 E0= -.43758082E+03  EK= 0.83234E+01 SP= -.14E+02 SK= 0.31E+00
       N       E                     dE             d eps       ncg     rms          rms(c)
DAV:   1    -0.437574262498E+03   -0.10485E-01   -0.37158E-02  1264   0.166E+00    0.232E-01
RMM:   2    -0.437575216091E+03   -0.95359E-03   -0.32767E-02   921   0.237E-01    0.196E-01
RMM:   3    -0.437575392995E+03   -0.17690E-03   -0.57191E-03  1097   0.117E-01    0.211E-01
RMM:   4    -0.437575414972E+03   -0.21977E-04   -0.78206E-04  1073   0.453E-02    0.194E-01
RMM:   5    -0.437575358092E+03    0.56880E-04   -0.16724E-04   853   0.172E-02    0.120E-01
RMM:   6    -0.437575327062E+03    0.31031E-04   -0.23089E-04   710   0.155E-02    0.360E-02
RMM:   7    -0.437575318754E+03    0.83074E-05   -0.39552E-05   739   0.932E-03
     50 T=   562. E= -.44322542E+03 F= -.43757532E+03 E0= -.43759345E+03  EK= 0.80622E+01 SP= -.14E+02 SK= 0.21E+00
       N       E                     dE             d eps       ncg     rms          rms(c)
DAV:   1    -0.437601882584E+03   -0.26556E-01   -0.25914E-02  1272   0.162E+00    0.466E-01
RMM:   2    -0.437604366759E+03   -0.24842E-02   -0.29406E-02   927   0.232E-01    0.904E-02
RMM:   3    -0.437604766303E+03   -0.39954E-03   -0.49456E-03  1096   0.112E-01    0.595E-02
RMM:   4    -0.437604798044E+03   -0.31741E-04   -0.60812E-04  1026   0.446E-02    0.360E-02
RMM:   5    -0.437604799799E+03   -0.17557E-05   -0.15671E-04   955   0.186E-02    0.170E-02
RMM:   6    -0.437604797525E+03    0.22742E-05   -0.18384E-05   512   0.740E-03
     51 T=   550. E= -.44322583E+03 F= -.43760480E+03 E0= -.43762339E+03  EK= 0.78845E+01 SP= -.14E+02 SK= 0.11E+00
       N       E                     dE             d eps       ncg     rms          rms(c)
DAV:   1    -0.437647568538E+03   -0.42769E-01   -0.24420E-02  1252   0.161E+00    0.243E-01
RMM:   2    -0.437650032319E+03   -0.24638E-02   -0.24543E-02   928   0.216E-01    0.708E-02
RMM:   3    -0.437650391355E+03   -0.35904E-03   -0.40999E-03  1099   0.104E-01    0.111E-01
RMM:   4    -0.437650430174E+03   -0.38819E-04   -0.53037E-04  1056   0.410E-02    0.808E-02
RMM:   5    -0.437650426770E+03    0.34041E-05   -0.10514E-04   888   0.155E-02    0.365E-02
RMM:   6    -0.437650424332E+03    0.24388E-05   -0.18168E-05   497   0.694E-03
     52 T=   543. E= -.44322615E+03 F= -.43765042E+03 E0= -.43766938E+03  EK= 0.77868E+01 SP= -.13E+02 SK= 0.48E-01
       N       E                     dE             d eps       ncg     rms          rms(c)
DAV:   1    -0.437706206812E+03   -0.55780E-01   -0.15457E-02  1256   0.161E+00    0.283E-01
RMM:   2    -0.437708813402E+03   -0.26066E-02   -0.26130E-02   933   0.211E-01    0.534E-02
RMM:   3    -0.437709198729E+03   -0.38533E-03   -0.42341E-03  1096   0.102E-01    0.983E-02
RMM:   4    -0.437709242444E+03   -0.43715E-04   -0.53554E-04  1072   0.407E-02    0.764E-02
RMM:   5    -0.437709243944E+03   -0.15002E-05   -0.84413E-05   805   0.141E-02
     53 T=   541. E= -.44322608E+03 F= -.43770924E+03 E0= -.43772857E+03  EK= 0.77651E+01 SP= -.13E+02 SK= 0.95E-02
       N       E                     dE             d eps       ncg     rms          rms(c)
DAV:   1    -0.437777883690E+03   -0.68641E-01   -0.20376E-02  1296   0.162E+00    0.179E-01
RMM:   2    -0.437780134288E+03   -0.22506E-02   -0.21995E-02   923   0.210E-01    0.945E-02
RMM:   3    -0.437780481324E+03   -0.34704E-03   -0.38247E-03  1098   0.991E-02    0.138E-01
RMM:   4    -0.437780520345E+03   -0.39021E-04   -0.47637E-04  1075   0.389E-02    0.120E-01
RMM:   5    -0.437780518195E+03    0.21496E-05   -0.66530E-05   748   0.129E-02
     54 T=   545. E= -.44322624E+03 F= -.43778052E+03 E0= -.43780048E+03  EK= 0.78174E+01 SP= -.13E+02 SK= 0.56E-03
       N       E                     dE             d eps       ncg     rms          rms(c)
DAV:   1    -0.437862132969E+03   -0.81613E-01   -0.23320E-02  1292   0.162E+00    0.275E-01
RMM:   2    -0.437864695578E+03   -0.25626E-02   -0.25396E-02   932   0.219E-01    0.646E-02
RMM:   3    -0.437865071506E+03   -0.37593E-03   -0.41344E-03  1098   0.103E-01    0.108E-01
RMM:   4    -0.437865112539E+03   -0.41033E-04   -0.51215E-04  1069   0.406E-02    0.740E-02
RMM:   5    -0.437865115007E+03   -0.24677E-05   -0.97285E-05   850   0.149E-02
     55 T=   554. E= -.44322588E+03 F= -.43786512E+03 E0= -.43788639E+03  EK= 0.79451E+01 SP= -.13E+02 SK= 0.20E-01
       N       E                     dE             d eps       ncg     rms          rms(c)
DAV:   1    -0.437962047886E+03   -0.96935E-01   -0.13100E-02  1288   0.163E+00    0.265E-01
RMM:   2    -0.437964363334E+03   -0.23154E-02   -0.23600E-02   917   0.213E-01    0.489E-02
RMM:   3    -0.437964706703E+03   -0.34337E-03   -0.40687E-03  1098   0.103E-01    0.905E-02
RMM:   4    -0.437964732480E+03   -0.25777E-04   -0.51279E-04  1073   0.408E-02    0.684E-02
RMM:   5    -0.437964718428E+03    0.14052E-04   -0.92082E-05   883   0.144E-02    0.462E-02
RMM:   6    -0.437964688364E+03    0.30065E-04   -0.47384E-05   696   0.796E-03    0.180E-02
RMM:   7    -0.437964657919E+03    0.30444E-04   -0.75578E-05   701   0.782E-03    0.151E-02
RMM:   8    -0.437964638257E+03    0.19662E-04   -0.51265E-05   730   0.647E-03    0.179E-02
RMM:   9    -0.437964612998E+03    0.25259E-04   -0.68571E-05   749   0.679E-03    0.864E-03
RMM:  10    -0.437964583267E+03    0.29731E-04   -0.15916E-04   808   0.977E-03    0.678E-03
RMM:  11    -0.437964574710E+03    0.85567E-05   -0.36623E-05   665   0.602E-03
     56 T=   568. E= -.44322550E+03 F= -.43796457E+03 E0= -.43799325E+03  EK= 0.81493E+01 SP= -.13E+02 SK= 0.65E-01
       N       E                     dE             d eps       ncg     rms          rms(c)
DAV:   1    -0.438083330713E+03   -0.11875E+00   -0.32725E-02  1296   0.178E+00    0.440E-01
RMM:   2    -0.438080066071E+03    0.32646E-02   -0.37999E-02   911   0.237E-01    0.189E-01
RMM:   3    -0.438079571741E+03    0.49433E-03   -0.64304E-03  1077   0.120E-01    0.121E-01
RMM:   4    -0.438079447003E+03    0.12474E-03   -0.99202E-04  1023   0.505E-02    0.770E-02
RMM:   5    -0.438079369211E+03    0.77792E-04   -0.38682E-04   900   0.255E-02    0.303E-02
RMM:   6    -0.438079353629E+03    0.15582E-04   -0.88020E-05   910   0.136E-02    0.211E-02
RMM:   7    -0.438079346109E+03    0.75196E-05   -0.27957E-05   577   0.758E-03
     57 T=   588. E= -.44322455E+03 F= -.43807935E+03 E0= -.43811799E+03  EK= 0.84316E+01 SP= -.14E+02 SK= 0.13E+00
       N       E                     dE             d eps       ncg     rms          rms(c)
DAV:   1    -0.438209391921E+03   -0.13004E+00   -0.20483E-02  1304   0.174E+00    0.263E-01
RMM:   2    -0.438211058446E+03   -0.16665E-02   -0.30558E-02   920   0.239E-01    0.779E-02
RMM:   3    -0.438211404708E+03   -0.34626E-03   -0.52610E-03  1097   0.115E-01    0.105E-01
RMM:   4    -0.438211439031E+03   -0.34323E-04   -0.69659E-04  1088   0.472E-02    0.858E-02
RMM:   5    -0.438211397353E+03    0.41678E-04   -0.14919E-04   843   0.193E-02    0.352E-02
RMM:   6    -0.438211380730E+03    0.16623E-04   -0.10021E-04   861   0.128E-02    0.173E-02
RMM:   7    -0.438211378628E+03    0.21025E-05   -0.16264E-05   511   0.677E-03
     58 T=   613. E= -.44322388E+03 F= -.43821138E+03 E0= -.43825650E+03  EK= 0.87934E+01 SP= -.14E+02 SK= 0.20E+00
       N       E                     dE             d eps       ncg     rms          rms(c)
DAV:   1    -0.438360448049E+03   -0.14907E+00   -0.20362E-02  1304   0.179E+00    0.279E-01
RMM:   2    -0.438360256966E+03    0.19108E-03   -0.27535E-02   910   0.233E-01    0.934E-02
RMM:   3    -0.438360381834E+03   -0.12487E-03   -0.53937E-03  1099   0.114E-01    0.103E-01
RMM:   4    -0.438360361155E+03    0.20679E-04   -0.68809E-04  1057   0.463E-02    0.783E-02
RMM:   5    -0.438360275385E+03    0.85770E-04   -0.22255E-04   792   0.223E-02    0.268E-02
RMM:   6    -0.438360255898E+03    0.19487E-04   -0.14148E-04   939   0.149E-02    0.205E-02
RMM:   7    -0.438360254748E+03    0.11497E-05   -0.18110E-05   513   0.707E-03
     59 T=   644. E= -.44322327E+03 F= -.43836025E+03 E0= -.43840815E+03  EK= 0.92343E+01 SP= -.14E+02 SK= 0.28E+00
       N       E                     dE             d eps       ncg     rms          rms(c)
DAV:   1    -0.438520400091E+03   -0.16014E+00   -0.24691E-02  1312   0.183E+00    0.262E-01
RMM:   2    -0.438522388540E+03   -0.19884E-02   -0.27687E-02   925   0.239E-01    0.829E-02
RMM:   3    -0.438522696935E+03   -0.30840E-03   -0.47287E-03  1098   0.112E-01    0.976E-02
RMM:   4    -0.438522737248E+03   -0.40313E-04   -0.66677E-04  1090   0.456E-02    0.860E-02
RMM:   5    -0.438522721603E+03    0.15644E-04   -0.98720E-05   905   0.153E-02    0.582E-02
RMM:   6    -0.438522696403E+03    0.25200E-04   -0.58384E-05   706   0.962E-03    0.134E-02
RMM:   7    -0.438522691734E+03    0.46687E-05   -0.33400E-05   627   0.663E-03
     60 T=   679. E= -.44322329E+03 F= -.43852269E+03 E0= -.43857372E+03  EK= 0.97491E+01 SP= -.15E+02 SK= 0.36E+00
       N       E                     dE             d eps       ncg     rms          rms(c)
DAV:   1    -0.438683360590E+03   -0.16066E+00   -0.25673E-02  1308   0.190E+00    0.273E-01
RMM:   2    -0.438686124310E+03   -0.27637E-02   -0.29185E-02   925   0.249E-01    0.670E-02
RMM:   3    -0.438686533469E+03   -0.40916E-03   -0.50765E-03  1097   0.116E-01    0.922E-02
RMM:   4    -0.438686574601E+03   -0.41132E-04   -0.70723E-04  1069   0.474E-02    0.783E-02
RMM:   5    -0.438686567038E+03    0.75638E-05   -0.10995E-04   924   0.161E-02    0.514E-02
RMM:   6    -0.438686553507E+03    0.13531E-04   -0.27683E-05   562   0.750E-03    0.206E-02
RMM:   7    -0.438686543650E+03    0.98566E-05   -0.30132E-05   604   0.639E-03
     61 T=   719. E= -.44322344E+03 F= -.43868654E+03 E0= -.43874225E+03  EK= 0.10323E+02 SP= -.15E+02 SK= 0.42E+00
       N       E                     dE             d eps       ncg     rms          rms(c)
DAV:   1    -0.438842550301E+03   -0.15600E+00   -0.66976E-02  1304   0.199E+00    0.553E-01
RMM:   2    -0.438840165234E+03    0.23851E-02   -0.57588E-02   905   0.298E-01    0.266E-01
RMM:   3    -0.438838250610E+03    0.19146E-02   -0.93213E-03  1046   0.155E-01    0.182E-01
RMM:   4    -0.438837726824E+03    0.52379E-03   -0.22280E-03  1069   0.686E-02    0.121E-01
RMM:   5    -0.438837443562E+03    0.28326E-03   -0.94477E-04   890   0.332E-02    0.519E-02
RMM:   6    -0.438837433258E+03    0.10304E-04   -0.15619E-04   931   0.165E-02    0.384E-02
RMM:   7    -0.438837423916E+03    0.93415E-05   -0.26592E-05   549   0.739E-03
     62 T=   762. E= -.44322427E+03 F= -.43883742E+03 E0= -.43889282E+03  EK= 0.10933E+02 SP= -.16E+02 SK= 0.45E+00
       N       E                     dE             d eps       ncg     rms          rms(c)
DAV:   1    -0.438957614004E+03   -0.12018E+00   -0.48888E-02  1312   0.201E+00    0.320E-01
RMM:   2    -0.438959617435E+03   -0.20034E-02   -0.42596E-02   909   0.294E-01    0.117E-01
RMM:   3    -0.438960195377E+03   -0.57794E-03   -0.87099E-03  1096   0.143E-01    0.155E-01
RMM:   4    -0.438960204558E+03   -0.91810E-05   -0.11095E-03  1069   0.582E-02    0.132E-01
RMM:   5    -0.438960161790E+03    0.42767E-04   -0.24421E-04   915   0.217E-02    0.671E-02
RMM:   6    -0.438960115614E+03    0.46177E-04   -0.11885E-04   795   0.140E-02    0.229E-02
RMM:   7    -0.438960116880E+03   -0.12666E-05   -0.28525E-05   622   0.800E-03
     63 T=   805. E= -.44322613E+03 F= -.43896012E+03 E0= -.43901323E+03  EK= 0.11553E+02 SP= -.16E+02 SK= 0.46E+00
       N       E                     dE             d eps       ncg     rms          rms(c)
DAV:   1    -0.439030757610E+03   -0.70642E-01   -0.57917E-02  1296   0.207E+00    0.346E-01
RMM:   2    -0.439034969003E+03   -0.42114E-02   -0.48080E-02   921   0.308E-01    0.983E-02
RMM:   3    -0.439035677158E+03   -0.70816E-03   -0.85965E-03  1098   0.147E-01    0.138E-01
RMM:   4    -0.439035745822E+03   -0.68664E-04   -0.11528E-03  1089   0.588E-02    0.122E-01
RMM:   5    -0.439035742259E+03    0.35631E-05   -0.15755E-04   992   0.187E-02    0.993E-02
RMM:   6    -0.439035727464E+03    0.14795E-04   -0.36733E-05   652   0.824E-03    0.608E-02
RMM:   7    -0.439035712706E+03    0.14758E-04   -0.54566E-05   667   0.870E-03    0.181E-02
RMM:   8    -0.439035714065E+03   -0.13594E-05   -0.25642E-05   582   0.581E-03
     64 T=   847. E= -.44322772E+03 F= -.43903571E+03 E0= -.43908646E+03  EK= 0.12152E+02 SP= -.17E+02 SK= 0.44E+00
       N       E                     dE             d eps       ncg     rms          rms(c)
DAV:   1    -0.439044096995E+03   -0.83843E-02   -0.49074E-02  1304   0.212E+00    0.408E-01
RMM:   2    -0.439048530073E+03   -0.44331E-02   -0.43509E-02   927   0.298E-01    0.717E-02
RMM:   3    -0.439049233104E+03   -0.70303E-03   -0.76091E-03  1096   0.140E-01    0.106E-01
RMM:   4    -0.439049319718E+03   -0.86615E-04   -0.10706E-03  1073   0.571E-02    0.853E-02
RMM:   5    -0.439049321904E+03   -0.21861E-05   -0.15213E-04   995   0.190E-02    0.585E-02
RMM:   6    -0.439049318800E+03    0.31042E-05   -0.17911E-05   501   0.728E-03
     65 T=   885. E= -.44323007E+03 F= -.43904932E+03 E0= -.43909761E+03  EK= 0.12695E+02 SP= -.17E+02 SK= 0.40E+00
       N       E                     dE             d eps       ncg     rms          rms(c)
DAV:   1    -0.438984713109E+03    0.64609E-01   -0.40306E-02  1328   0.216E+00    0.280E-01
RMM:   2    -0.438989083432E+03   -0.43703E-02   -0.40660E-02   926   0.293E-01    0.102E-01
RMM:   3    -0.438989768906E+03   -0.68547E-03   -0.72669E-03  1098   0.139E-01    0.149E-01
RMM:   4    -0.438989860051E+03   -0.91146E-04   -0.10399E-03  1096   0.559E-02    0.126E-01
RMM:   5    -0.438989860475E+03   -0.42321E-06   -0.11905E-04   936   0.169E-02    0.102E-01
RMM:   6    -0.438989856815E+03    0.36595E-05   -0.11544E-05   479   0.628E-03
     66 T=   917. E= -.44323209E+03 F= -.43898986E+03 E0= -.43903549E+03  EK= 0.13152E+02 SP= -.18E+02 SK= 0.34E+00
       N       E                     dE             d eps       ncg     rms          rms(c)
DAV:   1    -0.438847633885E+03    0.14223E+00   -0.41942E-02  1324   0.227E+00    0.360E-01
RMM:   2    -0.438852130112E+03   -0.44962E-02   -0.42239E-02   923   0.302E-01    0.856E-02
RMM:   3    -0.438852887391E+03   -0.75728E-03   -0.81022E-03  1104   0.144E-01    0.136E-01
RMM:   4    -0.438852967332E+03   -0.79942E-04   -0.95960E-04  1089   0.549E-02    0.104E-01
RMM:   5    -0.438852964194E+03    0.31389E-05   -0.14610E-04   969   0.181E-02    0.646E-02
RMM:   6    -0.438852959348E+03    0.48453E-05   -0.15151E-05   498   0.688E-03
     67 T=   941. E= -.44323320E+03 F= -.43885296E+03 E0= -.43889617E+03  EK= 0.13501E+02 SP= -.18E+02 SK= 0.27E+00
       N       E                     dE             d eps       ncg     rms          rms(c)
DAV:   1    -0.438637427375E+03    0.21554E+00   -0.43094E-02  1344   0.229E+00    0.365E-01
RMM:   2    -0.438642545209E+03   -0.51178E-02   -0.47869E-02   928   0.313E-01    0.858E-02
RMM:   3    -0.438643367041E+03   -0.82183E-03   -0.87511E-03  1107   0.150E-01    0.144E-01
RMM:   4    -0.438643450223E+03   -0.83182E-04   -0.10490E-03  1096   0.567E-02    0.127E-01
RMM:   5    -0.438643448463E+03    0.17594E-05   -0.11856E-04   968   0.170E-02    0.111E-01
RMM:   6    -0.438643444562E+03    0.39012E-05   -0.97879E-06   473   0.618E-03
     68 T=   957. E= -.44323364E+03 F= -.43864344E+03 E0= -.43868454E+03  EK= 0.13728E+02 SP= -.19E+02 SK= 0.20E+00
       N       E                     dE             d eps       ncg     rms          rms(c)
DAV:   1    -0.438367986584E+03    0.27546E+00   -0.63116E-02  1312   0.231E+00    0.472E-01
RMM:   2    -0.438373863865E+03   -0.58773E-02   -0.54703E-02   938   0.337E-01    0.843E-02
RMM:   3    -0.438374751030E+03   -0.88717E-03   -0.93023E-03  1102   0.159E-01    0.144E-01
RMM:   4    -0.438374869343E+03   -0.11831E-03   -0.13791E-03  1117   0.627E-02    0.123E-01
RMM:   5    -0.438374873536E+03   -0.41931E-05   -0.13526E-04   977   0.179E-02    0.830E-02
RMM:   6    -0.438374871975E+03    0.15608E-05   -0.14146E-05   488   0.695E-03
     69 T=   964. E= -.44323334E+03 F= -.43837487E+03 E0= -.43841404E+03  EK= 0.13835E+02 SP= -.19E+02 SK= 0.14E+00
       N       E                     dE             d eps       ncg     rms          rms(c)
DAV:   1    -0.438057629768E+03    0.31724E+00   -0.67785E-02  1272   0.234E+00    0.479E-01
RMM:   2    -0.438063938111E+03   -0.63083E-02   -0.59549E-02   935   0.353E-01    0.782E-02
RMM:   3    -0.438064932695E+03   -0.99458E-03   -0.10478E-02  1100   0.170E-01    0.156E-01
RMM:   4    -0.438065056385E+03   -0.12369E-03   -0.14434E-03  1088   0.671E-02    0.131E-01
RMM:   5    -0.438065062560E+03   -0.61752E-05   -0.20081E-04  1021   0.214E-02    0.105E-01
RMM:   6    -0.438065058587E+03    0.39730E-05   -0.18220E-05   501   0.757E-03
     70 T=   964. E= -.44323252E+03 F= -.43806506E+03 E0= -.43810233E+03  EK= 0.13832E+02 SP= -.19E+02 SK= 0.88E-01
       N       E                     dE             d eps       ncg     rms          rms(c)
DAV:   1    -0.437730852228E+03    0.33421E+00   -0.63573E-02  1312   0.234E+00    0.332E-01
RMM:   2    -0.437736936355E+03   -0.60841E-02   -0.56238E-02   938   0.352E-01    0.146E-01
RMM:   3    -0.437737908716E+03   -0.97236E-03   -0.10200E-02  1102   0.167E-01    0.214E-01
RMM:   4    -0.437738065889E+03   -0.15717E-03   -0.16629E-03  1115   0.670E-02    0.203E-01
RMM:   5    -0.437738073236E+03   -0.73467E-05   -0.15278E-04   979   0.191E-02    0.185E-01
RMM:   6    -0.437738069199E+03    0.40365E-05   -0.14059E-05   483   0.706E-03
     71 T=   958. E= -.44323167E+03 F= -.43773807E+03 E0= -.43777371E+03  EK= 0.13739E+02 SP= -.19E+02 SK= 0.48E-01
       N       E                     dE             d eps       ncg     rms          rms(c)
DAV:   1    -0.437411445191E+03    0.32663E+00   -0.62152E-02  1320   0.232E+00    0.511E-01
RMM:   2    -0.437417432856E+03   -0.59877E-02   -0.56292E-02   930   0.353E-01    0.929E-02
RMM:   3    -0.437418546458E+03   -0.11136E-02   -0.11496E-02  1104   0.172E-01    0.151E-01
RMM:   4    -0.437418655509E+03   -0.10905E-03   -0.14913E-03  1080   0.669E-02    0.123E-01
RMM:   5    -0.437418655861E+03   -0.35276E-06   -0.22471E-04   995   0.218E-02    0.682E-02
RMM:   6    -0.437418651577E+03    0.42844E-05   -0.30358E-05   578   0.890E-03
     72 T=   947. E= -.44323000E+03 F= -.43741865E+03 E0= -.43745350E+03  EK= 0.13586E+02 SP= -.19E+02 SK= 0.21E-01
       N       E                     dE             d eps       ncg     rms          rms(c)
DAV:   1    -0.437123506895E+03    0.29515E+00   -0.64080E-02  1288   0.231E+00    0.474E-01
RMM:   2    -0.437129488734E+03   -0.59818E-02   -0.56497E-02   921   0.353E-01    0.724E-02
RMM:   3    -0.437130581405E+03   -0.10927E-02   -0.11273E-02  1103   0.174E-01    0.163E-01
RMM:   4    -0.437130697448E+03   -0.11604E-03   -0.17073E-03  1085   0.674E-02    0.146E-01
RMM:   5    -0.437130708476E+03   -0.11029E-04   -0.17646E-04   982   0.204E-02    0.139E-01
RMM:   6    -0.437130707813E+03    0.66325E-06   -0.14840E-05   497   0.697E-03
     73 T=   934. E= -.44322807E+03 F= -.43713071E+03 E0= -.43716542E+03  EK= 0.13400E+02 SP= -.20E+02 SK= 0.63E-02
       N       E                     dE             d eps       ncg     rms          rms(c)
DAV:   1    -0.436892257179E+03    0.23845E+00   -0.64298E-02  1272   0.226E+00    0.151E-01
RMM:   2    -0.436897874858E+03   -0.56177E-02   -0.52388E-02   927   0.345E-01    0.303E-01
RMM:   3    -0.436898851980E+03   -0.97712E-03   -0.10169E-02  1098   0.167E-01    0.399E-01
RMM:   4    -0.436898999820E+03   -0.14784E-03   -0.14739E-03  1111   0.645E-02    0.434E-01
RMM:   5    -0.436899012144E+03   -0.12324E-04   -0.15771E-04   934   0.188E-02    0.436E-01
RMM:   6    -0.436899016374E+03   -0.42300E-05   -0.17857E-05   497   0.829E-03
     74 T=   921. E= -.44322706E+03 F= -.43689902E+03 E0= -.43693399E+03  EK= 0.13212E+02 SP= -.20E+02 SK= 0.34E-03
       N       E                     dE             d eps       ncg     rms          rms(c)
DAV:   1    -0.436738043577E+03    0.16097E+00   -0.62520E-02  1288   0.224E+00    0.669E-01
RMM:   2    -0.436743309395E+03   -0.52658E-02   -0.51256E-02   932   0.352E-01    0.685E-01
RMM:   3    -0.436744174526E+03   -0.86513E-03   -0.96460E-03  1096   0.166E-01    0.743E-01
RMM:   4    -0.436745417311E+03   -0.12428E-02   -0.28662E-03   941   0.890E-02    0.136E+00
RMM:   5    -0.436744746101E+03    0.67121E-03   -0.72543E-03   914   0.159E-01    0.291E-01
RMM:   6    -0.436744406901E+03    0.33920E-03   -0.21150E-03  1089   0.615E-02    0.422E-01
RMM:   7    -0.436744398095E+03    0.88064E-05   -0.17438E-04   855   0.237E-02    0.410E-01
RMM:   8    -0.436744398057E+03    0.37864E-07   -0.33307E-05   603   0.987E-03
     75 T=   910. E= -.44322594E+03 F= -.43674440E+03 E0= -.43677979E+03  EK= 0.13050E+02 SP= -.20E+02 SK= 0.13E-02
       N       E                     dE             d eps       ncg     rms          rms(c)
DAV:   1    -0.436679741597E+03    0.64656E-01   -0.58898E-02  1304   0.221E+00    0.291E+00
RMM:   2    -0.436679535006E+03    0.20659E-03   -0.64183E-02   921   0.368E-01    0.144E+00
RMM:   3    -0.436680619547E+03   -0.10845E-02   -0.21458E-02  1097   0.214E-01    0.230E-01
RMM:   4    -0.436680499761E+03    0.11979E-03   -0.27717E-03   919   0.920E-02    0.130E-01
RMM:   5    -0.436680334364E+03    0.16540E-03   -0.80912E-04   947   0.429E-02    0.415E-02
RMM:   6    -0.436680341099E+03   -0.67351E-05   -0.20206E-04   992   0.201E-02    0.243E-02
RMM:   7    -0.436680337917E+03    0.31825E-05   -0.28665E-05   535   0.822E-03
     76 T=   902. E= -.44322465E+03 F= -.43668034E+03 E0= -.43671633E+03  EK= 0.12935E+02 SP= -.19E+02 SK= 0.75E-02
       N       E                     dE             d eps       ncg     rms          rms(c)
DAV:   1    -0.436709864116E+03   -0.29523E-01   -0.44319E-02  1320   0.226E+00    0.136E+00
RMM:   2    -0.436711459407E+03   -0.15953E-02   -0.49532E-02   926   0.391E-01    0.101E+00
RMM:   3    -0.436712449476E+03   -0.99007E-03   -0.19645E-02  1055   0.205E-01    0.175E-01
RMM:   4    -0.436712018505E+03    0.43097E-03   -0.30335E-03   863   0.103E-01    0.110E-01
RMM:   5    -0.436712105165E+03   -0.86660E-04   -0.14691E-03  1085   0.551E-02    0.518E-02
RMM:   6    -0.436712099319E+03    0.58456E-05   -0.15227E-04   822   0.201E-02    0.278E-02
RMM:   7    -0.436712088916E+03    0.10403E-04   -0.64937E-05   741   0.110E-02    0.269E-02
RMM:   8    -0.436712093497E+03   -0.45806E-05   -0.31227E-05   665   0.692E-03
     77 T=   897. E= -.44322473E+03 F= -.43671209E+03 E0= -.43674866E+03  EK= 0.12873E+02 SP= -.19E+02 SK= 0.18E-01
       N       E                     dE             d eps       ncg     rms          rms(c)
DAV:   1    -0.436827130477E+03   -0.11504E+00   -0.30371E-02  1312   0.217E+00    0.709E-01
RMM:   2    -0.436831250170E+03   -0.41197E-02   -0.42854E-02   914   0.310E-01    0.209E-01
RMM:   3    -0.436832069109E+03   -0.81894E-03   -0.89266E-03  1101   0.159E-01    0.629E-02
RMM:   4    -0.436832186833E+03   -0.11772E-03   -0.13510E-03  1048   0.649E-02    0.443E-02
RMM:   5    -0.436832183626E+03    0.32065E-05   -0.20091E-04  1017   0.224E-02    0.241E-02
RMM:   6    -0.436832182936E+03    0.68996E-06   -0.26568E-05   533   0.884E-03
     78 T=   896. E= -.44322562E+03 F= -.43683218E+03 E0= -.43686915E+03  EK= 0.12859E+02 SP= -.19E+02 SK= 0.32E-01
       N       E                     dE             d eps       ncg     rms          rms(c)
DAV:   1    -0.437016610402E+03   -0.18443E+00   -0.24041E-02  1312   0.217E+00    0.331E-01
RMM:   2    -0.437020703214E+03   -0.40928E-02   -0.37272E-02   909   0.307E-01    0.596E-02
RMM:   3    -0.437021471271E+03   -0.76806E-03   -0.78923E-03  1102   0.152E-01    0.123E-01
RMM:   4    -0.437021581402E+03   -0.11013E-03   -0.12375E-03  1073   0.629E-02    0.948E-02
RMM:   5    -0.437021591293E+03   -0.98913E-05   -0.18056E-04   938   0.214E-02    0.761E-02
RMM:   6    -0.437021589861E+03    0.14319E-05   -0.18762E-05   490   0.763E-03
     79 T=   897. E= -.44322718E+03 F= -.43702159E+03 E0= -.43705900E+03  EK= 0.12875E+02 SP= -.19E+02 SK= 0.51E-01
       N       E                     dE             d eps       ncg     rms          rms(c)
DAV:   1    -0.437249088449E+03   -0.22750E+00   -0.28009E-02  1312   0.218E+00    0.331E-01
RMM:   2    -0.437253359945E+03   -0.42715E-02   -0.39126E-02   903   0.310E-01    0.774E-02
RMM:   3    -0.437254144576E+03   -0.78463E-03   -0.82707E-03  1101   0.154E-01    0.143E-01
RMM:   4    -0.437254260752E+03   -0.11618E-03   -0.13118E-03  1069   0.639E-02    0.110E-01
RMM:   5    -0.437254266784E+03   -0.60316E-05   -0.19823E-04   974   0.222E-02    0.778E-02
RMM:   6    -0.437254262467E+03    0.43167E-05   -0.25012E-05   504   0.794E-03
     80 T=   899. E= -.44322846E+03 F= -.43725426E+03 E0= -.43729318E+03  EK= 0.12895E+02 SP= -.19E+02 SK= 0.75E-01
       N       E                     dE             d eps       ncg     rms          rms(c)
DAV:   1    -0.437498375791E+03   -0.24411E+00   -0.36620E-02  1300   0.220E+00    0.421E-01
RMM:   2    -0.437502882638E+03   -0.45068E-02   -0.42096E-02   914   0.324E-01    0.553E-02
RMM:   3    -0.437503738095E+03   -0.85546E-03   -0.88073E-03  1101   0.159E-01    0.123E-01
RMM:   4    -0.437503858925E+03   -0.12083E-03   -0.14030E-03  1080   0.656E-02    0.951E-02
RMM:   5    -0.437503869229E+03   -0.10304E-04   -0.21961E-04   984   0.227E-02    0.725E-02
RMM:   6    -0.437503867921E+03    0.13079E-05   -0.18113E-05   488   0.753E-03
     81 T=   898. E= -.44322984E+03 F= -.43750387E+03 E0= -.43754550E+03  EK= 0.12891E+02 SP= -.19E+02 SK= 0.10E+00
       N       E                     dE             d eps       ncg     rms          rms(c)
DAV:   1    -0.437741513907E+03   -0.23764E+00   -0.36795E-02  1320   0.223E+00    0.310E-01
RMM:   2    -0.437745892806E+03   -0.43789E-02   -0.41129E-02   913   0.320E-01    0.907E-02
RMM:   3    -0.437746711202E+03   -0.81840E-03   -0.87992E-03  1098   0.157E-01    0.161E-01
RMM:   4    -0.437746826171E+03   -0.11497E-03   -0.13864E-03  1088   0.645E-02    0.146E-01
RMM:   5    -0.437746829419E+03   -0.32479E-05   -0.20155E-04   957   0.209E-02    0.121E-01
RMM:   6    -0.437746814849E+03    0.14570E-04   -0.23288E-05   512   0.789E-03    0.805E-02
RMM:   7    -0.437746793474E+03    0.21375E-04   -0.92841E-05   685   0.102E-02    0.370E-02
RMM:   8    -0.437746792294E+03    0.11803E-05   -0.36332E-05   648   0.663E-03
     82 T=   895. E= -.44323046E+03 F= -.43774679E+03 E0= -.43778972E+03  EK= 0.12842E+02 SP= -.18E+02 SK= 0.14E+00
       N       E                     dE             d eps       ncg     rms          rms(c)
DAV:   1    -0.437956887934E+03   -0.21009E+00   -0.36064E-02  1312   0.221E+00    0.537E-01
RMM:   2    -0.437961436722E+03   -0.45488E-02   -0.46416E-02   916   0.325E-01    0.932E-02
RMM:   3    -0.437962243982E+03   -0.80726E-03   -0.96581E-03  1098   0.161E-01    0.933E-02
RMM:   4    -0.437962320013E+03   -0.76031E-04   -0.14537E-03  1043   0.665E-02    0.646E-02
RMM:   5    -0.437962287735E+03    0.32278E-04   -0.32472E-04  1023   0.265E-02    0.360E-02
RMM:   6    -0.437962252374E+03    0.35362E-04   -0.58170E-05   737   0.107E-02    0.208E-02
RMM:   7    -0.437962201418E+03    0.50956E-04   -0.91670E-05   725   0.967E-03    0.111E-02
RMM:   8    -0.437962183192E+03    0.18225E-04   -0.98119E-05   759   0.916E-03    0.168E-02
RMM:   9    -0.437962181568E+03    0.16248E-05   -0.20221E-05   549   0.587E-03
     83 T=   887. E= -.44323028E+03 F= -.43796218E+03 E0= -.43800023E+03  EK= 0.12730E+02 SP= -.18E+02 SK= 0.17E+00
       N       E                     dE             d eps       ncg     rms          rms(c)
DAV:   1    -0.438134810489E+03   -0.17263E+00   -0.33279E-02  1320   0.221E+00    0.299E-01
RMM:   2    -0.438137115955E+03   -0.23055E-02   -0.45596E-02   926   0.318E-01    0.157E-01
RMM:   3    -0.438137247870E+03   -0.13191E-03   -0.10199E-02  1097   0.160E-01    0.203E-01
RMM:   4    -0.438137227008E+03    0.20862E-04   -0.15713E-03  1060   0.659E-02    0.178E-01
RMM:   5    -0.438136783076E+03    0.44393E-03   -0.45850E-04   817   0.285E-02    0.617E-02
RMM:   6    -0.438136440370E+03    0.34271E-03   -0.12333E-03   854   0.308E-02    0.825E-02
RMM:   7    -0.438136431574E+03    0.87956E-05   -0.17965E-04   970   0.175E-02    0.486E-02
RMM:   8    -0.438136416991E+03    0.14583E-04   -0.50401E-05   707   0.907E-03    0.160E-02
RMM:   9    -0.438136410712E+03    0.62790E-05   -0.56164E-05   714   0.829E-03
     84 T=   874. E= -.44323015E+03 F= -.43813641E+03 E0= -.43817291E+03  EK= 0.12545E+02 SP= -.18E+02 SK= 0.20E+00
       N       E                     dE             d eps       ncg     rms          rms(c)
DAV:   1    -0.438257751580E+03   -0.12133E+00   -0.45595E-02  1288   0.213E+00    0.456E-01
RMM:   2    -0.438262212179E+03   -0.44606E-02   -0.44147E-02   922   0.318E-01    0.675E-02
RMM:   3    -0.438262958182E+03   -0.74600E-03   -0.89734E-03  1097   0.157E-01    0.131E-01
RMM:   4    -0.438263062726E+03   -0.10454E-03   -0.14847E-03  1068   0.641E-02    0.106E-01
RMM:   5    -0.438263035789E+03    0.26937E-04   -0.17908E-04   996   0.207E-02    0.647E-02
RMM:   6    -0.438263003531E+03    0.32259E-04   -0.51417E-05   723   0.102E-02    0.239E-02
RMM:   7    -0.438262984267E+03    0.19263E-04   -0.45740E-05   710   0.771E-03    0.155E-02
RMM:   8    -0.438262981943E+03    0.23242E-05   -0.12262E-05   487   0.525E-03
     85 T=   857. E= -.44322897E+03 F= -.43826298E+03 E0= -.43829847E+03  EK= 0.12291E+02 SP= -.17E+02 SK= 0.23E+00
       N       E                     dE             d eps       ncg     rms          rms(c)
DAV:   1    -0.438336743381E+03   -0.73759E-01   -0.38271E-02  1304   0.211E+00    0.334E-01
RMM:   2    -0.438341291192E+03   -0.45478E-02   -0.41505E-02   926   0.306E-01    0.931E-02
RMM:   3    -0.438342039909E+03   -0.74872E-03   -0.79528E-03  1100   0.149E-01    0.154E-01
RMM:   4    -0.438342148019E+03   -0.10811E-03   -0.12807E-03  1088   0.603E-02    0.139E-01
RMM:   5    -0.438342143216E+03    0.48025E-05   -0.12138E-04   948   0.176E-02    0.118E-01
RMM:   6    -0.438342134534E+03    0.86824E-05   -0.16658E-05   480   0.706E-03
     86 T=   835. E= -.44322756E+03 F= -.43834213E+03 E0= -.43837648E+03  EK= 0.11977E+02 SP= -.17E+02 SK= 0.26E+00
       N       E                     dE             d eps       ncg     rms          rms(c)
DAV:   1    -0.438376654905E+03   -0.34512E-01   -0.26570E-02  1312   0.208E+00    0.366E-01
RMM:   2    -0.438380524583E+03   -0.38697E-02   -0.34196E-02   916   0.288E-01    0.695E-02
RMM:   3    -0.438381253980E+03   -0.72940E-03   -0.74504E-03  1102   0.143E-01    0.120E-01
RMM:   4    -0.438381354144E+03   -0.10016E-03   -0.11485E-03  1073   0.570E-02    0.958E-02
RMM:   5    -0.438381358266E+03   -0.41219E-05   -0.12711E-04   959   0.183E-02    0.547E-02
RMM:   6    -0.438381356777E+03    0.14892E-05   -0.11118E-05   477   0.677E-03
     87 T=   810. E= -.44322622E+03 F= -.43838136E+03 E0= -.43841425E+03  EK= 0.11621E+02 SP= -.17E+02 SK= 0.27E+00
       N       E                     dE             d eps       ncg     rms          rms(c)
DAV:   1    -0.438390162838E+03   -0.88046E-02   -0.28963E-02  1328   0.205E+00    0.368E-01
RMM:   2    -0.438394271389E+03   -0.41086E-02   -0.37258E-02   907   0.294E-01    0.521E-02
RMM:   3    -0.438394993472E+03   -0.72208E-03   -0.76214E-03  1104   0.147E-01    0.121E-01
RMM:   4    -0.438395074795E+03   -0.81323E-04   -0.10992E-03  1076   0.565E-02    0.997E-02
RMM:   5    -0.438395065652E+03    0.91425E-05   -0.12210E-04   941   0.179E-02    0.788E-02
RMM:   6    -0.438395055710E+03    0.99424E-05   -0.22534E-05   506   0.762E-03
     88 T=   784. E= -.44322475E+03 F= -.43839506E+03 E0= -.43842626E+03  EK= 0.11248E+02 SP= -.16E+02 SK= 0.27E+00
       N       E                     dE             d eps       ncg     rms          rms(c)
DAV:   1    -0.438397370462E+03   -0.23048E-02   -0.19328E-02  1304   0.204E+00    0.234E-01
RMM:   2    -0.438400836066E+03   -0.34656E-02   -0.29901E-02   915   0.274E-01    0.941E-02
RMM:   3    -0.438401498683E+03   -0.66262E-03   -0.66755E-03  1109   0.136E-01    0.145E-01
RMM:   4    -0.438401581064E+03   -0.82382E-04   -0.87112E-04  1065   0.511E-02    0.127E-01
RMM:   5    -0.438401584127E+03   -0.30629E-05   -0.10338E-04   866   0.167E-02    0.103E-01
RMM:   6    -0.438401581249E+03    0.28779E-05   -0.10657E-05   475   0.638E-03
     89 T=   759. E= -.44322328E+03 F= -.43840158E+03 E0= -.43843123E+03  EK= 0.10886E+02 SP= -.16E+02 SK= 0.25E+00
       N       E                     dE             d eps       ncg     rms          rms(c)
DAV:   1    -0.438416695841E+03   -0.15112E-01   -0.19910E-02  1296   0.200E+00    0.352E-01
RMM:   2    -0.438420095627E+03   -0.33998E-02   -0.30343E-02   914   0.273E-01    0.594E-02
RMM:   3    -0.438420750995E+03   -0.65537E-03   -0.66067E-03  1105   0.137E-01    0.954E-02
RMM:   4    -0.438420833038E+03   -0.82043E-04   -0.98802E-04  1059   0.537E-02    0.685E-02
RMM:   5    -0.438420829820E+03    0.32178E-05   -0.12383E-04   930   0.176E-02    0.373E-02
RMM:   6    -0.438420828192E+03    0.16279E-05   -0.18449E-05   500   0.784E-03
     90 T=   736. E= -.44322245E+03 F= -.43842083E+03 E0= -.43844922E+03  EK= 0.10560E+02 SP= -.16E+02 SK= 0.23E+00
       N       E                     dE             d eps       ncg     rms          rms(c)
DAV:   1    -0.438466689975E+03   -0.45860E-01   -0.22360E-02  1296   0.196E+00    0.256E-01
RMM:   2    -0.438470012653E+03   -0.33227E-02   -0.29149E-02   904   0.273E-01    0.663E-02
RMM:   3    -0.438470645415E+03   -0.63276E-03   -0.63975E-03  1106   0.136E-01    0.126E-01
RMM:   4    -0.438470729440E+03   -0.84025E-04   -0.95634E-04  1060   0.528E-02    0.108E-01
RMM:   5    -0.438470736260E+03   -0.68194E-05   -0.86993E-05   799   0.160E-02
     91 T=   717. E= -.44322190E+03 F= -.43847074E+03 E0= -.43849824E+03  EK= 0.10294E+02 SP= -.15E+02 SK= 0.20E+00
       N       E                     dE             d eps       ncg     rms          rms(c)
DAV:   1    -0.438559702255E+03   -0.88973E-01   -0.29003E-02  1280   0.195E+00    0.903E-02
RMM:   2    -0.438563146794E+03   -0.34445E-02   -0.30479E-02   926   0.275E-01    0.210E-01
RMM:   3    -0.438563775704E+03   -0.62891E-03   -0.62848E-03  1100   0.135E-01    0.274E-01
RMM:   4    -0.438563869735E+03   -0.94031E-04   -0.98425E-04  1102   0.529E-02    0.286E-01
RMM:   5    -0.438563873554E+03   -0.38186E-05   -0.75440E-05   737   0.140E-02
     92 T=   704. E= -.44322152E+03 F= -.43856387E+03 E0= -.43859083E+03  EK= 0.10104E+02 SP= -.15E+02 SK= 0.16E+00
       N       E                     dE             d eps       ncg     rms          rms(c)
DAV:   1    -0.438702794142E+03   -0.13892E+00   -0.24927E-02  1272   0.194E+00    0.387E-01
RMM:   2    -0.438706152575E+03   -0.33584E-02   -0.30428E-02   931   0.272E-01    0.426E-01
RMM:   3    -0.438706867753E+03   -0.71518E-03   -0.61556E-03  1098   0.130E-01    0.608E-01
RMM:   4    -0.438706748126E+03    0.11963E-03   -0.11889E-03   878   0.631E-02    0.243E-01
RMM:   5    -0.438706737725E+03    0.10401E-04   -0.48679E-04  1105   0.327E-02    0.142E-01
RMM:   6    -0.438706739764E+03   -0.20394E-05   -0.34580E-05   569   0.112E-02
     93 T=   697. E= -.44322142E+03 F= -.43870674E+03 E0= -.43873364E+03  EK= 0.99970E+01 SP= -.15E+02 SK= 0.13E+00
       N       E                     dE             d eps       ncg     rms          rms(c)
DAV:   1    -0.438895862025E+03   -0.18912E+00   -0.17061E-02  1280   0.193E+00    0.712E-01
RMM:   2    -0.438898418731E+03   -0.25567E-02   -0.29804E-02   912   0.274E-01    0.262E-01
RMM:   3    -0.438899037946E+03   -0.61922E-03   -0.68550E-03  1102   0.134E-01    0.791E-02
RMM:   4    -0.438899105724E+03   -0.67778E-04   -0.79083E-04   930   0.570E-02    0.432E-02
RMM:   5    -0.438899121759E+03   -0.16035E-04   -0.32905E-04  1055   0.297E-02    0.262E-02
RMM:   6    -0.438899117148E+03    0.46105E-05   -0.41636E-05   552   0.118E-02
     94 T=   695. E= -.44322134E+03 F= -.43889912E+03 E0= -.43892622E+03  EK= 0.99722E+01 SP= -.14E+02 SK= 0.94E-01
       N       E                     dE             d eps       ncg     rms          rms(c)
DAV:   1    -0.439131879426E+03   -0.23276E+00   -0.19723E-02  1304   0.192E+00    0.405E-01
RMM:   2    -0.439134870349E+03   -0.29909E-02   -0.27964E-02   911   0.254E-01    0.117E-01
RMM:   3    -0.439135359833E+03   -0.48948E-03   -0.55346E-03  1105   0.128E-01    0.756E-02
RMM:   4    -0.439135438249E+03   -0.78416E-04   -0.88802E-04  1055   0.522E-02    0.387E-02
RMM:   5    -0.439135434782E+03    0.34667E-05   -0.13367E-04   962   0.178E-02    0.202E-02
RMM:   6    -0.439135432067E+03    0.27155E-05   -0.15028E-05   494   0.727E-03
     95 T=   699. E= -.44322111E+03 F= -.43913543E+03 E0= -.43916311E+03  EK= 0.10023E+02 SP= -.14E+02 SK= 0.67E-01
[...]
   4070 T=   715. E= -.44201008E+03 F= -.44215711E+03 E0= -.44219059E+03  EK= 0.10252E+02 SP= -.10E+02 SK= 0.77E-03
       N       E                     dE             d eps       ncg     rms          rms(c)
DAV:   1    -0.442179951458E+03   -0.22840E-01   -0.52382E-02  1320   0.192E+00    0.362E-01
RMM:   2    -0.442175095434E+03    0.48560E-02   -0.37032E-02   927   0.263E-01    0.187E-01
RMM:   3    -0.442174575493E+03    0.51994E-03   -0.75223E-03  1096   0.131E-01    0.146E-01
RMM:   4    -0.442174296387E+03    0.27911E-03   -0.10625E-03  1012   0.546E-02    0.115E-01
RMM:   5    -0.442174149150E+03    0.14724E-03   -0.10578E-03   824   0.330E-02    0.669E-02
RMM:   6    -0.442173963807E+03    0.18534E-03   -0.24645E-04   984   0.201E-02    0.518E-02
RMM:   7    -0.442173944963E+03    0.18844E-04   -0.44361E-05   648   0.921E-03    0.324E-02
RMM:   8    -0.442173892969E+03    0.51994E-04   -0.94642E-05   776   0.107E-02    0.213E-02
RMM:   9    -0.442173884803E+03    0.81664E-05   -0.24678E-05   591   0.621E-03
   4071 T=   718. E= -.44200974E+03 F= -.44217388E+03 E0= -.44220625E+03  EK= 0.10301E+02 SP= -.10E+02 SK= 0.45E-02
       N       E                     dE             d eps       ncg     rms          rms(c)
DAV:   1    -0.442211373776E+03   -0.37481E-01   -0.22889E-02  1296   0.187E+00    0.272E-01
RMM:   2    -0.442214376626E+03   -0.30029E-02   -0.27751E-02   938   0.252E-01    0.651E-02
RMM:   3    -0.442214856005E+03   -0.47938E-03   -0.51734E-03  1098   0.121E-01    0.103E-01
RMM:   4    -0.442214874098E+03   -0.18093E-04   -0.76938E-04  1068   0.493E-02    0.874E-02
RMM:   5    -0.442214877082E+03   -0.29844E-05   -0.87443E-05   838   0.144E-02
   4072 T=   725. E= -.44200939E+03 F= -.44221488E+03 E0= -.44224697E+03  EK= 0.10400E+02 SP= -.10E+02 SK= 0.11E-01
       N       E                     dE             d eps       ncg     rms          rms(c)
DAV:   1    -0.442275252237E+03   -0.60378E-01   -0.27757E-02  1288   0.190E+00    0.177E-01
RMM:   2    -0.442278551414E+03   -0.32992E-02   -0.30175E-02   935   0.261E-01    0.110E-01
RMM:   3    -0.442279066539E+03   -0.51513E-03   -0.54595E-03  1100   0.125E-01    0.149E-01
RMM:   4    -0.442279142841E+03   -0.76301E-04   -0.81783E-04  1106   0.505E-02    0.136E-01
RMM:   5    -0.442279142169E+03    0.67179E-06   -0.79715E-05   816   0.140E-02
   4073 T=   735. E= -.44200930E+03 F= -.44227914E+03 E0= -.44231153E+03  EK= 0.10547E+02 SP= -.10E+02 SK= 0.19E-01
       N       E                     dE             d eps       ncg     rms          rms(c)
DAV:   1    -0.442355260485E+03   -0.76118E-01   -0.23915E-02  1312   0.192E+00    0.144E-01
RMM:   2    -0.442358617845E+03   -0.33574E-02   -0.30768E-02   943   0.257E-01    0.125E-01
RMM:   3    -0.442359128358E+03   -0.51051E-03   -0.53929E-03  1101   0.123E-01    0.154E-01
RMM:   4    -0.442359197338E+03   -0.68980E-04   -0.73978E-04  1082   0.494E-02    0.140E-01
RMM:   5    -0.442359192976E+03    0.43615E-05   -0.97553E-05   878   0.154E-02
   4074 T=   748. E= -.44200984E+03 F= -.44235919E+03 E0= -.44239219E+03  EK= 0.10731E+02 SP= -.10E+02 SK= 0.27E-01
       N       E                     dE             d eps       ncg     rms          rms(c)
DAV:   1    -0.442440655830E+03   -0.81458E-01   -0.29403E-02  1312   0.195E+00    0.275E-01
RMM:   2    -0.442444082407E+03   -0.34266E-02   -0.31544E-02   930   0.268E-01    0.803E-02
RMM:   3    -0.442444600816E+03   -0.51841E-03   -0.58891E-03  1102   0.129E-01    0.111E-01
RMM:   4    -0.442444646863E+03   -0.46047E-04   -0.87134E-04  1086   0.518E-02    0.956E-02
RMM:   5    -0.442444644438E+03    0.24253E-05   -0.99914E-05   913   0.149E-02
   4075 T=   762. E= -.44201060E+03 F= -.44244464E+03 E0= -.44247834E+03  EK= 0.10939E+02 SP= -.11E+02 SK= 0.34E-01
       N       E                     dE             d eps       ncg     rms          rms(c)
DAV:   1    -0.442520858474E+03   -0.76212E-01   -0.25931E-02  1312   0.198E+00    0.351E-01
RMM:   2    -0.442524247141E+03   -0.33887E-02   -0.31657E-02   928   0.269E-01    0.522E-02
RMM:   3    -0.442524804503E+03   -0.55736E-03   -0.57922E-03  1103   0.127E-01    0.768E-02
RMM:   4    -0.442524867100E+03   -0.62598E-04   -0.78302E-04  1080   0.510E-02    0.619E-02
RMM:   5    -0.442524869414E+03   -0.23138E-05   -0.10674E-04   926   0.164E-02    0.391E-02
RMM:   6    -0.442524868230E+03    0.11839E-05   -0.11632E-05   473   0.640E-03
   4076 T=   778. E= -.44201074E+03 F= -.44252487E+03 E0= -.44255922E+03  EK= 0.11158E+02 SP= -.11E+02 SK= 0.39E-01
       N       E                     dE             d eps       ncg     rms          rms(c)
DAV:   1    -0.442588681128E+03   -0.63812E-01   -0.28412E-02  1320   0.201E+00    0.284E-01
RMM:   2    -0.442592242250E+03   -0.35611E-02   -0.32853E-02   923   0.272E-01    0.587E-02
RMM:   3    -0.442592805190E+03   -0.56294E-03   -0.59193E-03  1099   0.130E-01    0.108E-01
RMM:   4    -0.442592881195E+03   -0.76005E-04   -0.86522E-04  1084   0.533E-02    0.893E-02
RMM:   5    -0.442592883453E+03   -0.22578E-05   -0.11083E-04   899   0.169E-02    0.699E-02
RMM:   6    -0.442592879418E+03    0.40354E-05   -0.13290E-05   476   0.633E-03
   4077 T=   793. E= -.44201097E+03 F= -.44259288E+03 E0= -.44262797E+03  EK= 0.11374E+02 SP= -.11E+02 SK= 0.42E-01
       N       E                     dE             d eps       ncg     rms          rms(c)
DAV:   1    -0.442640924990E+03   -0.48042E-01   -0.28519E-02  1296   0.201E+00    0.256E-01
RMM:   2    -0.442644682398E+03   -0.37574E-02   -0.34488E-02   936   0.271E-01    0.813E-02
RMM:   3    -0.442645244440E+03   -0.56204E-03   -0.59027E-03  1099   0.129E-01    0.115E-01
RMM:   4    -0.442645322507E+03   -0.78067E-04   -0.86875E-04  1077   0.537E-02    0.900E-02
RMM:   5    -0.442645327346E+03   -0.48394E-05   -0.12474E-04   902   0.181E-02    0.644E-02
RMM:   6    -0.442645324738E+03    0.26078E-05   -0.14136E-05   478   0.662E-03
   4078 T=   807. E= -.44201130E+03 F= -.44264532E+03 E0= -.44268123E+03  EK= 0.11580E+02 SP= -.11E+02 SK= 0.41E-01
       N       E                     dE             d eps       ncg     rms          rms(c)
DAV:   1    -0.442677138845E+03   -0.31811E-01   -0.36252E-02  1304   0.203E+00    0.353E-01
RMM:   2    -0.442681305538E+03   -0.41667E-02   -0.38965E-02   932   0.288E-01    0.517E-02
RMM:   3    -0.442681922807E+03   -0.61727E-03   -0.65205E-03  1099   0.136E-01    0.978E-02
RMM:   4    -0.442682005185E+03   -0.82377E-04   -0.95123E-04  1100   0.556E-02    0.758E-02
RMM:   5    -0.442682006560E+03   -0.13751E-05   -0.11858E-04   923   0.169E-02    0.527E-02
RMM:   6    -0.442682004230E+03    0.23297E-05   -0.10596E-05   474   0.595E-03
   4079 T=   820. E= -.44201103E+03 F= -.44268200E+03 E0= -.44271837E+03  EK= 0.11770E+02 SP= -.11E+02 SK= 0.38E-01
       N       E                     dE             d eps       ncg     rms          rms(c)
DAV:   1    -0.442702561288E+03   -0.20555E-01   -0.25776E-02  1312   0.208E+00    0.242E-01
RMM:   2    -0.442706402587E+03   -0.38413E-02   -0.34935E-02   929   0.281E-01    0.848E-02
RMM:   3    -0.442706999074E+03   -0.59649E-03   -0.62382E-03  1104   0.133E-01    0.128E-01
RMM:   4    -0.442707080109E+03   -0.81036E-04   -0.89318E-04  1093   0.536E-02    0.110E-01
RMM:   5    -0.442707081401E+03   -0.12921E-05   -0.11015E-04   884   0.166E-02    0.889E-02
RMM:   6    -0.442707075217E+03    0.61847E-05   -0.16886E-05   483   0.671E-03
   4080 T=   832. E= -.44201080E+03 F= -.44270708E+03 E0= -.44274336E+03  EK= 0.11943E+02 SP= -.11E+02 SK= 0.33E-01
       N       E                     dE             d eps       ncg     rms          rms(c)
DAV:   1    -0.442718033723E+03   -0.10952E-01   -0.29222E-02  1288   0.209E+00    0.341E-01
RMM:   2    -0.442722147024E+03   -0.41133E-02   -0.37949E-02   936   0.290E-01    0.601E-02
RMM:   3    -0.442722757932E+03   -0.61091E-03   -0.63804E-03  1105   0.137E-01    0.975E-02
RMM:   4    -0.442722846344E+03   -0.88412E-04   -0.96285E-04  1102   0.555E-02    0.720E-02
RMM:   5    -0.442722849498E+03   -0.31542E-05   -0.11147E-04   920   0.163E-02    0.434E-02
RMM:   6    -0.442722848164E+03    0.13343E-05   -0.10256E-05   475   0.614E-03
   4081 T=   843. E= -.44201035E+03 F= -.44272285E+03 E0= -.44275873E+03  EK= 0.12096E+02 SP= -.11E+02 SK= 0.27E-01
       N       E                     dE             d eps       ncg     rms          rms(c)
DAV:   1    -0.442725410020E+03   -0.25605E-02   -0.32615E-02  1288   0.212E+00    0.298E-01
RMM:   2    -0.442729786538E+03   -0.43765E-02   -0.40390E-02   934   0.299E-01    0.711E-02
RMM:   3    -0.442730409583E+03   -0.62304E-03   -0.67227E-03  1105   0.142E-01    0.118E-01
RMM:   4    -0.442730499584E+03   -0.90001E-04   -0.10249E-03  1103   0.567E-02    0.101E-01
RMM:   5    -0.442730501787E+03   -0.22026E-05   -0.10487E-04   880   0.159E-02    0.894E-02
RMM:   6    -0.442730494599E+03    0.71879E-05   -0.12606E-05   480   0.644E-03
   4082 T=   852. E= -.44201098E+03 F= -.44273049E+03 E0= -.44276609E+03  EK= 0.12225E+02 SP= -.12E+02 SK= 0.20E-01
       N       E                     dE             d eps       ncg     rms          rms(c)
DAV:   1    -0.442720672749E+03    0.98290E-02   -0.47494E-02  1248   0.213E+00    0.375E-01
RMM:   2    -0.442725261786E+03   -0.45890E-02   -0.42374E-02   936   0.308E-01    0.685E-02
RMM:   3    -0.442725967666E+03   -0.70588E-03   -0.73740E-03  1105   0.147E-01    0.116E-01
RMM:   4    -0.442726074760E+03   -0.10709E-03   -0.11346E-03  1105   0.596E-02    0.828E-02
RMM:   5    -0.442726082027E+03   -0.72661E-05   -0.13189E-04   916   0.174E-02    0.457E-02
RMM:   6    -0.442726081465E+03    0.56160E-06   -0.12324E-05   487   0.665E-03
   4083 T=   859. E= -.44201083E+03 F= -.44272608E+03 E0= -.44276161E+03  EK= 0.12324E+02 SP= -.12E+02 SK= 0.13E-01
       N       E                     dE             d eps       ncg     rms          rms(c)
DAV:   1    -0.442702520876E+03    0.23561E-01   -0.45309E-02  1280   0.215E+00    0.322E-01
RMM:   2    -0.442707296916E+03   -0.47760E-02   -0.44658E-02   937   0.310E-01    0.798E-02
RMM:   3    -0.442707984517E+03   -0.68760E-03   -0.74277E-03  1106   0.149E-01    0.132E-01
RMM:   4    -0.442708081879E+03   -0.97363E-04   -0.11334E-03  1103   0.591E-02    0.112E-01
RMM:   5    -0.442708084291E+03   -0.24115E-05   -0.10126E-04   884   0.160E-02    0.102E-01
RMM:   6    -0.442708079391E+03    0.49003E-05   -0.10277E-05   477   0.635E-03
   4084 T=   863. E= -.44201081E+03 F= -.44270808E+03 E0= -.44274320E+03  EK= 0.12386E+02 SP= -.12E+02 SK= 0.71E-02
       N       E                     dE             d eps       ncg     rms          rms(c)
DAV:   1    -0.442669661554E+03    0.38423E-01   -0.38396E-02  1264   0.213E+00    0.375E-01
RMM:   2    -0.442674097922E+03   -0.44364E-02   -0.40589E-02   941   0.302E-01    0.794E-02
RMM:   3    -0.442674749276E+03   -0.65135E-03   -0.68211E-03  1103   0.143E-01    0.115E-01
RMM:   4    -0.442674857973E+03   -0.10870E-03   -0.11282E-03  1096   0.597E-02    0.784E-02
RMM:   5    -0.442674865873E+03   -0.79003E-05   -0.13504E-04   920   0.184E-02    0.424E-02
RMM:   6    -0.442674864900E+03    0.97373E-06   -0.10836E-05   475   0.660E-03
   4085 T=   865. E= -.44201068E+03 F= -.44267486E+03 E0= -.44270909E+03  EK= 0.12409E+02 SP= -.12E+02 SK= 0.28E-02
       N       E                     dE             d eps       ncg     rms          rms(c)
DAV:   1    -0.442619302035E+03    0.55564E-01   -0.33557E-02  1288   0.213E+00    0.311E-01
RMM:   2    -0.442623679841E+03   -0.43778E-02   -0.40553E-02   935   0.298E-01    0.753E-02
RMM:   3    -0.442624291913E+03   -0.61207E-03   -0.66628E-03  1104   0.143E-01    0.121E-01
RMM:   4    -0.442624381967E+03   -0.90054E-04   -0.10840E-03  1103   0.581E-02    0.105E-01
RMM:   5    -0.442624385941E+03   -0.39737E-05   -0.91656E-05   829   0.154E-02
   4086 T=   864. E= -.44201057E+03 F= -.44262439E+03 E0= -.44265750E+03  EK= 0.12390E+02 SP= -.12E+02 SK= 0.49E-03
       N       E                     dE             d eps       ncg     rms          rms(c)
DAV:   1    -0.442553086871E+03    0.71295E-01   -0.26593E-02  1296   0.215E+00    0.109E-01
RMM:   2    -0.442556636913E+03   -0.35500E-02   -0.32918E-02   935   0.284E-01    0.219E-01
RMM:   3    -0.442557233332E+03   -0.59642E-03   -0.61514E-03  1098   0.136E-01    0.274E-01
RMM:   4    -0.442557320392E+03   -0.87060E-04   -0.96947E-04  1113   0.554E-02    0.299E-01
RMM:   5    -0.442557327442E+03   -0.70496E-05   -0.79961E-05   823   0.152E-02
   4087 T=   859. E= -.44200983E+03 F= -.44255733E+03 E0= -.44258981E+03  EK= 0.12329E+02 SP= -.12E+02 SK= 0.58E-04
       N       E                     dE             d eps       ncg     rms          rms(c)
DAV:   1    -0.442475513042E+03    0.81807E-01   -0.27739E-02  1268   0.215E+00    0.315E-01
RMM:   2    -0.442479149099E+03   -0.36361E-02   -0.34632E-02   946   0.290E-01    0.386E-01
RMM:   3    -0.442479971095E+03   -0.82200E-03   -0.65972E-03  1096   0.138E-01    0.568E-01
RMM:   4    -0.442479692719E+03    0.27838E-03   -0.16297E-03   871   0.732E-02    0.214E-01
RMM:   5    -0.442479702019E+03   -0.93005E-05   -0.70299E-04  1130   0.379E-02    0.128E-01
RMM:   6    -0.442479708359E+03   -0.63391E-05   -0.49928E-05   631   0.133E-02
   4088 T=   853. E= -.44200839E+03 F= -.44247971E+03 E0= -.44251260E+03  EK= 0.12236E+02 SP= -.12E+02 SK= 0.12E-02
       N       E                     dE             d eps       ncg     rms          rms(c)
DAV:   1    -0.442393480885E+03    0.86221E-01   -0.34417E-02  1280   0.212E+00    0.760E-01
RMM:   2    -0.442397083826E+03   -0.36029E-02   -0.43802E-02   935   0.314E-01    0.256E-01
RMM:   3    -0.442397798142E+03   -0.71432E-03   -0.84460E-03  1098   0.153E-01    0.830E-02
RMM:   4    -0.442397865310E+03   -0.67168E-04   -0.10905E-03   987   0.652E-02    0.383E-02
RMM:   5    -0.442397878382E+03   -0.13072E-04   -0.30777E-04  1064   0.294E-02    0.170E-02
RMM:   6    -0.442397876512E+03    0.18694E-05   -0.36461E-05   569   0.112E-02
   4089 T=   845. E= -.44200737E+03 F= -.44239788E+03 E0= -.44243106E+03  EK= 0.12118E+02 SP= -.12E+02 SK= 0.34E-02
       N       E                     dE             d eps       ncg     rms          rms(c)
DAV:   1    -0.442310453869E+03    0.87425E-01   -0.32827E-02  1272   0.211E+00    0.358E-01
RMM:   2    -0.442315096717E+03   -0.46428E-02   -0.44901E-02   955   0.295E-01    0.108E-01
RMM:   3    -0.442315730164E+03   -0.63345E-03   -0.72468E-03  1101   0.145E-01    0.942E-02
RMM:   4    -0.442315835995E+03   -0.10583E-03   -0.11842E-03  1100   0.605E-02    0.594E-02
RMM:   5    -0.442315827022E+03    0.89728E-05   -0.16978E-04   967   0.201E-02    0.261E-02
RMM:   6    -0.442315825298E+03    0.17240E-05   -0.24320E-05   516   0.870E-03
   4090 T=   835. E= -.44200663E+03 F= -.44231583E+03 E0= -.44234894E+03  EK= 0.11982E+02 SP= -.12E+02 SK= 0.61E-02
       N       E                     dE             d eps       ncg     rms          rms(c)
DAV:   1    -0.442231580191E+03    0.84247E-01   -0.42101E-02  1296   0.210E+00    0.258E-01
RMM:   2    -0.442236033629E+03   -0.44534E-02   -0.41784E-02   949   0.306E-01    0.107E-01
RMM:   3    -0.442236690844E+03   -0.65721E-03   -0.68109E-03  1101   0.143E-01    0.146E-01
RMM:   4    -0.442236792758E+03   -0.10191E-03   -0.10751E-03  1117   0.589E-02    0.132E-01
RMM:   5    -0.442236798721E+03   -0.59635E-05   -0.12111E-04   858   0.173E-02    0.117E-01
RMM:   6    -0.442236788393E+03    0.10329E-04   -0.38009E-05   696   0.884E-03    0.330E-02
RMM:   7    -0.442236790360E+03   -0.19674E-05   -0.37106E-05   668   0.706E-03
   4091 T=   825. E= -.44200616E+03 F= -.44223679E+03 E0= -.44226994E+03  EK= 0.11837E+02 SP= -.12E+02 SK= 0.86E-02
       N       E                     dE             d eps       ncg     rms          rms(c)
DAV:   1    -0.442157954918E+03    0.78833E-01   -0.29261E-02  1296   0.209E+00    0.367E-01
RMM:   2    -0.442161695248E+03   -0.37403E-02   -0.35045E-02   945   0.288E-01    0.633E-02
RMM:   3    -0.442162303599E+03   -0.60835E-03   -0.62046E-03  1103   0.138E-01    0.799E-02
RMM:   4    -0.442162392015E+03   -0.88416E-04   -0.97154E-04  1081   0.572E-02    0.483E-02
RMM:   5    -0.442162402323E+03   -0.10308E-04   -0.15561E-04   913   0.198E-02    0.230E-02
RMM:   6    -0.442162402123E+03    0.19965E-06   -0.10263E-05   475   0.664E-03
   4092 T=   815. E= -.44200561E+03 F= -.44216240E+03 E0= -.44219605E+03  EK= 0.11688E+02 SP= -.12E+02 SK= 0.11E-01
       N       E                     dE             d eps       ncg     rms          rms(c)
DAV:   1    -0.442088962691E+03    0.73440E-01   -0.31318E-02  1288   0.208E+00    0.224E-01
RMM:   2    -0.442092939258E+03   -0.39766E-02   -0.36518E-02   948   0.291E-01    0.105E-01
RMM:   3    -0.442093541583E+03   -0.60233E-03   -0.62980E-03  1106   0.138E-01    0.139E-01
RMM:   4    -0.442093632852E+03   -0.91269E-04   -0.98354E-04  1114   0.556E-02    0.126E-01
RMM:   5    -0.442093639302E+03   -0.64501E-05   -0.95042E-05   793   0.154E-02
   4093 T=   804. E= -.44200492E+03 F= -.44209364E+03 E0= -.44212829E+03  EK= 0.11539E+02 SP= -.11E+02 SK= 0.12E-01
       N       E                     dE             d eps       ncg     rms          rms(c)
DAV:   1    -0.442025997996E+03    0.67635E-01   -0.35282E-02  1296   0.210E+00    0.108E-01
RMM:   2    -0.442029878299E+03   -0.38803E-02   -0.35975E-02   950   0.290E-01    0.252E-01
RMM:   3    -0.442030515867E+03   -0.63757E-03   -0.63721E-03  1097   0.136E-01    0.321E-01
RMM:   4    -0.442030592914E+03   -0.77047E-04   -0.10069E-03  1141   0.564E-02    0.325E-01
RMM:   5    -0.442030609880E+03   -0.16966E-04   -0.24967E-04   989   0.325E-02    0.326E-01
RMM:   6    -0.442030645429E+03   -0.35549E-04   -0.91470E-05   848   0.181E-02    0.333E-01
RMM:   7    -0.442030639569E+03    0.58592E-05   -0.17552E-05   494   0.750E-03
   4094 T=   794. E= -.44200433E+03 F= -.44203064E+03 E0= -.44206635E+03  EK= 0.11395E+02 SP= -.11E+02 SK= 0.12E-01
       N       E                     dE             d eps       ncg     rms          rms(c)
DAV:   1    -0.441971020604E+03    0.59625E-01   -0.45568E-02  1296   0.216E+00    0.395E-01
RMM:   2    -0.441974749737E+03   -0.37291E-02   -0.44110E-02   944   0.344E-01    0.428E-01
RMM:   3    -0.441975466186E+03   -0.71645E-03   -0.77238E-03  1096   0.149E-01    0.462E-01
RMM:   4    -0.441976127031E+03   -0.66084E-03   -0.16969E-03   980   0.822E-02    0.848E-01
RMM:   5    -0.441975783280E+03    0.34375E-03   -0.66393E-03   908   0.171E-01    0.402E-01
RMM:   6    -0.441975600618E+03    0.18266E-03   -0.83591E-04  1038   0.585E-02    0.234E-01
RMM:   7    -0.441975620096E+03   -0.19478E-04   -0.16501E-04   872   0.208E-02    0.241E-01
RMM:   8    -0.441975593544E+03    0.26552E-04   -0.24745E-05   524   0.118E-02    0.212E-01
RMM:   9    -0.441975519911E+03    0.73634E-04   -0.86804E-05   778   0.187E-02    0.930E-02
RMM:  10    -0.441975499469E+03    0.20441E-04   -0.42313E-05   681   0.125E-02    0.559E-02
RMM:  11    -0.441975499514E+03   -0.44602E-07   -0.50067E-06   470   0.453E-03
   4095 T=   785. E= -.44200425E+03 F= -.44197550E+03 E0= -.44201209E+03  EK= 0.11261E+02 SP= -.11E+02 SK= 0.11E-01
       N       E                     dE             d eps       ncg     rms          rms(c)
DAV:   1    -0.441925322237E+03    0.50177E-01   -0.41416E-02  1288   0.207E+00    0.123E+00
RMM:   2    -0.441927932435E+03   -0.26102E-02   -0.44891E-02   952   0.310E-01    0.496E-01
RMM:   3    -0.441928474224E+03   -0.54179E-03   -0.85339E-03  1099   0.155E-01    0.107E-01
RMM:   4    -0.441928556441E+03   -0.82217E-04   -0.12486E-03  1044   0.641E-02    0.411E-02
RMM:   5    -0.441928550461E+03    0.59797E-05   -0.21119E-04  1011   0.242E-02    0.191E-02
RMM:   6    -0.441928550594E+03   -0.13333E-06   -0.35986E-05   577   0.101E-02
   4096 T=   777. E= -.44200380E+03 F= -.44192855E+03 E0= -.44196534E+03  EK= 0.11142E+02 SP= -.11E+02 SK= 0.91E-02
