  55  55   0   0
  0.2301251E+02  0.1218282E-08  0.7661564E-09  0.1373046E-08  0.0000000E+00
   1.0000000000000000E-004
  CAR 
 NEB_bottleneck                          
      9.12685805    -25.25400794  301      2.28845680      1.00000000
    -25.254  0.0000E+00  0.0000E+00
    -25.139  0.0000E+00  0.0000E+00
    -25.025  0.0000E+00  0.0000E+00
    -24.910 -0.7740E-31 -0.8870E-32
    -24.796 -0.7020E-27 -0.8046E-28
    -24.681 -0.3296E-23 -0.3778E-24
    -24.566 -0.8006E-20 -0.9179E-21
    -24.452 -0.1006E-16 -0.1153E-17
    -24.337 -0.6311E-14 -0.7244E-15
    -24.223 -0.2095E-11 -0.2408E-12
    -24.108 -0.3566E-09 -0.4111E-10
    -23.993 -0.3092E-07 -0.3585E-08
    -23.879 -0.1349E-05 -0.1582E-06
    -23.764 -0.2888E-04 -0.3468E-05
    -23.650 -0.2861E-03 -0.3626E-04
    -23.535 -0.1070E-02 -0.1589E-03
    -23.420  0.5479E-03 -0.9613E-04
    -23.306  0.1177E-01  0.1253E-02
    -23.191  0.2365E-01  0.3963E-02
    -23.077  0.1661E-01  0.5867E-02
    -22.962  0.2850E-02  0.6194E-02
    -22.847 -0.1375E-02  0.6036E-02
    -22.733 -0.1143E-02  0.5905E-02
    -22.618  0.1327E-05  0.5906E-02
    -22.504  0.5516E-02  0.6538E-02
    -22.389  0.1804E-01  0.8605E-02
    -22.274  0.3026E-01  0.1207E-01
    -22.160  0.3247E-01  0.1579E-01
    -22.045  0.4161E-01  0.2056E-01
    -21.931  0.5328E-01  0.2667E-01
    -21.816  0.5338E-01  0.3279E-01
    -21.701  0.6641E-01  0.4040E-01
    -21.587  0.8214E-01  0.4981E-01
    -21.472  0.7841E-01  0.5880E-01
    -21.358  0.5886E-01  0.6554E-01
    -21.243  0.4171E-01  0.7032E-01
    -21.128  0.5203E-01  0.7628E-01
    -21.014  0.8846E-01  0.8642E-01
    -20.899  0.1174E+00  0.9988E-01
    -20.784  0.1143E+00  0.1130E+00
    -20.670  0.7892E-01  0.1220E+00
    -20.555  0.4933E-01  0.1277E+00
    -20.441  0.2990E-01  0.1311E+00
    -20.326  0.8785E-02  0.1321E+00
    -20.211  0.6140E-02  0.1328E+00
    -20.097  0.2035E-01  0.1351E+00
    -19.982  0.2056E-01  0.1375E+00
    -19.868  0.6161E-02  0.1382E+00
    -19.753 -0.9218E-03  0.1381E+00
    -19.638 -0.7479E-03  0.1380E+00
    -19.524 -0.1267E-03  0.1380E+00
    -19.409 -0.9063E-05  0.1380E+00
    -19.295 -0.3071E-06  0.1380E+00
    -19.180 -0.5140E-08  0.1380E+00
    -19.065 -0.4328E-10  0.1380E+00
    -18.951 -0.1853E-12  0.1380E+00
    -18.836 -0.4069E-15  0.1380E+00
    -18.722  0.0000E+00  0.1380E+00
    -18.607  0.0000E+00  0.1380E+00
    -18.492  0.0000E+00  0.1380E+00
    -18.378  0.0000E+00  0.1380E+00
    -18.263  0.0000E+00  0.1380E+00
    -18.149  0.0000E+00  0.1380E+00
    -18.034  0.0000E+00  0.1380E+00
    -17.919  0.0000E+00  0.1380E+00
    -17.805  0.0000E+00  0.1380E+00
    -17.690  0.0000E+00  0.1380E+00
    -17.576  0.0000E+00  0.1380E+00
    -17.461  0.0000E+00  0.1380E+00
    -17.346  0.0000E+00  0.1380E+00
    -17.232  0.0000E+00  0.1380E+00
    -17.117  0.0000E+00  0.1380E+00
    -17.003  0.0000E+00  0.1380E+00
    -16.888  0.0000E+00  0.1380E+00
    -16.773  0.0000E+00  0.1380E+00
    -16.659  0.0000E+00  0.1380E+00
    -16.544  0.0000E+00  0.1380E+00
    -16.430  0.0000E+00  0.1380E+00
    -16.315  0.0000E+00  0.1380E+00
    -16.200  0.0000E+00  0.1380E+00
    -16.086  0.0000E+00  0.1380E+00
    -15.971  0.0000E+00  0.1380E+00
    -15.857  0.0000E+00  0.1380E+00
    -15.742  0.0000E+00  0.1380E+00
    -15.627  0.0000E+00  0.1380E+00
    -15.513  0.0000E+00  0.1380E+00
    -15.398  0.0000E+00  0.1380E+00
    -15.284  0.0000E+00  0.1380E+00
    -15.169  0.0000E+00  0.1380E+00
    -15.054  0.0000E+00  0.1380E+00
    -14.940  0.0000E+00  0.1380E+00
    -14.825  0.0000E+00  0.1380E+00
    -14.711  0.0000E+00  0.1380E+00
    -14.596  0.0000E+00  0.1380E+00
    -14.481  0.0000E+00  0.1380E+00
    -14.367  0.0000E+00  0.1380E+00
    -14.252  0.0000E+00  0.1380E+00
    -14.138  0.0000E+00  0.1380E+00
    -14.023  0.0000E+00  0.1380E+00
    -13.908  0.0000E+00  0.1380E+00
    -13.794  0.0000E+00  0.1380E+00
    -13.679  0.0000E+00  0.1380E+00
    -13.565  0.0000E+00  0.1380E+00
    -13.450  0.0000E+00  0.1380E+00
    -13.335  0.0000E+00  0.1380E+00
    -13.221  0.0000E+00  0.1380E+00
    -13.106 -0.2340E-30  0.1380E+00
    -12.991 -0.1900E-26  0.1380E+00
    -12.877 -0.7958E-23  0.1380E+00
    -12.762 -0.1717E-19  0.1380E+00
    -12.648 -0.1809E-16  0.1380E+00
    -12.533 -0.1049E-13  0.1380E+00
    -12.418 -0.3037E-11  0.1380E+00
    -12.304 -0.4476E-09  0.1380E+00
    -12.189 -0.3333E-07  0.1380E+00
    -12.075 -0.1238E-05  0.1380E+00
    -11.960 -0.2239E-04  0.1380E+00
    -11.845 -0.1854E-03  0.1380E+00
    -11.731 -0.5595E-03  0.1379E+00
    -11.616  0.5516E-03  0.1380E+00
    -11.502  0.6342E-02  0.1387E+00
    -11.387  0.1299E-01  0.1402E+00
    -11.272  0.1285E-01  0.1417E+00
    -11.158  0.9854E-02  0.1428E+00
    -11.043  0.7376E-02  0.1436E+00
    -10.929  0.3286E-02  0.1440E+00
    -10.814  0.3575E-02  0.1444E+00
    -10.699  0.7112E-02  0.1452E+00
    -10.585  0.6685E-02  0.1460E+00
    -10.470  0.7547E-02  0.1469E+00
    -10.356  0.1301E-01  0.1484E+00
    -10.241  0.1898E-01  0.1505E+00
    -10.126  0.2044E-01  0.1529E+00
    -10.012  0.1736E-01  0.1549E+00
     -9.897  0.1611E-01  0.1567E+00
     -9.783  0.1843E-01  0.1588E+00
     -9.668  0.2080E-01  0.1612E+00
     -9.553  0.1995E-01  0.1635E+00
     -9.439  0.1786E-01  0.1655E+00
     -9.324  0.1874E-01  0.1677E+00
     -9.210  0.1878E-01  0.1698E+00
     -9.095  0.1771E-01  0.1719E+00
     -8.980  0.2263E-01  0.1745E+00
     -8.866  0.2732E-01  0.1776E+00
     -8.751  0.2323E-01  0.1803E+00
     -8.637  0.1551E-01  0.1820E+00
     -8.522  0.1044E-01  0.1832E+00
     -8.407  0.7256E-02  0.1841E+00
     -8.293  0.7289E-02  0.1849E+00
     -8.178  0.7214E-02  0.1857E+00
     -8.064  0.2898E-02  0.1861E+00
     -7.949 -0.1365E-03  0.1860E+00
     -7.834 -0.3218E-03  0.1860E+00
     -7.720 -0.6771E-04  0.1860E+00
     -7.605 -0.5709E-05  0.1860E+00
     -7.491 -0.2242E-06  0.1860E+00
     -7.376 -0.4308E-08  0.1860E+00
     -7.261 -0.4144E-10  0.1860E+00
     -7.147 -0.2018E-12  0.1860E+00
     -7.032 -0.5038E-15  0.1860E+00
     -6.918  0.0000E+00  0.1860E+00
     -6.803  0.0000E+00  0.1860E+00
     -6.688  0.0000E+00  0.1860E+00
     -6.574  0.0000E+00  0.1860E+00
     -6.459  0.0000E+00  0.1860E+00
     -6.345  0.0000E+00  0.1860E+00
     -6.230  0.0000E+00  0.1860E+00
     -6.115  0.0000E+00  0.1860E+00
     -6.001  0.0000E+00  0.1860E+00
     -5.886  0.0000E+00  0.1860E+00
     -5.772  0.0000E+00  0.1860E+00
     -5.657  0.0000E+00  0.1860E+00
     -5.542 -0.5398E-33  0.1860E+00
     -5.428 -0.6678E-29  0.1860E+00
     -5.313 -0.4263E-25  0.1860E+00
     -5.199 -0.1403E-21  0.1860E+00
     -5.084 -0.2376E-18  0.1860E+00
     -4.969 -0.2011E-15  0.1860E+00
     -4.855 -0.8900E-13  0.1860E+00
     -4.740 -0.2014E-10  0.1860E+00
     -4.625 -0.2310E-08  0.1860E+00
     -4.511 -0.1329E-06  0.1860E+00
     -4.396 -0.3762E-05  0.1860E+00
     -4.282 -0.5026E-04  0.1860E+00
     -4.167 -0.2828E-03  0.1860E+00
     -4.052 -0.3414E-03  0.1859E+00
     -3.938  0.2065E-02  0.1862E+00
     -3.823  0.7327E-02  0.1870E+00
     -3.709  0.1057E-01  0.1882E+00
     -3.594  0.9604E-02  0.1893E+00
     -3.479  0.5172E-02  0.1899E+00
     -3.365  0.3364E-02  0.1903E+00
     -3.250  0.7598E-02  0.1912E+00
     -3.136  0.1151E-01  0.1925E+00
     -3.021  0.1457E-01  0.1941E+00
     -2.906  0.1897E-01  0.1963E+00
     -2.792  0.2068E-01  0.1987E+00
     -2.677  0.1685E-01  0.2006E+00
     -2.563  0.9611E-02  0.2017E+00
     -2.448  0.2569E-02  0.2020E+00
     -2.333  0.1685E-02  0.2022E+00
     -2.219  0.6027E-02  0.2029E+00
     -2.104  0.1076E-01  0.2041E+00
     -1.990  0.2029E-01  0.2065E+00
     -1.875  0.2713E-01  0.2096E+00
     -1.760  0.1880E-01  0.2117E+00
     -1.646  0.1231E-01  0.2131E+00
     -1.531  0.1860E-01  0.2153E+00
     -1.417  0.2321E-01  0.2179E+00
     -1.302  0.2528E-01  0.2208E+00
     -1.187  0.2826E-01  0.2241E+00
     -1.073  0.2610E-01  0.2271E+00
     -0.958  0.2366E-01  0.2298E+00
     -0.844  0.2336E-01  0.2324E+00
     -0.729  0.2325E-01  0.2351E+00
     -0.614  0.2597E-01  0.2381E+00
     -0.500  0.2882E-01  0.2414E+00
     -0.385  0.3123E-01  0.2450E+00
     -0.271  0.3867E-01  0.2494E+00
     -0.156  0.4590E-01  0.2547E+00
     -0.041  0.4351E-01  0.2596E+00
      0.073  0.3372E-01  0.2635E+00
      0.188  0.2582E-01  0.2665E+00
      0.302  0.2522E-01  0.2694E+00
      0.417  0.3204E-01  0.2730E+00
      0.532  0.4190E-01  0.2778E+00
      0.646  0.4704E-01  0.2832E+00
      0.761  0.4271E-01  0.2881E+00
      0.875  0.3362E-01  0.2920E+00
      0.990  0.3372E-01  0.2958E+00
      1.105  0.3939E-01  0.3004E+00
      1.219  0.3802E-01  0.3047E+00
      1.334  0.3508E-01  0.3087E+00
      1.448  0.3436E-01  0.3127E+00
      1.563  0.3471E-01  0.3166E+00
      1.678  0.3553E-01  0.3207E+00
      1.792  0.2862E-01  0.3240E+00
      1.907  0.1414E-01  0.3256E+00
      2.021  0.3554E-02  0.3260E+00
      2.136  0.4547E-02  0.3265E+00
      2.251  0.1475E-01  0.3282E+00
      2.365  0.1989E-01  0.3305E+00
      2.480  0.1172E-01  0.3319E+00
      2.594  0.3770E-02  0.3323E+00
      2.709  0.5898E-02  0.3330E+00
      2.824  0.7040E-02  0.3338E+00
      2.938  0.2566E-02  0.3341E+00
      3.053 -0.2290E-03  0.3340E+00
      3.168 -0.3719E-03  0.3340E+00
      3.282 -0.4381E-03  0.3339E+00
      3.397 -0.2492E-03  0.3339E+00
      3.511  0.2952E-02  0.3343E+00
      3.626  0.9271E-02  0.3353E+00
      3.741  0.1465E-01  0.3370E+00
      3.855  0.1570E-01  0.3388E+00
      3.970  0.9563E-02  0.3399E+00
      4.084  0.1911E-02  0.3401E+00
      4.199 -0.7497E-03  0.3400E+00
      4.314 -0.9868E-03  0.3399E+00
      4.428 -0.2233E-03  0.3399E+00
      4.543  0.6202E-02  0.3406E+00
      4.657  0.1530E-01  0.3424E+00
      4.772  0.1510E-01  0.3441E+00
      4.887  0.9679E-02  0.3452E+00
      5.001  0.7851E-02  0.3461E+00
      5.116  0.1295E-01  0.3476E+00
      5.230  0.2062E-01  0.3499E+00
      5.345  0.2120E-01  0.3524E+00
      5.460  0.1707E-01  0.3543E+00
      5.574  0.1742E-01  0.3563E+00
      5.689  0.1836E-01  0.3584E+00
      5.803  0.1217E-01  0.3598E+00
      5.918  0.9187E-02  0.3609E+00
      6.033  0.1565E-01  0.3627E+00
      6.147  0.2131E-01  0.3651E+00
      6.262  0.2151E-01  0.3676E+00
      6.376  0.2367E-01  0.3703E+00
      6.491  0.2958E-01  0.3737E+00
      6.606  0.3165E-01  0.3773E+00
      6.720  0.2797E-01  0.3805E+00
      6.835  0.2642E-01  0.3835E+00
      6.949  0.3447E-01  0.3875E+00
      7.064  0.3910E-01  0.3920E+00
      7.179  0.2800E-01  0.3952E+00
      7.293  0.9174E-02  0.3962E+00
      7.408 -0.5790E-03  0.3962E+00
      7.522 -0.1113E-02  0.3960E+00
      7.637 -0.2553E-03  0.3960E+00
      7.752 -0.2442E-04  0.3960E+00
      7.866 -0.1116E-05  0.3960E+00
      7.981 -0.2542E-07  0.3960E+00
      8.095 -0.2940E-09  0.3960E+00
      8.210 -0.1742E-11  0.3960E+00
      8.325 -0.5313E-14  0.3960E+00
      8.439 -0.7750E-17  0.3960E+00
      8.554  0.0000E+00  0.3960E+00
      8.668  0.0000E+00  0.3960E+00
      8.783  0.0000E+00  0.3960E+00
      8.898  0.0000E+00  0.3960E+00
      9.012  0.0000E+00  0.3960E+00
      9.127  0.0000E+00  0.3960E+00
