 vasp.6.3.2 27Jun22 (build Jun 14 2024 17:29:11) complex                         
 POSCAR found type information on POSCAR NaAlS 
 03/POSCAR found :  3 types and      55 ions
 -----------------------------------------------------------------------------
|                                                                             |
|           W    W    AA    RRRRR   N    N  II  N    N   GGGG   !!!           |
|           W    W   A  A   R    R  NN   N  II  NN   N  G    G  !!!           |
|           W    W  A    A  R    R  N N  N  II  N N  N  G       !!!           |
|           W WW W  AAAAAA  RRRRR   N  N N  II  N  N N  G  GGG   !            |
|           WW  WW  A    A  R   R   N   NN  II  N   NN  G    G                |
|           W    W  A    A  R    R  N    N  II  N    N   GGGG   !!!           |
|                                                                             |
|     The value NPAR = 9 specified in the INCAR file was overwritten,         |
|     because it was not compatible with the 3 processes available:           |
|     NPAR = 3                                                                |
|     was used instead, please check that this makes sense for your           |
|     machine.                                                                |
|                                                                             |
 -----------------------------------------------------------------------------

 LDA part: xc-table for Pade appr. of Perdew
 POSCAR found type information on POSCAR NaAlS 
 00/POSCAR found :  3 types and      55 ions
 POSCAR found type information on POSCAR NaAlS 
 10/POSCAR found :  3 types and      55 ions
 POSCAR, INCAR and KPOINTS ok, starting setup
 FFT: planning ... GRIDC
 FFT: planning ... GRID_SOFT
 FFT: planning ... GRID
 WAVECAR not read
 entering main loop
       N       E                     dE             d eps       ncg     rms          rms(c)
DAV:   1     0.331041442303E+04    0.33104E+04   -0.14702E+05   423   0.159E+03
DAV:   2     0.278620536490E+03   -0.30318E+04   -0.29212E+04   432   0.418E+02
DAV:   3    -0.180132332050E+03   -0.45875E+03   -0.45000E+03   486   0.174E+02
DAV:   4    -0.208934367842E+03   -0.28802E+02   -0.28549E+02   450   0.401E+01
DAV:   5    -0.210209780503E+03   -0.12754E+01   -0.12733E+01   567   0.890E+00    0.298E+01
RMM:   6    -0.191527905296E+03    0.18682E+02   -0.29819E+01   422   0.704E+00    0.202E+01
RMM:   7    -0.190290065991E+03    0.12378E+01   -0.21167E+01   451   0.586E+00    0.133E+01
RMM:   8    -0.189790049504E+03    0.50002E+00   -0.64046E+00   542   0.389E+00    0.856E+00
RMM:   9    -0.189650871021E+03    0.13918E+00   -0.15795E+00   421   0.178E+00    0.548E+00
RMM:  10    -0.189215030269E+03    0.43584E+00   -0.13103E+00   440   0.163E+00    0.252E+00
RMM:  11    -0.189040696422E+03    0.17433E+00   -0.19858E-01   480   0.910E-01    0.155E+00
RMM:  12    -0.189011732371E+03    0.28964E-01   -0.73184E-02   478   0.463E-01    0.867E-01
RMM:  13    -0.189010430895E+03    0.13015E-02   -0.25656E-02   553   0.258E-01    0.485E-01
RMM:  14    -0.189014784947E+03   -0.43541E-02   -0.11169E-02   402   0.189E-01    0.196E-01
RMM:  15    -0.189015716232E+03   -0.93129E-03   -0.38928E-03   425   0.121E-01    0.150E-01
RMM:  16    -0.189016187291E+03   -0.47106E-03   -0.18220E-03   480   0.737E-02    0.795E-02
RMM:  17    -0.189016465685E+03   -0.27839E-03   -0.89614E-04   459   0.507E-02    0.334E-02
RMM:  18    -0.189016501204E+03   -0.35519E-04   -0.22794E-04   554   0.286E-02    0.198E-02
RMM:  19    -0.189016516433E+03   -0.15229E-04   -0.40082E-05   412   0.125E-02    0.161E-02
RMM:  20    -0.189016521664E+03   -0.52311E-05   -0.15883E-05   389   0.723E-03    0.769E-03
RMM:  21    -0.189016522874E+03   -0.12099E-05   -0.48404E-06   342   0.396E-03    0.446E-03
RMM:  22    -0.189016523351E+03   -0.47718E-06   -0.13917E-06   247   0.265E-03
   1 F= -.18901652E+03 E0= -.18898005E+03  d E =-.189017E+03
quench:  g(F)=  0.000E+00 g(S)=  0.000E+00 dE (1.order)= 0.000E+00
 bond charge predicted
       N       E                     dE             d eps       ncg     rms          rms(c)
DAV:   1    -0.189016523143E+03   -0.26920E-06   -0.86499E-07   243   0.214E-03    0.112E-03
RMM:   2    -0.189016523215E+03   -0.72447E-07   -0.18689E-07   229   0.114E-03
   2 F= -.18901652E+03 E0= -.18898004E+03  d E =0.135533E-06
quench:  g(F)=  0.000E+00 g(S)=  0.000E+00 dE (1.order)= 0.000E+00
 bond charge predicted
       N       E                     dE             d eps       ncg     rms          rms(c)
DAV:   1    -0.189016523157E+03   -0.14126E-07   -0.26796E-07   261   0.105E-03    0.801E-04
RMM:   2    -0.189016523173E+03   -0.15949E-07   -0.24910E-08   118   0.545E-04
   3 F= -.18901652E+03 E0= -.18898003E+03  d E =0.423715E-07
quench:  g(F)=  0.000E+00 g(S)=  0.000E+00 dE (1.order)= 0.000E+00
 bond charge predicted
       N       E                     dE             d eps       ncg     rms          rms(c)
DAV:   1    -0.189016523178E+03   -0.21289E-07   -0.69053E-08   279   0.538E-04    0.657E-04
RMM:   2    -0.189016523205E+03   -0.26728E-07   -0.88242E-09    62   0.373E-04
   4 F= -.18901652E+03 E0= -.18898003E+03  d E =-.320688E-07
quench:  g(F)=  0.000E+00 g(S)=  0.000E+00 dE (1.order)= 0.000E+00
 bond charge predicted
       N       E                     dE             d eps       ncg     rms          rms(c)
DAV:   1    -0.189016523183E+03   -0.50422E-08   -0.81553E-08   261   0.456E-04    0.340E-04
RMM:   2    -0.189016523187E+03   -0.31869E-08    0.12248E-27    45   0.252E-04
   5 F= -.18901652E+03 E0= -.18898003E+03  d E =0.184991E-07
quench:  g(F)=  0.000E+00 g(S)=  0.000E+00 dE (1.order)= 0.000E+00
 bond charge predicted
       N       E                     dE             d eps       ncg     rms          rms(c)
DAV:   1    -0.189016523190E+03   -0.69376E-08   -0.19690E-08   252   0.276E-04    0.330E-04
RMM:   2    -0.189016523198E+03   -0.79017E-08   -0.16245E-09    42   0.203E-04
   6 F= -.18901652E+03 E0= -.18898003E+03  d E =-.116524E-07
quench:  g(F)=  0.000E+00 g(S)=  0.000E+00 dE (1.order)= 0.000E+00
 bond charge predicted
       N       E                     dE             d eps       ncg     rms          rms(c)
DAV:   1    -0.189016523188E+03    0.18626E-08   -0.30667E-08   243   0.264E-04    0.141E-04
RMM:   2    -0.189016523188E+03    0.19281E-09    0.43485E-28    27   0.141E-04
   7 F= -.18901652E+03 E0= -.18898003E+03  d E =0.995715E-08
quench:  g(F)=  0.000E+00 g(S)=  0.000E+00 dE (1.order)= 0.000E+00
 bond charge predicted
       N       E                     dE             d eps       ncg     rms          rms(c)
DAV:   1    -0.189016523188E+03    0.18917E-09   -0.74364E-09   243   0.186E-04    0.733E-05
RMM:   2    -0.189016523188E+03    0.65484E-10    0.22889-111    21   0.116E-04
   8 F= -.18901652E+03 E0= -.18898003E+03  d E =0.618456E-10
quench:  g(F)=  0.000E+00 g(S)=  0.000E+00 dE (1.order)= 0.000E+00
 bond charge predicted
       N       E                     dE             d eps       ncg     rms          rms(c)
DAV:   1    -0.189016523188E+03    0.66211E-09   -0.29835E-09   225   0.120E-04    0.533E-05
RMM:   2    -0.189016523188E+03    0.72760E-10    0.11849E-68    23   0.787E-05
   9 F= -.18901652E+03 E0= -.18898003E+03  d E =0.669388E-09
quench:  g(F)=  0.000E+00 g(S)=  0.000E+00 dE (1.order)= 0.000E+00
 bond charge predicted
       N       E                     dE             d eps       ncg     rms          rms(c)
DAV:   1    -0.189016523188E+03   -0.12733E-09   -0.95820E-10   225   0.827E-05    0.442E-05
RMM:   2    -0.189016523187E+03    0.56025E-09    0.40594-205    17   0.619E-05
  10 F= -.18901652E+03 E0= -.18898003E+03  d E =0.360160E-09
quench:  g(F)=  0.000E+00 g(S)=  0.000E+00 dE (1.order)= 0.000E+00
 bond charge predicted
       N       E                     dE             d eps       ncg     rms          rms(c)
DAV:   1    -0.189016523187E+03    0.53842E-09   -0.92078E-10   225   0.646E-05    0.260E-05
RMM:   2    -0.189016523187E+03    0.30559E-09    0.13702-211    15   0.428E-05
  11 F= -.18901652E+03 E0= -.18898003E+03  d E =0.283762E-09
quench:  g(F)=  0.000E+00 g(S)=  0.000E+00 dE (1.order)= 0.000E+00
 bond charge predicted
       N       E                     dE             d eps       ncg     rms          rms(c)
DAV:   1    -0.189016523186E+03    0.11532E-08   -0.43951E-10   225   0.453E-05    0.228E-05
RMM:   2    -0.189016523187E+03   -0.84401E-09    0.99315-212    12   0.344E-05
  12 F= -.18901652E+03 E0= -.18898003E+03  d E =0.363798E-11
quench:  g(F)=  0.000E+00 g(S)=  0.000E+00 dE (1.order)= 0.000E+00
 bond charge predicted
       N       E                     dE             d eps       ncg     rms          rms(c)
DAV:   1    -0.189016523187E+03   -0.71304E-09   -0.41825E-10   225   0.356E-05    0.132E-05
RMM:   2    -0.189016523186E+03    0.31650E-09    0.58179-212    12   0.236E-05
  13 F= -.18901652E+03 E0= -.18898003E+03  d E =0.447471E-09
quench:  g(F)=  0.000E+00 g(S)=  0.000E+00 dE (1.order)= 0.000E+00
 bond charge predicted
       N       E                     dE             d eps       ncg     rms          rms(c)
DAV:   1    -0.189016523186E+03    0.86220E-09    0.79443E-11   216   0.251E-05    0.124E-05
RMM:   2    -0.189016523186E+03   -0.37471E-09    0.40305-212     8   0.187E-05
  14 F= -.18901652E+03 E0= -.18898003E+03  d E =0.170985E-09
quench:  g(F)=  0.000E+00 g(S)=  0.000E+00 dE (1.order)= 0.000E+00
 bond charge predicted
       N       E                     dE             d eps       ncg     rms          rms(c)
DAV:   1    -0.189016523187E+03   -0.11096E-08   -0.55672E-10   225   0.194E-05    0.725E-06
RMM:   2    -0.189016523186E+03    0.11823E-08    0.12171-248     7   0.134E-05
  15 F= -.18901652E+03 E0= -.18898003E+03  d E =0.447471E-09
quench:  g(F)=  0.000E+00 g(S)=  0.000E+00 dE (1.order)= 0.000E+00
 bond charge predicted
       N       E                     dE             d eps       ncg     rms          rms(c)
DAV:   1    -0.189016523185E+03    0.17062E-08   -0.17065E-10   216   0.142E-05    0.650E-06
RMM:   2    -0.189016523186E+03   -0.10332E-08    0.91433-256     4   0.105E-05
  16 F= -.18901652E+03 E0= -.18898003E+03  d E =-.509317E-09
quench:  g(F)=  0.000E+00 g(S)=  0.000E+00 dE (1.order)= 0.000E+00
 bond charge predicted
       N       E                     dE             d eps       ncg     rms          rms(c)
DAV:   1    -0.189016523186E+03   -0.90949E-09   -0.36834E-10   225   0.109E-05    0.396E-06
RMM:   2    -0.189016523186E+03   -0.10914E-09    0.12457-255     4   0.769E-06
  17 F= -.18901652E+03 E0= -.18898003E+03  d E =0.145519E-10
quench:  g(F)=  0.000E+00 g(S)=  0.000E+00 dE (1.order)= 0.000E+00
 bond charge predicted
       N       E                     dE             d eps       ncg     rms          rms(c)
DAV:   1    -0.189016523187E+03   -0.34197E-09   -0.47008E-10   216   0.814E-06    0.334E-06
RMM:   2    -0.189016523186E+03    0.44020E-09    0.10180-258     3   0.606E-06
  18 F= -.18901652E+03 E0= -.18898003E+03  d E =0.207365E-09
quench:  g(F)=  0.000E+00 g(S)=  0.000E+00 dE (1.order)= 0.000E+00
 bond charge predicted
       N       E                     dE             d eps       ncg     rms          rms(c)
DAV:   1    -0.189016523185E+03    0.17390E-08   -0.18766E-10   225   0.627E-06    0.214E-06
RMM:   2    -0.189016523186E+03   -0.14879E-08    0.98963-257     4   0.448E-06
  19 F= -.18901652E+03 E0= -.18898003E+03  d E =-.189175E-09
quench:  g(F)=  0.000E+00 g(S)=  0.000E+00 dE (1.order)= 0.000E+00
 bond charge predicted
       N       E                     dE             d eps       ncg     rms          rms(c)
DAV:   1    -0.189016523187E+03   -0.20045E-08   -0.10697E-10   216   0.474E-06    0.179E-06
RMM:   2    -0.189016523186E+03    0.49113E-09    0.70334-262     1   0.353E-06
  20 F= -.18901652E+03 E0= -.18898003E+03  d E =-.254659E-10
quench:  g(F)=  0.000E+00 g(S)=  0.000E+00 dE (1.order)= 0.000E+00
 bond charge predicted
       N       E                     dE             d eps       ncg     rms          rms(c)
DAV:   1    -0.189016523186E+03    0.42201E-09   -0.11779E-10   198   0.365E-06    0.119E-06
RMM:   2    -0.189016523186E+03    0.10186E-09    0.41385-262     1   0.263E-06
  21 F= -.18901652E+03 E0= -.18898003E+03  d E =0.327418E-10
quench:  g(F)=  0.000E+00 g(S)=  0.000E+00 dE (1.order)= 0.000E+00
 bond charge predicted
       N       E                     dE             d eps       ncg     rms          rms(c)
DAV:   1    -0.189016523184E+03    0.23283E-08   -0.52945E-11   198   0.278E-06    0.958E-07
RMM:   2    -0.189016523186E+03   -0.20882E-08    0.36948-262     1   0.207E-06
  22 F= -.18901652E+03 E0= -.18898003E+03  d E =0.138243E-09
quench:  g(F)=  0.000E+00 g(S)=  0.000E+00 dE (1.order)= 0.000E+00
 bond charge predicted
       N       E                     dE             d eps       ncg     rms          rms(c)
DAV:   1    -0.189016523186E+03   -0.20409E-08    0.59692E-11   198   0.214E-06    0.661E-07
RMM:   2    -0.189016523186E+03   -0.21464E-09    0.32566-262     1   0.156E-06
  23 F= -.18901652E+03 E0= -.18898003E+03  d E =-.167347E-09
quench:  g(F)=  0.000E+00 g(S)=  0.000E+00 dE (1.order)= 0.000E+00
 bond charge predicted
       N       E                     dE             d eps       ncg     rms          rms(c)
DAV:   1    -0.189016523187E+03   -0.75306E-09   -0.16509E-10   198   0.165E-06    0.524E-07
RMM:   2    -0.189016523186E+03    0.95679E-09    0.30013-262     1   0.122E-06
  24 F= -.18901652E+03 E0= -.18898003E+03  d E =0.418368E-09
quench:  g(F)=  0.000E+00 g(S)=  0.000E+00 dE (1.order)= 0.000E+00
 bond charge predicted
       N       E                     dE             d eps       ncg     rms          rms(c)
DAV:   1    -0.189016523186E+03    0.71668E-09   -0.11307E-11   198   0.127E-06    0.371E-07
RMM:   2    -0.189016523186E+03   -0.12005E-09    0.26835-262     1   0.930E-07
  25 F= -.18901652E+03 E0= -.18898003E+03  d E =-.360160E-09
quench:  g(F)=  0.000E+00 g(S)=  0.000E+00 dE (1.order)= 0.000E+00
 bond charge predicted
       N       E                     dE             d eps       ncg     rms          rms(c)
DAV:   1    -0.189016523186E+03    0.54570E-09   -0.10232E-10   198   0.981E-07    0.292E-07
RMM:   2    -0.189016523186E+03   -0.12369E-09    0.24849-262     1   0.728E-07
  26 F= -.18901652E+03 E0= -.18898003E+03  d E =0.542059E-09
quench:  g(F)=  0.000E+00 g(S)=  0.000E+00 dE (1.order)= 0.000E+00
 bond charge predicted
       N       E                     dE             d eps       ncg     rms          rms(c)
DAV:   1    -0.189016523186E+03   -0.69122E-09   -0.37067E-10   198   0.752E-07    0.210E-07
RMM:   2    -0.189016523186E+03    0.44747E-09    0.22319-262     1   0.556E-07
  27 F= -.18901652E+03 E0= -.18898003E+03  d E =-.120053E-09
quench:  g(F)=  0.000E+00 g(S)=  0.000E+00 dE (1.order)= 0.000E+00
 bond charge predicted
       N       E                     dE             d eps       ncg     rms          rms(c)
DAV:   1    -0.189016523185E+03    0.11787E-08   -0.15120E-10   198   0.586E-07    0.163E-07
RMM:   2    -0.189016523186E+03   -0.92041E-09    0.20850-262     1   0.435E-07
  28 F= -.18901652E+03 E0= -.18898003E+03  d E =-.189175E-09
quench:  g(F)=  0.000E+00 g(S)=  0.000E+00 dE (1.order)= 0.000E+00
 bond charge predicted
       N       E                     dE             d eps       ncg     rms          rms(c)
DAV:   1    -0.189016523187E+03   -0.16844E-08   -0.12242E-10   198   0.449E-07    0.120E-07
RMM:   2    -0.189016523186E+03    0.77489E-09    0.18625-262     1   0.333E-07
  29 F= -.18901652E+03 E0= -.18898003E+03  d E =0.109139E-10
quench:  g(F)=  0.000E+00 g(S)=  0.000E+00 dE (1.order)= 0.000E+00
 bond charge predicted
       N       E                     dE             d eps       ncg     rms          rms(c)
DAV:   1    -0.189016523186E+03    0.89494E-09   -0.25953E-11   198   0.351E-07    0.923E-08
RMM:   2    -0.189016523186E+03   -0.98225E-10    0.17394-262     1   0.260E-07
  30 F= -.18901652E+03 E0= -.18898003E+03  d E =0.218279E-10
quench:  g(F)=  0.000E+00 g(S)=  0.000E+00 dE (1.order)= 0.000E+00
 bond charge predicted
       N       E                     dE             d eps       ncg     rms          rms(c)
DAV:   1    -0.189016523188E+03   -0.17062E-08   -0.57422E-11   198   0.269E-07    0.694E-08
RMM:   2    -0.189016523186E+03    0.13642E-08    0.15605-262     1   0.200E-07
  31 F= -.18901652E+03 E0= -.18898003E+03  d E =-.243745E-09
quench:  g(F)=  0.000E+00 g(S)=  0.000E+00 dE (1.order)= 0.000E+00
 bond charge predicted
       N       E                     dE             d eps       ncg     rms          rms(c)
DAV:   1    -0.189016523186E+03    0.14006E-08   -0.18295E-11   198   0.211E-07    0.521E-08
RMM:   2    -0.189016523186E+03    0.28012E-09    0.14601-262     1   0.156E-07
  32 F= -.18901652E+03 E0= -.18898003E+03  d E =0.316504E-09
quench:  g(F)=  0.000E+00 g(S)=  0.000E+00 dE (1.order)= 0.000E+00
 bond charge predicted
       N       E                     dE             d eps       ncg     rms          rms(c)
DAV:   1    -0.189016523186E+03    0.39654E-09   -0.24350E-10   198   0.161E-07    0.397E-08
RMM:   2    -0.189016523186E+03   -0.18190E-09    0.13010-262     1   0.121E-07
  33 F= -.18901652E+03 E0= -.18898003E+03  d E =-.654836E-10
quench:  g(F)=  0.000E+00 g(S)=  0.000E+00 dE (1.order)= 0.000E+00
 bond charge predicted
       N       E                     dE             d eps       ncg     rms          rms(c)
DAV:   1    -0.189016523186E+03   -0.49477E-09   -0.11055E-10   198   0.127E-07    0.303E-08
RMM:   2    -0.189016523186E+03    0.59663E-09    0.12200-262     1   0.936E-08
  34 F= -.18901652E+03 E0= -.18898003E+03  d E =0.283762E-09
quench:  g(F)=  0.000E+00 g(S)=  0.000E+00 dE (1.order)= 0.000E+00
 bond charge predicted
       N       E                     dE             d eps       ncg     rms          rms(c)
DAV:   1    -0.189016523185E+03    0.12515E-08   -0.26247E-11   198   0.968E-08    0.229E-08
RMM:   2    -0.189016523186E+03   -0.96406E-09    0.10863-262     1   0.726E-08
  35 F= -.18901652E+03 E0= -.18898003E+03  d E =-.309228E-09
quench:  g(F)=  0.000E+00 g(S)=  0.000E+00 dE (1.order)= 0.000E+00
 bond charge predicted
       N       E                     dE             d eps       ncg     rms          rms(c)
DAV:   1    -0.189016523187E+03   -0.24520E-08   -0.55323E-11   198   0.764E-08    0.176E-08
RMM:   2    -0.189016523186E+03    0.15825E-08    0.10183-262     1   0.564E-08
  36 F= -.18901652E+03 E0= -.18898003E+03  d E =0.945874E-10
quench:  g(F)=  0.000E+00 g(S)=  0.000E+00 dE (1.order)= 0.000E+00
 bond charge predicted
       N       E                     dE             d eps       ncg     rms          rms(c)
DAV:   1    -0.189016523187E+03    0.52387E-09   -0.19373E-11   198   0.584E-08    0.133E-08
RMM:   2    -0.189016523186E+03    0.10514E-08    0.90920-263     1   0.438E-08
  37 F= -.18901652E+03 E0= -.18898003E+03  d E =-.727596E-11
quench:  g(F)=  0.000E+00 g(S)=  0.000E+00 dE (1.order)= 0.000E+00
 bond charge predicted
       N       E                     dE             d eps       ncg     rms          rms(c)
DAV:   1    -0.189016523186E+03    0.11423E-08   -0.13865E-10   198   0.460E-08    0.104E-08
RMM:   2    -0.189016523186E+03   -0.36380E-09    0.84481-263     1   0.340E-08
  38 F= -.18901652E+03 E0= -.18898003E+03  d E =-.272848E-09
quench:  g(F)=  0.000E+00 g(S)=  0.000E+00 dE (1.order)= 0.000E+00
 bond charge predicted
       N       E                     dE             d eps       ncg     rms          rms(c)
DAV:   1    -0.189016523186E+03    0.00000E+00   -0.14130E-10   198   0.352E-08    0.777E-09
RMM:   2    -0.189016523186E+03   -0.34561E-09    0.75331-263     1   0.263E-08
  39 F= -.18901652E+03 E0= -.18898003E+03  d E =0.181899E-10
quench:  g(F)=  0.000E+00 g(S)=  0.000E+00 dE (1.order)= 0.000E+00
 bond charge predicted
       N       E                     dE             d eps       ncg     rms          rms(c)
DAV:   1    -0.189016523186E+03   -0.46930E-09   -0.90953E-11   198   0.277E-08    0.578E-09
RMM:   2    -0.189016523186E+03    0.12733E-09    0.70352-263     1   0.206E-08
  40 F= -.18901652E+03 E0= -.18898003E+03  d E =0.363798E-11
quench:  g(F)=  0.000E+00 g(S)=  0.000E+00 dE (1.order)= 0.000E+00
 bond charge predicted
       N       E                     dE             d eps       ncg     rms          rms(c)
DAV:   1    -0.189016523185E+03    0.94951E-09   -0.13671E-10   198   0.213E-08    0.494E-09
RMM:   2    -0.189016523186E+03   -0.62573E-09    0.62797-263     1   0.160E-08
  41 F= -.18901652E+03 E0= -.18898003E+03  d E =0.196451E-09
quench:  g(F)=  0.000E+00 g(S)=  0.000E+00 dE (1.order)= 0.000E+00
 bond charge predicted
       N       E                     dE             d eps       ncg     rms          rms(c)
DAV:   1    -0.189016523186E+03   -0.10768E-08   -0.62695E-11   198   0.169E-08    0.328E-09
RMM:   2    -0.189016523186E+03    0.36744E-09    0.58377-263     1   0.123E-08
  42 F= -.18901652E+03 E0= -.18898003E+03  d E =-.836735E-10
quench:  g(F)=  0.000E+00 g(S)=  0.000E+00 dE (1.order)= 0.000E+00
 bond charge predicted
       N       E                     dE             d eps       ncg     rms          rms(c)
DAV:   1    -0.189016523187E+03   -0.20373E-09   -0.11676E-10   198   0.128E-08    0.290E-09
RMM:   2    -0.189016523186E+03    0.61846E-09    0.52468-263     1   0.976E-09
  43 F= -.18901652E+03 E0= -.18898003E+03  d E =0.472937E-10
quench:  g(F)=  0.000E+00 g(S)=  0.000E+00 dE (1.order)= 0.000E+00
 bond charge predicted
       N       E                     dE             d eps       ncg     rms          rms(c)
DAV:   1    -0.189016523185E+03    0.12769E-08   -0.11565E-10   198   0.103E-08    0.195E-09
RMM:   2    -0.189016523186E+03   -0.99681E-09    0.48983-263     1   0.742E-09
  44 F= -.18901652E+03 E0= -.18898003E+03  d E =-.338332E-09
quench:  g(F)=  0.000E+00 g(S)=  0.000E+00 dE (1.order)= 0.000E+00
 bond charge predicted
       N       E                     dE             d eps       ncg     rms          rms(c)
DAV:   1    -0.189016523187E+03   -0.16807E-08   -0.16804E-10   198   0.822E-09    0.177E-09
RMM:   2    -0.189016523186E+03    0.78580E-09    0.43594-263     1   0.605E-09
  45 F= -.18901652E+03 E0= -.18898003E+03  d E =0.101863E-09
quench:  g(F)=  0.000E+00 g(S)=  0.000E+00 dE (1.order)= 0.000E+00
 bond charge predicted
       N       E                     dE             d eps       ncg     rms          rms(c)
DAV:   1    -0.189016523185E+03    0.18299E-08   -0.17569E-10   198   0.647E-09    0.121E-09
RMM:   2    -0.189016523186E+03   -0.12042E-08    0.40517-263     1   0.453E-09
  46 F= -.18901652E+03 E0= -.18898003E+03  d E =-.160071E-09
quench:  g(F)=  0.000E+00 g(S)=  0.000E+00 dE (1.order)= 0.000E+00
 bond charge predicted
       N       E                     dE             d eps       ncg     rms          rms(c)
DAV:   1    -0.189016523187E+03   -0.19536E-08   -0.17031E-10   198   0.467E-09    0.911E-10
RMM:   2    -0.189016523186E+03    0.10514E-08    0.36623-263     1   0.362E-09
  47 F= -.18901652E+03 E0= -.18898003E+03  d E =0.301952E-09
quench:  g(F)=  0.000E+00 g(S)=  0.000E+00 dE (1.order)= 0.000E+00
 bond charge predicted
       N       E                     dE             d eps       ncg     rms          rms(c)
DAV:   1    -0.189016523186E+03    0.94224E-09   -0.22902E-10   198   0.382E-09    0.893E-10
RMM:   2    -0.189016523186E+03   -0.14552E-09    0.34005-263     1   0.282E-09
  48 F= -.18901652E+03 E0= -.18898003E+03  d E =-.254659E-09
quench:  g(F)=  0.000E+00 g(S)=  0.000E+00 dE (1.order)= 0.000E+00
 bond charge predicted
       N       E                     dE             d eps       ncg     rms          rms(c)
DAV:   1    -0.189016523186E+03    0.33106E-09   -0.20256E-10   198   0.291E-09    0.619E-10
RMM:   2    -0.189016523186E+03   -0.50568E-09    0.30568-263     1   0.221E-09
  49 F= -.18901652E+03 E0= -.18898003E+03  d E =-.291038E-10
quench:  g(F)=  0.000E+00 g(S)=  0.000E+00 dE (1.order)= 0.000E+00
 bond charge predicted
       N       E                     dE             d eps       ncg     rms          rms(c)
DAV:   1    -0.189016523186E+03    0.16735E-09   -0.20812E-10   198   0.230E-09    0.559E-10
RMM:   2    -0.189016523186E+03   -0.45475E-09    0.28374-263     1   0.174E-09
  50 F= -.18901652E+03 E0= -.18898003E+03  d E =0.218279E-09
quench:  g(F)=  0.000E+00 g(S)=  0.000E+00 dE (1.order)= 0.000E+00
 bond charge predicted
       N       E                     dE             d eps       ncg     rms          rms(c)
DAV:   1    -0.189016523186E+03   -0.49840E-09   -0.26545E-10   198   0.188E-09    0.581E-10
RMM:   2    -0.189016523186E+03   -0.72760E-10    0.25085-263     1   0.136E-09
  51 F= -.18901652E+03 E0= -.18898003E+03  d E =-.116415E-09
quench:  g(F)=  0.000E+00 g(S)=  0.000E+00 dE (1.order)= 0.000E+00
 bond charge predicted
       N       E                     dE             d eps       ncg     rms          rms(c)
DAV:   1    -0.189016523186E+03    0.62937E-09   -0.26008E-10   198   0.152E-09    0.431E-10
RMM:   2    -0.189016523186E+03   -0.66939E-09    0.23789-263     1   0.117E-09
  52 F= -.18901652E+03 E0= -.18898003E+03  d E =0.327418E-10
quench:  g(F)=  0.000E+00 g(S)=  0.000E+00 dE (1.order)= 0.000E+00
 bond charge predicted
       N       E                     dE             d eps       ncg     rms          rms(c)
DAV:   1    -0.189016523186E+03   -0.81491E-09   -0.30230E-10   198   0.129E-09    0.654E-10
RMM:   2    -0.189016523186E+03    0.31287E-09    0.21254-263     1   0.969E-10
  53 F= -.18901652E+03 E0= -.18898003E+03  d E =0.167347E-09
quench:  g(F)=  0.000E+00 g(S)=  0.000E+00 dE (1.order)= 0.000E+00
 bond charge predicted
       N       E                     dE             d eps       ncg     rms          rms(c)
DAV:   1    -0.189016523187E+03   -0.90949E-09   -0.17917E-10   198   0.107E-09    0.459E-10
RMM:   2    -0.189016523186E+03    0.10077E-08    0.19786-263     1   0.710E-10
  54 F= -.18901652E+03 E0= -.18898003E+03  d E =-.214641E-09
quench:  g(F)=  0.000E+00 g(S)=  0.000E+00 dE (1.order)= 0.000E+00
 bond charge predicted
       N       E                     dE             d eps       ncg     rms          rms(c)
DAV:   1    -0.189016523186E+03    0.86948E-09   -0.23679E-10   198   0.735E-10    0.421E-10
RMM:   2    -0.189016523186E+03    0.10914E-10    0.17704-263     1   0.834E-10
  55 F= -.18901652E+03 E0= -.18898003E+03  d E =-.127329E-09
quench:  g(F)=  0.000E+00 g(S)=  0.000E+00 dE (1.order)= 0.000E+00
 bond charge predicted
       N       E                     dE             d eps       ncg     rms          rms(c)
DAV:   1    -0.189016523187E+03   -0.51296E-09   -0.17092E-10   198   0.717E-10    0.458E-10
RMM:   2    -0.189016523186E+03    0.50568E-09    0.16683-263     1   0.521E-10
  56 F= -.18901652E+03 E0= -.18898003E+03  d E =-.181899E-10
quench:  g(F)=  0.000E+00 g(S)=  0.000E+00 dE (1.order)= 0.000E+00
 bond charge predicted
       N       E                     dE             d eps       ncg     rms          rms(c)
DAV:   1    -0.189016523185E+03    0.16807E-08   -0.11978E-10   198   0.623E-10    0.698E-10
RMM:   2    -0.189016523186E+03   -0.89858E-09    0.14487-263     1   0.485E-10
  57 F= -.18901652E+03 E0= -.18898003E+03  d E =0.276486E-09
quench:  g(F)=  0.000E+00 g(S)=  0.000E+00 dE (1.order)= 0.000E+00
 bond charge predicted
       N       E                     dE             d eps       ncg     rms          rms(c)
DAV:   1    -0.189016523185E+03    0.19281E-09   -0.73844E-11   198   0.656E-10    0.750E-10
RMM:   2    -0.189016523186E+03   -0.91677E-09    0.13478-263     1   0.431E-10
  58 F= -.18901652E+03 E0= -.18898003E+03  d E =0.174623E-09
quench:  g(F)=  0.000E+00 g(S)=  0.000E+00 dE (1.order)= 0.000E+00
 bond charge predicted
       N       E                     dE             d eps       ncg     rms          rms(c)
DAV:   1    -0.189016523188E+03   -0.24665E-08   -0.28147E-10   198   0.553E-10    0.480E-10
RMM:   2    -0.189016523186E+03    0.11496E-08    0.00000E+00     0   0.433E-10
  59 F= -.18901652E+03 E0= -.18898003E+03  d E =-.400178E-09
quench:  g(F)=  0.000E+00 g(S)=  0.000E+00 dE (1.order)= 0.000E+00
 bond charge predicted
       N       E                     dE             d eps       ncg     rms          rms(c)
DAV:   1    -0.189016523187E+03    0.12369E-09   -0.38391E-10   198   0.404E-10    0.745E-10
RMM:   2    -0.189016523186E+03    0.11059E-08    0.00000E+00     0   0.421E-10
  60 F= -.18901652E+03 E0= -.18898003E+03  d E =0.800355E-10
quench:  g(F)=  0.000E+00 g(S)=  0.000E+00 dE (1.order)= 0.000E+00
 bond charge predicted
       N       E                     dE             d eps       ncg     rms          rms(c)
DAV:   1    -0.189016523186E+03    0.12769E-08   -0.18293E-10   198   0.561E-10    0.696E-10
RMM:   2    -0.189016523186E+03    0.40018E-10    0.00000E+00     0   0.397E-10
  61 F= -.18901652E+03 E0= -.18898003E+03  d E =0.211003E-09
quench:  g(F)=  0.000E+00 g(S)=  0.000E+00 dE (1.order)= 0.000E+00
 bond charge predicted
       N       E                     dE             d eps       ncg     rms          rms(c)
DAV:   1    -0.189016523186E+03   -0.26193E-09   -0.20200E-10   198   0.452E-10    0.579E-10
RMM:   2    -0.189016523186E+03    0.40018E-10    0.00000E+00     0   0.286E-10
  62 F= -.18901652E+03 E0= -.18898003E+03  d E =-.261934E-09
quench:  g(F)=  0.000E+00 g(S)=  0.000E+00 dE (1.order)= 0.000E+00
 bond charge predicted
       N       E                     dE             d eps       ncg     rms          rms(c)
DAV:   1    -0.189016523186E+03    0.35288E-09   -0.23008E-10   198   0.373E-10    0.436E-10
RMM:   2    -0.189016523186E+03   -0.32742E-09    0.00000E+00     0   0.266E-10
  63 F= -.18901652E+03 E0= -.18898003E+03  d E =-.145519E-10
quench:  g(F)=  0.000E+00 g(S)=  0.000E+00 dE (1.order)= 0.000E+00
 bond charge predicted
       N       E                     dE             d eps       ncg     rms          rms(c)
DAV:   1    -0.189016523188E+03   -0.16335E-08   -0.30314E-10   198   0.333E-10    0.695E-10
RMM:   2    -0.189016523186E+03    0.14479E-08    0.00000E+00     0   0.313E-10
  64 F= -.18901652E+03 E0= -.18898003E+03  d E =0.141881E-09
quench:  g(F)=  0.000E+00 g(S)=  0.000E+00 dE (1.order)= 0.000E+00
 bond charge predicted
       N       E                     dE             d eps       ncg     rms          rms(c)
DAV:   1    -0.189016523187E+03    0.10150E-08   -0.27749E-10   198   0.465E-10    0.973E-10
RMM:   2    -0.189016523186E+03    0.50932E-09    0.00000E+00     0   0.436E-10
  65 F= -.18901652E+03 E0= -.18898003E+03  d E =0.763976E-10
quench:  g(F)=  0.000E+00 g(S)=  0.000E+00 dE (1.order)= 0.000E+00
 bond charge predicted
       N       E                     dE             d eps       ncg     rms          rms(c)
DAV:   1    -0.189016523186E+03    0.43292E-09   -0.90498E-11   198   0.674E-10    0.712E-10
RMM:   2    -0.189016523186E+03    0.50932E-10    0.00000E+00     0   0.360E-10
  66 F= -.18901652E+03 E0= -.18898003E+03  d E =-.254659E-10
quench:  g(F)=  0.000E+00 g(S)=  0.000E+00 dE (1.order)= 0.000E+00
 bond charge predicted
       N       E                     dE             d eps       ncg     rms          rms(c)
DAV:   1    -0.189016523187E+03   -0.31287E-09   -0.11268E-10   198   0.381E-10    0.557E-10
RMM:   2    -0.189016523186E+03    0.52387E-09    0.00000E+00     0   0.312E-10
  67 F= -.18901652E+03 E0= -.18898003E+03  d E =0.160071E-09
quench:  g(F)=  0.000E+00 g(S)=  0.000E+00 dE (1.order)= 0.000E+00
 bond charge predicted
       N       E                     dE             d eps       ncg     rms          rms(c)
DAV:   1    -0.189016523186E+03    0.41473E-09   -0.16142E-10   198   0.314E-10    0.512E-10
RMM:   2    -0.189016523186E+03    0.80036E-10    0.00000E+00     0   0.265E-10
  68 F= -.18901652E+03 E0= -.18898003E+03  d E =-.291038E-10
quench:  g(F)=  0.000E+00 g(S)=  0.000E+00 dE (1.order)= 0.000E+00
 bond charge predicted
       N       E                     dE             d eps       ncg     rms          rms(c)
DAV:   1    -0.189016523187E+03   -0.55661E-09   -0.22799E-10   198   0.344E-10    0.944E-10
RMM:   2    -0.189016523186E+03    0.37471E-09    0.00000E+00     0   0.270E-10
  69 F= -.18901652E+03 E0= -.18898003E+03  d E =-.261934E-09
quench:  g(F)=  0.000E+00 g(S)=  0.000E+00 dE (1.order)= 0.000E+00
 bond charge predicted
       N       E                     dE             d eps       ncg     rms          rms(c)
DAV:   1    -0.189016523187E+03   -0.11278E-09   -0.36925E-10   198   0.423E-10    0.423E-10
RMM:   2    -0.189016523186E+03    0.58208E-09    0.00000E+00     0   0.272E-10
  70 F= -.18901652E+03 E0= -.18898003E+03  d E =0.945874E-10
quench:  g(F)=  0.000E+00 g(S)=  0.000E+00 dE (1.order)= 0.000E+00
 bond charge predicted
       N       E                     dE             d eps       ncg     rms          rms(c)
DAV:   1    -0.189016523186E+03    0.92041E-09   -0.19182E-10   198   0.328E-10    0.370E-10
RMM:   2    -0.189016523186E+03   -0.37471E-09    0.00000E+00     0   0.219E-10
  71 F= -.18901652E+03 E0= -.18898003E+03  d E =-.363798E-10
quench:  g(F)=  0.000E+00 g(S)=  0.000E+00 dE (1.order)= 0.000E+00
 bond charge predicted
       N       E                     dE             d eps       ncg     rms          rms(c)
DAV:   1    -0.189016523186E+03   -0.87311E-10   -0.31840E-10   198   0.267E-10    0.563E-10
RMM:   2    -0.189016523186E+03   -0.16007E-09    0.00000E+00     0   0.263E-10
  72 F= -.18901652E+03 E0= -.18898003E+03  d E =0.127329E-09
quench:  g(F)=  0.000E+00 g(S)=  0.000E+00 dE (1.order)= 0.000E+00
 bond charge predicted
       N       E                     dE             d eps       ncg     rms          rms(c)
DAV:   1    -0.189016523187E+03   -0.60754E-09   -0.31893E-10   198   0.310E-10    0.331E-10
RMM:   2    -0.189016523186E+03    0.47658E-09    0.00000E+00     0   0.264E-10
  73 F= -.18901652E+03 E0= -.18898003E+03  d E =0.291038E-10
quench:  g(F)=  0.000E+00 g(S)=  0.000E+00 dE (1.order)= 0.000E+00
 bond charge predicted
       N       E                     dE             d eps       ncg     rms          rms(c)
DAV:   1    -0.189016523186E+03    0.70577E-09   -0.22218E-10   198   0.226E-10    0.741E-10
RMM:   2    -0.189016523186E+03   -0.24374E-09    0.00000E+00     0   0.276E-10
  74 F= -.18901652E+03 E0= -.18898003E+03  d E =-.145519E-10
quench:  g(F)=  0.000E+00 g(S)=  0.000E+00 dE (1.order)= 0.000E+00
 bond charge predicted
       N       E                     dE             d eps       ncg     rms          rms(c)
DAV:   1    -0.189016523186E+03   -0.45475E-09   -0.23788E-10   198   0.480E-10    0.536E-10
RMM:   2    -0.189016523186E+03    0.17826E-09    0.00000E+00     0   0.289E-10
  75 F= -.18901652E+03 E0= -.18898003E+03  d E =-.327418E-10
quench:  g(F)=  0.000E+00 g(S)=  0.000E+00 dE (1.order)= 0.000E+00
 bond charge predicted
       N       E                     dE             d eps       ncg     rms          rms(c)
DAV:   1    -0.189016523187E+03   -0.33833E-09   -0.14810E-10   198   0.404E-10    0.440E-10
RMM:   2    -0.189016523186E+03    0.23647E-09    0.00000E+00     0   0.218E-10
  76 F= -.18901652E+03 E0= -.18898003E+03  d E =-.280124E-09
quench:  g(F)=  0.000E+00 g(S)=  0.000E+00 dE (1.order)= 0.000E+00
 bond charge predicted
       N       E                     dE             d eps       ncg     rms          rms(c)
DAV:   1    -0.189016523186E+03    0.24011E-09   -0.24580E-10   198   0.309E-10    0.544E-10
RMM:   2    -0.189016523186E+03    0.28740E-09    0.00000E+00     0   0.257E-10
  77 F= -.18901652E+03 E0= -.18898003E+03  d E =0.291038E-09
quench:  g(F)=  0.000E+00 g(S)=  0.000E+00 dE (1.order)= 0.000E+00
 bond charge predicted
       N       E                     dE             d eps       ncg     rms          rms(c)
DAV:   1    -0.189016523186E+03   -0.25466E-10   -0.22416E-10   198   0.317E-10    0.555E-10
RMM:   2    -0.189016523186E+03    0.41837E-09    0.00000E+00     0   0.371E-10
  78 F= -.18901652E+03 E0= -.18898003E+03  d E =0.105501E-09
quench:  g(F)=  0.000E+00 g(S)=  0.000E+00 dE (1.order)= 0.000E+00
 bond charge predicted
       N       E                     dE             d eps       ncg     rms          rms(c)
DAV:   1    -0.189016523186E+03    0.40018E-09   -0.31648E-10   198   0.271E-10    0.399E-10
RMM:   2    -0.189016523186E+03   -0.76398E-10    0.00000E+00     0   0.202E-10
  79 F= -.18901652E+03 E0= -.18898003E+03  d E =-.945874E-10
quench:  g(F)=  0.000E+00 g(S)=  0.000E+00 dE (1.order)= 0.000E+00
 bond charge predicted
       N       E                     dE             d eps       ncg     rms          rms(c)
DAV:   1    -0.189016523186E+03   -0.16735E-09   -0.24534E-10   198   0.256E-10    0.310E-10
RMM:   2    -0.189016523186E+03   -0.10186E-09    0.00000E+00     0   0.328E-10
  80 F= -.18901652E+03 E0= -.18898003E+03  d E =-.192813E-09
quench:  g(F)=  0.000E+00 g(S)=  0.000E+00 dE (1.order)= 0.000E+00
 bond charge predicted
       N       E                     dE             d eps       ncg     rms          rms(c)
DAV:   1    -0.189016523187E+03   -0.47294E-09   -0.15286E-10   198   0.393E-10    0.393E-10
RMM:   2    -0.189016523186E+03    0.46930E-09    0.00000E+00     0   0.347E-10
  81 F= -.18901652E+03 E0= -.18898003E+03  d E =0.982254E-10
quench:  g(F)=  0.000E+00 g(S)=  0.000E+00 dE (1.order)= 0.000E+00
 bond charge predicted
       N       E                     dE             d eps       ncg     rms          rms(c)
DAV:   1    -0.189016523187E+03    0.54570E-10   -0.14289E-10   198   0.278E-10    0.551E-10
RMM:   2    -0.189016523186E+03    0.15280E-09    0.00000E+00     0   0.264E-10
  82 F= -.18901652E+03 E0= -.18898003E+03  d E =-.261934E-09
quench:  g(F)=  0.000E+00 g(S)=  0.000E+00 dE (1.order)= 0.000E+00
 bond charge predicted
       N       E                     dE             d eps       ncg     rms          rms(c)
DAV:   1    -0.189016523186E+03    0.40018E-09   -0.12978E-10   198   0.310E-10    0.515E-10
RMM:   2    -0.189016523186E+03    0.17099E-09    0.00000E+00     0   0.244E-10
  83 F= -.18901652E+03 E0= -.18898003E+03  d E =0.418368E-09
quench:  g(F)=  0.000E+00 g(S)=  0.000E+00 dE (1.order)= 0.000E+00
 bond charge predicted
       N       E                     dE             d eps       ncg     rms          rms(c)
DAV:   1    -0.189016523186E+03   -0.11642E-09   -0.19869E-10   198   0.356E-10    0.572E-10
RMM:   2    -0.189016523186E+03    0.30195E-09    0.00000E+00     0   0.374E-10
  84 F= -.18901652E+03 E0= -.18898003E+03  d E =0.145519E-10
quench:  g(F)=  0.000E+00 g(S)=  0.000E+00 dE (1.order)= 0.000E+00
 bond charge predicted
       N       E                     dE             d eps       ncg     rms          rms(c)
DAV:   1    -0.189016523186E+03    0.75306E-09   -0.39513E-10   198   0.312E-10    0.459E-10
RMM:   2    -0.189016523186E+03   -0.67666E-09    0.00000E+00     0   0.215E-10
  85 F= -.18901652E+03 E0= -.18898003E+03  d E =-.225555E-09
quench:  g(F)=  0.000E+00 g(S)=  0.000E+00 dE (1.order)= 0.000E+00
 bond charge predicted
       N       E                     dE             d eps       ncg     rms          rms(c)
DAV:   1    -0.189016523186E+03   -0.72396E-09   -0.25858E-10   198   0.338E-10    0.522E-10
RMM:   2    -0.189016523186E+03    0.30195E-09    0.00000E+00     0   0.222E-10
  86 F= -.18901652E+03 E0= -.18898003E+03  d E =0.254659E-09
quench:  g(F)=  0.000E+00 g(S)=  0.000E+00 dE (1.order)= 0.000E+00
 bond charge predicted
       N       E                     dE             d eps       ncg     rms          rms(c)
DAV:   1    -0.189016523187E+03   -0.40018E-09   -0.21804E-10   198   0.267E-10    0.491E-10
RMM:   2    -0.189016523186E+03    0.72396E-09    0.00000E+00     0   0.226E-10
  87 F= -.18901652E+03 E0= -.18898003E+03  d E =0.218279E-10
quench:  g(F)=  0.000E+00 g(S)=  0.000E+00 dE (1.order)= 0.000E+00
 bond charge predicted
       N       E                     dE             d eps       ncg     rms          rms(c)
DAV:   1    -0.189016523187E+03    0.36380E-11   -0.28298E-10   198   0.266E-10    0.380E-10
RMM:   2    -0.189016523186E+03    0.48021E-09    0.00000E+00     0   0.184E-10
  88 F= -.18901652E+03 E0= -.18898003E+03  d E =-.240107E-09
quench:  g(F)=  0.000E+00 g(S)=  0.000E+00 dE (1.order)= 0.000E+00
 bond charge predicted
       N       E                     dE             d eps       ncg     rms          rms(c)
DAV:   1    -0.189016523187E+03    0.58208E-10   -0.23602E-10   198   0.255E-10    0.352E-10
RMM:   2    -0.189016523186E+03    0.49113E-09    0.00000E+00     0   0.201E-10
  89 F= -.18901652E+03 E0= -.18898003E+03  d E =0.691216E-10
quench:  g(F)=  0.000E+00 g(S)=  0.000E+00 dE (1.order)= 0.000E+00
 bond charge predicted
       N       E                     dE             d eps       ncg     rms          rms(c)
DAV:   1    -0.189016523186E+03    0.10441E-08   -0.27263E-10   198   0.245E-10    0.407E-10
RMM:   2    -0.189016523186E+03   -0.52023E-09    0.00000E+00     0   0.205E-10
  90 F= -.18901652E+03 E0= -.18898003E+03  d E =0.327418E-10
quench:  g(F)=  0.000E+00 g(S)=  0.000E+00 dE (1.order)= 0.000E+00
 bond charge predicted
       N       E                     dE             d eps       ncg     rms          rms(c)
DAV:   1    -0.189016523186E+03   -0.56752E-09   -0.97075E-11   198   0.238E-10    0.484E-10
RMM:   2    -0.189016523186E+03   -0.90949E-10    0.00000E+00     0   0.243E-10
  91 F= -.18901652E+03 E0= -.18898003E+03  d E =-.138243E-09
quench:  g(F)=  0.000E+00 g(S)=  0.000E+00 dE (1.order)= 0.000E+00
 bond charge predicted
       N       E                     dE             d eps       ncg     rms          rms(c)
DAV:   1    -0.189016523186E+03    0.22555E-09   -0.16971E-10   198   0.349E-10    0.474E-10
RMM:   2    -0.189016523186E+03   -0.44383E-09    0.00000E+00     0   0.257E-10
  92 F= -.18901652E+03 E0= -.18898003E+03  d E =-.127329E-09
quench:  g(F)=  0.000E+00 g(S)=  0.000E+00 dE (1.order)= 0.000E+00
 bond charge predicted
       N       E                     dE             d eps       ncg     rms          rms(c)
DAV:   1    -0.189016523185E+03    0.55661E-09   -0.20201E-10   198   0.395E-10    0.707E-10
RMM:   2    -0.189016523186E+03   -0.99317E-09    0.00000E+00     0   0.385E-10
  93 F= -.18901652E+03 E0= -.18898003E+03  d E =0.727596E-11
quench:  g(F)=  0.000E+00 g(S)=  0.000E+00 dE (1.order)= 0.000E+00
 bond charge predicted
       N       E                     dE             d eps       ncg     rms          rms(c)
DAV:   1    -0.189016523186E+03   -0.86220E-09   -0.22479E-10   198   0.405E-10    0.576E-10
RMM:   2    -0.189016523186E+03   -0.17826E-09    0.00000E+00     0   0.284E-10
  94 F= -.18901652E+03 E0= -.18898003E+03  d E =-.472937E-10
quench:  g(F)=  0.000E+00 g(S)=  0.000E+00 dE (1.order)= 0.000E+00
 bond charge predicted
       N       E                     dE             d eps       ncg     rms          rms(c)
DAV:   1    -0.189016523187E+03   -0.68394E-09   -0.12226E-10   198   0.338E-10    0.421E-10
RMM:   2    -0.189016523186E+03    0.81855E-09    0.00000E+00     0   0.225E-10
  95 F= -.18901652E+03 E0= -.18898003E+03  d E =0.312866E-09
quench:  g(F)=  0.000E+00 g(S)=  0.000E+00 dE (1.order)= 0.000E+00
 bond charge predicted
       N       E                     dE             d eps       ncg     rms          rms(c)
DAV:   1    -0.189016523187E+03   -0.22919E-09   -0.27488E-10   198   0.266E-10    0.544E-10
RMM:   2    -0.189016523186E+03    0.78944E-09    0.00000E+00     0   0.221E-10
  96 F= -.18901652E+03 E0= -.18898003E+03  d E =-.258296E-09
quench:  g(F)=  0.000E+00 g(S)=  0.000E+00 dE (1.order)= 0.000E+00
 bond charge predicted
       N       E                     dE             d eps       ncg     rms          rms(c)
DAV:   1    -0.189016523186E+03    0.13388E-08   -0.29909E-10   198   0.243E-10    0.597E-10
RMM:   2    -0.189016523186E+03   -0.21828E-09    0.00000E+00     0   0.221E-10
  97 F= -.18901652E+03 E0= -.18898003E+03  d E =0.331056E-09
quench:  g(F)=  0.000E+00 g(S)=  0.000E+00 dE (1.order)= 0.000E+00
 bond charge predicted
       N       E                     dE             d eps       ncg     rms          rms(c)
DAV:   1    -0.189016523187E+03   -0.12078E-08   -0.18305E-10   198   0.463E-10    0.738E-10
RMM:   2    -0.189016523186E+03    0.82946E-09    0.00000E+00     0   0.445E-10
  98 F= -.18901652E+03 E0= -.18898003E+03  d E =-.160071E-09
quench:  g(F)=  0.000E+00 g(S)=  0.000E+00 dE (1.order)= 0.000E+00
 bond charge predicted
       N       E                     dE             d eps       ncg     rms          rms(c)
DAV:   1    -0.189016523186E+03    0.88403E-09   -0.23615E-10   198   0.562E-10    0.510E-10
RMM:   2    -0.189016523186E+03   -0.12733E-09    0.00000E+00     0   0.263E-10
  99 F= -.18901652E+03 E0= -.18898003E+03  d E =-.727596E-10
quench:  g(F)=  0.000E+00 g(S)=  0.000E+00 dE (1.order)= 0.000E+00
 bond charge predicted
       N       E                     dE             d eps       ncg     rms          rms(c)
DAV:   1    -0.189016523187E+03   -0.78217E-09   -0.24444E-10   198   0.332E-10    0.571E-10
RMM:   2    -0.189016523186E+03    0.87311E-09    0.00000E+00     0   0.198E-10
 100 F= -.18901652E+03 E0= -.18898003E+03  d E =0.218279E-09
quench:  g(F)=  0.000E+00 g(S)=  0.000E+00 dE (1.order)= 0.000E+00
 bond charge predicted
       N       E                     dE             d eps       ncg     rms          rms(c)
DAV:   1    -0.189016523185E+03    0.18335E-08   -0.19652E-10   198   0.331E-10    0.718E-10
RMM:   2    -0.189016523186E+03   -0.13169E-08    0.00000E+00     0   0.490E-10
 101 F= -.18901652E+03 E0= -.18898003E+03  d E =-.356522E-09
quench:  g(F)=  0.000E+00 g(S)=  0.000E+00 dE (1.order)= 0.000E+00
 bond charge predicted
       N       E                     dE             d eps       ncg     rms          rms(c)
DAV:   1    -0.189016523186E+03   -0.96043E-09   -0.13408E-10   198   0.589E-10    0.489E-10
RMM:   2    -0.189016523186E+03   -0.17462E-09    0.00000E+00     0   0.271E-10
 102 F= -.18901652E+03 E0= -.18898003E+03  d E =0.181899E-09
quench:  g(F)=  0.000E+00 g(S)=  0.000E+00 dE (1.order)= 0.000E+00
 bond charge predicted
       N       E                     dE             d eps       ncg     rms          rms(c)
DAV:   1    -0.189016523187E+03   -0.70941E-09   -0.35927E-10   198   0.295E-10    0.619E-10
RMM:   2    -0.189016523186E+03    0.40745E-09    0.00000E+00     0   0.336E-10
 103 F= -.18901652E+03 E0= -.18898003E+03  d E =-.127329E-09
quench:  g(F)=  0.000E+00 g(S)=  0.000E+00 dE (1.order)= 0.000E+00
 bond charge predicted
       N       E                     dE             d eps       ncg     rms          rms(c)
DAV:   1    -0.189016523185E+03    0.14588E-08   -0.15088E-10   198   0.402E-10    0.475E-10
RMM:   2    -0.189016523186E+03   -0.78944E-09    0.00000E+00     0   0.272E-10
 104 F= -.18901652E+03 E0= -.18898003E+03  d E =0.261934E-09
quench:  g(F)=  0.000E+00 g(S)=  0.000E+00 dE (1.order)= 0.000E+00
 bond charge predicted
       N       E                     dE             d eps       ncg     rms          rms(c)
DAV:   1    -0.189016523186E+03   -0.62209E-09   -0.31788E-10   198   0.300E-10    0.431E-10
RMM:   2    -0.189016523186E+03   -0.27649E-09    0.00000E+00     0   0.218E-10
 105 F= -.18901652E+03 E0= -.18898003E+03  d E =-.109139E-09
quench:  g(F)=  0.000E+00 g(S)=  0.000E+00 dE (1.order)= 0.000E+00
 bond charge predicted
       N       E                     dE             d eps       ncg     rms          rms(c)
DAV:   1    -0.189016523187E+03   -0.11169E-08   -0.29148E-10   198   0.255E-10    0.505E-10
RMM:   2    -0.189016523186E+03    0.61118E-09    0.00000E+00     0   0.206E-10
 106 F= -.18901652E+03 E0= -.18898003E+03  d E =-.229193E-09
quench:  g(F)=  0.000E+00 g(S)=  0.000E+00 dE (1.order)= 0.000E+00
 bond charge predicted
       N       E                     dE             d eps       ncg     rms          rms(c)
DAV:   1    -0.189016523187E+03    0.50204E-09   -0.27311E-10   198   0.327E-10    0.505E-10
RMM:   2    -0.189016523186E+03    0.36744E-09    0.00000E+00     0   0.259E-10
 107 F= -.18901652E+03 E0= -.18898003E+03  d E =0.258296E-09
quench:  g(F)=  0.000E+00 g(S)=  0.000E+00 dE (1.order)= 0.000E+00
 bond charge predicted
       N       E                     dE             d eps       ncg     rms          rms(c)
DAV:   1    -0.189016523187E+03   -0.41109E-09   -0.26056E-10   198   0.334E-10    0.613E-10
RMM:   2    -0.189016523186E+03    0.63301E-09    0.00000E+00     0   0.280E-10
 108 F= -.18901652E+03 E0= -.18898003E+03  d E =-.145519E-09
quench:  g(F)=  0.000E+00 g(S)=  0.000E+00 dE (1.order)= 0.000E+00
 bond charge predicted
       N       E                     dE             d eps       ncg     rms          rms(c)
DAV:   1    -0.189016523186E+03    0.10223E-08   -0.21402E-10   198   0.382E-10    0.716E-10
RMM:   2    -0.189016523186E+03   -0.39290E-09    0.00000E+00     0   0.241E-10
 109 F= -.18901652E+03 E0= -.18898003E+03  d E =-.363798E-11
quench:  g(F)=  0.000E+00 g(S)=  0.000E+00 dE (1.order)= 0.000E+00
 bond charge predicted
       N       E                     dE             d eps       ncg     rms          rms(c)
DAV:   1    -0.189016523187E+03   -0.15170E-08   -0.18158E-10   198   0.422E-10    0.413E-10
RMM:   2    -0.189016523186E+03    0.12114E-08    0.00000E+00     0   0.304E-10
 110 F= -.18901652E+03 E0= -.18898003E+03  d E =0.873115E-10
quench:  g(F)=  0.000E+00 g(S)=  0.000E+00 dE (1.order)= 0.000E+00
 bond charge predicted
       N       E                     dE             d eps       ncg     rms          rms(c)
DAV:   1    -0.189016523186E+03    0.11933E-08   -0.15695E-10   198   0.264E-10    0.396E-10
RMM:   2    -0.189016523186E+03    0.23647E-09    0.00000E+00     0   0.438E-10
 111 F= -.18901652E+03 E0= -.18898003E+03  d E =0.218279E-09
quench:  g(F)=  0.000E+00 g(S)=  0.000E+00 dE (1.order)= 0.000E+00
 bond charge predicted
       N       E                     dE             d eps       ncg     rms          rms(c)
DAV:   1    -0.189016523187E+03   -0.51659E-09   -0.22916E-10   198   0.420E-10    0.772E-10
RMM:   2    -0.189016523186E+03    0.65484E-09    0.00000E+00     0   0.344E-10
 112 F= -.18901652E+03 E0= -.18898003E+03  d E =-.982254E-10
quench:  g(F)=  0.000E+00 g(S)=  0.000E+00 dE (1.order)= 0.000E+00
 bond charge predicted
       N       E                     dE             d eps       ncg     rms          rms(c)
DAV:   1    -0.189016523185E+03    0.15571E-08   -0.22236E-10   198   0.529E-10    0.423E-10
RMM:   2    -0.189016523186E+03   -0.96406E-09    0.00000E+00     0   0.332E-10
 113 F= -.18901652E+03 E0= -.18898003E+03  d E =-.618456E-10
quench:  g(F)=  0.000E+00 g(S)=  0.000E+00 dE (1.order)= 0.000E+00
 bond charge predicted
       N       E                     dE             d eps       ncg     rms          rms(c)
DAV:   1    -0.189016523187E+03   -0.15898E-08   -0.24605E-10   198   0.426E-10    0.429E-10
RMM:   2    -0.189016523186E+03    0.69849E-09    0.00000E+00     0   0.459E-10
 114 F= -.18901652E+03 E0= -.18898003E+03  d E =0.727596E-10
quench:  g(F)=  0.000E+00 g(S)=  0.000E+00 dE (1.order)= 0.000E+00
 bond charge predicted
       N       E                     dE             d eps       ncg     rms          rms(c)
DAV:   1    -0.189016523186E+03    0.82582E-09   -0.21303E-10   198   0.382E-10    0.656E-10
RMM:   2    -0.189016523186E+03   -0.14916E-09    0.00000E+00     0   0.314E-10
 115 F= -.18901652E+03 E0= -.18898003E+03  d E =-.218279E-10
quench:  g(F)=  0.000E+00 g(S)=  0.000E+00 dE (1.order)= 0.000E+00
 bond charge predicted
       N       E                     dE             d eps       ncg     rms          rms(c)
DAV:   1    -0.189016523187E+03   -0.62573E-09   -0.22475E-10   198   0.426E-10    0.486E-10
RMM:   2    -0.189016523186E+03    0.31650E-09    0.00000E+00     0   0.195E-10
 116 F= -.18901652E+03 E0= -.18898003E+03  d E =-.160071E-09
quench:  g(F)=  0.000E+00 g(S)=  0.000E+00 dE (1.order)= 0.000E+00
 bond charge predicted
       N       E                     dE             d eps       ncg     rms          rms(c)
DAV:   1    -0.189016523185E+03    0.17935E-08   -0.12138E-10   198   0.272E-10    0.651E-10
RMM:   2    -0.189016523186E+03   -0.15280E-08    0.00000E+00     0   0.292E-10
 117 F= -.18901652E+03 E0= -.18898003E+03  d E =-.509317E-10
quench:  g(F)=  0.000E+00 g(S)=  0.000E+00 dE (1.order)= 0.000E+00
 bond charge predicted
       N       E                     dE             d eps       ncg     rms          rms(c)
DAV:   1    -0.189016523187E+03   -0.22810E-08   -0.33720E-10   198   0.310E-10    0.492E-10
RMM:   2    -0.189016523186E+03    0.86220E-09    0.00000E+00     0   0.328E-10
 118 F= -.18901652E+03 E0= -.18898003E+03  d E =0.109139E-09
quench:  g(F)=  0.000E+00 g(S)=  0.000E+00 dE (1.order)= 0.000E+00
 bond charge predicted
       N       E                     dE             d eps       ncg     rms          rms(c)
DAV:   1    -0.189016523186E+03    0.13679E-08   -0.12831E-10   198   0.237E-10    0.480E-10
RMM:   2    -0.189016523186E+03   -0.29104E-09    0.00000E+00     0   0.234E-10
 119 F= -.18901652E+03 E0= -.18898003E+03  d E =0.214641E-09
quench:  g(F)=  0.000E+00 g(S)=  0.000E+00 dE (1.order)= 0.000E+00
 bond charge predicted
       N       E                     dE             d eps       ncg     rms          rms(c)
DAV:   1    -0.189016523186E+03   -0.70577E-09   -0.27316E-10   198   0.315E-10    0.407E-10
RMM:   2    -0.189016523186E+03    0.33469E-09    0.00000E+00     0   0.275E-10
 120 F= -.18901652E+03 E0= -.18898003E+03  d E =-.800355E-10
quench:  g(F)=  0.000E+00 g(S)=  0.000E+00 dE (1.order)= 0.000E+00
 bond charge predicted
       N       E                     dE             d eps       ncg     rms          rms(c)
DAV:   1    -0.189016523187E+03   -0.74215E-09   -0.22380E-10   198   0.222E-10    0.685E-10
RMM:   2    -0.189016523186E+03    0.88767E-09    0.00000E+00     0   0.307E-10
 121 F= -.18901652E+03 E0= -.18898003E+03  d E =-.189175E-09
quench:  g(F)=  0.000E+00 g(S)=  0.000E+00 dE (1.order)= 0.000E+00
 bond charge predicted
       N       E                     dE             d eps       ncg     rms          rms(c)
DAV:   1    -0.189016523187E+03    0.13461E-09   -0.16594E-10   198   0.476E-10    0.435E-10
RMM:   2    -0.189016523186E+03    0.96043E-09    0.00000E+00     0   0.338E-10
 122 F= -.18901652E+03 E0= -.18898003E+03  d E =0.207365E-09
quench:  g(F)=  0.000E+00 g(S)=  0.000E+00 dE (1.order)= 0.000E+00
 bond charge predicted
       N       E                     dE             d eps       ncg     rms          rms(c)
DAV:   1    -0.189016523186E+03    0.10732E-08   -0.22344E-10   198   0.296E-10    0.628E-10
RMM:   2    -0.189016523186E+03   -0.32742E-09    0.00000E+00     0   0.342E-10
 123 F= -.18901652E+03 E0= -.18898003E+03  d E =-.214641E-09
quench:  g(F)=  0.000E+00 g(S)=  0.000E+00 dE (1.order)= 0.000E+00
 bond charge predicted
       N       E                     dE             d eps       ncg     rms          rms(c)
DAV:   1    -0.189016523187E+03   -0.10587E-08   -0.35040E-10   198   0.310E-10    0.839E-10
RMM:   2    -0.189016523186E+03    0.10332E-08    0.00000E+00     0   0.329E-10
 124 F= -.18901652E+03 E0= -.18898003E+03  d E =0.301952E-09
quench:  g(F)=  0.000E+00 g(S)=  0.000E+00 dE (1.order)= 0.000E+00
 bond charge predicted
       N       E                     dE             d eps       ncg     rms          rms(c)
DAV:   1    -0.189016523186E+03    0.71668E-09   -0.29713E-11   198   0.502E-10    0.598E-10
RMM:   2    -0.189016523186E+03    0.33833E-09    0.00000E+00     0   0.240E-10
 125 F= -.18901652E+03 E0= -.18898003E+03  d E =0.218279E-10
quench:  g(F)=  0.000E+00 g(S)=  0.000E+00 dE (1.order)= 0.000E+00
 bond charge predicted
       N       E                     dE             d eps       ncg     rms          rms(c)
DAV:   1    -0.189016523186E+03    0.51659E-09   -0.28235E-10   198   0.292E-10    0.702E-10
RMM:   2    -0.189016523186E+03   -0.38563E-09    0.00000E+00     0   0.283E-10
 126 F= -.18901652E+03 E0= -.18898003E+03  d E =-.207365E-09
quench:  g(F)=  0.000E+00 g(S)=  0.000E+00 dE (1.order)= 0.000E+00
 bond charge predicted
       N       E                     dE             d eps       ncg     rms          rms(c)
DAV:   1    -0.189016523185E+03    0.60754E-09   -0.27618E-10   198   0.435E-10    0.555E-10
RMM:   2    -0.189016523186E+03   -0.12806E-08    0.00000E+00     0   0.276E-10
 127 F= -.18901652E+03 E0= -.18898003E+03  d E =-.287400E-09
quench:  g(F)=  0.000E+00 g(S)=  0.000E+00 dE (1.order)= 0.000E+00
 bond charge predicted
       N       E                     dE             d eps       ncg     rms          rms(c)
DAV:   1    -0.189016523186E+03   -0.89858E-09   -0.22072E-10   198   0.502E-10    0.470E-10
RMM:   2    -0.189016523186E+03   -0.25466E-10    0.00000E+00     0   0.384E-10
 128 F= -.18901652E+03 E0= -.18898003E+03  d E =0.356522E-09
quench:  g(F)=  0.000E+00 g(S)=  0.000E+00 dE (1.order)= 0.000E+00
 bond charge predicted
       N       E                     dE             d eps       ncg     rms          rms(c)
DAV:   1    -0.189016523187E+03   -0.97862E-09   -0.22280E-10   198   0.416E-10    0.598E-10
RMM:   2    -0.189016523186E+03    0.96770E-09    0.00000E+00     0   0.291E-10
 129 F= -.18901652E+03 E0= -.18898003E+03  d E =0.145519E-10
quench:  g(F)=  0.000E+00 g(S)=  0.000E+00 dE (1.order)= 0.000E+00
 bond charge predicted
       N       E                     dE             d eps       ncg     rms          rms(c)
DAV:   1    -0.189016523187E+03    0.18190E-10   -0.11076E-10   198   0.354E-10    0.737E-10
RMM:   2    -0.189016523186E+03    0.96043E-09    0.00000E+00     0   0.286E-10
 130 F= -.18901652E+03 E0= -.18898003E+03  d E =0.109139E-10
quench:  g(F)=  0.000E+00 g(S)=  0.000E+00 dE (1.order)= 0.000E+00
 bond charge predicted
       N       E                     dE             d eps       ncg     rms          rms(c)
DAV:   1    -0.189016523187E+03    0.44020E-09   -0.27948E-10   198   0.288E-10    0.485E-10
RMM:   2    -0.189016523186E+03    0.30559E-09    0.00000E+00     0   0.193E-10
 131 F= -.18901652E+03 E0= -.18898003E+03  d E =-.214641E-09
quench:  g(F)=  0.000E+00 g(S)=  0.000E+00 dE (1.order)= 0.000E+00
 bond charge predicted
       N       E                     dE             d eps       ncg     rms          rms(c)
DAV:   1    -0.189016523187E+03   -0.44383E-09   -0.36786E-10   198   0.248E-10    0.420E-10
RMM:   2    -0.189016523186E+03    0.69485E-09    0.00000E+00     0   0.195E-10
 132 F= -.18901652E+03 E0= -.18898003E+03  d E =-.545697E-10
quench:  g(F)=  0.000E+00 g(S)=  0.000E+00 dE (1.order)= 0.000E+00
 bond charge predicted
       N       E                     dE             d eps       ncg     rms          rms(c)
DAV:   1    -0.189016523186E+03    0.13169E-08   -0.18380E-10   198   0.240E-10    0.606E-10
RMM:   2    -0.189016523186E+03   -0.45111E-09    0.00000E+00     0   0.330E-10
 133 F= -.18901652E+03 E0= -.18898003E+03  d E =0.170985E-09
quench:  g(F)=  0.000E+00 g(S)=  0.000E+00 dE (1.order)= 0.000E+00
 bond charge predicted
       N       E                     dE             d eps       ncg     rms          rms(c)
DAV:   1    -0.189016523186E+03   -0.38563E-09   -0.16398E-10   198   0.416E-10    0.542E-10
RMM:   2    -0.189016523186E+03   -0.17826E-09    0.00000E+00     0   0.205E-10
 134 F= -.18901652E+03 E0= -.18898003E+03  d E =-.112777E-09
quench:  g(F)=  0.000E+00 g(S)=  0.000E+00 dE (1.order)= 0.000E+00
 bond charge predicted
       N       E                     dE             d eps       ncg     rms          rms(c)
DAV:   1    -0.189016523187E+03   -0.57480E-09   -0.31620E-10   198   0.274E-10    0.404E-10
RMM:   2    -0.189016523186E+03    0.58935E-09    0.00000E+00     0   0.235E-10
 135 F= -.18901652E+03 E0= -.18898003E+03  d E =0.192813E-09
quench:  g(F)=  0.000E+00 g(S)=  0.000E+00 dE (1.order)= 0.000E+00
 bond charge predicted
       N       E                     dE             d eps       ncg     rms          rms(c)
DAV:   1    -0.189016523187E+03    0.36380E-10   -0.23786E-10   198   0.263E-10    0.621E-10
RMM:   2    -0.189016523186E+03    0.49113E-09    0.00000E+00     0   0.239E-10
 136 F= -.18901652E+03 E0= -.18898003E+03  d E =-.618456E-10
quench:  g(F)=  0.000E+00 g(S)=  0.000E+00 dE (1.order)= 0.000E+00
 bond charge predicted
       N       E                     dE             d eps       ncg     rms          rms(c)
DAV:   1    -0.189016523186E+03    0.57844E-09   -0.25636E-10   198   0.371E-10    0.427E-10
RMM:   2    -0.189016523186E+03    0.54570E-10    0.00000E+00     0   0.251E-10
 137 F= -.18901652E+03 E0= -.18898003E+03  d E =0.141881E-09
quench:  g(F)=  0.000E+00 g(S)=  0.000E+00 dE (1.order)= 0.000E+00
 bond charge predicted
       N       E                     dE             d eps       ncg     rms          rms(c)
DAV:   1    -0.189016523186E+03    0.17826E-09   -0.29935E-10   198   0.218E-10    0.485E-10
RMM:   2    -0.189016523186E+03   -0.52023E-09    0.00000E+00     0   0.216E-10
 138 F= -.18901652E+03 E0= -.18898003E+03  d E =-.396540E-09
quench:  g(F)=  0.000E+00 g(S)=  0.000E+00 dE (1.order)= 0.000E+00
 bond charge predicted
       N       E                     dE             d eps       ncg     rms          rms(c)
DAV:   1    -0.189016523187E+03   -0.72396E-09   -0.31995E-10   198   0.265E-10    0.536E-10
RMM:   2    -0.189016523186E+03    0.28012E-09    0.00000E+00     0   0.196E-10
 139 F= -.18901652E+03 E0= -.18898003E+03  d E =0.763976E-10
quench:  g(F)=  0.000E+00 g(S)=  0.000E+00 dE (1.order)= 0.000E+00
 bond charge predicted
       N       E                     dE             d eps       ncg     rms          rms(c)
DAV:   1    -0.189016523186E+03    0.16007E-09   -0.33383E-10   198   0.329E-10    0.554E-10
RMM:   2    -0.189016523186E+03    0.27649E-09    0.00000E+00     0   0.299E-10
 140 F= -.18901652E+03 E0= -.18898003E+03  d E =0.156433E-09
quench:  g(F)=  0.000E+00 g(S)=  0.000E+00 dE (1.order)= 0.000E+00
 bond charge predicted
       N       E                     dE             d eps       ncg     rms          rms(c)
DAV:   1    -0.189016523187E+03   -0.54570E-10   -0.42005E-10   198   0.285E-10    0.675E-10
RMM:   2    -0.189016523186E+03    0.49840E-09    0.00000E+00     0   0.364E-10
 141 F= -.18901652E+03 E0= -.18898003E+03  d E =0.167347E-09
quench:  g(F)=  0.000E+00 g(S)=  0.000E+00 dE (1.order)= 0.000E+00
 bond charge predicted
       N       E                     dE             d eps       ncg     rms          rms(c)
DAV:   1    -0.189016523187E+03   -0.40018E-09   -0.16716E-10   198   0.383E-10    0.403E-10
RMM:   2    -0.189016523186E+03    0.77125E-09    0.00000E+00     0   0.265E-10
 142 F= -.18901652E+03 E0= -.18898003E+03  d E =-.127329E-09
quench:  g(F)=  0.000E+00 g(S)=  0.000E+00 dE (1.order)= 0.000E+00
 bond charge predicted
       N       E                     dE             d eps       ncg     rms          rms(c)
DAV:   1    -0.189016523186E+03    0.60390E-09   -0.31261E-10   198   0.339E-10    0.677E-10
RMM:   2    -0.189016523186E+03   -0.98225E-10    0.00000E+00     0   0.330E-10
 143 F= -.18901652E+03 E0= -.18898003E+03  d E =-.265572E-09
quench:  g(F)=  0.000E+00 g(S)=  0.000E+00 dE (1.order)= 0.000E+00
 bond charge predicted
       N       E                     dE             d eps       ncg     rms          rms(c)
DAV:   1    -0.189016523187E+03   -0.83674E-09   -0.25294E-10   198   0.371E-10    0.433E-10
RMM:   2    -0.189016523186E+03    0.95679E-09    0.00000E+00     0   0.260E-10
 144 F= -.18901652E+03 E0= -.18898003E+03  d E =0.218279E-09
quench:  g(F)=  0.000E+00 g(S)=  0.000E+00 dE (1.order)= 0.000E+00
 bond charge predicted
       N       E                     dE             d eps       ncg     rms          rms(c)
DAV:   1    -0.189016523187E+03    0.47294E-10   -0.27223E-10   198   0.301E-10    0.610E-10
RMM:   2    -0.189016523186E+03    0.87311E-09    0.00000E+00     0   0.307E-10
 145 F= -.18901652E+03 E0= -.18898003E+03  d E =-.363798E-10
quench:  g(F)=  0.000E+00 g(S)=  0.000E+00 dE (1.order)= 0.000E+00
 bond charge predicted
       N       E                     dE             d eps       ncg     rms          rms(c)
DAV:   1    -0.189016523185E+03    0.17681E-08   -0.28351E-10   198   0.463E-10    0.699E-10
RMM:   2    -0.189016523186E+03   -0.91313E-09    0.00000E+00     0   0.293E-10
 146 F= -.18901652E+03 E0= -.18898003E+03  d E =-.181899E-10
quench:  g(F)=  0.000E+00 g(S)=  0.000E+00 dE (1.order)= 0.000E+00
 bond charge predicted
       N       E                     dE             d eps       ncg     rms          rms(c)
DAV:   1    -0.189016523187E+03   -0.14807E-08   -0.22710E-10   198   0.458E-10    0.655E-10
RMM:   2    -0.189016523186E+03    0.42928E-09    0.00000E+00     0   0.291E-10
 147 F= -.18901652E+03 E0= -.18898003E+03  d E =-.138243E-09
quench:  g(F)=  0.000E+00 g(S)=  0.000E+00 dE (1.order)= 0.000E+00
 bond charge predicted
       N       E                     dE             d eps       ncg     rms          rms(c)
DAV:   1    -0.189016523185E+03    0.22119E-08   -0.34421E-10   198   0.332E-10    0.661E-10
RMM:   2    -0.189016523186E+03   -0.15389E-08    0.00000E+00     0   0.278E-10
 148 F= -.18901652E+03 E0= -.18898003E+03  d E =0.243745E-09
quench:  g(F)=  0.000E+00 g(S)=  0.000E+00 dE (1.order)= 0.000E+00
 bond charge predicted
       N       E                     dE             d eps       ncg     rms          rms(c)
DAV:   1    -0.189016523185E+03   -0.78580E-09   -0.17084E-10   198   0.425E-10    0.444E-10
RMM:   2    -0.189016523186E+03   -0.70941E-09    0.00000E+00     0   0.259E-10
 149 F= -.18901652E+03 E0= -.18898003E+03  d E =0.436557E-10
quench:  g(F)=  0.000E+00 g(S)=  0.000E+00 dE (1.order)= 0.000E+00
 bond charge predicted
       N       E                     dE             d eps       ncg     rms          rms(c)
DAV:   1    -0.189016523187E+03   -0.12187E-08   -0.32170E-10   198   0.308E-10    0.365E-10
RMM:   2    -0.189016523186E+03    0.44020E-09    0.00000E+00     0   0.254E-10
 150 F= -.18901652E+03 E0= -.18898003E+03  d E =-.691216E-10
quench:  g(F)=  0.000E+00 g(S)=  0.000E+00 dE (1.order)= 0.000E+00
 bond charge predicted
       N       E                     dE             d eps       ncg     rms          rms(c)
DAV:   1    -0.189016523186E+03    0.61118E-09   -0.17463E-10   198   0.238E-10    0.721E-10
RMM:   2    -0.189016523186E+03   -0.10550E-09    0.00000E+00     0   0.309E-10
 151 F= -.18901652E+03 E0= -.18898003E+03  d E =0.654836E-10
quench:  g(F)=  0.000E+00 g(S)=  0.000E+00 dE (1.order)= 0.000E+00
 bond charge predicted
       N       E                     dE             d eps       ncg     rms          rms(c)
DAV:   1    -0.189016523188E+03   -0.15425E-08   -0.19569E-10   198   0.366E-10    0.430E-10
RMM:   2    -0.189016523186E+03    0.13606E-08    0.00000E+00     0   0.239E-10
 152 F= -.18901652E+03 E0= -.18898003E+03  d E =-.763976E-10
quench:  g(F)=  0.000E+00 g(S)=  0.000E+00 dE (1.order)= 0.000E+00
 bond charge predicted
       N       E                     dE             d eps       ncg     rms          rms(c)
DAV:   1    -0.189016523186E+03    0.13752E-08   -0.27686E-10   198   0.292E-10    0.665E-10
RMM:   2    -0.189016523186E+03   -0.14552E-09    0.00000E+00     0   0.340E-10
 153 F= -.18901652E+03 E0= -.18898003E+03  d E =-.130967E-09
quench:  g(F)=  0.000E+00 g(S)=  0.000E+00 dE (1.order)= 0.000E+00
 bond charge predicted
       N       E                     dE             d eps       ncg     rms          rms(c)
DAV:   1    -0.189016523186E+03    0.24374E-09   -0.14308E-10   198   0.336E-10    0.668E-10
RMM:   2    -0.189016523186E+03   -0.26557E-09    0.00000E+00     0   0.301E-10
 154 F= -.18901652E+03 E0= -.18898003E+03  d E =0.123691E-09
quench:  g(F)=  0.000E+00 g(S)=  0.000E+00 dE (1.order)= 0.000E+00
 bond charge predicted
       N       E                     dE             d eps       ncg     rms          rms(c)
DAV:   1    -0.189016523187E+03   -0.94951E-09   -0.13390E-10   198   0.299E-10    0.409E-10
RMM:   2    -0.189016523186E+03    0.51659E-09    0.00000E+00     0   0.189E-10
 155 F= -.18901652E+03 E0= -.18898003E+03  d E =-.167347E-09
quench:  g(F)=  0.000E+00 g(S)=  0.000E+00 dE (1.order)= 0.000E+00
 bond charge predicted
       N       E                     dE             d eps       ncg     rms          rms(c)
DAV:   1    -0.189016523186E+03    0.68758E-09   -0.15120E-10   198   0.318E-10    0.608E-10
RMM:   2    -0.189016523186E+03    0.90949E-10    0.00000E+00     0   0.296E-10
 156 F= -.18901652E+03 E0= -.18898003E+03  d E =0.261934E-09
quench:  g(F)=  0.000E+00 g(S)=  0.000E+00 dE (1.order)= 0.000E+00
 bond charge predicted
       N       E                     dE             d eps       ncg     rms          rms(c)
DAV:   1    -0.189016523186E+03    0.30923E-09   -0.24099E-10   198   0.330E-10    0.506E-10
RMM:   2    -0.189016523186E+03   -0.29104E-09    0.00000E+00     0   0.262E-10
 157 F= -.18901652E+03 E0= -.18898003E+03  d E =-.727596E-10
quench:  g(F)=  0.000E+00 g(S)=  0.000E+00 dE (1.order)= 0.000E+00
 bond charge predicted
       N       E                     dE             d eps       ncg     rms          rms(c)
DAV:   1    -0.189016523187E+03   -0.92768E-09   -0.38085E-10   198   0.320E-10    0.556E-10
RMM:   2    -0.189016523186E+03    0.49113E-09    0.00000E+00     0   0.235E-10
 158 F= -.18901652E+03 E0= -.18898003E+03  d E =-.145519E-09
quench:  g(F)=  0.000E+00 g(S)=  0.000E+00 dE (1.order)= 0.000E+00
 bond charge predicted
       N       E                     dE             d eps       ncg     rms          rms(c)
DAV:   1    -0.189016523186E+03    0.68030E-09   -0.35402E-10   198   0.286E-10    0.629E-10
RMM:   2    -0.189016523186E+03   -0.18190E-09    0.00000E+00     0   0.301E-10
 159 F= -.18901652E+03 E0= -.18898003E+03  d E =0.727596E-11
quench:  g(F)=  0.000E+00 g(S)=  0.000E+00 dE (1.order)= 0.000E+00
 bond charge predicted
       N       E                     dE             d eps       ncg     rms          rms(c)
DAV:   1    -0.189016523186E+03    0.69122E-10   -0.31005E-10   198   0.375E-10    0.357E-10
RMM:   2    -0.189016523186E+03   -0.16007E-09    0.00000E+00     0   0.186E-10
 160 F= -.18901652E+03 E0= -.18898003E+03  d E =0.909495E-10
quench:  g(F)=  0.000E+00 g(S)=  0.000E+00 dE (1.order)= 0.000E+00
 bond charge predicted
       N       E                     dE             d eps       ncg     rms          rms(c)
DAV:   1    -0.189016523186E+03   -0.10914E-10   -0.23991E-10   198   0.279E-10    0.740E-10
RMM:   2    -0.189016523186E+03    0.72760E-11    0.00000E+00     0   0.248E-10
 161 F= -.18901652E+03 E0= -.18898003E+03  d E =0.156433E-09
quench:  g(F)=  0.000E+00 g(S)=  0.000E+00 dE (1.order)= 0.000E+00
 bond charge predicted
       N       E                     dE             d eps       ncg     rms          rms(c)
DAV:   1    -0.189016523185E+03    0.71304E-09   -0.29442E-10   198   0.347E-10    0.946E-10
RMM:   2    -0.189016523186E+03   -0.11241E-08    0.00000E+00     0   0.379E-10
 162 F= -.18901652E+03 E0= -.18898003E+03  d E =-.418368E-09
quench:  g(F)=  0.000E+00 g(S)=  0.000E+00 dE (1.order)= 0.000E+00
 bond charge predicted
       N       E                     dE             d eps       ncg     rms          rms(c)
DAV:   1    -0.189016523185E+03   -0.90949E-10   -0.19667E-10   198   0.608E-10    0.728E-10
RMM:   2    -0.189016523186E+03   -0.70941E-09    0.00000E+00     0   0.345E-10
 163 F= -.18901652E+03 E0= -.18898003E+03  d E =0.323780E-09
quench:  g(F)=  0.000E+00 g(S)=  0.000E+00 dE (1.order)= 0.000E+00
 bond charge predicted
       N       E                     dE             d eps       ncg     rms          rms(c)
DAV:   1    -0.189016523186E+03   -0.25102E-09   -0.23012E-10   198   0.496E-10    0.504E-10
RMM:   2    -0.189016523186E+03   -0.44747E-09    0.00000E+00     0   0.278E-10
 164 F= -.18901652E+03 E0= -.18898003E+03  d E =0.109139E-10
quench:  g(F)=  0.000E+00 g(S)=  0.000E+00 dE (1.order)= 0.000E+00
 bond charge predicted
       N       E                     dE             d eps       ncg     rms          rms(c)
DAV:   1    -0.189016523186E+03   -0.14916E-09   -0.13361E-10   198   0.342E-10    0.490E-10
RMM:   2    -0.189016523186E+03   -0.63301E-09    0.00000E+00     0   0.276E-10
 165 F= -.18901652E+03 E0= -.18898003E+03  d E =-.334694E-09
quench:  g(F)=  0.000E+00 g(S)=  0.000E+00 dE (1.order)= 0.000E+00
 bond charge predicted
       N       E                     dE             d eps       ncg     rms          rms(c)
DAV:   1    -0.189016523186E+03   -0.28012E-09   -0.32785E-10   198   0.274E-10    0.652E-10
RMM:   2    -0.189016523186E+03   -0.15643E-09    0.00000E+00     0   0.236E-10
 166 F= -.18901652E+03 E0= -.18898003E+03  d E =0.196451E-09
quench:  g(F)=  0.000E+00 g(S)=  0.000E+00 dE (1.order)= 0.000E+00
 bond charge predicted
       N       E                     dE             d eps       ncg     rms          rms(c)
DAV:   1    -0.189016523187E+03   -0.44747E-09   -0.10227E-10   198   0.352E-10    0.552E-10
RMM:   2    -0.189016523186E+03    0.16007E-09    0.00000E+00     0   0.274E-10
 167 F= -.18901652E+03 E0= -.18898003E+03  d E =-.130967E-09
quench:  g(F)=  0.000E+00 g(S)=  0.000E+00 dE (1.order)= 0.000E+00
 bond charge predicted
       N       E                     dE             d eps       ncg     rms          rms(c)
DAV:   1    -0.189016523186E+03    0.10514E-08   -0.33431E-10   198   0.343E-10    0.532E-10
RMM:   2    -0.189016523186E+03   -0.56389E-09    0.00000E+00     0   0.300E-10
 168 F= -.18901652E+03 E0= -.18898003E+03  d E =0.327418E-09
quench:  g(F)=  0.000E+00 g(S)=  0.000E+00 dE (1.order)= 0.000E+00
 bond charge predicted
       N       E                     dE             d eps       ncg     rms          rms(c)
DAV:   1    -0.189016523185E+03    0.44383E-09   -0.94202E-11   198   0.355E-10    0.447E-10
RMM:   2    -0.189016523186E+03   -0.11023E-08    0.00000E+00     0   0.224E-10
 169 F= -.18901652E+03 E0= -.18898003E+03  d E =-.945874E-10
quench:  g(F)=  0.000E+00 g(S)=  0.000E+00 dE (1.order)= 0.000E+00
 bond charge predicted
       N       E                     dE             d eps       ncg     rms          rms(c)
DAV:   1    -0.189016523186E+03   -0.70941E-09   -0.27624E-10   198   0.255E-10    0.731E-10
RMM:   2    -0.189016523186E+03   -0.28376E-09    0.00000E+00     0   0.291E-10
 170 F= -.18901652E+03 E0= -.18898003E+03  d E =0.109139E-09
quench:  g(F)=  0.000E+00 g(S)=  0.000E+00 dE (1.order)= 0.000E+00
 bond charge predicted
       N       E                     dE             d eps       ncg     rms          rms(c)
DAV:   1    -0.189016523186E+03    0.18554E-09   -0.11026E-10   198   0.435E-10    0.318E-10
RMM:   2    -0.189016523186E+03   -0.65120E-09    0.00000E+00     0   0.248E-10
 171 F= -.18901652E+03 E0= -.18898003E+03  d E =-.181899E-09
quench:  g(F)=  0.000E+00 g(S)=  0.000E+00 dE (1.order)= 0.000E+00
 bond charge predicted
       N       E                     dE             d eps       ncg     rms          rms(c)
DAV:   1    -0.189016523186E+03   -0.50204E-09   -0.13028E-10   198   0.275E-10    0.937E-10
RMM:   2    -0.189016523186E+03   -0.17462E-09    0.00000E+00     0   0.449E-10
 172 F= -.18901652E+03 E0= -.18898003E+03  d E =-.254659E-10
quench:  g(F)=  0.000E+00 g(S)=  0.000E+00 dE (1.order)= 0.000E+00
 bond charge predicted
       N       E                     dE             d eps       ncg     rms          rms(c)
DAV:   1    -0.189016523186E+03   -0.16007E-09   -0.18504E-10   198   0.477E-10    0.503E-10
RMM:   2    -0.189016523186E+03   -0.80036E-10    0.00000E+00     0   0.200E-10
 173 F= -.18901652E+03 E0= -.18898003E+03  d E =-.654836E-10
quench:  g(F)=  0.000E+00 g(S)=  0.000E+00 dE (1.order)= 0.000E+00
 bond charge predicted
       N       E                     dE             d eps       ncg     rms          rms(c)
DAV:   1    -0.189016523186E+03    0.36016E-09   -0.16982E-10   198   0.294E-10    0.477E-10
RMM:   2    -0.189016523186E+03   -0.47658E-09    0.00000E+00     0   0.285E-10
 174 F= -.18901652E+03 E0= -.18898003E+03  d E =-.363798E-10
quench:  g(F)=  0.000E+00 g(S)=  0.000E+00 dE (1.order)= 0.000E+00
 bond charge predicted
       N       E                     dE             d eps       ncg     rms          rms(c)
DAV:   1    -0.189016523186E+03   -0.20009E-09   -0.17778E-10   198   0.324E-10    0.753E-10
RMM:   2    -0.189016523186E+03    0.94587E-10    0.00000E+00     0   0.338E-10
 175 F= -.18901652E+03 E0= -.18898003E+03  d E =0.371074E-09
quench:  g(F)=  0.000E+00 g(S)=  0.000E+00 dE (1.order)= 0.000E+00
 bond charge predicted
       N       E                     dE             d eps       ncg     rms          rms(c)
DAV:   1    -0.189016523186E+03    0.23647E-09   -0.62855E-11   198   0.490E-10    0.740E-10
RMM:   2    -0.189016523186E+03   -0.22192E-09    0.00000E+00     0   0.265E-10
 176 F= -.18901652E+03 E0= -.18898003E+03  d E =-.800355E-10
quench:  g(F)=  0.000E+00 g(S)=  0.000E+00 dE (1.order)= 0.000E+00
 bond charge predicted
       N       E                     dE             d eps       ncg     rms          rms(c)
DAV:   1    -0.189016523187E+03   -0.70213E-09   -0.25030E-10   198   0.350E-10    0.544E-10
RMM:   2    -0.189016523186E+03    0.15643E-09    0.00000E+00     0   0.244E-10
 177 F= -.18901652E+03 E0= -.18898003E+03  d E =-.323780E-09
quench:  g(F)=  0.000E+00 g(S)=  0.000E+00 dE (1.order)= 0.000E+00
 bond charge predicted
       N       E                     dE             d eps       ncg     rms          rms(c)
DAV:   1    -0.189016523187E+03   -0.14552E-10   -0.22884E-10   198   0.291E-10    0.440E-10
RMM:   2    -0.189016523186E+03    0.37107E-09    0.00000E+00     0   0.207E-10
 178 F= -.18901652E+03 E0= -.18898003E+03  d E =0.200089E-09
quench:  g(F)=  0.000E+00 g(S)=  0.000E+00 dE (1.order)= 0.000E+00
 bond charge predicted
       N       E                     dE             d eps       ncg     rms          rms(c)
DAV:   1    -0.189016523187E+03   -0.14552E-10   -0.19885E-10   198   0.290E-10    0.587E-10
RMM:   2    -0.189016523186E+03    0.24374E-09    0.00000E+00     0   0.246E-10
 179 F= -.18901652E+03 E0= -.18898003E+03  d E =-.141881E-09
quench:  g(F)=  0.000E+00 g(S)=  0.000E+00 dE (1.order)= 0.000E+00
 bond charge predicted
       N       E                     dE             d eps       ncg     rms          rms(c)
DAV:   1    -0.189016523187E+03   -0.41837E-09   -0.11335E-10   198   0.383E-10    0.555E-10
RMM:   2    -0.189016523186E+03    0.73487E-09    0.00000E+00     0   0.259E-10
 180 F= -.18901652E+03 E0= -.18898003E+03  d E =0.727596E-10
quench:  g(F)=  0.000E+00 g(S)=  0.000E+00 dE (1.order)= 0.000E+00
 bond charge predicted
       N       E                     dE             d eps       ncg     rms          rms(c)
DAV:   1    -0.189016523186E+03    0.86220E-09   -0.23985E-10   198   0.411E-10    0.760E-10
RMM:   2    -0.189016523186E+03   -0.58208E-10    0.00000E+00     0   0.327E-10
 181 F= -.18901652E+03 E0= -.18898003E+03  d E =0.691216E-10
quench:  g(F)=  0.000E+00 g(S)=  0.000E+00 dE (1.order)= 0.000E+00
 bond charge predicted
       N       E                     dE             d eps       ncg     rms          rms(c)
DAV:   1    -0.189016523187E+03   -0.12515E-08   -0.11693E-10   198   0.497E-10    0.707E-10
RMM:   2    -0.189016523186E+03    0.11896E-08    0.00000E+00     0   0.277E-10
 182 F= -.18901652E+03 E0= -.18898003E+03  d E =-.363798E-11
quench:  g(F)=  0.000E+00 g(S)=  0.000E+00 dE (1.order)= 0.000E+00
 bond charge predicted
       N       E                     dE             d eps       ncg     rms          rms(c)
DAV:   1    -0.189016523188E+03   -0.18917E-09   -0.11579E-10   198   0.435E-10    0.610E-10
RMM:   2    -0.189016523186E+03    0.14079E-08    0.00000E+00     0   0.261E-10
 183 F= -.18901652E+03 E0= -.18898003E+03  d E =0.291038E-10
quench:  g(F)=  0.000E+00 g(S)=  0.000E+00 dE (1.order)= 0.000E+00
 bond charge predicted
       N       E                     dE             d eps       ncg     rms          rms(c)
DAV:   1    -0.189016523185E+03    0.21137E-08   -0.17471E-10   198   0.441E-10    0.648E-10
[...]
 bond charge predicted
       N       E                     dE             d eps       ncg     rms          rms(c)
DAV:   1    -0.189016523186E+03    0.16662E-08   -0.24968E-10   198   0.254E-10    0.503E-10
RMM:   2    -0.189016523186E+03   -0.29104E-10    0.00000E+00     0   0.228E-10
 953 F= -.18901652E+03 E0= -.18898003E+03  d E =0.294676E-09
quench:  g(F)=  0.000E+00 g(S)=  0.000E+00 dE (1.order)= 0.000E+00
 bond charge predicted
       N       E                     dE             d eps       ncg     rms          rms(c)
DAV:   1    -0.189016523187E+03   -0.73487E-09   -0.19168E-10   198   0.386E-10    0.563E-10
RMM:   2    -0.189016523186E+03    0.31650E-09    0.00000E+00     0   0.330E-10
 954 F= -.18901652E+03 E0= -.18898003E+03  d E =-.389264E-09
quench:  g(F)=  0.000E+00 g(S)=  0.000E+00 dE (1.order)= 0.000E+00
 bond charge predicted
       N       E                     dE             d eps       ncg     rms          rms(c)
DAV:   1    -0.189016523186E+03    0.88403E-09   -0.23653E-10   198   0.316E-10    0.497E-10
RMM:   2    -0.189016523186E+03   -0.41837E-09    0.00000E+00     0   0.278E-10
 955 F= -.18901652E+03 E0= -.18898003E+03  d E =0.149157E-09
quench:  g(F)=  0.000E+00 g(S)=  0.000E+00 dE (1.order)= 0.000E+00
 bond charge predicted
       N       E                     dE             d eps       ncg     rms          rms(c)
DAV:   1    -0.189016523187E+03   -0.99681E-09   -0.20945E-10   198   0.338E-10    0.621E-10
RMM:   2    -0.189016523186E+03    0.66939E-09    0.00000E+00     0   0.432E-10
 956 F= -.18901652E+03 E0= -.18898003E+03  d E =0.909495E-10
quench:  g(F)=  0.000E+00 g(S)=  0.000E+00 dE (1.order)= 0.000E+00
 bond charge predicted
       N       E                     dE             d eps       ncg     rms          rms(c)
DAV:   1    -0.189016523187E+03    0.10914E-10   -0.17757E-10   198   0.403E-10    0.452E-10
RMM:   2    -0.189016523186E+03    0.45475E-09    0.00000E+00     0   0.342E-10
 957 F= -.18901652E+03 E0= -.18898003E+03  d E =-.203727E-09
quench:  g(F)=  0.000E+00 g(S)=  0.000E+00 dE (1.order)= 0.000E+00
 bond charge predicted
       N       E                     dE             d eps       ncg     rms          rms(c)
DAV:   1    -0.189016523187E+03    0.76398E-10   -0.21285E-10   198   0.316E-10    0.769E-10
RMM:   2    -0.189016523186E+03    0.46930E-09    0.00000E+00     0   0.245E-10
 958 F= -.18901652E+03 E0= -.18898003E+03  d E =0.909495E-10
quench:  g(F)=  0.000E+00 g(S)=  0.000E+00 dE (1.order)= 0.000E+00
 bond charge predicted
       N       E                     dE             d eps       ncg     rms          rms(c)
DAV:   1    -0.189016523186E+03    0.46930E-09   -0.29623E-10   198   0.368E-10    0.576E-10
RMM:   2    -0.189016523186E+03   -0.98225E-10    0.00000E+00     0   0.296E-10
 959 F= -.18901652E+03 E0= -.18898003E+03  d E =-.982254E-10
quench:  g(F)=  0.000E+00 g(S)=  0.000E+00 dE (1.order)= 0.000E+00
 bond charge predicted
       N       E                     dE             d eps       ncg     rms          rms(c)
DAV:   1    -0.189016523187E+03   -0.26193E-09   -0.20562E-10   198   0.388E-10    0.409E-10
RMM:   2    -0.189016523186E+03    0.33469E-09    0.00000E+00     0   0.255E-10
 960 F= -.18901652E+03 E0= -.18898003E+03  d E =0.170985E-09
quench:  g(F)=  0.000E+00 g(S)=  0.000E+00 dE (1.order)= 0.000E+00
 bond charge predicted
       N       E                     dE             d eps       ncg     rms          rms(c)
DAV:   1    -0.189016523188E+03   -0.13861E-08   -0.21143E-10   198   0.297E-10    0.717E-10
RMM:   2    -0.189016523186E+03    0.16225E-08    0.00000E+00     0   0.255E-10
 961 F= -.18901652E+03 E0= -.18898003E+03  d E =-.982254E-10
quench:  g(F)=  0.000E+00 g(S)=  0.000E+00 dE (1.order)= 0.000E+00
 bond charge predicted
       N       E                     dE             d eps       ncg     rms          rms(c)
DAV:   1    -0.189016523186E+03    0.18445E-08   -0.27348E-10   198   0.451E-10    0.651E-10
RMM:   2    -0.189016523186E+03   -0.23283E-09    0.00000E+00     0   0.330E-10
 962 F= -.18901652E+03 E0= -.18898003E+03  d E =-.109139E-10
quench:  g(F)=  0.000E+00 g(S)=  0.000E+00 dE (1.order)= 0.000E+00
 bond charge predicted
       N       E                     dE             d eps       ncg     rms          rms(c)
DAV:   1    -0.189016523187E+03   -0.63301E-09   -0.26059E-10   198   0.380E-10    0.388E-10
RMM:   2    -0.189016523186E+03    0.38926E-09    0.00000E+00     0   0.167E-10
 963 F= -.18901652E+03 E0= -.18898003E+03  d E =-.109139E-10
quench:  g(F)=  0.000E+00 g(S)=  0.000E+00 dE (1.order)= 0.000E+00
 bond charge predicted
       N       E                     dE             d eps       ncg     rms          rms(c)
DAV:   1    -0.189016523187E+03    0.17099E-09   -0.19861E-10   198   0.367E-10    0.386E-10
RMM:   2    -0.189016523186E+03    0.17826E-09    0.00000E+00     0   0.285E-10
 964 F= -.18901652E+03 E0= -.18898003E+03  d E =-.400178E-10
quench:  g(F)=  0.000E+00 g(S)=  0.000E+00 dE (1.order)= 0.000E+00
 bond charge predicted
       N       E                     dE             d eps       ncg     rms          rms(c)
DAV:   1    -0.189016523186E+03    0.25102E-09   -0.22978E-10   198   0.295E-10    0.419E-10
RMM:   2    -0.189016523186E+03    0.25102E-09    0.00000E+00     0   0.190E-10
 965 F= -.18901652E+03 E0= -.18898003E+03  d E =0.323780E-09
quench:  g(F)=  0.000E+00 g(S)=  0.000E+00 dE (1.order)= 0.000E+00
 bond charge predicted
       N       E                     dE             d eps       ncg     rms          rms(c)
DAV:   1    -0.189016523186E+03    0.15643E-09   -0.26391E-10   198   0.312E-10    0.488E-10
RMM:   2    -0.189016523186E+03    0.36380E-11    0.00000E+00     0   0.279E-10
 966 F= -.18901652E+03 E0= -.18898003E+03  d E =-.909495E-10
quench:  g(F)=  0.000E+00 g(S)=  0.000E+00 dE (1.order)= 0.000E+00
 bond charge predicted
       N       E                     dE             d eps       ncg     rms          rms(c)
DAV:   1    -0.189016523186E+03   -0.26193E-09   -0.22369E-10   198   0.307E-10    0.474E-10
RMM:   2    -0.189016523186E+03    0.23283E-09    0.00000E+00     0   0.285E-10
 967 F= -.18901652E+03 E0= -.18898003E+03  d E =-.327418E-10
quench:  g(F)=  0.000E+00 g(S)=  0.000E+00 dE (1.order)= 0.000E+00
 bond charge predicted
       N       E                     dE             d eps       ncg     rms          rms(c)
DAV:   1    -0.189016523186E+03    0.15643E-09   -0.25788E-10   198   0.285E-10    0.413E-10
RMM:   2    -0.189016523186E+03   -0.47294E-10    0.00000E+00     0   0.241E-10
 968 F= -.18901652E+03 E0= -.18898003E+03  d E =-.123691E-09
quench:  g(F)=  0.000E+00 g(S)=  0.000E+00 dE (1.order)= 0.000E+00
 bond charge predicted
       N       E                     dE             d eps       ncg     rms          rms(c)
DAV:   1    -0.189016523186E+03   -0.22919E-09   -0.21687E-10   198   0.313E-10    0.357E-10
RMM:   2    -0.189016523186E+03    0.72760E-10    0.00000E+00     0   0.162E-10
 969 F= -.18901652E+03 E0= -.18898003E+03  d E =-.109139E-09
quench:  g(F)=  0.000E+00 g(S)=  0.000E+00 dE (1.order)= 0.000E+00
 bond charge predicted
       N       E                     dE             d eps       ncg     rms          rms(c)
DAV:   1    -0.189016523186E+03    0.70577E-09   -0.26678E-10   198   0.226E-10    0.464E-10
RMM:   2    -0.189016523186E+03   -0.36380E-09    0.00000E+00     0   0.216E-10
 970 F= -.18901652E+03 E0= -.18898003E+03  d E =0.269210E-09
quench:  g(F)=  0.000E+00 g(S)=  0.000E+00 dE (1.order)= 0.000E+00
 bond charge predicted
       N       E                     dE             d eps       ncg     rms          rms(c)
DAV:   1    -0.189016523186E+03    0.25466E-10   -0.24078E-10   198   0.227E-10    0.722E-10
RMM:   2    -0.189016523186E+03   -0.32742E-09    0.00000E+00     0   0.289E-10
 971 F= -.18901652E+03 E0= -.18898003E+03  d E =0.618456E-10
quench:  g(F)=  0.000E+00 g(S)=  0.000E+00 dE (1.order)= 0.000E+00
 bond charge predicted
       N       E                     dE             d eps       ncg     rms          rms(c)
DAV:   1    -0.189016523186E+03   -0.47658E-09   -0.20377E-10   198   0.461E-10    0.758E-10
RMM:   2    -0.189016523186E+03    0.18190E-10    0.00000E+00     0   0.267E-10
 972 F= -.18901652E+03 E0= -.18898003E+03  d E =-.130967E-09
quench:  g(F)=  0.000E+00 g(S)=  0.000E+00 dE (1.order)= 0.000E+00
 bond charge predicted
       N       E                     dE             d eps       ncg     rms          rms(c)
DAV:   1    -0.189016523187E+03   -0.43656E-09   -0.13199E-10   198   0.416E-10    0.674E-10
RMM:   2    -0.189016523186E+03    0.57480E-09    0.00000E+00     0   0.231E-10
 973 F= -.18901652E+03 E0= -.18898003E+03  d E =0.120053E-09
quench:  g(F)=  0.000E+00 g(S)=  0.000E+00 dE (1.order)= 0.000E+00
 bond charge predicted
       N       E                     dE             d eps       ncg     rms          rms(c)
DAV:   1    -0.189016523187E+03   -0.21464E-09   -0.29410E-10   198   0.384E-10    0.651E-10
RMM:   2    -0.189016523186E+03    0.83310E-09    0.00000E+00     0   0.303E-10
 974 F= -.18901652E+03 E0= -.18898003E+03  d E =0.436557E-10
quench:  g(F)=  0.000E+00 g(S)=  0.000E+00 dE (1.order)= 0.000E+00
 bond charge predicted
       N       E                     dE             d eps       ncg     rms          rms(c)
DAV:   1    -0.189016523187E+03    0.12733E-09   -0.12310E-10   198   0.385E-10    0.637E-10
RMM:   2    -0.189016523186E+03    0.72760E-09    0.00000E+00     0   0.246E-10
 975 F= -.18901652E+03 E0= -.18898003E+03  d E =0.218279E-10
quench:  g(F)=  0.000E+00 g(S)=  0.000E+00 dE (1.order)= 0.000E+00
 bond charge predicted
       N       E                     dE             d eps       ncg     rms          rms(c)
DAV:   1    -0.189016523186E+03    0.38199E-09   -0.18127E-10   198   0.453E-10    0.427E-10
RMM:   2    -0.189016523186E+03    0.26557E-09    0.00000E+00     0   0.239E-10
 976 F= -.18901652E+03 E0= -.18898003E+03  d E =-.800355E-10
quench:  g(F)=  0.000E+00 g(S)=  0.000E+00 dE (1.order)= 0.000E+00
 bond charge predicted
       N       E                     dE             d eps       ncg     rms          rms(c)
DAV:   1    -0.189016523185E+03    0.89130E-09   -0.36065E-10   198   0.327E-10    0.616E-10
RMM:   2    -0.189016523186E+03   -0.56752E-09    0.00000E+00     0   0.222E-10
 977 F= -.18901652E+03 E0= -.18898003E+03  d E =0.582077E-10
quench:  g(F)=  0.000E+00 g(S)=  0.000E+00 dE (1.order)= 0.000E+00
 bond charge predicted
       N       E                     dE             d eps       ncg     rms          rms(c)
DAV:   1    -0.189016523187E+03   -0.12042E-08   -0.25977E-10   198   0.268E-10    0.578E-10
RMM:   2    -0.189016523186E+03    0.42928E-09    0.00000E+00     0   0.247E-10
 978 F= -.18901652E+03 E0= -.18898003E+03  d E =-.207365E-09
quench:  g(F)=  0.000E+00 g(S)=  0.000E+00 dE (1.order)= 0.000E+00
 bond charge predicted
       N       E                     dE             d eps       ncg     rms          rms(c)
DAV:   1    -0.189016523186E+03    0.56025E-09   -0.19795E-10   198   0.383E-10    0.818E-10
RMM:   2    -0.189016523186E+03   -0.58208E-10    0.00000E+00     0   0.351E-10
 979 F= -.18901652E+03 E0= -.18898003E+03  d E =0.727596E-10
quench:  g(F)=  0.000E+00 g(S)=  0.000E+00 dE (1.order)= 0.000E+00
 bond charge predicted
       N       E                     dE             d eps       ncg     rms          rms(c)
DAV:   1    -0.189016523186E+03    0.12369E-09   -0.35170E-10   198   0.490E-10    0.816E-10
RMM:   2    -0.189016523186E+03   -0.23283E-09    0.00000E+00     0   0.309E-10
 980 F= -.18901652E+03 E0= -.18898003E+03  d E =-.509317E-10
quench:  g(F)=  0.000E+00 g(S)=  0.000E+00 dE (1.order)= 0.000E+00
 bond charge predicted
       N       E                     dE             d eps       ncg     rms          rms(c)
DAV:   1    -0.189016523186E+03   -0.61846E-10   -0.74248E-11   198   0.508E-10    0.512E-10
RMM:   2    -0.189016523186E+03   -0.58208E-10    0.00000E+00     0   0.205E-10
 981 F= -.18901652E+03 E0= -.18898003E+03  d E =0.112777E-09
quench:  g(F)=  0.000E+00 g(S)=  0.000E+00 dE (1.order)= 0.000E+00
 bond charge predicted
       N       E                     dE             d eps       ncg     rms          rms(c)
DAV:   1    -0.189016523187E+03   -0.86220E-09   -0.15814E-10   198   0.340E-10    0.615E-10
RMM:   2    -0.189016523186E+03    0.71304E-09    0.00000E+00     0   0.312E-10
 982 F= -.18901652E+03 E0= -.18898003E+03  d E =-.909495E-10
quench:  g(F)=  0.000E+00 g(S)=  0.000E+00 dE (1.order)= 0.000E+00
 bond charge predicted
       N       E                     dE             d eps       ncg     rms          rms(c)
DAV:   1    -0.189016523187E+03   -0.33106E-09   -0.30126E-10   198   0.396E-10    0.592E-10
RMM:   2    -0.189016523186E+03    0.85129E-09    0.00000E+00     0   0.277E-10
 983 F= -.18901652E+03 E0= -.18898003E+03  d E =-.192813E-09
quench:  g(F)=  0.000E+00 g(S)=  0.000E+00 dE (1.order)= 0.000E+00
 bond charge predicted
       N       E                     dE             d eps       ncg     rms          rms(c)
DAV:   1    -0.189016523187E+03   -0.17462E-09   -0.19742E-10   198   0.310E-10    0.425E-10
RMM:   2    -0.189016523186E+03    0.10150E-08    0.00000E+00     0   0.240E-10
 984 F= -.18901652E+03 E0= -.18898003E+03  d E =-.109139E-10
quench:  g(F)=  0.000E+00 g(S)=  0.000E+00 dE (1.order)= 0.000E+00
 bond charge predicted
       N       E                     dE             d eps       ncg     rms          rms(c)
DAV:   1    -0.189016523186E+03    0.18736E-08   -0.28351E-10   198   0.321E-10    0.585E-10
RMM:   2    -0.189016523186E+03   -0.85493E-09    0.00000E+00     0   0.207E-10
 985 F= -.18901652E+03 E0= -.18898003E+03  d E =0.363798E-11
quench:  g(F)=  0.000E+00 g(S)=  0.000E+00 dE (1.order)= 0.000E+00
 bond charge predicted
       N       E                     dE             d eps       ncg     rms          rms(c)
DAV:   1    -0.189016523186E+03   -0.17826E-09   -0.10906E-10   198   0.292E-10    0.425E-10
RMM:   2    -0.189016523186E+03   -0.64028E-09    0.00000E+00     0   0.197E-10
 986 F= -.18901652E+03 E0= -.18898003E+03  d E =0.363798E-10
quench:  g(F)=  0.000E+00 g(S)=  0.000E+00 dE (1.order)= 0.000E+00
 bond charge predicted
       N       E                     dE             d eps       ncg     rms          rms(c)
DAV:   1    -0.189016523186E+03   -0.46930E-09   -0.10082E-10   198   0.220E-10    0.706E-10
RMM:   2    -0.189016523186E+03    0.11278E-09    0.00000E+00     0   0.297E-10
 987 F= -.18901652E+03 E0= -.18898003E+03  d E =0.283762E-09
quench:  g(F)=  0.000E+00 g(S)=  0.000E+00 dE (1.order)= 0.000E+00
 bond charge predicted
       N       E                     dE             d eps       ncg     rms          rms(c)
DAV:   1    -0.189016523186E+03   -0.23647E-09   -0.23765E-10   198   0.445E-10    0.605E-10
RMM:   2    -0.189016523186E+03    0.80036E-10    0.00000E+00     0   0.265E-10
 988 F= -.18901652E+03 E0= -.18898003E+03  d E =-.269210E-09
quench:  g(F)=  0.000E+00 g(S)=  0.000E+00 dE (1.order)= 0.000E+00
 bond charge predicted
       N       E                     dE             d eps       ncg     rms          rms(c)
DAV:   1    -0.189016523187E+03   -0.68758E-09   -0.21765E-10   198   0.413E-10    0.560E-10
RMM:   2    -0.189016523186E+03    0.10405E-08    0.00000E+00     0   0.221E-10
 989 F= -.18901652E+03 E0= -.18898003E+03  d E =0.272848E-09
quench:  g(F)=  0.000E+00 g(S)=  0.000E+00 dE (1.order)= 0.000E+00
 bond charge predicted
       N       E                     dE             d eps       ncg     rms          rms(c)
DAV:   1    -0.189016523186E+03    0.76761E-09   -0.16760E-10   198   0.313E-10    0.948E-10
RMM:   2    -0.189016523186E+03    0.20373E-09    0.00000E+00     0   0.340E-10
 990 F= -.18901652E+03 E0= -.18898003E+03  d E =-.691216E-10
quench:  g(F)=  0.000E+00 g(S)=  0.000E+00 dE (1.order)= 0.000E+00
 bond charge predicted
       N       E                     dE             d eps       ncg     rms          rms(c)
DAV:   1    -0.189016523186E+03    0.24738E-09   -0.36506E-10   198   0.568E-10    0.614E-10
RMM:   2    -0.189016523186E+03   -0.50932E-10    0.00000E+00     0   0.306E-10
 991 F= -.18901652E+03 E0= -.18898003E+03  d E =-.727596E-11
quench:  g(F)=  0.000E+00 g(S)=  0.000E+00 dE (1.order)= 0.000E+00
 bond charge predicted
       N       E                     dE             d eps       ncg     rms          rms(c)
DAV:   1    -0.189016523186E+03    0.14916E-09   -0.15740E-10   198   0.413E-10    0.382E-10
RMM:   2    -0.189016523186E+03   -0.45475E-09    0.00000E+00     0   0.197E-10
 992 F= -.18901652E+03 E0= -.18898003E+03  d E =-.254659E-09
quench:  g(F)=  0.000E+00 g(S)=  0.000E+00 dE (1.order)= 0.000E+00
 bond charge predicted
       N       E                     dE             d eps       ncg     rms          rms(c)
DAV:   1    -0.189016523187E+03   -0.78944E-09   -0.28750E-10   198   0.190E-10    0.539E-10
RMM:   2    -0.189016523186E+03    0.60390E-09    0.00000E+00     0   0.285E-10
 993 F= -.18901652E+03 E0= -.18898003E+03  d E =0.269210E-09
quench:  g(F)=  0.000E+00 g(S)=  0.000E+00 dE (1.order)= 0.000E+00
 bond charge predicted
       N       E                     dE             d eps       ncg     rms          rms(c)
DAV:   1    -0.189016523186E+03    0.11278E-08   -0.20347E-10   198   0.336E-10    0.625E-10
RMM:   2    -0.189016523186E+03   -0.81855E-09    0.00000E+00     0   0.253E-10
 994 F= -.18901652E+03 E0= -.18898003E+03  d E =-.294676E-09
quench:  g(F)=  0.000E+00 g(S)=  0.000E+00 dE (1.order)= 0.000E+00
 bond charge predicted
       N       E                     dE             d eps       ncg     rms          rms(c)
DAV:   1    -0.189016523187E+03   -0.11569E-08   -0.16401E-10   198   0.338E-10    0.604E-10
RMM:   2    -0.189016523186E+03    0.57844E-09    0.00000E+00     0   0.202E-10
 995 F= -.18901652E+03 E0= -.18898003E+03  d E =0.240107E-09
quench:  g(F)=  0.000E+00 g(S)=  0.000E+00 dE (1.order)= 0.000E+00
 bond charge predicted
       N       E                     dE             d eps       ncg     rms          rms(c)
DAV:   1    -0.189016523186E+03    0.73487E-09   -0.24070E-10   198   0.331E-10    0.885E-10
RMM:   2    -0.189016523186E+03   -0.61846E-10    0.00000E+00     0   0.287E-10
 996 F= -.18901652E+03 E0= -.18898003E+03  d E =0.945874E-10
quench:  g(F)=  0.000E+00 g(S)=  0.000E+00 dE (1.order)= 0.000E+00
 bond charge predicted
       N       E                     dE             d eps       ncg     rms          rms(c)
DAV:   1    -0.189016523187E+03   -0.85856E-09   -0.39733E-10   198   0.401E-10    0.846E-10
RMM:   2    -0.189016523186E+03    0.46930E-09    0.00000E+00     0   0.289E-10
 997 F= -.18901652E+03 E0= -.18898003E+03  d E =-.327418E-09
quench:  g(F)=  0.000E+00 g(S)=  0.000E+00 dE (1.order)= 0.000E+00
 bond charge predicted
       N       E                     dE             d eps       ncg     rms          rms(c)
DAV:   1    -0.189016523186E+03    0.57480E-09   -0.17050E-10   198   0.498E-10    0.450E-10
RMM:   2    -0.189016523186E+03    0.26193E-09    0.00000E+00     0   0.255E-10
 998 F= -.18901652E+03 E0= -.18898003E+03  d E =0.367436E-09
quench:  g(F)=  0.000E+00 g(S)=  0.000E+00 dE (1.order)= 0.000E+00
 bond charge predicted
       N       E                     dE             d eps       ncg     rms          rms(c)
DAV:   1    -0.189016523186E+03    0.48749E-09   -0.24852E-10   198   0.303E-10    0.393E-10
RMM:   2    -0.189016523186E+03   -0.29831E-09    0.00000E+00     0   0.225E-10
 999 F= -.18901652E+03 E0= -.18898003E+03  d E =-.727596E-10
quench:  g(F)=  0.000E+00 g(S)=  0.000E+00 dE (1.order)= 0.000E+00
 bond charge predicted
       N       E                     dE             d eps       ncg     rms          rms(c)
DAV:   1    -0.189016523187E+03   -0.10368E-08   -0.13258E-10   198   0.255E-10    0.712E-10
RMM:   2    -0.189016523186E+03    0.63665E-09    0.00000E+00     0   0.365E-10
1000 F= -.18901652E+03 E0= -.18898003E+03  d E =-.101863E-09
quench:  g(F)=  0.000E+00 g(S)=  0.000E+00 dE (1.order)= 0.000E+00
