  19  19   0   0
  0.2504161E+02  0.6834254E-09  0.8835925E-09  0.7880486E-09  0.5000000E-15
   1.0000000000000000E-004
  CAR 
 endpoint_relax_bottleneck               
     11.24414171    -23.65255593  301      0.97479448      1.00000000
    -23.653  0.0000E+00  0.0000E+00
    -23.536  0.0000E+00  0.0000E+00
    -23.420  0.0000E+00  0.0000E+00
    -23.304 -0.1034E-29 -0.1203E-30
    -23.187 -0.1041E-25 -0.1211E-26
    -23.071 -0.5309E-22 -0.6177E-23
    -22.955 -0.1371E-18 -0.1595E-19
    -22.838 -0.1791E-15 -0.2085E-16
    -22.722 -0.1143E-12 -0.1332E-13
    -22.606 -0.3780E-10 -0.4410E-11
    -22.489 -0.6271E-08 -0.7339E-09
    -22.373 -0.5190E-06 -0.6110E-07
    -22.257 -0.2117E-04 -0.2524E-05
    -22.140 -0.4158E-03 -0.5089E-04
    -22.024 -0.3711E-02 -0.4825E-03
    -21.908 -0.1225E-01 -0.1908E-02
    -21.791  0.7382E-02 -0.1049E-02
    -21.675  0.1259E+00  0.1359E-01
    -21.559  0.3011E+00  0.4862E-01
    -21.442  0.4111E+00  0.9644E-01
    -21.326  0.3939E+00  0.1423E+00
    -21.210  0.2526E+00  0.1716E+00
    -21.093  0.8570E-01  0.1816E+00
    -20.977 -0.1170E-02  0.1815E+00
    -20.861 -0.9812E-02  0.1803E+00
    -20.744 -0.2538E-02  0.1800E+00
    -20.628 -0.2583E-03  0.1800E+00
    -20.512 -0.1208E-04  0.1800E+00
    -20.396 -0.2728E-06  0.1800E+00
    -20.279 -0.3042E-08  0.1800E+00
    -20.163 -0.1696E-10  0.1800E+00
    -20.047 -0.4758E-13  0.1800E+00
    -19.930 -0.5090E-16  0.1800E+00
    -19.814  0.0000E+00  0.1800E+00
    -19.698  0.0000E+00  0.1800E+00
    -19.581  0.0000E+00  0.1800E+00
    -19.465  0.0000E+00  0.1800E+00
    -19.349  0.0000E+00  0.1800E+00
    -19.232  0.0000E+00  0.1800E+00
    -19.116  0.0000E+00  0.1800E+00
    -19.000  0.0000E+00  0.1800E+00
    -18.883  0.0000E+00  0.1800E+00
    -18.767  0.0000E+00  0.1800E+00
    -18.651  0.0000E+00  0.1800E+00
    -18.534  0.0000E+00  0.1800E+00
    -18.418  0.0000E+00  0.1800E+00
    -18.302  0.0000E+00  0.1800E+00
    -18.185  0.0000E+00  0.1800E+00
    -18.069  0.0000E+00  0.1800E+00
    -17.953  0.0000E+00  0.1800E+00
    -17.836  0.0000E+00  0.1800E+00
    -17.720  0.0000E+00  0.1800E+00
    -17.604  0.0000E+00  0.1800E+00
    -17.487  0.0000E+00  0.1800E+00
    -17.371  0.0000E+00  0.1800E+00
    -17.255  0.0000E+00  0.1800E+00
    -17.139  0.0000E+00  0.1800E+00
    -17.022  0.0000E+00  0.1800E+00
    -16.906  0.0000E+00  0.1800E+00
    -16.790  0.0000E+00  0.1800E+00
    -16.673  0.0000E+00  0.1800E+00
    -16.557  0.0000E+00  0.1800E+00
    -16.441  0.0000E+00  0.1800E+00
    -16.324  0.0000E+00  0.1800E+00
    -16.208  0.0000E+00  0.1800E+00
    -16.092  0.0000E+00  0.1800E+00
    -15.975  0.0000E+00  0.1800E+00
    -15.859  0.0000E+00  0.1800E+00
    -15.743  0.0000E+00  0.1800E+00
    -15.626  0.0000E+00  0.1800E+00
    -15.510  0.0000E+00  0.1800E+00
    -15.394  0.0000E+00  0.1800E+00
    -15.277  0.0000E+00  0.1800E+00
    -15.161  0.0000E+00  0.1800E+00
    -15.045  0.0000E+00  0.1800E+00
    -14.928  0.0000E+00  0.1800E+00
    -14.812  0.0000E+00  0.1800E+00
    -14.696  0.0000E+00  0.1800E+00
    -14.579  0.0000E+00  0.1800E+00
    -14.463  0.0000E+00  0.1800E+00
    -14.347  0.0000E+00  0.1800E+00
    -14.230 -0.5174E-31  0.1800E+00
    -14.114 -0.6409E-27  0.1800E+00
    -13.998 -0.3923E-23  0.1800E+00
    -13.881 -0.1219E-19  0.1800E+00
    -13.765 -0.1921E-16  0.1800E+00
    -13.649 -0.1486E-13  0.1800E+00
    -13.533 -0.5965E-11  0.1800E+00
    -13.416 -0.1205E-08  0.1800E+00
    -13.300 -0.1219E-06  0.1800E+00
    -13.184 -0.6096E-05  0.1800E+00
    -13.067 -0.1473E-03  0.1800E+00
    -12.951 -0.1628E-02  0.1798E+00
    -12.835 -0.6898E-02  0.1790E+00
    -12.718  0.5450E-03  0.1791E+00
    -12.602  0.6947E-01  0.1871E+00
    -12.486  0.1592E+00  0.2057E+00
    -12.369  0.1662E+00  0.2250E+00
    -12.253  0.1258E+00  0.2396E+00
    -12.137  0.6220E-01  0.2469E+00
    -12.020  0.6098E-02  0.2476E+00
    -11.904 -0.5724E-02  0.2469E+00
    -11.788 -0.1820E-02  0.2467E+00
    -11.671 -0.2001E-03  0.2467E+00
    -11.555 -0.9742E-05  0.2467E+00
    -11.439 -0.2249E-06  0.2467E+00
    -11.322 -0.2533E-08  0.2467E+00
    -11.206 -0.3837E-10  0.2467E+00
    -11.090 -0.3400E-08  0.2467E+00
    -10.973 -0.2348E-06  0.2467E+00
    -10.857 -0.7843E-05  0.2467E+00
    -10.741 -0.1217E-03  0.2467E+00
    -10.624 -0.7894E-03  0.2466E+00
    -10.508 -0.1200E-02  0.2464E+00
    -10.392  0.5932E-02  0.2471E+00
    -10.275  0.2198E-01  0.2497E+00
    -10.159  0.2938E-01  0.2531E+00
    -10.043  0.2949E-01  0.2565E+00
     -9.927  0.2364E-01  0.2593E+00
     -9.810  0.5858E-02  0.2599E+00
     -9.694 -0.5795E-02  0.2593E+00
     -9.578  0.1042E-01  0.2605E+00
     -9.461  0.7109E-01  0.2688E+00
     -9.345  0.1278E+00  0.2836E+00
     -9.229  0.1078E+00  0.2962E+00
     -9.112  0.3893E-01  0.3007E+00
     -8.996 -0.7399E-03  0.3006E+00
     -8.880 -0.4086E-02  0.3001E+00
     -8.763 -0.9752E-03  0.3000E+00
     -8.647 -0.9264E-04  0.3000E+00
     -8.531 -0.4074E-05  0.3000E+00
     -8.414 -0.8689E-07  0.3000E+00
     -8.298 -0.9165E-09  0.3000E+00
     -8.182 -0.4829E-11  0.3000E+00
     -8.065 -0.1278E-13  0.3000E+00
     -7.949 -0.1273E-16  0.3000E+00
     -7.833  0.0000E+00  0.3000E+00
     -7.716  0.0000E+00  0.3000E+00
     -7.600  0.0000E+00  0.3000E+00
     -7.484  0.0000E+00  0.3000E+00
     -7.367  0.0000E+00  0.3000E+00
     -7.251  0.0000E+00  0.3000E+00
     -7.135  0.0000E+00  0.3000E+00
     -7.018  0.0000E+00  0.3000E+00
     -6.902  0.0000E+00  0.3000E+00
     -6.786  0.0000E+00  0.3000E+00
     -6.669  0.0000E+00  0.3000E+00
     -6.553  0.0000E+00  0.3000E+00
     -6.437  0.0000E+00  0.3000E+00
     -6.321  0.0000E+00  0.3000E+00
     -6.204  0.0000E+00  0.3000E+00
     -6.088  0.0000E+00  0.3000E+00
     -5.972  0.0000E+00  0.3000E+00
     -5.855  0.0000E+00  0.3000E+00
     -5.739  0.0000E+00  0.3000E+00
     -5.623  0.0000E+00  0.3000E+00
     -5.506  0.0000E+00  0.3000E+00
     -5.390  0.0000E+00  0.3000E+00
     -5.274  0.0000E+00  0.3000E+00
     -5.157  0.0000E+00  0.3000E+00
     -5.041 -0.4165E-30  0.3000E+00
     -4.925 -0.4025E-26  0.3000E+00
     -4.808 -0.1966E-22  0.3000E+00
     -4.692 -0.4850E-19  0.3000E+00
     -4.576 -0.5713E-16  0.3000E+00
     -4.459 -0.3644E-13  0.3000E+00
     -4.343 -0.1134E-10  0.3000E+00
     -4.227 -0.1758E-08  0.3000E+00
     -4.110 -0.1344E-06  0.3000E+00
     -3.994 -0.4984E-05  0.3000E+00
     -3.878 -0.8656E-04  0.3000E+00
     -3.761 -0.6418E-03  0.2999E+00
     -3.645 -0.1321E-02  0.2998E+00
     -3.529  0.4359E-02  0.3003E+00
     -3.412  0.1990E-01  0.3026E+00
     -3.296  0.2645E-01  0.3057E+00
     -3.180  0.2456E-01  0.3085E+00
     -3.064  0.2636E-01  0.3116E+00
     -2.947  0.1533E-01  0.3134E+00
     -2.831  0.1499E-02  0.3135E+00
     -2.715 -0.1329E-02  0.3134E+00
     -2.598 -0.3997E-03  0.3133E+00
     -2.482 -0.4158E-04  0.3133E+00
     -2.366 -0.1918E-05  0.3133E+00
     -2.249 -0.5786E-07  0.3133E+00
     -2.133 -0.8589E-06  0.3133E+00
     -2.017 -0.2229E-04  0.3133E+00
     -1.900 -0.2665E-03  0.3133E+00
     -1.784 -0.1301E-02  0.3131E+00
     -1.668 -0.1163E-02  0.3130E+00
     -1.551  0.8926E-02  0.3141E+00
     -1.435  0.3324E-01  0.3179E+00
     -1.319  0.6457E-01  0.3254E+00
     -1.202  0.7604E-01  0.3343E+00
     -1.086  0.4285E-01  0.3393E+00
     -0.970  0.1273E-01  0.3407E+00
     -0.853  0.2948E-01  0.3442E+00
     -0.737  0.4822E-01  0.3498E+00
     -0.621  0.2757E-01  0.3530E+00
     -0.504  0.1061E-01  0.3542E+00
     -0.388  0.2564E-01  0.3572E+00
     -0.272  0.4834E-01  0.3628E+00
     -0.155  0.6945E-01  0.3709E+00
     -0.039  0.8933E-01  0.3813E+00
      0.077  0.9328E-01  0.3921E+00
      0.194  0.6210E-01  0.3994E+00
      0.310  0.4420E-01  0.4045E+00
      0.426  0.6676E-01  0.4123E+00
      0.542  0.8524E-01  0.4222E+00
      0.659  0.9967E-01  0.4338E+00
      0.775  0.1005E+00  0.4455E+00
      0.891  0.6817E-01  0.4534E+00
      1.008  0.3634E-01  0.4576E+00
      1.124  0.1880E-01  0.4598E+00
      1.240  0.3960E-02  0.4603E+00
      1.357 -0.1485E-02  0.4601E+00
      1.473 -0.7538E-03  0.4600E+00
      1.589 -0.1091E-03  0.4600E+00
      1.706 -0.6739E-05  0.4600E+00
      1.822 -0.1945E-06  0.4600E+00
      1.938 -0.2719E-08  0.4600E+00
      2.055 -0.1873E-10  0.4600E+00
      2.171 -0.1240E-12  0.4600E+00
      2.287 -0.1759E-10  0.4600E+00
      2.404 -0.2574E-08  0.4600E+00
      2.520 -0.1856E-06  0.4600E+00
      2.636 -0.6480E-05  0.4600E+00
      2.753 -0.1054E-03  0.4600E+00
      2.869 -0.7212E-03  0.4599E+00
      2.985 -0.1198E-02  0.4598E+00
      3.102  0.5776E-02  0.4604E+00
      3.218  0.2238E-01  0.4630E+00
      3.334  0.2464E-01  0.4659E+00
      3.451  0.8447E-02  0.4669E+00
      3.567 -0.8174E-03  0.4668E+00
      3.683 -0.9104E-03  0.4667E+00
      3.800 -0.1610E-03  0.4667E+00
      3.916 -0.4128E-04  0.4667E+00
      4.032 -0.3195E-03  0.4666E+00
      4.148 -0.1238E-02  0.4665E+00
      4.265  0.7710E-03  0.4666E+00
      4.381  0.1417E-01  0.4682E+00
      4.497  0.2685E-01  0.4713E+00
      4.614  0.1693E-01  0.4733E+00
      4.730  0.1977E-02  0.4735E+00
      4.846 -0.1454E-02  0.4734E+00
      4.963 -0.1218E-02  0.4732E+00
      5.079 -0.1128E-02  0.4731E+00
      5.195  0.6763E-02  0.4739E+00
      5.312  0.2320E-01  0.4766E+00
      5.428  0.2267E-01  0.4792E+00
      5.544  0.3768E-02  0.4797E+00
      5.661  0.3428E-02  0.4801E+00
      5.777  0.4252E-01  0.4850E+00
      5.893  0.8130E-01  0.4945E+00
      6.010  0.6934E-01  0.5025E+00
      6.126  0.3656E-01  0.5068E+00
      6.242  0.2592E-01  0.5098E+00
      6.359  0.2329E-01  0.5125E+00
      6.475  0.8146E-02  0.5135E+00
      6.591 -0.4107E-02  0.5130E+00
      6.708 -0.1773E-02  0.5128E+00
      6.824  0.3450E-01  0.5168E+00
      6.940  0.9103E-01  0.5274E+00
      7.057  0.8652E-01  0.5374E+00
      7.173  0.2737E-01  0.5406E+00
      7.289 -0.6306E-02  0.5399E+00
      7.406 -0.2275E-02  0.5396E+00
      7.522  0.3906E-01  0.5442E+00
      7.638  0.8945E-01  0.5546E+00
      7.754  0.7795E-01  0.5636E+00
      7.871  0.2962E-01  0.5671E+00
      7.987  0.1515E-01  0.5688E+00
      8.103  0.2419E-01  0.5717E+00
      8.220  0.3331E-01  0.5755E+00
      8.336  0.5456E-01  0.5819E+00
      8.452  0.7094E-01  0.5901E+00
      8.569  0.6927E-01  0.5982E+00
      8.685  0.5351E-01  0.6044E+00
      8.801  0.4765E-01  0.6100E+00
      8.918  0.7090E-01  0.6182E+00
      9.034  0.7098E-01  0.6265E+00
      9.150  0.5189E-01  0.6325E+00
      9.267  0.4207E-01  0.6374E+00
      9.383  0.2232E-01  0.6400E+00
      9.499  0.2768E-02  0.6403E+00
      9.616 -0.1875E-02  0.6401E+00
      9.732 -0.6878E-03  0.6400E+00
      9.848 -0.8561E-04  0.6400E+00
      9.965 -0.4732E-05  0.6400E+00
     10.081 -0.1243E-06  0.6400E+00
     10.197 -0.1593E-08  0.6400E+00
     10.314 -0.1010E-10  0.6400E+00
     10.430 -0.3192E-13  0.6400E+00
     10.546 -0.5090E-16  0.6400E+00
     10.663  0.0000E+00  0.6400E+00
     10.779  0.0000E+00  0.6400E+00
     10.895  0.0000E+00  0.6400E+00
     11.011  0.0000E+00  0.6400E+00
     11.128  0.0000E+00  0.6400E+00
     11.244  0.0000E+00  0.6400E+00
