       N       E                     dE             d eps       ncg     rms          rms(c)
DAV:   1     0.139909264746E+04    0.13991E+04   -0.63155E+04   192   0.146E+03
DAV:   2     0.123886103072E+03   -0.12752E+04   -0.12251E+04   192   0.416E+02
DAV:   3    -0.600996589100E+02   -0.18399E+03   -0.18102E+03   224   0.166E+02
DAV:   4    -0.706566953975E+02   -0.10557E+02   -0.10470E+02   240   0.384E+01
DAV:   5    -0.710278424678E+02   -0.37115E+00   -0.37077E+00   288   0.750E+00    0.127E+01
RMM:   6    -0.667830225570E+02    0.42448E+01   -0.60299E+00   199   0.589E+00    0.818E+00
RMM:   7    -0.665701945400E+02    0.21283E+00   -0.46673E+00   202   0.405E+00    0.520E+00
RMM:   8    -0.665890594443E+02   -0.18865E-01   -0.27998E-01   215   0.243E+00    0.127E+00
RMM:   9    -0.665894520006E+02   -0.39256E-03   -0.13269E-01   226   0.111E+00    0.855E-01
RMM:  10    -0.665861920040E+02    0.32600E-02   -0.45156E-02   250   0.650E-01    0.509E-01
RMM:  11    -0.665856163666E+02    0.57564E-03   -0.77309E-03   268   0.265E-01    0.377E-01
RMM:  12    -0.665876451262E+02   -0.20288E-02   -0.20741E-03   222   0.127E-01    0.157E-01
RMM:  13    -0.665891123684E+02   -0.14672E-02   -0.19243E-03   195   0.126E-01    0.117E-01
RMM:  14    -0.665891681866E+02   -0.55818E-04   -0.50886E-04   234   0.712E-02    0.338E-02
RMM:  15    -0.665891921613E+02   -0.23975E-04   -0.12018E-04   238   0.414E-02    0.108E-02
RMM:  16    -0.665892005188E+02   -0.83575E-05   -0.48879E-05   226   0.212E-02    0.848E-03
RMM:  17    -0.665892024991E+02   -0.19803E-05   -0.13737E-05   189   0.106E-02    0.670E-03
RMM:  18    -0.665892028189E+02   -0.31981E-06   -0.24201E-06   143   0.523E-03
   1 F= -.66589203E+02 E0= -.66579856E+02  d E =-.665892E+02
       N       E                     dE             d eps       ncg     rms          rms(c)
DAV:   1    -0.666183425619E+02   -0.29140E-01   -0.86668E+00   224   0.756E+00    0.108E+00
RMM:   2    -0.666400537198E+02   -0.21711E-01   -0.24368E-01   235   0.196E+00    0.357E-01
RMM:   3    -0.666471220469E+02   -0.70683E-02   -0.81262E-02   260   0.100E+00    0.304E-01
RMM:   4    -0.666475523826E+02   -0.43034E-03   -0.75778E-03   249   0.306E-01    0.289E-01
RMM:   5    -0.666475200330E+02    0.32350E-04   -0.14038E-03   235   0.114E-01    0.253E-01
RMM:   6    -0.666474507642E+02    0.69269E-04   -0.28417E-04   206   0.512E-02    0.141E-01
RMM:   7    -0.666474603919E+02   -0.96277E-05   -0.39206E-04   216   0.462E-02    0.705E-02
RMM:   8    -0.666474405525E+02    0.19839E-04   -0.20693E-04   231   0.373E-02    0.814E-02
RMM:   9    -0.666474158523E+02    0.24700E-04   -0.23626E-05   180   0.185E-02    0.293E-02
RMM:  10    -0.666474260979E+02   -0.10246E-04   -0.17094E-04   213   0.251E-02    0.568E-02
RMM:  11    -0.666474164538E+02    0.96441E-05   -0.10260E-04   215   0.219E-02    0.390E-02
RMM:  12    -0.666474192517E+02   -0.27979E-05   -0.11517E-05   178   0.903E-03    0.433E-02
RMM:  13    -0.666474119809E+02    0.72708E-05   -0.32765E-05   205   0.109E-02    0.462E-03
RMM:  14    -0.666474119139E+02    0.66964E-07   -0.19227E-06   131   0.464E-03
   2 F= -.66647412E+02 E0= -.66639612E+02  d E =-.582091E-01
       N       E                     dE             d eps       ncg     rms          rms(c)
DAV:   1    -0.664309321239E+02    0.21648E+00   -0.79167E+01   208   0.237E+01    0.380E+00
RMM:   2    -0.666536268450E+02   -0.22269E+00   -0.24593E+00   232   0.581E+00    0.107E+00
RMM:   3    -0.667293771243E+02   -0.75750E-01   -0.85787E-01   259   0.331E+00    0.112E+00
RMM:   4    -0.667344943067E+02   -0.51172E-02   -0.82546E-02   253   0.993E-01    0.114E+00
RMM:   5    -0.667340926950E+02    0.40161E-03   -0.11122E-02   236   0.340E-01    0.933E-01
RMM:   6    -0.667330527247E+02    0.10400E-02   -0.39790E-03   209   0.178E-01    0.343E-01
RMM:   7    -0.667335293868E+02   -0.47666E-03   -0.68191E-03   218   0.171E-01    0.428E-01
RMM:   8    -0.667333828389E+02    0.14655E-03   -0.86937E-04   248   0.961E-02    0.366E-01
RMM:   9    -0.667330828022E+02    0.30004E-03   -0.14046E-04   208   0.483E-02    0.215E-01
RMM:  10    -0.667332032025E+02   -0.12040E-03   -0.35039E-03   255   0.124E-01    0.268E-01
RMM:  11    -0.667329821353E+02    0.22107E-03   -0.16707E-03   236   0.881E-02    0.147E-01
RMM:  12    -0.667329909841E+02   -0.88489E-05   -0.94819E-05   192   0.277E-02    0.137E-01
RMM:  13    -0.667329324874E+02    0.58497E-04   -0.17147E-04   221   0.275E-02    0.952E-03
RMM:  14    -0.667329345888E+02   -0.21014E-05   -0.20769E-05   202   0.116E-02    0.745E-03
RMM:  15    -0.667329346431E+02   -0.54277E-07   -0.20157E-06   148   0.523E-03
   3 F= -.66732935E+02 E0= -.66728921E+02  d E =-.143732E+00
       N       E                     dE             d eps       ncg     rms          rms(c)
DAV:   1    -0.667247329247E+02    0.82017E-02   -0.19169E+01   224   0.116E+01    0.156E+00
RMM:   2    -0.667705993823E+02   -0.45866E-01   -0.50275E-01   232   0.293E+00    0.405E-01
RMM:   3    -0.667840204370E+02   -0.13421E-01   -0.15329E-01   255   0.150E+00    0.424E-01
RMM:   4    -0.667851393484E+02   -0.11189E-02   -0.17780E-02   258   0.493E-01    0.403E-01
RMM:   5    -0.667849395354E+02    0.19981E-03   -0.19647E-03   239   0.163E-01    0.336E-01
RMM:   6    -0.667847091676E+02    0.23037E-03   -0.91031E-04   199   0.842E-02    0.121E-01
RMM:   7    -0.667848094751E+02   -0.10031E-03   -0.11210E-03   222   0.753E-02    0.114E-01
RMM:   8    -0.667847721524E+02    0.37323E-04   -0.99287E-05   211   0.405E-02    0.714E-02
RMM:   9    -0.667847303303E+02    0.41822E-04   -0.15995E-04   184   0.318E-02    0.374E-02
RMM:  10    -0.667847498978E+02   -0.19567E-04   -0.10751E-04   227   0.235E-02    0.581E-02
RMM:  11    -0.667847381935E+02    0.11704E-04   -0.12912E-04   207   0.222E-02    0.324E-02
RMM:  12    -0.667847419968E+02   -0.38033E-05   -0.17950E-05   199   0.111E-02    0.382E-02
RMM:  13    -0.667847321171E+02    0.98798E-05   -0.27980E-05   194   0.100E-02    0.406E-03
RMM:  14    -0.667847322829E+02   -0.16580E-06   -0.20148E-06   139   0.457E-03
   4 F= -.66784732E+02 E0= -.66780759E+02  d E =-.517976E-01
       N       E                     dE             d eps       ncg     rms          rms(c)
DAV:   1    -0.667110578737E+02    0.73674E-01   -0.30488E+01   208   0.147E+01    0.201E+00
RMM:   2    -0.667855160193E+02   -0.74458E-01   -0.81607E-01   232   0.372E+00    0.518E-01
RMM:   3    -0.668076522707E+02   -0.22136E-01   -0.25288E-01   257   0.193E+00    0.553E-01
RMM:   4    -0.668095463743E+02   -0.18941E-02   -0.29486E-02   258   0.623E-01    0.528E-01
RMM:   5    -0.668092605074E+02    0.28587E-03   -0.33463E-03   239   0.207E-01    0.450E-01
RMM:   6    -0.668088906185E+02    0.36989E-03   -0.12624E-03   200   0.103E-01    0.192E-01
RMM:   7    -0.668090426067E+02   -0.15199E-03   -0.22368E-03   214   0.102E-01    0.167E-01
RMM:   8    -0.668089655639E+02    0.77043E-04   -0.19410E-04   222   0.565E-02    0.905E-02
RMM:   9    -0.668089025675E+02    0.62996E-04   -0.25579E-04   185   0.412E-02    0.585E-02
RMM:  10    -0.668089467256E+02   -0.44158E-04   -0.21826E-04   211   0.327E-02    0.996E-02
RMM:  11    -0.668089089983E+02    0.37727E-04   -0.20315E-04   208   0.305E-02    0.339E-02
RMM:  12    -0.668089181493E+02   -0.91510E-05   -0.40670E-05   199   0.159E-02    0.497E-02
RMM:  13    -0.668089040515E+02    0.14098E-04   -0.40295E-05   187   0.127E-02    0.698E-03
RMM:  14    -0.668089043301E+02   -0.27857E-06   -0.35445E-06   169   0.626E-03
   5 F= -.66808904E+02 E0= -.66804902E+02  d E =-.759697E-01
       N       E                     dE             d eps       ncg     rms          rms(c)
DAV:   1    -0.667602348538E+02    0.48669E-01   -0.33042E+01   224   0.154E+01    0.158E+00
RMM:   2    -0.668239234068E+02   -0.63689E-01   -0.68625E-01   233   0.350E+00    0.419E-01
RMM:   3    -0.668421794856E+02   -0.18256E-01   -0.20131E-01   251   0.186E+00    0.399E-01
RMM:   4    -0.668455077181E+02   -0.33282E-02   -0.39383E-02   256   0.705E-01    0.390E-01
RMM:   5    -0.668453965796E+02    0.11114E-03   -0.26734E-03   244   0.210E-01    0.347E-01
RMM:   6    -0.668451842702E+02    0.21231E-03   -0.86437E-04   202   0.995E-02    0.166E-01
RMM:   7    -0.668452858484E+02   -0.10158E-03   -0.16556E-03   213   0.984E-02    0.143E-01
RMM:   8    -0.668452713914E+02    0.14457E-04   -0.25466E-04   245   0.550E-02    0.111E-01
RMM:   9    -0.668452128451E+02    0.58546E-04   -0.29567E-05   191   0.222E-02    0.583E-02
RMM:  10    -0.668452529802E+02   -0.40135E-04   -0.66373E-04   248   0.519E-02    0.940E-02
RMM:  11    -0.668451931461E+02    0.59834E-04   -0.28885E-04   230   0.343E-02    0.331E-02
RMM:  12    -0.668451929719E+02    0.17425E-06   -0.12805E-05   199   0.124E-02    0.252E-02
RMM:  13    -0.668451888609E+02    0.41110E-05   -0.40273E-06   155   0.592E-03    0.831E-03
RMM:  14    -0.668451887346E+02    0.12625E-06   -0.63547E-06   150   0.532E-03
   6 F= -.66845189E+02 E0= -.66842626E+02  d E =-.362844E-01
       N       E                     dE             d eps       ncg     rms          rms(c)
DAV:   1    -0.668105700423E+02    0.34619E-01   -0.18028E+01   208   0.113E+01    0.114E+00
RMM:   2    -0.668437355061E+02   -0.33165E-01   -0.35653E-01   233   0.252E+00    0.294E-01
RMM:   3    -0.668533387208E+02   -0.96032E-02   -0.10486E-01   253   0.133E+00    0.284E-01
RMM:   4    -0.668546826498E+02   -0.13439E-02   -0.16924E-02   255   0.478E-01    0.282E-01
RMM:   5    -0.668545948193E+02    0.87830E-04   -0.11572E-03   246   0.142E-01    0.245E-01
RMM:   6    -0.668544532249E+02    0.14159E-03   -0.55468E-04   200   0.729E-02    0.950E-02
RMM:   7    -0.668545250891E+02   -0.71864E-04   -0.78558E-04   222   0.659E-02    0.950E-02
RMM:   8    -0.668545059070E+02    0.19182E-04   -0.92258E-05   218   0.356E-02    0.667E-02
RMM:   9    -0.668544693870E+02    0.36520E-04   -0.11458E-04   188   0.273E-02    0.286E-02
RMM:  10    -0.668544759981E+02   -0.66111E-05   -0.41673E-05   228   0.178E-02    0.281E-02
RMM:  11    -0.668544726367E+02    0.33614E-05   -0.26806E-05   173   0.118E-02    0.161E-02
RMM:  12    -0.668544723200E+02    0.31670E-06   -0.33058E-06   184   0.687E-03
   7 F= -.66854472E+02 E0= -.66852956E+02  d E =-.455680E-01
       N       E                     dE             d eps       ncg     rms          rms(c)
DAV:   1    -0.668339567905E+02    0.20516E-01   -0.17456E+01   208   0.114E+01    0.973E-01
RMM:   2    -0.668673214787E+02   -0.33365E-01   -0.35783E-01   237   0.251E+00    0.212E-01
RMM:   3    -0.668752390192E+02   -0.79175E-02   -0.89236E-02   256   0.129E+00    0.231E-01
RMM:   4    -0.668765706938E+02   -0.13317E-02   -0.17008E-02   260   0.481E-01    0.227E-01
RMM:   5    -0.668764396173E+02    0.13108E-03   -0.89857E-04   247   0.136E-01    0.190E-01
RMM:   6    -0.668762390172E+02    0.20060E-03   -0.95702E-04   207   0.833E-02    0.483E-02
RMM:   7    -0.668763025638E+02   -0.63547E-04   -0.48435E-04   246   0.536E-02    0.506E-02
RMM:   8    -0.668762692817E+02    0.33282E-04   -0.38697E-05   195   0.245E-02    0.254E-02
RMM:   9    -0.668762925796E+02   -0.23298E-04   -0.28379E-04   225   0.331E-02    0.442E-02
RMM:  10    -0.668762653853E+02    0.27194E-04   -0.28592E-05   168   0.166E-02    0.174E-02
RMM:  11    -0.668762625527E+02    0.28325E-05   -0.55486E-05   187   0.131E-02    0.103E-02
RMM:  12    -0.668762615074E+02    0.10453E-05   -0.33408E-06   161   0.697E-03    0.331E-03
RMM:  13    -0.668762611107E+02    0.39674E-06   -0.14715E-06   136   0.366E-03
   8 F= -.66876261E+02 E0= -.66875641E+02  d E =-.217888E-01
       N       E                     dE             d eps       ncg     rms          rms(c)
DAV:   1    -0.668525648037E+02    0.23697E-01   -0.12382E+01   224   0.968E+00    0.814E-01
RMM:   2    -0.668757803094E+02   -0.23216E-01   -0.24864E-01   237   0.209E+00    0.172E-01
RMM:   3    -0.668812590239E+02   -0.54787E-02   -0.61456E-02   255   0.106E+00    0.192E-01
RMM:   4    -0.668821781087E+02   -0.91908E-03   -0.11732E-02   263   0.402E-01    0.187E-01
RMM:   5    -0.668820810364E+02    0.97072E-04   -0.59900E-04   243   0.112E-01    0.155E-01
RMM:   6    -0.668819483561E+02    0.13268E-03   -0.74777E-04   203   0.724E-02    0.365E-02
RMM:   7    -0.668819913726E+02   -0.43016E-04   -0.31037E-04   254   0.450E-02    0.405E-02
RMM:   8    -0.668819670990E+02    0.24274E-04   -0.26209E-05   186   0.185E-02    0.196E-02
RMM:   9    -0.668819829744E+02   -0.15875E-04   -0.19231E-04   226   0.266E-02    0.329E-02
RMM:  10    -0.668819640769E+02    0.18897E-04   -0.24055E-05   165   0.142E-02    0.104E-02
RMM:  11    -0.668819634731E+02    0.60381E-06   -0.29321E-05   173   0.101E-02    0.795E-03
RMM:  12    -0.668819628044E+02    0.66871E-06   -0.21944E-06   157   0.582E-03
   9 F= -.66881963E+02 E0= -.66882130E+02  d E =-.274905E-01
       N       E                     dE             d eps       ncg     rms          rms(c)
DAV:   1    -0.668395133135E+02    0.42450E-01   -0.22786E+01   208   0.135E+01    0.119E+00
RMM:   2    -0.668826048427E+02   -0.43092E-01   -0.46729E-01   234   0.300E+00    0.373E-01
RMM:   3    -0.668964002748E+02   -0.13795E-01   -0.14965E-01   256   0.160E+00    0.327E-01
RMM:   4    -0.668983250021E+02   -0.19247E-02   -0.23079E-02   247   0.563E-01    0.318E-01
RMM:   5    -0.668983107162E+02    0.14286E-04   -0.22078E-03   234   0.187E-01    0.285E-01
RMM:   6    -0.668982023355E+02    0.10838E-03   -0.53224E-04   210   0.864E-02    0.140E-01
RMM:   7    -0.668982434213E+02   -0.41086E-04   -0.99812E-04   218   0.781E-02    0.123E-01
RMM:   8    -0.668982252974E+02    0.18124E-04   -0.14018E-04   238   0.422E-02    0.698E-02
RMM:   9    -0.668981870065E+02    0.38291E-04   -0.10516E-04   192   0.306E-02    0.426E-02
RMM:  10    -0.668981887536E+02   -0.17471E-05   -0.11995E-05   200   0.168E-02    0.105E-02
RMM:  11    -0.668981945388E+02   -0.57852E-05   -0.90910E-06   169   0.946E-03    0.430E-02
RMM:  12    -0.668981969696E+02   -0.24308E-05   -0.41630E-06   170   0.574E-03    0.507E-02
RMM:  13    -0.668981919817E+02    0.49879E-05   -0.27744E-06   149   0.460E-03    0.358E-02
RMM:  14    -0.668981896412E+02    0.23405E-05   -0.23616E-05   212   0.102E-02    0.286E-03
RMM:  15    -0.668981895127E+02    0.12850E-06   -0.96854E-07   122   0.418E-03
  10 F= -.66898190E+02 E0= -.66898545E+02  d E =-.162267E-01
       N       E                     dE             d eps       ncg     rms          rms(c)
DAV:   1    -0.668568347739E+02    0.41355E-01   -0.17994E+01   224   0.118E+01    0.104E+00
RMM:   2    -0.668903981367E+02   -0.33563E-01   -0.36406E-01   234   0.266E+00    0.328E-01
RMM:   3    -0.669011320550E+02   -0.10734E-01   -0.11635E-01   256   0.140E+00    0.290E-01
RMM:   4    -0.669026771277E+02   -0.15451E-02   -0.18439E-02   252   0.498E-01    0.288E-01
RMM:   5    -0.669026509798E+02    0.26148E-04   -0.15379E-03   235   0.157E-01    0.255E-01
RMM:   6    -0.669025590532E+02    0.91927E-04   -0.43374E-04   212   0.758E-02    0.127E-01
RMM:   7    -0.669025916496E+02   -0.32596E-04   -0.82087E-04   217   0.687E-02    0.112E-01
RMM:   8    -0.669025769243E+02    0.14725E-04   -0.10791E-04   234   0.368E-02    0.677E-02
RMM:   9    -0.669025465536E+02    0.30371E-04   -0.36288E-05   197   0.184E-02    0.172E-02
RMM:  10    -0.669025640417E+02   -0.17488E-04   -0.14860E-04   225   0.273E-02    0.700E-02
RMM:  11    -0.669025535107E+02    0.10531E-04   -0.13012E-04   235   0.255E-02    0.417E-02
RMM:  12    -0.669025578907E+02   -0.43799E-05   -0.15696E-05   200   0.117E-02    0.507E-02
RMM:  13    -0.669025482261E+02    0.96646E-05   -0.72413E-06   168   0.697E-03    0.311E-02
RMM:  14    -0.669025465778E+02    0.16484E-05   -0.25256E-05   205   0.103E-02    0.307E-03
RMM:  15    -0.669025463835E+02    0.19424E-06   -0.12266E-06   121   0.477E-03
  11 F= -.66902546E+02 E0= -.66902986E+02  d E =-.205836E-01
       N       E                     dE             d eps       ncg     rms          rms(c)
DAV:   1    -0.668551498226E+02    0.47397E-01   -0.24113E+01   208   0.131E+01    0.121E+00
RMM:   2    -0.669005257303E+02   -0.45376E-01   -0.48678E-01   239   0.301E+00    0.348E-01
RMM:   3    -0.669143949860E+02   -0.13869E-01   -0.15173E-01   255   0.155E+00    0.297E-01
RMM:   4    -0.669160446572E+02   -0.16497E-02   -0.19864E-02   249   0.520E-01    0.296E-01
RMM:   5    -0.669160314205E+02    0.13237E-04   -0.19470E-03   239   0.175E-01    0.268E-01
RMM:   6    -0.669158975071E+02    0.13391E-03   -0.56623E-04   202   0.843E-02    0.101E-01
RMM:   7    -0.669159535941E+02   -0.56087E-04   -0.93020E-04   220   0.757E-02    0.121E-01
RMM:   8    -0.669159369575E+02    0.16637E-04   -0.12415E-04   240   0.404E-02    0.790E-02
RMM:   9    -0.669158982409E+02    0.38717E-04   -0.45099E-05   197   0.220E-02    0.167E-02
RMM:  10    -0.669159001782E+02   -0.19373E-05   -0.63555E-05   198   0.193E-02    0.166E-02
RMM:  11    -0.669158992022E+02    0.97599E-06   -0.14067E-05   175   0.126E-02    0.247E-02
RMM:  12    -0.669159034442E+02   -0.42420E-05   -0.11590E-05   176   0.829E-03    0.381E-02
RMM:  13    -0.669158981902E+02    0.52539E-05   -0.56373E-06   167   0.752E-03    0.124E-02
RMM:  14    -0.669158982770E+02   -0.86759E-07   -0.80646E-06   171   0.600E-03
  12 F= -.66915898E+02 E0= -.66916772E+02  d E =-.133519E-01
       N       E                     dE             d eps       ncg     rms          rms(c)
DAV:   1    -0.669035518505E+02    0.12346E-01   -0.62035E+00   224   0.661E+00    0.583E-01
RMM:   2    -0.669145330165E+02   -0.10981E-01   -0.11691E-01   239   0.147E+00    0.155E-01
RMM:   3    -0.669175462862E+02   -0.30133E-02   -0.32243E-02   253   0.734E-01    0.140E-01
RMM:   4    -0.669180453211E+02   -0.49903E-03   -0.58577E-03   248   0.274E-01    0.138E-01
RMM:   5    -0.669180338162E+02    0.11505E-04   -0.44263E-04   229   0.887E-02    0.122E-01
RMM:   6    -0.669180004624E+02    0.33354E-04   -0.22049E-04   199   0.491E-02    0.345E-02
RMM:   7    -0.669180204947E+02   -0.20032E-04   -0.19289E-04   240   0.354E-02    0.468E-02
RMM:   8    -0.669180125783E+02    0.79163E-05   -0.15084E-05   186   0.161E-02    0.271E-02
RMM:   9    -0.669180059520E+02    0.66263E-05   -0.28500E-05   192   0.143E-02    0.164E-02
RMM:  10    -0.669180124672E+02   -0.65152E-05   -0.27798E-05   195   0.124E-02    0.314E-02
RMM:  11    -0.669180063966E+02    0.60706E-05   -0.23246E-05   189   0.114E-02    0.785E-03
RMM:  12    -0.669180069039E+02   -0.50724E-06   -0.38956E-06   179   0.563E-03
  13 F= -.66918007E+02 E0= -.66919081E+02  d E =-.154605E-01
       N       E                     dE             d eps       ncg     rms          rms(c)
DAV:   1    -0.668715972101E+02    0.46409E-01   -0.26162E+01   208   0.128E+01    0.116E+00
RMM:   2    -0.669199665049E+02   -0.48369E-01   -0.51399E-01   236   0.283E+00    0.234E-01
RMM:   3    -0.669330047574E+02   -0.13038E-01   -0.13978E-01   256   0.145E+00    0.282E-01
RMM:   4    -0.669342687472E+02   -0.12640E-02   -0.17599E-02   255   0.491E-01    0.251E-01
RMM:   5    -0.669340461910E+02    0.22256E-03   -0.13342E-03   225   0.160E-01    0.176E-01
RMM:   6    -0.669339818213E+02    0.64370E-04   -0.13106E-03   204   0.963E-02    0.430E-02
RMM:   7    -0.669340082597E+02   -0.26438E-04   -0.27417E-04   251   0.555E-02    0.371E-02
RMM:   8    -0.669339831051E+02    0.25155E-04   -0.27844E-05   208   0.218E-02    0.203E-02
RMM:   9    -0.669339938366E+02   -0.10731E-04   -0.15553E-04   193   0.272E-02    0.309E-02
RMM:  10    -0.669339815017E+02    0.12335E-04   -0.16826E-05   176   0.164E-02    0.130E-02
RMM:  11    -0.669339793737E+02    0.21280E-05   -0.28945E-05   172   0.115E-02    0.759E-03
RMM:  12    -0.669339789791E+02    0.39458E-06   -0.25684E-06   172   0.644E-03
  14 F= -.66933979E+02 E0= -.66935028E+02  d E =-.159721E-01
       N       E                     dE             d eps       ncg     rms          rms(c)
DAV:   1    -0.666917679729E+02    0.24221E+00   -0.10123E+02   224   0.261E+01    0.244E+00
RMM:   2    -0.668876108250E+02   -0.19584E+00   -0.20745E+00   234   0.551E+00    0.430E-01
RMM:   3    -0.669391057673E+02   -0.51495E-01   -0.55294E-01   254   0.281E+00    0.562E-01
RMM:   4    -0.669429917961E+02   -0.38860E-02   -0.58697E-02   262   0.934E-01    0.538E-01
RMM:   5    -0.669420115352E+02    0.98026E-03   -0.49457E-03   233   0.293E-01    0.355E-01
RMM:   6    -0.669418105059E+02    0.20103E-03   -0.42714E-03   202   0.168E-01    0.759E-02
RMM:   7    -0.669419089818E+02   -0.98476E-04   -0.10140E-03   266   0.102E-01    0.690E-02
RMM:   8    -0.669418058396E+02    0.10314E-03   -0.97780E-05   212   0.382E-02    0.360E-02
RMM:   9    -0.669418503981E+02   -0.44559E-04   -0.52728E-04   196   0.486E-02    0.674E-02
RMM:  10    -0.669418025494E+02    0.47849E-04   -0.65019E-05   184   0.287E-02    0.248E-02
RMM:  11    -0.669418013106E+02    0.12388E-05   -0.11448E-04   184   0.213E-02    0.179E-02
RMM:  12    -0.669417970179E+02    0.42927E-05   -0.78270E-06   180   0.127E-02    0.627E-03
RMM:  13    -0.669417957237E+02    0.12942E-05   -0.58721E-06   162   0.673E-03    0.392E-03
RMM:  14    -0.669417957448E+02   -0.21142E-07   -0.94799E-07   126   0.372E-03
  15 F= -.66941796E+02 E0= -.66942810E+02  d E =-.237888E-01
       N       E                     dE             d eps       ncg     rms          rms(c)
DAV:   1    -0.669274845773E+02    0.14311E-01   -0.68013E+00   224   0.640E+00    0.564E-01
RMM:   2    -0.669393922655E+02   -0.11908E-01   -0.12664E-01   235   0.140E+00    0.119E-01
RMM:   3    -0.669424629606E+02   -0.30707E-02   -0.32884E-02   257   0.712E-01    0.144E-01
RMM:   4    -0.669428917871E+02   -0.42883E-03   -0.56209E-03   252   0.257E-01    0.121E-01
RMM:   5    -0.669428361206E+02    0.55667E-04   -0.38241E-04   213   0.847E-02    0.857E-02
RMM:   6    -0.669428242046E+02    0.11916E-04   -0.33279E-04   189   0.526E-02    0.198E-02
RMM:   7    -0.669428333133E+02   -0.91087E-05   -0.81574E-05   246   0.312E-02    0.169E-02
RMM:   8    -0.669428277842E+02    0.55291E-05   -0.72757E-06   194   0.118E-02    0.987E-03
RMM:   9    -0.669428292263E+02   -0.14422E-05   -0.30812E-05   176   0.118E-02    0.140E-02
RMM:  10    -0.669428268128E+02    0.24135E-05   -0.38449E-06   157   0.820E-03    0.438E-03
RMM:  11    -0.669428272455E+02   -0.43274E-06   -0.72812E-06   156   0.557E-03
  16 F= -.66942827E+02 E0= -.66943848E+02  d E =-.248203E-01
       N       E                     dE             d eps       ncg     rms          rms(c)
DAV:   1    -0.669021491692E+02    0.40678E-01   -0.23373E+01   224   0.119E+01    0.833E-01
RMM:   2    -0.669417770877E+02   -0.39628E-01   -0.42095E-01   237   0.255E+00    0.247E-01
RMM:   3    -0.669541033906E+02   -0.12326E-01   -0.12842E-01   255   0.134E+00    0.242E-01
RMM:   4    -0.669552106318E+02   -0.11072E-02   -0.13862E-02   253   0.433E-01    0.228E-01
RMM:   5    -0.669551162985E+02    0.94333E-04   -0.11274E-03   230   0.143E-01    0.177E-01
RMM:   6    -0.669550476195E+02    0.68679E-04   -0.57193E-04   201   0.758E-02    0.558E-02
RMM:   7    -0.669550965923E+02   -0.48973E-04   -0.39671E-04   249   0.544E-02    0.537E-02
RMM:   8    -0.669550747789E+02    0.21813E-04   -0.30408E-05   197   0.226E-02    0.299E-02
RMM:   9    -0.669550741707E+02    0.60812E-06   -0.16630E-04   215   0.312E-02    0.396E-02
RMM:  10    -0.669550631263E+02    0.11044E-04   -0.18017E-05   178   0.153E-02    0.107E-02
RMM:  11    -0.669550656251E+02   -0.24988E-05   -0.31164E-05   172   0.120E-02    0.178E-02
RMM:  12    -0.669550650417E+02    0.58341E-06   -0.36406E-06   179   0.623E-03
  17 F= -.66955065E+02 E0= -.66956145E+02  d E =-.122378E-01
       N       E                     dE             d eps       ncg     rms          rms(c)
DAV:   1    -0.663009827458E+02    0.65408E+00   -0.22340E+02   208   0.406E+01    0.286E+00
RMM:   2    -0.668146655202E+02   -0.51368E+00   -0.53595E+00   232   0.858E+00    0.810E-01
RMM:   3    -0.669584497264E+02   -0.14378E+00   -0.14895E+00   257   0.488E+00    0.839E-01
RMM:   4    -0.669733301135E+02   -0.14880E-01   -0.17733E-01   258   0.151E+00    0.831E-01
RMM:   5    -0.669730388958E+02    0.29122E-03   -0.13075E-02   243   0.468E-01    0.714E-01
RMM:   6    -0.669722069078E+02    0.83199E-03   -0.32052E-03   203   0.211E-01    0.363E-01
RMM:   7    -0.669726059571E+02   -0.39905E-03   -0.65365E-03   213   0.201E-01    0.283E-01
RMM:   8    -0.669724975458E+02    0.10841E-03   -0.95411E-04   235   0.117E-01    0.204E-01
RMM:   9    -0.669721370193E+02    0.36053E-03   -0.10518E-03   196   0.989E-02    0.110E-01
RMM:  10    -0.669721622653E+02   -0.25246E-04   -0.24703E-04   257   0.526E-02    0.572E-02
RMM:  11    -0.669721555047E+02    0.67606E-05   -0.83974E-05   186   0.286E-02    0.412E-02
RMM:  12    -0.669721700367E+02   -0.14532E-04   -0.44106E-05   220   0.185E-02    0.611E-02
RMM:  13    -0.669721481140E+02    0.21923E-04   -0.41636E-05   181   0.198E-02    0.136E-02
RMM:  14    -0.669721487313E+02   -0.61733E-06   -0.16986E-05   211   0.107E-02    0.412E-03
RMM:  15    -0.669721487197E+02    0.11618E-07   -0.16495E-06   133   0.556E-03
  18 F= -.66972149E+02 E0= -.66973230E+02  d E =-.293215E-01
       N       E                     dE             d eps       ncg     rms          rms(c)
DAV:   1    -0.668889625999E+02    0.83186E-01   -0.41989E+01   224   0.152E+01    0.105E+00
RMM:   2    -0.669664082463E+02   -0.77446E-01   -0.81205E-01   233   0.321E+00    0.280E-01
RMM:   3    -0.669896381344E+02   -0.23230E-01   -0.24422E-01   258   0.173E+00    0.299E-01
RMM:   4    -0.669911763873E+02   -0.15383E-02   -0.19710E-02   263   0.532E-01    0.275E-01
RMM:   5    -0.669910351611E+02    0.14123E-03   -0.16885E-03   239   0.169E-01    0.218E-01
RMM:   6    -0.669908883620E+02    0.14680E-03   -0.84294E-04   194   0.896E-02    0.625E-02
RMM:   7    -0.669909745136E+02   -0.86152E-04   -0.64942E-04   249   0.671E-02    0.722E-02
RMM:   8    -0.669909317118E+02    0.42802E-04   -0.45492E-05   197   0.294E-02    0.415E-02
RMM:   9    -0.669909550095E+02   -0.23298E-04   -0.46563E-04   239   0.488E-02    0.678E-02
RMM:  10    -0.669909055665E+02    0.49443E-04   -0.97169E-05   181   0.271E-02    0.573E-03
RMM:  11    -0.669909076576E+02   -0.20911E-05   -0.28923E-05   199   0.133E-02    0.654E-03
RMM:  12    -0.669909071988E+02    0.45888E-06   -0.18427E-06   148   0.631E-03
  19 F= -.66990907E+02 E0= -.66991825E+02  d E =-.187585E-01
       N       E                     dE             d eps       ncg     rms          rms(c)
DAV:   1    -0.657021799101E+02    0.12887E+01   -0.46087E+02   208   0.602E+01    0.458E+00
RMM:   2    -0.667522940990E+02   -0.10501E+01   -0.10776E+01   232   0.113E+01    0.837E-01
RMM:   3    -0.670159522511E+02   -0.26366E+00   -0.26696E+00   257   0.636E+00    0.126E+00
RMM:   4    -0.670338628198E+02   -0.17911E-01   -0.22780E-01   261   0.186E+00    0.130E+00
RMM:   5    -0.670338461367E+02    0.16683E-04   -0.27549E-02   249   0.597E-01    0.112E+00
RMM:   6    -0.670325881725E+02    0.12580E-02   -0.37371E-03   211   0.226E-01    0.679E-01
RMM:   7    -0.670326720623E+02   -0.83890E-04   -0.10961E-02   206   0.248E-01    0.340E-01
RMM:   8    -0.670329393897E+02   -0.26733E-03   -0.25512E-03   256   0.154E-01    0.377E-01
RMM:   9    -0.670321625924E+02    0.77680E-03   -0.85654E-04   200   0.933E-02    0.773E-02
RMM:  10    -0.670322595843E+02   -0.96992E-04   -0.21981E-03   231   0.119E-01    0.160E-01
RMM:  11    -0.670321224971E+02    0.13709E-03   -0.48276E-04   193   0.665E-02    0.436E-02
RMM:  12    -0.670321301082E+02   -0.76111E-05   -0.81410E-05   226   0.296E-02    0.296E-02
RMM:  13    -0.670321264188E+02    0.36894E-05   -0.74185E-06   191   0.133E-02    0.119E-02
RMM:  14    -0.670321267711E+02   -0.35226E-06   -0.39520E-06   162   0.855E-03
  20 F= -.67032127E+02 E0= -.67032180E+02  d E =-.599781E-01
       N       E                     dE             d eps       ncg     rms          rms(c)
DAV:   1    -0.570216779083E+02    0.10010E+02   -0.30188E+03   224   0.179E+02    0.180E+01
RMM:   2    -0.648104878898E+02   -0.77888E+01   -0.81333E+01   226   0.253E+01    0.192E+00
RMM:   3    -0.666717144840E+02   -0.18612E+01   -0.19052E+01   252   0.132E+01    0.454E+00
RMM:   4    -0.668753448550E+02   -0.20363E+00   -0.22063E+00   269   0.543E+00    0.561E+00
RMM:   5    -0.668688376148E+02    0.65072E-02   -0.98067E-02   254   0.129E+00    0.463E+00
RMM:   6    -0.668558860320E+02    0.12952E-01   -0.25990E-02   208   0.588E-01    0.274E+00
RMM:   7    -0.668503836171E+02    0.55024E-02   -0.65317E-02   212   0.750E-01    0.891E-01
RMM:   8    -0.668502941276E+02    0.89489E-04   -0.76831E-03   247   0.345E-01    0.841E-01
RMM:   9    -0.668505750535E+02   -0.28093E-03   -0.18757E-02   216   0.371E-01    0.116E+00
RMM:  10    -0.668486780546E+02    0.18970E-02   -0.42581E-03   197   0.235E-01    0.385E-02
RMM:  11    -0.668487997081E+02   -0.12165E-03   -0.16370E-03   232   0.111E-01    0.153E-01
RMM:  12    -0.668487690778E+02    0.30630E-04   -0.14259E-04   235   0.537E-02    0.678E-02
RMM:  13    -0.668487435178E+02    0.25560E-04   -0.65780E-05   198   0.292E-02    0.229E-02
RMM:  14    -0.668487452423E+02   -0.17245E-05   -0.19680E-05   214   0.194E-02    0.311E-02
RMM:  15    -0.668487446753E+02    0.56705E-06   -0.91438E-06   171   0.827E-03
  21 F= -.66848745E+02 E0= -.66846547E+02  d E =0.123404E+00
       N       E                     dE             d eps       ncg     rms          rms(c)
DAV:   1    -0.570890891959E+02    0.97597E+01   -0.25346E+03   208   0.173E+02    0.137E+01
RMM:   2    -0.648873730220E+02   -0.77983E+01   -0.81455E+01   230   0.272E+01    0.202E+00
RMM:   3    -0.668784460377E+02   -0.19911E+01   -0.20530E+01   254   0.131E+01    0.362E+00
RMM:   4    -0.670635575574E+02   -0.18511E+00   -0.20270E+00   268   0.540E+00    0.430E+00
RMM:   5    -0.670555826206E+02    0.79749E-02   -0.95910E-02   254   0.130E+00    0.368E+00
RMM:   6    -0.670423409676E+02    0.13242E-01   -0.30305E-02   209   0.620E-01    0.209E+00
RMM:   7    -0.670369960777E+02    0.53449E-02   -0.74398E-02   213   0.759E-01    0.956E-01
RMM:   8    -0.670367434918E+02    0.25259E-03   -0.72047E-03   244   0.322E-01    0.759E-01
RMM:   9    -0.670382681294E+02   -0.15246E-02   -0.30147E-02   234   0.472E-01    0.138E+00
RMM:  10    -0.670347647852E+02    0.35033E-02   -0.76814E-03   193   0.275E-01    0.110E-01
RMM:  11    -0.670348660748E+02   -0.10129E-03   -0.18334E-03   234   0.109E-01    0.429E-02
RMM:  12    -0.670348598364E+02    0.62383E-05   -0.17307E-04   247   0.548E-02    0.380E-02
RMM:  13    -0.670348635687E+02   -0.37322E-05   -0.55623E-05   225   0.235E-02    0.428E-02
RMM:  14    -0.670348564818E+02    0.70869E-05   -0.67554E-06   172   0.945E-03    0.466E-02
RMM:  15    -0.670348500871E+02    0.63947E-05   -0.21062E-05   162   0.108E-02    0.922E-03
RMM:  16    -0.670348505570E+02   -0.46992E-06   -0.44151E-06   187   0.717E-03
  22 F= -.67034851E+02 E0= -.67034745E+02  d E =-.627018E-01
       N       E                     dE             d eps       ncg     rms          rms(c)
DAV:   1    -0.669600659052E+02    0.74784E-01   -0.32488E+01   208   0.133E+01    0.931E-01
RMM:   2    -0.670174438487E+02   -0.57378E-01   -0.60284E-01   232   0.279E+00    0.248E-01
RMM:   3    -0.670348405113E+02   -0.17397E-01   -0.18162E-01   255   0.150E+00    0.260E-01
RMM:   4    -0.670366345363E+02   -0.17940E-02   -0.21211E-02   260   0.516E-01    0.252E-01
RMM:   5    -0.670365425438E+02    0.91992E-04   -0.13798E-03   237   0.153E-01    0.208E-01
RMM:   6    -0.670363917583E+02    0.15079E-03   -0.57613E-04   202   0.759E-02    0.862E-02
RMM:   7    -0.670364441985E+02   -0.52440E-04   -0.62281E-04   230   0.614E-02    0.639E-02
RMM:   8    -0.670364175670E+02    0.26631E-04   -0.51861E-05   203   0.316E-02    0.367E-02
RMM:   9    -0.670364279194E+02   -0.10352E-04   -0.28017E-04   222   0.416E-02    0.539E-02
RMM:  10    -0.670363987709E+02    0.29149E-04   -0.52024E-05   180   0.215E-02    0.659E-03
RMM:  11    -0.670364011591E+02   -0.23882E-05   -0.30454E-05   184   0.124E-02    0.109E-02
RMM:  12    -0.670363993088E+02    0.18503E-05   -0.42934E-06   158   0.728E-03    0.317E-03
RMM:  13    -0.670363993286E+02   -0.19874E-07   -0.83021E-07   129   0.380E-03
  23 F= -.67036399E+02 E0= -.67035947E+02  d E =-.642506E-01
       N       E                     dE             d eps       ncg     rms          rms(c)
DAV:   1    -0.670007510860E+02    0.35648E-01   -0.21555E+01   208   0.996E+00    0.710E-01
RMM:   2    -0.670365745588E+02   -0.35823E-01   -0.37553E-01   229   0.202E+00    0.156E-01
RMM:   3    -0.670478142417E+02   -0.11240E-01   -0.11636E-01   255   0.109E+00    0.193E-01
RMM:   4    -0.670486735753E+02   -0.85933E-03   -0.10849E-02   270   0.372E-01    0.173E-01
RMM:   5    -0.670485622486E+02    0.11133E-03   -0.78490E-04   224   0.112E-01    0.114E-01
RMM:   6    -0.670485307644E+02    0.31484E-04   -0.56572E-04   199   0.656E-02    0.281E-02
RMM:   7    -0.670485420988E+02   -0.11334E-04   -0.12856E-04   253   0.392E-02    0.241E-02
RMM:   8    -0.670485296661E+02    0.12433E-04   -0.11946E-05   182   0.147E-02    0.141E-02
RMM:   9    -0.670485388200E+02   -0.91539E-05   -0.77864E-05   183   0.192E-02    0.206E-02
RMM:  10    -0.670485289667E+02    0.98533E-05   -0.26653E-05   171   0.137E-02    0.408E-03
RMM:  11    -0.670485298843E+02   -0.91763E-06   -0.73204E-06   188   0.719E-03
  24 F= -.67048530E+02 E0= -.67047553E+02  d E =-.121306E-01
       N       E                     dE             d eps       ncg     rms          rms(c)
DAV:   1    -0.669433815111E+02    0.10515E+00   -0.45519E+01   208   0.148E+01    0.106E+00
RMM:   2    -0.670270405169E+02   -0.83659E-01   -0.87400E-01   229   0.300E+00    0.236E-01
RMM:   3    -0.670527165726E+02   -0.25676E-01   -0.26639E-01   258   0.166E+00    0.293E-01
RMM:   4    -0.670543735442E+02   -0.16570E-02   -0.21287E-02   270   0.535E-01    0.261E-01
RMM:   5    -0.670541332131E+02    0.24033E-03   -0.16403E-03   225   0.162E-01    0.180E-01
RMM:   6    -0.670540346583E+02    0.98555E-04   -0.10530E-03   201   0.923E-02    0.485E-02
RMM:   7    -0.670540741256E+02   -0.39467E-04   -0.34282E-04   261   0.597E-02    0.357E-02
RMM:   8    -0.670540459673E+02    0.28158E-04   -0.35417E-05   194   0.234E-02    0.205E-02
RMM:   9    -0.670540630148E+02   -0.17048E-04   -0.18081E-04   199   0.305E-02    0.299E-02
RMM:  10    -0.670540425571E+02    0.20458E-04   -0.50614E-05   176   0.199E-02    0.616E-03
RMM:  11    -0.670540445095E+02   -0.19524E-05   -0.16239E-05   200   0.103E-02    0.768E-03
RMM:  12    -0.670540431264E+02    0.13831E-05   -0.23819E-06   151   0.523E-03    0.230E-03
RMM:  13    -0.670540431509E+02   -0.24553E-07   -0.84333E-07   128   0.301E-03
  25 F= -.67054043E+02 E0= -.67052242E+02  d E =-.176438E-01
       N       E                     dE             d eps       ncg     rms          rms(c)
DAV:   1    -0.670510564470E+02    0.29867E-02   -0.16675E+00   208   0.277E+00    0.199E-01
RMM:   2    -0.670534925753E+02   -0.24361E-02   -0.25618E-02   230   0.554E-01    0.414E-02
RMM:   3    -0.670542584067E+02   -0.76583E-03   -0.78173E-03   256   0.282E-01    0.531E-02
RMM:   4    -0.670543012243E+02   -0.42818E-04   -0.60835E-04   256   0.932E-02    0.447E-02
RMM:   5    -0.670542909775E+02    0.10247E-04   -0.59389E-05   200   0.301E-02    0.217E-02
RMM:   6    -0.670542933562E+02   -0.23787E-05   -0.41317E-05   184   0.182E-02    0.831E-03
RMM:   7    -0.670542923091E+02    0.10471E-05   -0.45403E-06   179   0.103E-02    0.504E-03
RMM:   8    -0.670542923835E+02   -0.74355E-07   -0.49088E-06   156   0.637E-03
  26 F= -.67054292E+02 E0= -.67052657E+02  d E =-.178931E-01
       N       E                     dE             d eps       ncg     rms          rms(c)
DAV:   1    -0.670623722288E+02   -0.80799E-02   -0.13360E+00   208   0.309E+00    0.388E-01
RMM:   2    -0.670653037570E+02   -0.29315E-02   -0.31842E-02   234   0.729E-01    0.105E-01
RMM:   3    -0.670661394468E+02   -0.83569E-03   -0.92213E-03   250   0.369E-01    0.994E-02
RMM:   4    -0.670662058337E+02   -0.66387E-04   -0.11993E-03   254   0.130E-01    0.108E-01
RMM:   5    -0.670661927073E+02    0.13126E-04   -0.79350E-05   248   0.373E-02    0.958E-02
RMM:   6    -0.670661661131E+02    0.26594E-04   -0.10269E-04   190   0.264E-02    0.220E-02
RMM:   7    -0.670661773401E+02   -0.11227E-04   -0.89939E-05   203   0.216E-02    0.415E-02
RMM:   8    -0.670661701022E+02    0.72379E-05   -0.81856E-06   173   0.121E-02    0.180E-02
RMM:   9    -0.670661728651E+02   -0.27628E-05   -0.48198E-05   206   0.139E-02    0.241E-02
RMM:  10    -0.670661682130E+02    0.46520E-05   -0.13062E-05   167   0.978E-03    0.659E-03
RMM:  11    -0.670661684636E+02   -0.25061E-06   -0.25091E-06   161   0.447E-03
  27 F= -.67066168E+02 E0= -.67064559E+02  d E =-.118761E-01
       N       E                     dE             d eps       ncg     rms          rms(c)
DAV:   1    -0.670501406671E+02    0.16028E-01   -0.12001E+01   208   0.932E+00    0.128E+00
RMM:   2    -0.670787711735E+02   -0.28631E-01   -0.31494E-01   233   0.237E+00    0.378E-01
RMM:   3    -0.670882741190E+02   -0.95029E-02   -0.10801E-01   253   0.121E+00    0.330E-01
RMM:   4    -0.670889808074E+02   -0.70669E-03   -0.11850E-02   247   0.411E-01    0.336E-01
RMM:   5    -0.670889543235E+02    0.26484E-04   -0.17636E-03   244   0.145E-01    0.322E-01
RMM:   6    -0.670888602512E+02    0.94072E-04   -0.21886E-04   208   0.588E-02    0.226E-01
RMM:   7    -0.670888614120E+02   -0.11608E-05   -0.19284E-03   242   0.879E-02    0.195E-01
RMM:   8    -0.670888349343E+02    0.26478E-04   -0.10890E-04   211   0.396E-02    0.148E-01
RMM:   9    -0.670887941308E+02    0.40803E-04   -0.19188E-05   187   0.166E-02    0.101E-01
RMM:  10    -0.670887840738E+02    0.10057E-04   -0.40702E-04   245   0.391E-02    0.404E-02
RMM:  11    -0.670887629751E+02    0.21099E-04   -0.62631E-05   173   0.183E-02    0.281E-02
RMM:  12    -0.670887645179E+02   -0.15427E-05   -0.11549E-05   194   0.811E-03    0.262E-02
RMM:  13    -0.670887645637E+02   -0.45875E-07   -0.96855E-06   160   0.685E-03
  28 F= -.67088765E+02 E0= -.67087179E+02  d E =-.344722E-01
       N       E                     dE             d eps       ncg     rms          rms(c)
DAV:   1    -0.668984487879E+02    0.19032E+00   -0.48279E+01   208   0.191E+01    0.288E+00
RMM:   2    -0.670256708654E+02   -0.12722E+00   -0.13859E+00   233   0.479E+00    0.803E-01
RMM:   3    -0.670698398684E+02   -0.44169E-01   -0.50326E-01   256   0.262E+00    0.756E-01
RMM:   4    -0.670731614673E+02   -0.33216E-02   -0.52487E-02   247   0.844E-01    0.783E-01
RMM:   5    -0.670732922685E+02   -0.13080E-03   -0.83677E-03   255   0.299E-01    0.766E-01
RMM:   6    -0.670730323979E+02    0.25987E-03   -0.71963E-04   246   0.111E-01    0.609E-01
RMM:   7    -0.670729151906E+02    0.11721E-03   -0.90818E-03   239   0.185E-01    0.548E-01
RMM:   8    -0.670727762717E+02    0.13892E-03   -0.45358E-04   223   0.834E-02    0.395E-01
RMM:   9    -0.670724634621E+02    0.31281E-03   -0.34777E-04   199   0.532E-02    0.106E-01
RMM:  10    -0.670725715559E+02   -0.10809E-03   -0.14571E-03   249   0.785E-02    0.214E-01
RMM:  11    -0.670724474371E+02    0.12412E-03   -0.40567E-04   209   0.481E-02    0.423E-02
RMM:  12    -0.670724520714E+02   -0.46343E-05   -0.46261E-05   216   0.210E-02    0.296E-02
RMM:  13    -0.670724501869E+02    0.18844E-05   -0.78561E-06   177   0.100E-02    0.635E-03
RMM:  14    -0.670724503350E+02   -0.14810E-06   -0.27657E-06   157   0.494E-03
  29 F= -.67072450E+02 E0= -.67070619E+02  d E =-.181580E-01
       N       E                     dE             d eps       ncg     rms          rms(c)
DAV:   1    -0.670090765394E+02    0.63374E-01   -0.23958E+01   208   0.134E+01    0.192E+00
RMM:   2    -0.670697671494E+02   -0.60691E-01   -0.66431E-01   233   0.339E+00    0.589E-01
RMM:   3    -0.670912877037E+02   -0.21521E-01   -0.24509E-01   251   0.182E+00    0.494E-01
RMM:   4    -0.670930650152E+02   -0.17773E-02   -0.27647E-02   251   0.616E-01    0.511E-01
RMM:   5    -0.670930782870E+02   -0.13272E-04   -0.37942E-03   251   0.210E-01    0.494E-01
RMM:   6    -0.670928953749E+02    0.18291E-03   -0.44325E-04   215   0.836E-02    0.346E-01
RMM:   7    -0.670929268527E+02   -0.31478E-04   -0.42039E-03   249   0.127E-01    0.332E-01
RMM:   8    -0.670928349387E+02    0.91914E-04   -0.17356E-04   208   0.517E-02    0.240E-01
RMM:   9    -0.670927030540E+02    0.13188E-03   -0.13275E-04   188   0.307E-02    0.103E-01
RMM:  10    -0.670926853887E+02    0.17665E-04   -0.28373E-04   211   0.352E-02    0.921E-03
RMM:  11    -0.670926909867E+02   -0.55980E-05   -0.54261E-05   173   0.218E-02    0.663E-02
RMM:  12    -0.670926934038E+02   -0.24171E-05   -0.12872E-05   202   0.112E-02    0.464E-02
RMM:  13    -0.670926843629E+02    0.90409E-05   -0.15351E-05   166   0.961E-03    0.374E-03
RMM:  14    -0.670926852018E+02   -0.83887E-06   -0.13219E-05   183   0.775E-03    0.877E-03
RMM:  15    -0.670926849532E+02    0.24857E-06   -0.11374E-06   130   0.467E-03
  30 F= -.67092685E+02 E0= -.67091067E+02  d E =-.383926E-01
       N       E                     dE             d eps       ncg     rms          rms(c)
DAV:   1    -0.670950948634E+02   -0.24097E-02   -0.35283E+00   208   0.526E+00    0.627E-01
RMM:   2    -0.671033516696E+02   -0.82568E-02   -0.90059E-02   235   0.127E+00    0.140E-01
RMM:   3    -0.671053787144E+02   -0.20270E-02   -0.23135E-02   256   0.631E-01    0.158E-01
RMM:   4    -0.671055832365E+02   -0.20452E-03   -0.33222E-03   255   0.221E-01    0.161E-01
RMM:   5    -0.671055380459E+02    0.45191E-04   -0.26503E-04   231   0.666E-02    0.137E-01
RMM:   6    -0.671054674918E+02    0.70554E-04   -0.24327E-04   197   0.417E-02    0.443E-02
RMM:   7    -0.671054935375E+02   -0.26046E-04   -0.24796E-04   218   0.344E-02    0.437E-02
RMM:   8    -0.671054753898E+02    0.18148E-04   -0.27063E-05   179   0.193E-02    0.123E-02
RMM:   9    -0.671054860587E+02   -0.10669E-04   -0.93825E-05   214   0.193E-02    0.337E-02
RMM:  10    -0.671054753352E+02    0.10723E-04   -0.50483E-05   196   0.154E-02    0.121E-02
RMM:  11    -0.671054758245E+02   -0.48933E-06   -0.60870E-06   180   0.697E-03
  31 F= -.67105476E+02 E0= -.67104402E+02  d E =-.127909E-01
       N       E                     dE             d eps       ncg     rms          rms(c)
DAV:   1    -0.670139924451E+02    0.91483E-01   -0.31800E+01   208   0.160E+01    0.210E+00
RMM:   2    -0.670948644281E+02   -0.80872E-01   -0.88715E-01   235   0.405E+00    0.505E-01
RMM:   3    -0.671170949073E+02   -0.22230E-01   -0.25616E-01   255   0.210E+00    0.534E-01
RMM:   4    -0.671194428736E+02   -0.23480E-02   -0.35812E-02   255   0.720E-01    0.552E-01
RMM:   5    -0.671191835486E+02    0.25933E-03   -0.38799E-03   245   0.239E-01    0.500E-01
RMM:   6    -0.671187561647E+02    0.42738E-03   -0.83303E-04   209   0.101E-01    0.311E-01
RMM:   7    -0.671188133519E+02   -0.57187E-04   -0.45756E-03   240   0.135E-01    0.223E-01
RMM:   8    -0.671186944430E+02    0.11891E-03   -0.25734E-04   210   0.608E-02    0.134E-01
RMM:   9    -0.671186235003E+02    0.70943E-04   -0.96558E-04   227   0.628E-02    0.109E-01
RMM:  10    -0.671185756566E+02    0.47844E-04   -0.12723E-04   191   0.300E-02    0.118E-02
RMM:  11    -0.671185896666E+02   -0.14010E-04   -0.91382E-05   186   0.192E-02    0.413E-02
RMM:  12    -0.671185770367E+02    0.12630E-04   -0.19722E-05   169   0.135E-02    0.723E-03
RMM:  13    -0.671185774854E+02   -0.44879E-06   -0.94515E-06   188   0.748E-03
  32 F= -.67118577E+02 E0= -.67119030E+02  d E =-.258925E-01
       N       E                     dE             d eps       ncg     rms          rms(c)
DAV:   1    -0.671042436361E+02    0.14333E-01   -0.87235E+00   208   0.843E+00    0.791E-01
RMM:   2    -0.671224035135E+02   -0.18160E-01   -0.19593E-01   235   0.194E+00    0.185E-01
RMM:   3    -0.671268393351E+02   -0.44358E-02   -0.49869E-02   255   0.972E-01    0.203E-01
RMM:   4    -0.671273450466E+02   -0.50571E-03   -0.79455E-03   257   0.353E-01    0.202E-01
RMM:   5    -0.671272200679E+02    0.12498E-03   -0.50986E-04   236   0.106E-01    0.167E-01
RMM:   6    -0.671270747561E+02    0.14531E-03   -0.75821E-04   199   0.703E-02    0.400E-02
RMM:   7    -0.671271213100E+02   -0.46554E-04   -0.33242E-04   260   0.472E-02    0.436E-02
RMM:   8    -0.671270917860E+02    0.29524E-04   -0.37666E-05   183   0.189E-02    0.182E-02
RMM:   9    -0.671270886290E+02    0.31570E-05   -0.34620E-05   193   0.145E-02    0.442E-03
RMM:  10    -0.671270903214E+02   -0.16924E-05   -0.47420E-06   157   0.824E-03    0.120E-02
RMM:  11    -0.671270896200E+02    0.70138E-06   -0.14261E-06   125   0.533E-03
  33 F= -.67127090E+02 E0= -.67127261E+02  d E =-.851213E-02
       N       E                     dE             d eps       ncg     rms          rms(c)
DAV:   1    -0.671231343968E+02    0.39559E-02   -0.20326E+00   224   0.405E+00    0.379E-01
RMM:   2    -0.671272897787E+02   -0.41554E-02   -0.44748E-02   235   0.919E-01    0.842E-02
RMM:   3    -0.671282899803E+02   -0.10002E-02   -0.11106E-02   254   0.456E-01    0.964E-02
RMM:   4    -0.671284015280E+02   -0.11155E-03   -0.17799E-03   258   0.168E-01    0.961E-02
RMM:   5    -0.671283710416E+02    0.30486E-04   -0.10814E-04   232   0.488E-02    0.781E-02
RMM:   6    -0.671283388613E+02    0.32180E-04   -0.21238E-04   196   0.362E-02    0.182E-02
RMM:   7    -0.671283482892E+02   -0.94280E-05   -0.66835E-05   238   0.231E-02    0.199E-02
RMM:   8    -0.671283405712E+02    0.77181E-05   -0.13100E-05   168   0.110E-02    0.600E-03
RMM:   9    -0.671283409549E+02   -0.38377E-06   -0.58906E-06   189   0.708E-03
  34 F= -.67128341E+02 E0= -.67128366E+02  d E =-.976347E-02
       N       E                     dE             d eps       ncg     rms          rms(c)
DAV:   1    -0.671284142455E+02   -0.73674E-04   -0.24254E+00   208   0.423E+00    0.403E-01
RMM:   2    -0.671328604029E+02   -0.44462E-02   -0.47688E-02   238   0.906E-01    0.900E-02
RMM:   3    -0.671340042009E+02   -0.11438E-02   -0.12259E-02   254   0.448E-01    0.936E-02
RMM:   4    -0.671341297445E+02   -0.12554E-03   -0.17923E-03   265   0.166E-01    0.954E-02
RMM:   5    -0.671341097709E+02    0.19974E-04   -0.98083E-05   237   0.468E-02    0.797E-02
RMM:   6    -0.671340860751E+02    0.23696E-04   -0.17764E-04   200   0.344E-02    0.170E-02
RMM:   7    -0.671340923043E+02   -0.62292E-05   -0.48318E-05   231   0.209E-02    0.178E-02
RMM:   8    -0.671340875685E+02    0.47359E-05   -0.16091E-05   172   0.109E-02    0.918E-03
RMM:   9    -0.671340880940E+02   -0.52550E-06   -0.35219E-06   181   0.706E-03
  35 F= -.67134088E+02 E0= -.67134087E+02  d E =-.574714E-02
       N       E                     dE             d eps       ncg     rms          rms(c)
DAV:   1    -0.671295957561E+02    0.44918E-02   -0.32205E+00   224   0.487E+00    0.464E-01
RMM:   2    -0.671355144717E+02   -0.59187E-02   -0.63504E-02   238   0.105E+00    0.104E-01
RMM:   3    -0.671370510788E+02   -0.15366E-02   -0.16460E-02   254   0.519E-01    0.107E-01
RMM:   4    -0.671372194354E+02   -0.16836E-03   -0.23898E-03   267   0.192E-01    0.110E-01
RMM:   5    -0.671371950781E+02    0.24357E-04   -0.12955E-04   239   0.536E-02    0.930E-02
RMM:   6    -0.671371623815E+02    0.32697E-04   -0.22473E-04   202   0.390E-02    0.193E-02
RMM:   7    -0.671371716966E+02   -0.93151E-05   -0.70118E-05   230   0.239E-02    0.214E-02
RMM:   8    -0.671371646914E+02    0.70052E-05   -0.19721E-05   175   0.123E-02    0.919E-03
RMM:   9    -0.671371658151E+02   -0.11237E-05   -0.68081E-06   194   0.836E-03    0.553E-03
RMM:  10    -0.671371653404E+02    0.47475E-06   -0.25790E-06   149   0.488E-03
  36 F= -.67137165E+02 E0= -.67137136E+02  d E =-.882439E-02
       N       E                     dE             d eps       ncg     rms          rms(c)
DAV:   1    -0.671365740565E+02    0.59176E-03   -0.33352E-01   224   0.157E+00    0.148E-01
RMM:   2    -0.671371801231E+02   -0.60607E-03   -0.64874E-03   238   0.333E-01    0.322E-02
RMM:   3    -0.671373321223E+02   -0.15200E-03   -0.16113E-03   253   0.163E-01    0.340E-02
RMM:   4    -0.671373501446E+02   -0.18022E-04   -0.25140E-04   261   0.618E-02    0.348E-02
RMM:   5    -0.671373475103E+02    0.26344E-05   -0.13369E-05   220   0.175E-02    0.291E-02
RMM:   6    -0.671373444672E+02    0.30431E-05   -0.24799E-05   178   0.127E-02    0.621E-03
RMM:   7    -0.671373453185E+02   -0.85133E-06   -0.67840E-06   180   0.794E-03
  37 F= -.67137345E+02 E0= -.67137310E+02  d E =-.900436E-02
       N       E                     dE             d eps       ncg     rms          rms(c)
DAV:   1    -0.671330862669E+02    0.42582E-02   -0.40228E+00   208   0.515E+00    0.388E-01
RMM:   2    -0.671392401828E+02   -0.61539E-02   -0.65010E-02   235   0.106E+00    0.108E-01
RMM:   3    -0.671411878007E+02   -0.19476E-02   -0.20180E-02   254   0.557E-01    0.927E-02
RMM:   4    -0.671414551817E+02   -0.26738E-03   -0.30844E-03   264   0.209E-01    0.997E-02
RMM:   5    -0.671414494554E+02    0.57263E-05   -0.15836E-04   250   0.567E-02    0.897E-02
RMM:   6    -0.671414304957E+02    0.18960E-04   -0.64396E-05   201   0.287E-02    0.477E-02
RMM:   7    -0.671414357507E+02   -0.52550E-05   -0.14537E-04   204   0.280E-02    0.380E-02
RMM:   8    -0.671414302193E+02    0.55314E-05   -0.11909E-05   177   0.150E-02    0.163E-02
RMM:   9    -0.671414359148E+02   -0.56956E-05   -0.51932E-05   205   0.173E-02    0.379E-02
RMM:  10    -0.671414279149E+02    0.80000E-05   -0.15974E-05   170   0.115E-02    0.234E-03
RMM:  11    -0.671414284324E+02   -0.51750E-06   -0.54319E-06   181   0.579E-03
  38 F= -.67141428E+02 E0= -.67141109E+02  d E =-.408311E-02
       N       E                     dE             d eps       ncg     rms          rms(c)
DAV:   1    -0.671355262321E+02    0.59017E-02   -0.33543E+00   208   0.472E+00    0.358E-01
RMM:   2    -0.671406481940E+02   -0.51220E-02   -0.54128E-02   235   0.969E-01    0.966E-02
RMM:   3    -0.671422655817E+02   -0.16174E-02   -0.16712E-02   254   0.509E-01    0.848E-02
RMM:   4    -0.671424892907E+02   -0.22371E-03   -0.25773E-03   265   0.192E-01    0.922E-02
RMM:   5    -0.671424843243E+02    0.49664E-05   -0.12690E-04   250   0.511E-02    0.830E-02
RMM:   6    -0.671424682351E+02    0.16089E-04   -0.53203E-05   201   0.262E-02    0.450E-02
RMM:   7    -0.671424725292E+02   -0.42942E-05   -0.12644E-04   201   0.260E-02    0.354E-02
RMM:   8    -0.671424676394E+02    0.48898E-05   -0.10601E-05   179   0.144E-02    0.145E-02
RMM:   9    -0.671424721514E+02   -0.45120E-05   -0.40388E-05   203   0.155E-02    0.343E-02
RMM:  10    -0.671424658120E+02    0.63395E-05   -0.12317E-05   162   0.103E-02    0.218E-03
RMM:  11    -0.671424662350E+02   -0.42306E-06   -0.44332E-06   180   0.537E-03
  39 F= -.67142466E+02 E0= -.67141881E+02  d E =-.512092E-02
       N       E                     dE             d eps       ncg     rms          rms(c)
DAV:   1    -0.671400808232E+02    0.23850E-02   -0.25691E+00   208   0.394E+00    0.231E-01
RMM:   2    -0.671437953973E+02   -0.37146E-02   -0.38933E-02   235   0.771E-01    0.623E-02
RMM:   3    -0.671448803101E+02   -0.10849E-02   -0.10950E-02   258   0.391E-01    0.699E-02
RMM:   4    -0.671450385579E+02   -0.15825E-03   -0.18749E-03   258   0.147E-01    0.641E-02
RMM:   5    -0.671450241205E+02    0.14437E-04   -0.92837E-05   228   0.419E-02    0.496E-02
RMM:   6    -0.671450153340E+02    0.87866E-05   -0.11314E-04   193   0.284E-02    0.128E-02
RMM:   7    -0.671450197530E+02   -0.44190E-05   -0.30879E-05   223   0.174E-02    0.127E-02
RMM:   8    -0.671450165235E+02    0.32295E-05   -0.10773E-05   170   0.892E-03    0.517E-03
RMM:   9    -0.671450170231E+02   -0.49955E-06   -0.34817E-06   177   0.612E-03
  40 F= -.67145017E+02 E0= -.67144508E+02  d E =-.255079E-02
       N       E                     dE             d eps       ncg     rms          rms(c)
DAV:   1    -0.671396128371E+02    0.54037E-02   -0.35317E+00   208   0.463E+00    0.272E-01
RMM:   2    -0.671447499252E+02   -0.51371E-02   -0.53882E-02   235   0.907E-01    0.738E-02
RMM:   3    -0.671462620798E+02   -0.15122E-02   -0.15309E-02   258   0.462E-01    0.819E-02
RMM:   4    -0.671464759017E+02   -0.21382E-03   -0.25564E-03   258   0.173E-01    0.764E-02
RMM:   5    -0.671464543843E+02    0.21517E-04   -0.11213E-04   229   0.481E-02    0.579E-02
RMM:   6    -0.671464442680E+02    0.10116E-04   -0.18083E-04   196   0.348E-02    0.160E-02
RMM:   7    -0.671464478970E+02   -0.36290E-05   -0.36011E-05   232   0.203E-02    0.145E-02
RMM:   8    -0.671464441819E+02    0.37150E-05   -0.16297E-05   171   0.107E-02    0.682E-03
RMM:   9    -0.671464440775E+02    0.10448E-06   -0.18052E-06   154   0.682E-03
  41 F= -.67146444E+02 E0= -.67146021E+02  d E =-.397784E-02
       N       E                     dE             d eps       ncg     rms          rms(c)
DAV:   1    -0.671460213294E+02    0.42285E-03   -0.27456E-01   224   0.129E+00    0.756E-02
RMM:   2    -0.671464144023E+02   -0.39307E-03   -0.41146E-03   236   0.251E-01    0.207E-02
RMM:   3    -0.671465262072E+02   -0.11180E-03   -0.11238E-03   257   0.125E-01    0.220E-02
RMM:   4    -0.671465419807E+02   -0.15774E-04   -0.19076E-04   260   0.472E-02    0.211E-02
RMM:   5    -0.671465403670E+02    0.16137E-05   -0.77437E-06   172   0.129E-02    0.160E-02
RMM:   6    -0.671465397444E+02    0.62257E-06   -0.14859E-05   171   0.104E-02    0.470E-03
RMM:   7    -0.671465399003E+02   -0.15596E-06   -0.23903E-06   157   0.612E-03
  42 F= -.67146540E+02 E0= -.67146139E+02  d E =-.407367E-02
       N       E                     dE             d eps       ncg     rms          rms(c)
DAV:   1    -0.671440055892E+02    0.25342E-02   -0.18037E+00   208   0.343E+00    0.347E-01
RMM:   2    -0.671474973144E+02   -0.34917E-02   -0.37408E-02   235   0.767E-01    0.739E-02
RMM:   3    -0.671483179229E+02   -0.82061E-03   -0.90758E-03   256   0.379E-01    0.967E-02
RMM:   4    -0.671484030757E+02   -0.85153E-04   -0.13893E-03   261   0.137E-01    0.916E-02
RMM:   5    -0.671483758808E+02    0.27195E-04   -0.88324E-05   229   0.409E-02    0.710E-02
RMM:   6    -0.671483576232E+02    0.18258E-04   -0.20779E-04   192   0.320E-02    0.157E-02
RMM:   7    -0.671483608322E+02   -0.32090E-05   -0.37585E-05   224   0.198E-02    0.146E-02
RMM:   8    -0.671483566258E+02    0.42064E-05   -0.20500E-05   165   0.103E-02    0.857E-03
RMM:   9    -0.671483560676E+02    0.55824E-06   -0.19334E-06   162   0.666E-03
  43 F= -.67148356E+02 E0= -.67147721E+02  d E =-.181617E-02
       N       E                     dE             d eps       ncg     rms          rms(c)
DAV:   1    -0.671471696938E+02    0.11869E-02   -0.66708E-01   208   0.208E+00    0.211E-01
RMM:   2    -0.671484642977E+02   -0.12946E-02   -0.13878E-02   236   0.468E-01    0.454E-02
RMM:   3    -0.671487633149E+02   -0.29902E-03   -0.33188E-03   256   0.229E-01    0.577E-02
RMM:   4    -0.671487942875E+02   -0.30973E-04   -0.49534E-04   259   0.820E-02    0.545E-02
RMM:   5    -0.671487849391E+02    0.93484E-05   -0.32679E-05   212   0.246E-02    0.426E-02
RMM:   6    -0.671487781177E+02    0.68214E-05   -0.69196E-05   175   0.189E-02    0.918E-03
RMM:   7    -0.671487797162E+02   -0.15985E-05   -0.15309E-05   209   0.122E-02    0.883E-03
RMM:   8    -0.671487779978E+02    0.17185E-05   -0.61446E-06   158   0.636E-03    0.451E-03
RMM:   9    -0.671487779477E+02    0.50091E-07   -0.89254E-07   125   0.435E-03
  44 F= -.67148778E+02 E0= -.67147995E+02  d E =-.223805E-02
       N       E                     dE             d eps       ncg     rms          rms(c)
DAV:   1    -0.671475725726E+02    0.12054E-02   -0.11581E+00   208   0.270E+00    0.241E-01
RMM:   2    -0.671496690281E+02   -0.20965E-02   -0.22250E-02   235   0.591E-01    0.471E-02
RMM:   3    -0.671501586946E+02   -0.48967E-03   -0.53208E-03   255   0.288E-01    0.651E-02
RMM:   4    -0.671502121207E+02   -0.53426E-04   -0.79605E-04   257   0.107E-01    0.556E-02
RMM:   5    -0.671501996899E+02    0.12431E-04   -0.52806E-05   217   0.317E-02    0.393E-02
RMM:   6    -0.671501941342E+02    0.55557E-05   -0.60160E-05   186   0.206E-02    0.105E-02
RMM:   7    -0.671501960874E+02   -0.19532E-05   -0.16928E-05   207   0.130E-02    0.721E-03
RMM:   8    -0.671501947348E+02    0.13526E-05   -0.46183E-06   168   0.692E-03    0.433E-03
RMM:   9    -0.671501951636E+02   -0.42882E-06   -0.27421E-06   161   0.497E-03
  45 F= -.67150195E+02 E0= -.67149585E+02  d E =-.141722E-02
       N       E                     dE             d eps       ncg     rms          rms(c)
DAV:   1    -0.671483206541E+02    0.18741E-02   -0.11811E+00   208   0.272E+00    0.243E-01
RMM:   2    -0.671504696166E+02   -0.21490E-02   -0.22799E-02   236   0.597E-01    0.480E-02
RMM:   3    -0.671509590548E+02   -0.48944E-03   -0.53338E-03   255   0.288E-01    0.649E-02
RMM:   4    -0.671510129743E+02   -0.53919E-04   -0.80555E-04   255   0.107E-01    0.559E-02
RMM:   5    -0.671510007146E+02    0.12260E-04   -0.54458E-05   218   0.320E-02    0.397E-02
RMM:   6    -0.671509950644E+02    0.56502E-05   -0.58110E-05   186   0.205E-02    0.109E-02
RMM:   7    -0.671509971177E+02   -0.20533E-05   -0.17320E-05   207   0.129E-02    0.714E-03
RMM:   8    -0.671509957828E+02    0.13349E-05   -0.40476E-06   166   0.685E-03    0.422E-03
RMM:   9    -0.671509962551E+02   -0.47237E-06   -0.30738E-06   163   0.498E-03
  46 F= -.67150996E+02 E0= -.67150563E+02  d E =-.221831E-02
       N       E                     dE             d eps       ncg     rms          rms(c)
DAV:   1    -0.671398024861E+02    0.11193E-01   -0.47296E+00   208   0.546E+00    0.489E-01
RMM:   2    -0.671485407335E+02   -0.87382E-02   -0.92870E-02   236   0.120E+00    0.990E-02
RMM:   3    -0.671505453414E+02   -0.20046E-02   -0.22059E-02   255   0.589E-01    0.131E-01
RMM:   4    -0.671507819050E+02   -0.23656E-03   -0.34291E-03   256   0.219E-01    0.114E-01
RMM:   5    -0.671507334349E+02    0.48470E-04   -0.22090E-04   224   0.659E-02    0.831E-02
RMM:   6    -0.671507079153E+02    0.25520E-04   -0.23409E-04   204   0.415E-02    0.249E-02
RMM:   7    -0.671507168174E+02   -0.89020E-05   -0.75684E-05   224   0.240E-02    0.153E-02
RMM:   8    -0.671507109132E+02    0.59041E-05   -0.10812E-05   179   0.119E-02    0.804E-03
RMM:   9    -0.671507133373E+02   -0.24241E-05   -0.19223E-05   171   0.102E-02    0.825E-03
RMM:  10    -0.671507113836E+02    0.19537E-05   -0.49008E-06   163   0.714E-03    0.271E-03
RMM:  11    -0.671507118423E+02   -0.45864E-06   -0.30128E-06   164   0.412E-03
  47 F= -.67150712E+02 E0= -.67150633E+02  d E =-.193389E-02
       N       E                     dE             d eps       ncg     rms          rms(c)
DAV:   1    -0.671469494106E+02    0.37620E-02   -0.18598E+00   208   0.342E+00    0.306E-01
RMM:   2    -0.671503393486E+02   -0.33899E-02   -0.35938E-02   235   0.746E-01    0.589E-02
RMM:   3    -0.671511361557E+02   -0.79681E-03   -0.86451E-03   257   0.362E-01    0.814E-02
RMM:   4    -0.671512122527E+02   -0.76097E-04   -0.11902E-03   255   0.132E-01    0.694E-02
RMM:   5    -0.671511912211E+02    0.21032E-04   -0.86309E-05   220   0.397E-02    0.474E-02
RMM:   6    -0.671511841197E+02    0.71014E-05   -0.10008E-04   195   0.259E-02    0.119E-02
RMM:   7    -0.671511860719E+02   -0.19522E-05   -0.21929E-05   216   0.158E-02    0.841E-03
RMM:   8    -0.671511844732E+02    0.15987E-05   -0.90581E-06   168   0.857E-03    0.664E-03
RMM:   9    -0.671511846015E+02   -0.12827E-06   -0.17711E-06   162   0.571E-03
  48 F= -.67151185E+02 E0= -.67150883E+02  d E =-.240665E-02
       N       E                     dE             d eps       ncg     rms          rms(c)
DAV:   1    -0.671490745719E+02    0.21099E-02   -0.15371E+00   208   0.311E+00    0.231E-01
RMM:   2    -0.671514283086E+02   -0.23537E-02   -0.24843E-02   235   0.642E-01    0.645E-02
RMM:   3    -0.671521182616E+02   -0.68995E-03   -0.70605E-03   254   0.331E-01    0.606E-02
RMM:   4    -0.671522098577E+02   -0.91596E-04   -0.10997E-03   246   0.124E-01    0.597E-02
RMM:   5    -0.671522075483E+02    0.23093E-05   -0.79552E-05   230   0.379E-02    0.522E-02
RMM:   6    -0.671522008074E+02    0.67409E-05   -0.33697E-05   192   0.197E-02    0.245E-02
RMM:   7    -0.671522042074E+02   -0.34000E-05   -0.44204E-05   190   0.160E-02    0.171E-02
RMM:   8    -0.671522024430E+02    0.17644E-05   -0.34986E-06   165   0.970E-03    0.725E-03
RMM:   9    -0.671522031447E+02   -0.70173E-06   -0.10468E-05   167   0.774E-03    0.136E-02
RMM:  10    -0.671522019387E+02    0.12061E-05   -0.29921E-06   163   0.612E-03    0.295E-03
RMM:  11    -0.671522023407E+02   -0.40203E-06   -0.25968E-06   149   0.346E-03
  49 F= -.67152202E+02 E0= -.67151820E+02  d E =-.101774E-02
       N       E                     dE             d eps       ncg     rms          rms(c)
DAV:   1    -0.671466434349E+02    0.55585E-02   -0.29646E+00   224   0.432E+00    0.323E-01
RMM:   2    -0.671512206618E+02   -0.45772E-02   -0.48451E-02   235   0.899E-01    0.927E-02
RMM:   3    -0.671525767820E+02   -0.13561E-02   -0.13991E-02   253   0.467E-01    0.836E-02
RMM:   4    -0.671527621622E+02   -0.18538E-03   -0.22091E-03   249   0.176E-01    0.834E-02
RMM:   5    -0.671527570931E+02    0.50691E-05   -0.15042E-04   231   0.529E-02    0.722E-02
RMM:   6    -0.671527450353E+02    0.12058E-04   -0.62887E-05   193   0.274E-02    0.350E-02
RMM:   7    -0.671527511168E+02   -0.60815E-05   -0.85725E-05   211   0.229E-02    0.237E-02
RMM:   8    -0.671527482036E+02    0.29133E-05   -0.67713E-06   177   0.128E-02    0.112E-02
RMM:   9    -0.671527488231E+02   -0.61953E-06   -0.18163E-05   180   0.106E-02    0.177E-02
RMM:  10    -0.671527469778E+02    0.18453E-05   -0.41938E-06   165   0.757E-03    0.326E-03
RMM:  11    -0.671527477006E+02   -0.72275E-06   -0.43742E-06   166   0.444E-03
  50 F= -.67152748E+02 E0= -.67152254E+02  d E =-.156310E-02
       N       E                     dE             d eps       ncg     rms          rms(c)
DAV:   1    -0.671496666315E+02    0.30803E-02   -0.23581E+00   240   0.361E+00    0.221E-01
RMM:   2    -0.671528374006E+02   -0.31708E-02   -0.32949E-02   232   0.686E-01    0.619E-02
RMM:   3    -0.671538786607E+02   -0.10413E-02   -0.10342E-02   257   0.359E-01    0.563E-02
RMM:   4    -0.671539899318E+02   -0.11127E-03   -0.12663E-03   262   0.128E-01    0.607E-02
RMM:   5    -0.671539886887E+02    0.12431E-05   -0.72160E-05   246   0.366E-02    0.537E-02
RMM:   6    -0.671539805274E+02    0.81614E-05   -0.41180E-05   192   0.214E-02    0.143E-02
RMM:   7    -0.671539864905E+02   -0.59631E-05   -0.44026E-05   187   0.172E-02    0.260E-02
RMM:   8    -0.671539825874E+02    0.39031E-05   -0.60338E-06   166   0.101E-02    0.455E-03
RMM:   9    -0.671539840669E+02   -0.14795E-05   -0.11726E-05   181   0.835E-03    0.144E-02
RMM:  10    -0.671539826145E+02    0.14524E-05   -0.27022E-06   157   0.609E-03    0.174E-03
RMM:  11    -0.671539827041E+02   -0.89578E-07   -0.89192E-07   124   0.305E-03
  51 F= -.67153983E+02 E0= -.67153540E+02  d E =-.123500E-02
       N       E                     dE             d eps       ncg     rms          rms(c)
DAV:   1    -0.671396609372E+02    0.14322E-01   -0.79363E+00   224   0.664E+00    0.411E-01
RMM:   2    -0.671507856116E+02   -0.11125E-01   -0.11607E-01   232   0.128E+00    0.123E-01
RMM:   3    -0.671544952325E+02   -0.37096E-02   -0.37543E-02   258   0.684E-01    0.104E-01
RMM:   4    -0.671548906333E+02   -0.39540E-03   -0.44674E-03   260   0.238E-01    0.108E-01
RMM:   5    -0.671548919497E+02   -0.13165E-05   -0.30694E-04   251   0.709E-02    0.992E-02
RMM:   6    -0.671548721765E+02    0.19773E-04   -0.78351E-05   209   0.329E-02    0.512E-02
RMM:   7    -0.671548845182E+02   -0.12342E-04   -0.19640E-04   226   0.337E-02    0.497E-02
RMM:   8    -0.671548758406E+02    0.86776E-05   -0.13598E-05   179   0.157E-02    0.239E-02
RMM:   9    -0.671548789527E+02   -0.31121E-05   -0.61324E-05   208   0.187E-02    0.338E-02
RMM:  10    -0.671548723635E+02    0.65892E-05   -0.13699E-05   170   0.114E-02    0.342E-03
RMM:  11    -0.671548730420E+02   -0.67856E-06   -0.58645E-06   182   0.584E-03
  52 F= -.67154873E+02 E0= -.67154520E+02  d E =-.212534E-02
       N       E                     dE             d eps       ncg     rms          rms(c)
DAV:   1    -0.671514328959E+02    0.34395E-02   -0.26544E+00   224   0.343E+00    0.183E-01
RMM:   2    -0.671548681141E+02   -0.34352E-02   -0.35423E-02   232   0.640E-01    0.439E-02
RMM:   3    -0.671560239948E+02   -0.11559E-02   -0.11465E-02   258   0.337E-01    0.474E-02
RMM:   4    -0.671561147909E+02   -0.90796E-04   -0.10271E-03   267   0.112E-01    0.461E-02
RMM:   5    -0.671561122722E+02    0.25187E-05   -0.67905E-05   226   0.327E-02    0.392E-02
RMM:   6    -0.671561052484E+02    0.70238E-05   -0.45220E-05   185   0.196E-02    0.945E-03
RMM:   7    -0.671561091814E+02   -0.39329E-05   -0.23008E-05   196   0.132E-02    0.109E-02
RMM:   8    -0.671561070974E+02    0.20839E-05   -0.51278E-06   160   0.743E-03    0.378E-03
RMM:   9    -0.671561075778E+02   -0.48041E-06   -0.25552E-06   156   0.496E-03
  53 F= -.67156108E+02 E0= -.67155893E+02  d E =-.123454E-02
       N       E                     dE             d eps       ncg     rms          rms(c)
DAV:   1    -0.671446517726E+02    0.11455E-01   -0.69631E+00   208   0.557E+00    0.297E-01
RMM:   2    -0.671540268845E+02   -0.93751E-02   -0.96939E-02   232   0.104E+00    0.760E-02
RMM:   3    -0.671571874979E+02   -0.31606E-02   -0.31782E-02   258   0.562E-01    0.763E-02
RMM:   4    -0.671574416708E+02   -0.25417E-03   -0.28694E-03   267   0.187E-01    0.741E-02
RMM:   5    -0.671574356238E+02    0.60470E-05   -0.18444E-04   237   0.543E-02    0.629E-02
RMM:   6    -0.671574177210E+02    0.17903E-04   -0.12438E-04   196   0.322E-02    0.154E-02
RMM:   7    -0.671574266363E+02   -0.89153E-05   -0.54621E-05   228   0.210E-02    0.170E-02
RMM:   8    -0.671574214459E+02    0.51904E-05   -0.12947E-05   163   0.109E-02    0.554E-03
RMM:   9    -0.671574226130E+02   -0.11670E-05   -0.56838E-06   185   0.735E-03    0.345E-03
RMM:  10    -0.671574224784E+02    0.13451E-06   -0.12855E-06   126   0.399E-03
  54 F= -.67157422E+02 E0= -.67157428E+02  d E =-.254944E-02
       N       E                     dE             d eps       ncg     rms          rms(c)
DAV:   1    -0.670990398697E+02    0.58383E-01   -0.28188E+01   208   0.114E+01    0.612E-01
RMM:   2    -0.671423867061E+02   -0.43347E-01   -0.44823E-01   233   0.214E+00    0.169E-01
RMM:   3    -0.671564209161E+02   -0.14034E-01   -0.14307E-01   259   0.120E+00    0.152E-01
RMM:   4    -0.671575815164E+02   -0.11606E-02   -0.13001E-02   268   0.387E-01    0.150E-01
RMM:   5    -0.671575718269E+02    0.96895E-05   -0.87669E-04   245   0.112E-01    0.128E-01
RMM:   6    -0.671574893517E+02    0.82475E-04   -0.37694E-04   197   0.603E-02    0.357E-02
RMM:   7    -0.671575237927E+02   -0.34441E-04   -0.24719E-04   234   0.437E-02    0.345E-02
RMM:   8    -0.671575032282E+02    0.20565E-04   -0.40139E-05   181   0.229E-02    0.102E-02
RMM:   9    -0.671575082641E+02   -0.50359E-05   -0.31913E-05   198   0.161E-02    0.106E-02
RMM:  10    -0.671575066558E+02    0.16083E-05   -0.78007E-06   172   0.967E-03    0.493E-03
RMM:  11    -0.671575074503E+02   -0.79452E-06   -0.39303E-06   167   0.524E-03
  55 F= -.67157507E+02 E0= -.67157939E+02  d E =-.263441E-02
       N       E                     dE             d eps       ncg     rms          rms(c)
DAV:   1    -0.671466303817E+02    0.10876E-01   -0.62124E+00   208   0.528E+00    0.278E-01
RMM:   2    -0.671548633781E+02   -0.82330E-02   -0.84904E-02   232   0.985E-01    0.684E-02
RMM:   3    -0.671576711123E+02   -0.28077E-02   -0.27807E-02   257   0.526E-01    0.716E-02
RMM:   4    -0.671579080084E+02   -0.23690E-03   -0.26429E-03   262   0.179E-01    0.687E-02
RMM:   5    -0.671579043132E+02    0.36952E-05   -0.17990E-04   237   0.536E-02    0.602E-02
RMM:   6    -0.671578868337E+02    0.17479E-04   -0.79321E-05   195   0.282E-02    0.211E-02
RMM:   7    -0.671578955589E+02   -0.87251E-05   -0.67019E-05   209   0.213E-02    0.176E-02
RMM:   8    -0.671578908894E+02    0.46694E-05   -0.94174E-06   172   0.120E-02    0.480E-03
RMM:   9    -0.671578927688E+02   -0.18794E-05   -0.98429E-06   169   0.809E-03    0.101E-02
RMM:  10    -0.671578914342E+02    0.13346E-05   -0.25648E-06   159   0.582E-03    0.176E-03
RMM:  11    -0.671578915790E+02   -0.14476E-06   -0.10309E-06   124   0.306E-03
  56 F= -.67157892E+02 E0= -.67158127E+02  d E =-.301854E-02
       N       E                     dE             d eps       ncg     rms          rms(c)
DAV:   1    -0.671538978294E+02    0.39936E-02   -0.31310E+00   240   0.374E+00    0.186E-01
RMM:   2    -0.671577137745E+02   -0.38159E-02   -0.39273E-02   218   0.652E-01    0.549E-02
RMM:   3    -0.671591031045E+02   -0.13893E-02   -0.13658E-02   259   0.365E-01    0.557E-02
RMM:   4    -0.671592143266E+02   -0.11122E-03   -0.12451E-03   270   0.124E-01    0.568E-02
RMM:   5    -0.671592158954E+02   -0.15688E-05   -0.79610E-05   245   0.358E-02    0.491E-02
RMM:   6    -0.671592117394E+02    0.41560E-05   -0.23307E-05   192   0.178E-02    0.230E-02
RMM:   7    -0.671592176768E+02   -0.59374E-05   -0.42604E-05   193   0.172E-02    0.270E-02
RMM:   8    -0.671592142490E+02    0.34278E-05   -0.35728E-06   170   0.906E-03    0.124E-02
RMM:   9    -0.671592161210E+02   -0.18719E-05   -0.20693E-05   197   0.114E-02    0.191E-02
RMM:  10    -0.671592133833E+02    0.27377E-05   -0.65705E-06   166   0.803E-03    0.350E-03
RMM:  11    -0.671592135507E+02   -0.16740E-06   -0.13330E-06   133   0.332E-03
  57 F= -.67159214E+02 E0= -.67159487E+02  d E =-.132197E-02
       N       E                     dE             d eps       ncg     rms          rms(c)
DAV:   1    -0.671037697953E+02    0.55444E-01   -0.28591E+01   224   0.116E+01    0.573E-01
RMM:   2    -0.671457679714E+02   -0.41998E-01   -0.43362E-01   217   0.205E+00    0.194E-01
RMM:   3    -0.671605971385E+02   -0.14829E-01   -0.15037E-01   260   0.122E+00    0.171E-01
RMM:   4    -0.671616032244E+02   -0.10061E-02   -0.11404E-02   266   0.382E-01    0.172E-01
RMM:   5    -0.671616338741E+02   -0.30650E-04   -0.86445E-04   264   0.112E-01    0.150E-01
RMM:   6    -0.671616007335E+02    0.33141E-04   -0.11140E-04   215   0.452E-02    0.956E-02
RMM:   7    -0.671616266411E+02   -0.25908E-04   -0.36516E-04   205   0.518E-02    0.695E-02
RMM:   8    -0.671616074337E+02    0.19207E-04   -0.41063E-05   226   0.278E-02    0.366E-02
RMM:   9    -0.671616116366E+02   -0.42029E-05   -0.12205E-04   204   0.333E-02    0.485E-02
RMM:  10    -0.671615979899E+02    0.13647E-04   -0.27687E-05   197   0.209E-02    0.593E-03
RMM:  11    -0.671616000132E+02   -0.20233E-05   -0.11323E-05   184   0.900E-03    0.155E-02
RMM:  12    -0.671615984835E+02    0.15297E-05   -0.53055E-06   160   0.737E-03    0.495E-03
RMM:  13    -0.671615984784E+02    0.50932E-08   -0.67015E-07   123   0.326E-03
  58 F= -.67161598E+02 E0= -.67162004E+02  d E =-.370690E-02
       N       E                     dE             d eps       ncg     rms          rms(c)
DAV:   1    -0.671512025858E+02    0.10396E-01   -0.61060E+00   240   0.527E+00    0.258E-01
RMM:   2    -0.671588791362E+02   -0.76766E-02   -0.79133E-02   217   0.922E-01    0.792E-02
RMM:   3    -0.671617289737E+02   -0.28498E-02   -0.28289E-02   260   0.524E-01    0.794E-02
RMM:   4    -0.671619107544E+02   -0.18178E-03   -0.21049E-03   268   0.168E-01    0.790E-02
RMM:   5    -0.671619159309E+02   -0.51764E-05   -0.16975E-04   265   0.502E-02    0.694E-02
RMM:   6    -0.671619084415E+02    0.74894E-05   -0.22351E-05   201   0.204E-02    0.434E-02
RMM:   7    -0.671619161867E+02   -0.77452E-05   -0.91399E-05   209   0.245E-02    0.352E-02
RMM:   8    -0.671619109707E+02    0.52160E-05   -0.65692E-06   177   0.125E-02    0.184E-02
RMM:   9    -0.671619117780E+02   -0.80734E-06   -0.28004E-05   183   0.136E-02    0.202E-02
RMM:  10    -0.671619091694E+02    0.26087E-05   -0.82465E-06   170   0.963E-03    0.676E-03
RMM:  11    -0.671619093944E+02   -0.22509E-06   -0.18603E-06   153   0.405E-03
  59 F= -.67161909E+02 E0= -.67162387E+02  d E =-.401782E-02
       N       E                     dE             d eps       ncg     rms          rms(c)
DAV:   1    -0.671526998036E+02    0.92094E-02   -0.60724E+00   208   0.494E+00    0.278E-01
RMM:   2    -0.671608227899E+02   -0.81230E-02   -0.84084E-02   237   0.914E-01    0.704E-02
RMM:   3    -0.671635634234E+02   -0.27406E-02   -0.27560E-02   257   0.476E-01    0.688E-02
RMM:   4    -0.671637269687E+02   -0.16355E-03   -0.19980E-03   266   0.156E-01    0.622E-02
RMM:   5    -0.671637173520E+02    0.96168E-05   -0.14683E-04   219   0.475E-02    0.494E-02
RMM:   6    -0.671637085610E+02    0.87910E-05   -0.14702E-04   194   0.326E-02    0.124E-02
RMM:   7    -0.671637091521E+02   -0.59112E-06   -0.21026E-05   230   0.173E-02    0.959E-03
RMM:   8    -0.671637081430E+02    0.10091E-05   -0.12080E-05   165   0.103E-02    0.731E-03
RMM:   9    -0.671637077688E+02    0.37418E-06   -0.18642E-06   148   0.628E-03
  60 F= -.67163708E+02 E0= -.67164569E+02  d E =-.179837E-02
       N       E                     dE             d eps       ncg     rms          rms(c)
DAV:   1    -0.671168382843E+02    0.46870E-01   -0.23665E+01   208   0.994E+00    0.555E-01
RMM:   2    -0.671529294418E+02   -0.36091E-01   -0.37385E-01   238   0.183E+00    0.155E-01
RMM:   3    -0.671647388146E+02   -0.11809E-01   -0.12051E-01   259   0.992E-01    0.137E-01
RMM:   4    -0.671654062542E+02   -0.66744E-03   -0.81587E-03   262   0.307E-01    0.124E-01
RMM:   5    -0.671653786603E+02    0.27594E-04   -0.65031E-04   234   0.948E-02    0.101E-01
RMM:   6    -0.671653292478E+02    0.49412E-04   -0.48511E-04   199   0.599E-02    0.244E-02
RMM:   7    -0.671653340902E+02   -0.48424E-05   -0.94580E-05   253   0.354E-02    0.201E-02
RMM:   8    -0.671653258716E+02    0.82186E-05   -0.25443E-05   179   0.167E-02    0.112E-02
RMM:   9    -0.671653276812E+02   -0.18096E-05   -0.68189E-06   184   0.109E-02    0.378E-03
RMM:  10    -0.671653281656E+02   -0.48437E-06   -0.14966E-06   127   0.521E-03
  61 F= -.67165328E+02 E0= -.67166964E+02  d E =-.341877E-02
       N       E                     dE             d eps       ncg     rms          rms(c)
DAV:   1    -0.671475024306E+02    0.17825E-01   -0.10739E+01   224   0.674E+00    0.377E-01
RMM:   2    -0.671625964833E+02   -0.15094E-01   -0.15741E-01   235   0.125E+00    0.111E-01
RMM:   3    -0.671677514138E+02   -0.51549E-02   -0.52465E-02   258   0.679E-01    0.108E-01
RMM:   4    -0.671680981958E+02   -0.34678E-03   -0.43098E-03   271   0.218E-01    0.103E-01
RMM:   5    -0.671680839400E+02    0.14256E-04   -0.30923E-04   239   0.642E-02    0.837E-02
RMM:   6    -0.671680559113E+02    0.28029E-04   -0.21556E-04   200   0.390E-02    0.197E-02
RMM:   7    -0.671680648338E+02   -0.89225E-05   -0.69799E-05   234   0.258E-02    0.215E-02
RMM:   8    -0.671680558929E+02    0.89409E-05   -0.26873E-05   169   0.148E-02    0.735E-03
RMM:   9    -0.671680567255E+02   -0.83260E-06   -0.32740E-06   170   0.820E-03
  62 F= -.67168057E+02 E0= -.67170016E+02  d E =-.272856E-02
       N       E                     dE             d eps       ncg     rms          rms(c)
DAV:   1    -0.669088766656E+02    0.25918E+00   -0.10286E+02   208   0.224E+01    0.121E+00
RMM:   2    -0.671105045898E+02   -0.20163E+00   -0.20778E+00   234   0.411E+00    0.371E-01
RMM:   3    -0.671683685540E+02   -0.57864E-01   -0.59381E-01   258   0.238E+00    0.346E-01
RMM:   4    -0.671729434882E+02   -0.45749E-02   -0.54354E-02   267   0.735E-01    0.333E-01
RMM:   5    -0.671728915866E+02    0.51902E-04   -0.35055E-03   248   0.211E-01    0.281E-01
RMM:   6    -0.671725769165E+02    0.31467E-03   -0.11652E-03   201   0.107E-01    0.102E-01
RMM:   7    -0.671726956281E+02   -0.11871E-03   -0.10891E-03   227   0.856E-02    0.772E-02
RMM:   8    -0.671726065371E+02    0.89091E-04   -0.13930E-04   207   0.513E-02    0.253E-02
RMM:   9    -0.671726152050E+02   -0.86679E-05   -0.20372E-04   190   0.406E-02    0.283E-02
RMM:  10    -0.671726030727E+02    0.12132E-04   -0.29411E-05   197   0.250E-02    0.856E-03
RMM:  11    -0.671726070601E+02   -0.39874E-05   -0.19422E-05   169   0.112E-02    0.143E-02
RMM:  12    -0.671726037903E+02    0.32697E-05   -0.68278E-06   176   0.102E-02    0.410E-03
RMM:  13    -0.671726039741E+02   -0.18383E-06   -0.31718E-06   165   0.513E-03
  63 F= -.67172604E+02 E0= -.67175618E+02  d E =-.727581E-02
       N       E                     dE             d eps       ncg     rms          rms(c)
DAV:   1    -0.671557273611E+02    0.16876E-01   -0.22546E+01   224   0.102E+01    0.629E-01
RMM:   2    -0.671724961923E+02   -0.16769E-01   -0.18059E-01   236   0.178E+00    0.188E-01
RMM:   3    -0.671767085596E+02   -0.42124E-02   -0.47151E-02   262   0.777E-01    0.175E-01
RMM:   4    -0.671770497954E+02   -0.34124E-03   -0.58941E-03   260   0.277E-01    0.170E-01
RMM:   5    -0.671769917658E+02    0.58030E-04   -0.52197E-04   236   0.878E-02    0.136E-01
RMM:   6    -0.671769291428E+02    0.62623E-04   -0.47953E-04   204   0.535E-02    0.330E-02
RMM:   7    -0.671769492574E+02   -0.20115E-04   -0.16054E-04   244   0.376E-02    0.288E-02
RMM:   8    -0.671769368200E+02    0.12437E-04   -0.76034E-05   185   0.226E-02    0.182E-02
RMM:   9    -0.671769360296E+02    0.79035E-06   -0.97404E-06   179   0.134E-02
  64 F= -.67176936E+02 E0= -.67180519E+02  d E =-.433206E-02
       N       E                     dE             d eps       ncg     rms          rms(c)
DAV:   1    -0.669684596490E+02    0.20848E+00   -0.82564E+01   208   0.206E+01    0.127E+00
RMM:   2    -0.671300949105E+02   -0.16164E+00   -0.16776E+00   236   0.404E+00    0.415E-01
RMM:   3    -0.671771585484E+02   -0.47064E-01   -0.48904E-01   258   0.228E+00    0.352E-01
RMM:   4    -0.671806222099E+02   -0.34637E-02   -0.44826E-02   269   0.709E-01    0.357E-01
RMM:   5    -0.671804711332E+02    0.15108E-03   -0.26844E-03   242   0.203E-01    0.296E-01
RMM:   6    -0.671801575977E+02    0.31354E-03   -0.16068E-03   202   0.119E-01    0.812E-02
RMM:   7    -0.671802607583E+02   -0.10316E-03   -0.88842E-04   236   0.858E-02    0.791E-02
RMM:   8    -0.671801857189E+02    0.75039E-04   -0.11823E-04   203   0.418E-02    0.268E-02
RMM:   9    -0.671801869181E+02   -0.11991E-05   -0.11745E-04   203   0.326E-02    0.109E-02
RMM:  10    -0.671801877079E+02   -0.78986E-06   -0.28668E-05   184   0.211E-02    0.215E-02
RMM:  11    -0.671801878504E+02   -0.14244E-06   -0.88246E-06   199   0.102E-02
  65 F= -.67180188E+02 E0= -.67185011E+02  d E =-.758388E-02
       N       E                     dE             d eps       ncg     rms          rms(c)
DAV:   1    -0.671220297592E+02    0.58158E-01   -0.26899E+01   208   0.118E+01    0.899E-01
RMM:   2    -0.671688710383E+02   -0.46841E-01   -0.49464E-01   234   0.242E+00    0.252E-01
RMM:   3    -0.671829315768E+02   -0.14061E-01   -0.14985E-01   257   0.133E+00    0.257E-01
RMM:   4    -0.671837559967E+02   -0.82442E-03   -0.15700E-02   267   0.442E-01    0.240E-01
RMM:   5    -0.671836130006E+02    0.14300E-03   -0.10710E-03   249   0.131E-01    0.191E-01
RMM:   6    -0.671834706097E+02    0.14239E-03   -0.14036E-03   196   0.912E-02    0.482E-02
RMM:   7    -0.671834839050E+02   -0.13295E-04   -0.28181E-04   252   0.590E-02    0.458E-02
RMM:   8    -0.671834433845E+02    0.40521E-04   -0.64152E-05   199   0.260E-02    0.162E-02
RMM:   9    -0.671834461042E+02   -0.27198E-05   -0.49982E-05   207   0.183E-02    0.524E-03
RMM:  10    -0.671834458545E+02    0.24974E-06   -0.11498E-05   164   0.110E-02    0.104E-02
RMM:  11    -0.671834454566E+02    0.39790E-06   -0.17823E-06   144   0.580E-03
  66 F= -.67183445E+02 E0= -.67189420E+02  d E =-.325761E-02
       N       E                     dE             d eps       ncg     rms          rms(c)
DAV:   1    -0.671779099963E+02    0.55359E-02   -0.29159E+00   224   0.382E+00    0.284E-01
RMM:   2    -0.671822923619E+02   -0.43824E-02   -0.46205E-02   235   0.788E-01    0.787E-02
RMM:   3    -0.671835841640E+02   -0.12918E-02   -0.13621E-02   252   0.403E-01    0.850E-02
RMM:   4    -0.671836754105E+02   -0.91246E-04   -0.17214E-03   265   0.149E-01    0.768E-02
RMM:   5    -0.671836578237E+02    0.17587E-04   -0.10954E-04   230   0.442E-02    0.598E-02
RMM:   6    -0.671836452744E+02    0.12549E-04   -0.17801E-04   193   0.326E-02    0.156E-02
RMM:   7    -0.671836453921E+02   -0.11773E-06   -0.26241E-05   224   0.191E-02    0.125E-02
RMM:   8    -0.671836420876E+02    0.33045E-05   -0.10511E-05   168   0.948E-03    0.556E-03
RMM:   9    -0.671836422778E+02   -0.19016E-06   -0.16974E-06   149   0.567E-03
  67 F= -.67183642E+02 E0= -.67190006E+02  d E =-.345443E-02
       N       E                     dE             d eps       ncg     rms          rms(c)
DAV:   1    -0.671654914444E+02    0.18151E-01   -0.88957E+00   208   0.767E+00    0.744E-01
RMM:   2    -0.671824749652E+02   -0.16984E-01   -0.18295E-01   234   0.169E+00    0.188E-01
RMM:   3    -0.671868132417E+02   -0.43383E-02   -0.47419E-02   255   0.856E-01    0.208E-01
RMM:   4    -0.671871369348E+02   -0.32369E-03   -0.65890E-03   262   0.307E-01    0.209E-01
RMM:   5    -0.671870331891E+02    0.10375E-03   -0.44358E-04   233   0.918E-02    0.165E-01
RMM:   6    -0.671869402647E+02    0.92924E-04   -0.78286E-04   201   0.655E-02    0.387E-02
RMM:   7    -0.671869590322E+02   -0.18768E-04   -0.18549E-04   252   0.431E-02    0.385E-02
RMM:   8    -0.671869342945E+02    0.24738E-04   -0.64149E-05   188   0.213E-02    0.135E-02
RMM:   9    -0.671869353933E+02   -0.10988E-05   -0.11197E-05   213   0.128E-02    0.377E-03
RMM:  10    -0.671869354104E+02   -0.17109E-07   -0.16060E-06   130   0.531E-03
  68 F= -.67186935E+02 E0= -.67193449E+02  d E =-.329313E-02
       N       E                     dE             d eps       ncg     rms          rms(c)
DAV:   1    -0.671806063221E+02    0.63291E-02   -0.30462E+00   224   0.450E+00    0.418E-01
RMM:   2    -0.671862531455E+02   -0.56468E-02   -0.60606E-02   236   0.970E-01    0.107E-01
RMM:   3    -0.671876447509E+02   -0.13916E-02   -0.15076E-02   254   0.480E-01    0.116E-01
RMM:   4    -0.671877422326E+02   -0.97482E-04   -0.20650E-03   264   0.174E-01    0.116E-01
RMM:   5    -0.671877040403E+02    0.38192E-04   -0.13818E-04   226   0.524E-02    0.899E-02
RMM:   6    -0.671876759900E+02    0.28050E-04   -0.28291E-04   199   0.391E-02    0.215E-02
RMM:   7    -0.671876809616E+02   -0.49716E-05   -0.56168E-05   234   0.239E-02    0.193E-02
RMM:   8    -0.671876746864E+02    0.62752E-05   -0.28878E-05   177   0.130E-02    0.106E-02
RMM:   9    -0.671876739770E+02    0.70943E-06   -0.27598E-06   164   0.791E-03
  69 F= -.67187674E+02 E0= -.67194267E+02  d E =-.403170E-02
       N       E                     dE             d eps       ncg     rms          rms(c)
DAV:   1    -0.671675444310E+02    0.20130E-01   -0.97477E+00   208   0.838E+00    0.755E-01
RMM:   2    -0.671875261862E+02   -0.19982E-01   -0.21577E-01   238   0.189E+00    0.206E-01
RMM:   3    -0.671918886062E+02   -0.43624E-02   -0.49696E-02   254   0.924E-01    0.226E-01
RMM:   4    -0.671923185290E+02   -0.42992E-03   -0.86239E-03   262   0.344E-01    0.215E-01
RMM:   5    -0.671921546715E+02    0.16386E-03   -0.63145E-04   230   0.104E-01    0.168E-01
RMM:   6    -0.671920325804E+02    0.12209E-03   -0.10189E-03   197   0.736E-02    0.421E-02
RMM:   7    -0.671920680099E+02   -0.35430E-04   -0.27306E-04   254   0.468E-02    0.408E-02
RMM:   8    -0.671920342009E+02    0.33809E-04   -0.13086E-04   188   0.255E-02    0.155E-02
RMM:   9    -0.671920335351E+02    0.66579E-06   -0.11477E-05   177   0.150E-02    0.461E-03
RMM:  10    -0.671920343191E+02   -0.78391E-06   -0.37564E-06   154   0.714E-03
  70 F= -.67192034E+02 E0= -.67199567E+02  d E =-.436034E-02
       N       E                     dE             d eps       ncg     rms          rms(c)
DAV:   1    -0.671699333719E+02    0.22100E-01   -0.95967E+00   224   0.815E+00    0.753E-01
RMM:   2    -0.671897088478E+02   -0.19775E-01   -0.21329E-01   238   0.185E+00    0.209E-01
RMM:   3    -0.671939981310E+02   -0.42893E-02   -0.48841E-02   255   0.912E-01    0.227E-01
RMM:   4    -0.671943676494E+02   -0.36952E-03   -0.83238E-03   258   0.338E-01    0.210E-01
RMM:   5    -0.671942138061E+02    0.15384E-03   -0.74011E-04   228   0.108E-01    0.168E-01
RMM:   6    -0.671940886092E+02    0.12520E-03   -0.86675E-04   198   0.701E-02    0.436E-02
RMM:   7    -0.671941301006E+02   -0.41491E-04   -0.29651E-04   242   0.468E-02    0.399E-02
RMM:   8    -0.671940987433E+02    0.31357E-04   -0.12808E-04   192   0.267E-02    0.180E-02
RMM:   9    -0.671940981872E+02    0.55606E-06   -0.11903E-05   182   0.156E-02    0.427E-03
RMM:  10    -0.671940988409E+02   -0.65372E-06   -0.39520E-06   155   0.701E-03
  71 F= -.67194099E+02 E0= -.67202501E+02  d E =-.642486E-02
       N       E                     dE             d eps       ncg     rms          rms(c)
DAV:   1    -0.671631817796E+02    0.30916E-01   -0.12693E+01   208   0.963E+00    0.960E-01
RMM:   2    -0.671911820100E+02   -0.28000E-01   -0.30082E-01   239   0.223E+00    0.277E-01
RMM:   3    -0.671974638551E+02   -0.62818E-02   -0.70491E-02   254   0.110E+00    0.282E-01
RMM:   4    -0.671980608547E+02   -0.59700E-03   -0.12905E-02   261   0.412E-01    0.281E-01
RMM:   5    -0.671978670158E+02    0.19384E-03   -0.78877E-04   236   0.120E-01    0.231E-01
RMM:   6    -0.671976512616E+02    0.21575E-03   -0.12852E-03   194   0.837E-02    0.569E-02
RMM:   7    -0.671977244975E+02   -0.73236E-04   -0.51208E-04   244   0.608E-02    0.645E-02
RMM:   8    -0.671976629904E+02    0.61507E-04   -0.14143E-04   192   0.303E-02    0.150E-02
RMM:   9    -0.671976662265E+02   -0.32361E-05   -0.30918E-05   217   0.180E-02    0.518E-03
RMM:  10    -0.671976673500E+02   -0.11236E-05   -0.37190E-06   171   0.839E-03    0.108E-02
RMM:  11    -0.671976667111E+02    0.63894E-06   -0.21287E-06   138   0.516E-03
  72 F= -.67197667E+02 E0= -.67206544E+02  d E =-.356787E-02
       N       E                     dE             d eps       ncg     rms          rms(c)
DAV:   1    -0.671966008855E+02    0.10665E-02   -0.47212E-01   224   0.184E+00    0.174E-01
RMM:   2    -0.671976059953E+02   -0.10051E-02   -0.10706E-02   239   0.415E-01    0.495E-02
RMM:   3    -0.671978175852E+02   -0.21159E-03   -0.23476E-03   252   0.198E-01    0.532E-02
RMM:   4    -0.671978335262E+02   -0.15941E-04   -0.40676E-04   257   0.759E-02    0.513E-02
RMM:   5    -0.671978257021E+02    0.78242E-05   -0.29553E-05   220   0.234E-02    0.418E-02
RMM:   6    -0.671978186591E+02    0.70429E-05   -0.64728E-05   179   0.184E-02    0.103E-02
RMM:   7    -0.671978203592E+02   -0.17000E-05   -0.14383E-05   207   0.115E-02    0.980E-03
RMM:   8    -0.671978190742E+02    0.12849E-05   -0.96381E-06   157   0.696E-03    0.609E-03
RMM:   9    -0.671978186550E+02    0.41920E-06   -0.12485E-06   130   0.470E-03
  73 F= -.67197819E+02 E0= -.67206773E+02  d E =-.371981E-02
       N       E                     dE             d eps       ncg     rms          rms(c)
DAV:   1    -0.671773318982E+02    0.20487E-01   -0.86607E+00   208   0.796E+00    0.754E-01
RMM:   2    -0.671953819321E+02   -0.18050E-01   -0.19399E-01   238   0.180E+00    0.218E-01
RMM:   3    -0.671993810176E+02   -0.39991E-02   -0.44712E-02   250   0.887E-01    0.231E-01
RMM:   4    -0.671998460969E+02   -0.46508E-03   -0.94470E-03   264   0.356E-01    0.223E-01
RMM:   5    -0.671997030707E+02    0.14303E-03   -0.52505E-04   231   0.103E-01    0.180E-01
RMM:   6    -0.671995831379E+02    0.11993E-03   -0.11278E-03   196   0.791E-02    0.460E-02
RMM:   7    -0.671996159565E+02   -0.32819E-04   -0.26776E-04   250   0.505E-02    0.468E-02
RMM:   8    -0.671995809963E+02    0.34960E-04   -0.13460E-04   190   0.272E-02    0.153E-02
RMM:   9    -0.671995805060E+02    0.49025E-06   -0.13033E-05   189   0.166E-02    0.393E-03
RMM:  10    -0.671995808042E+02   -0.29823E-06   -0.36876E-06   164   0.794E-03
  74 F= -.67199581E+02 E0= -.67209296E+02  d E =-.176215E-02
       N       E                     dE             d eps       ncg     rms          rms(c)
DAV:   1    -0.671995778967E+02    0.26093E-05   -0.27139E-03   224   0.140E-01    0.130E-02
RMM:   2    -0.671995833348E+02   -0.54381E-05   -0.55787E-05   222   0.307E-02    0.311E-03
RMM:   3    -0.671995847460E+02   -0.14111E-05   -0.15189E-05   218   0.158E-02    0.481E-03
RMM:   4    -0.671995847930E+02   -0.47017E-07   -0.23806E-06   132   0.702E-03
  75 F= -.67199585E+02 E0= -.67209313E+02  d E =-.176614E-02
       N       E                     dE             d eps       ncg     rms          rms(c)
DAV:   1    -0.671979524906E+02    0.16323E-02   -0.10789E+00   208   0.279E+00    0.224E-01
RMM:   2    -0.671998620898E+02   -0.19096E-02   -0.20339E-02   238   0.592E-01    0.575E-02
RMM:   3    -0.672003474452E+02   -0.48536E-03   -0.50687E-03   255   0.290E-01    0.629E-02
RMM:   4    -0.672004014278E+02   -0.53983E-04   -0.76062E-04   255   0.104E-01    0.568E-02
RMM:   5    -0.672003935674E+02    0.78604E-05   -0.43614E-05   226   0.300E-02    0.410E-02
RMM:   6    -0.672003903581E+02    0.32093E-05   -0.41729E-05   186   0.187E-02    0.142E-02
RMM:   7    -0.672003931021E+02   -0.27440E-05   -0.26741E-05   213   0.135E-02    0.141E-02
RMM:   8    -0.672003905109E+02    0.25912E-05   -0.32591E-06   156   0.676E-03    0.483E-03
RMM:   9    -0.672003912459E+02   -0.73502E-06   -0.10125E-05   168   0.650E-03    0.786E-03
RMM:  10    -0.672003903876E+02    0.85831E-06   -0.16039E-06   145   0.447E-03
  76 F= -.67200390E+02 E0= -.67210151E+02  d E =-.805595E-03
       N       E                     dE             d eps       ncg     rms          rms(c)
DAV:   1    -0.671992712008E+02    0.11200E-02   -0.60734E-01   224   0.209E+00    0.170E-01
RMM:   2    -0.672003437552E+02   -0.10726E-02   -0.11455E-02   238   0.443E-01    0.426E-02
RMM:   3    -0.672006173472E+02   -0.27359E-03   -0.28455E-03   255   0.216E-01    0.457E-02
RMM:   4    -0.672006474920E+02   -0.30145E-04   -0.42457E-04   251   0.778E-02    0.415E-02
RMM:   5    -0.672006432655E+02    0.42265E-05   -0.24414E-05   219   0.225E-02    0.297E-02
RMM:   6    -0.672006417044E+02    0.15611E-05   -0.22689E-05   175   0.140E-02    0.103E-02
RMM:   7    -0.672006430954E+02   -0.13909E-05   -0.13891E-05   195   0.990E-03    0.995E-03
RMM:   8    -0.672006417338E+02    0.13615E-05   -0.17874E-06   140   0.531E-03    0.327E-03
RMM:   9    -0.672006421533E+02   -0.41944E-06   -0.52412E-06   169   0.494E-03
  77 F= -.67200642E+02 E0= -.67210418E+02  d E =-.105736E-02
       N       E                     dE             d eps       ncg     rms          rms(c)
DAV:   1    -0.671979138955E+02    0.27278E-02   -0.13551E+00   208   0.311E+00    0.301E-01
RMM:   2    -0.672003894133E+02   -0.24755E-02   -0.26323E-02   233   0.691E-01    0.663E-02
RMM:   3    -0.672010731667E+02   -0.68375E-03   -0.72842E-03   252   0.353E-01    0.834E-02
RMM:   4    -0.672011400045E+02   -0.66838E-04   -0.12684E-03   261   0.135E-01    0.810E-02
RMM:   5    -0.672011288730E+02    0.11131E-04   -0.62651E-05   245   0.366E-02    0.708E-02
RMM:   6    -0.672011040488E+02    0.24824E-04   -0.10980E-04   192   0.268E-02    0.150E-02
RMM:   7    -0.672011125503E+02   -0.85015E-05   -0.55765E-05   224   0.193E-02    0.209E-02
RMM:   8    -0.672011060580E+02    0.64923E-05   -0.11025E-05   163   0.962E-03    0.561E-03
RMM:   9    -0.672011070423E+02   -0.98427E-06   -0.13384E-05   175   0.847E-03    0.492E-03
RMM:  10    -0.672011061798E+02    0.86245E-06   -0.27633E-06   154   0.583E-03
  78 F= -.67201106E+02 E0= -.67211059E+02  d E =-.464027E-03
       N       E                     dE             d eps       ncg     rms          rms(c)
DAV:   1    -0.672010891893E+02    0.17853E-04   -0.98597E-03   224   0.265E-01    0.235E-02
RMM:   2    -0.672011072370E+02   -0.18048E-04   -0.18693E-04   227   0.585E-02    0.496E-03
RMM:   3    -0.672011119197E+02   -0.46827E-05   -0.51742E-05   246   0.301E-02    0.794E-03
RMM:   4    -0.672011123383E+02   -0.41858E-06   -0.84568E-06   185   0.117E-02
  79 F= -.67201112E+02 E0= -.67211052E+02  d E =-.470185E-03
       N       E                     dE             d eps       ncg     rms          rms(c)
DAV:   1    -0.671987713817E+02    0.23405E-02   -0.13263E+00   208   0.296E+00    0.203E-01
RMM:   2    -0.672009286967E+02   -0.21573E-02   -0.22919E-02   237   0.610E-01    0.458E-02
RMM:   3    -0.672014850185E+02   -0.55632E-03   -0.57255E-03   254   0.300E-01    0.577E-02
RMM:   4    -0.672015607522E+02   -0.75734E-04   -0.95351E-04   254   0.112E-01    0.518E-02
RMM:   5    -0.672015523787E+02    0.83735E-05   -0.55104E-05   223   0.327E-02    0.420E-02
RMM:   6    -0.672015440052E+02    0.83735E-05   -0.52732E-05   184   0.208E-02    0.150E-02
RMM:   7    -0.672015486984E+02   -0.46932E-05   -0.33032E-05   212   0.148E-02    0.113E-02
RMM:   8    -0.672015454923E+02    0.32061E-05   -0.78666E-06   161   0.798E-03    0.345E-03
RMM:   9    -0.672015463960E+02   -0.90372E-06   -0.62321E-06   175   0.588E-03
  80 F= -.67201546E+02 E0= -.67211547E+02  d E =-.434058E-03
